<event>
 6    1  0.8353100E-006  0.2034139E+03  0.7546771E-02  0.1150812E+00
         -1   -1    0    0    0  501 -0.00000000000E+00  0.00000000000E+00  0.41563240760E+03  0.41563240760E+03  0.00000000000E+00 0.  1.
          1   -1    0    0  501    0  0.00000000000E+00 -0.00000000000E+00 -0.90926234606E+02  0.90926234606E+02  0.00000000000E+00 0. -1.
          5    1    1    2  502    0 -0.89886259667E+02  0.59363934438E+02  0.14575584796E+03  0.18130216105E+03  0.47000000000E+01 0. -1.
         -5    1    1    2    0  502 -0.69698695643E+02 -0.42466640135E+02  0.28599992961E+02  0.86610468744E+02  0.47000000000E+01 0. -1.
        -11    1    1    2    0    0  0.64407264745E+02  0.38389866797E+02  0.54549786674E+02  0.92724089917E+02  0.00000000000E+00 0.  1.
         11    1    1    2    0    0  0.95177690565E+02 -0.55287161100E+02  0.95800545398E+02  0.14592192249E+03  0.00000000000E+00 0. -1.
<mgrwt>
<rscale>  0 0.19873351E+03</rscale>
<asrwt>0</asrwt>
<pdfrwt beam="2">  1        1 0.13988652E-01 0.20341391E+03</pdfrwt>
<pdfrwt beam="1">  1       -1 0.63943446E-01 0.20341391E+03</pdfrwt>
<totfact> 0.10438776E+03</totfact>
</mgrwt>
</event>
<event>
 6    1  0.8353100E-006  0.2066363E+03  0.7546771E-02  0.1148199E+00
         -2   -1    0    0    0  501 -0.00000000000E+00  0.00000000000E+00  0.38294023765E+02  0.38294023765E+02  0.00000000000E+00 0.  1.
          2   -1    0    0  501    0  0.00000000000E+00 -0.00000000000E+00 -0.11396744788E+04  0.11396744788E+04  0.00000000000E+00 0. -1.
          5    1    1    2  502    0  0.27946708129E+02 -0.15532591161E+02 -0.27513572566E+02  0.42442508866E+02  0.47000000000E+01 0.  1.
         -5    1    1    2    0  502  0.70195345161E+02 -0.11653455029E+03 -0.73914465319E+03  0.75157474427E+03  0.47000000000E+01 0.  1.
        -11    1    1    2    0    0  0.12720709525E+02  0.83714558221E+01 -0.68397626666E+02  0.70072341598E+02  0.00000000000E+00 0. -1.
         11    1    1    2    0    0 -0.11086276282E+03  0.12369568563E+03 -0.26632460262E+03  0.31387890783E+03  0.00000000000E+00 0.  1.
<mgrwt>
<rscale>  0 0.20183621E+03</rscale>
<asrwt>0</asrwt>
<pdfrwt beam="2">  1        2 0.17533454E+00 0.20663631E+03</pdfrwt>
<pdfrwt beam="1">  1       -2 0.58913882E-02 0.20663631E+03</pdfrwt>
<totfact> 0.32789066E+03</totfact>
</mgrwt>
</event>
<event>
 6    1  0.8353100E-006  0.2364280E+03  0.7546771E-02  0.1122865E+00
         -2   -1    0    0    0  501 -0.00000000000E+00  0.00000000000E+00  0.69969645994E+02  0.69969645994E+02  0.00000000000E+00 0.  1.
          2   -1    0    0  501    0  0.00000000000E+00 -0.00000000000E+00 -0.12693527148E+04  0.12693527148E+04  0.00000000000E+00 0. -1.
          5    1    1    2  502    0 -0.18245374441E+03  0.58913947314E+02 -0.72162871599E+03  0.74667952682E+03  0.47000000000E+01 0.  1.
         -5    1    1    2    0  502 -0.16252104391E+02 -0.30829774783E+02 -0.29449598600E+03  0.29658823591E+03  0.47000000000E+01 0.  1.
        -11    1    1    2    0    0  0.53834787303E+01 -0.35029259930E+02 -0.49451053434E+02  0.60839440992E+02  0.00000000000E+00 0. -1.
         11    1    1    2    0    0  0.19332237007E+03  0.69450873989E+01 -0.13380731342E+03  0.23521515711E+03  0.00000000000E+00 0.  1.
<mgrwt>
<rscale>  0 0.23544444E+03</rscale>
<asrwt>0</asrwt>
<pdfrwt beam="2">  1        2 0.19528504E+00 0.23642803E+03</pdfrwt>
<pdfrwt beam="1">  1       -2 0.10764560E-01 0.23642803E+03</pdfrwt>
<totfact> 0.10798552E+03</totfact>
</mgrwt>
</event>
<event>
 6    1  0.8353100E-006  0.1413927E+03  0.7546771E-02  0.1221973E+00
          1   -1    0    0  501    0  0.00000000000E+00  0.00000000000E+00  0.11333928990E+03  0.11333928990E+03  0.00000000000E+00 0. -1.
         -1   -1    0    0    0  501 -0.00000000000E+00 -0.00000000000E+00 -0.15076413755E+03  0.15076413755E+03  0.00000000000E+00 0.  1.
          5    1    1    2  502    0  0.16405477741E+02 -0.38449581301E+02  0.24281664832E+02  0.48571588909E+02  0.47000000000E+01 0. -1.
         -5    1    1    2    0  502 -0.82470736418E+02  0.40167333682E+02 -0.15246530546E+02  0.93109525582E+02  0.47000000000E+01 0. -1.
        -11    1    1    2    0    0  0.76796109635E+02 -0.22884094082E+02 -0.12665594192E+02  0.81127932879E+02  0.00000000000E+00 0. -1.
         11    1    1    2    0    0 -0.10730850958E+02  0.21166341702E+02 -0.33794387741E+02  0.41294380079E+02  0.00000000000E+00 0.  1.
<mgrwt>
<rscale>  0 0.13376519E+03</rscale>
<asrwt>0</asrwt>
<pdfrwt beam="1">  1        1 0.17436814E-01 0.14139273E+03</pdfrwt>
<pdfrwt beam="2">  1       -1 0.23194483E-01 0.14139273E+03</pdfrwt>
<totfact> 0.46226590E+03</totfact>
</mgrwt>
</event>
<event>
 6    1  0.8353100E-006  0.3447283E+03  0.7546771E-02  0.1064800E+00
          1   -1    0    0  501    0  0.00000000000E+00  0.00000000000E+00  0.16135684927E+04  0.16135684927E+04  0.00000000000E+00 0. -1.
         -1   -1    0    0    0  501 -0.00000000000E+00 -0.00000000000E+00 -0.18412231466E+02  0.18412231466E+02  0.00000000000E+00 0.  1.
          5    1    1    2  502    0  0.75987996422E+02 -0.77979686442E+02  0.81629379616E+03  0.82353667723E+03  0.47000000000E+01 0. -1.
         -5    1    1    2    0  502 -0.64945836398E+01  0.28141466131E+02  0.52234427530E+03  0.52316321896E+03  0.47000000000E+01 0.  1.
        -11    1    1    2    0    0 -0.31748750949E+02  0.34456473141E+02  0.31165380397E+02  0.56271775016E+02  0.00000000000E+00 0.  1.
         11    1    1    2    0    0 -0.37744661833E+02  0.15381747170E+02  0.22535280937E+03  0.22900905296E+03  0.00000000000E+00 0. -1.
<mgrwt>
<rscale>  0 0.34472828E+03</rscale>
<asrwt>0</asrwt>
<pdfrwt beam="1">  1        1 0.24824120E+00 0.34472828E+03</pdfrwt>
<pdfrwt beam="2">  1       -1 0.28326523E-02 0.34472828E+03</pdfrwt>
<totfact> 0.24716574E+03</totfact>
</mgrwt>
</event>
<event>
 6    1  0.8353100E-006  0.1525639E+03  0.7546771E-02  0.1205910E+00
          2   -1    0    0  501    0  0.00000000000E+00  0.00000000000E+00  0.55124718591E+03  0.55124718591E+03  0.00000000000E+00 0. -1.
         -2   -1    0    0    0  501 -0.00000000000E+00 -0.00000000000E+00 -0.35853508274E+02  0.35853508274E+02  0.00000000000E+00 0.  1.
          5    1    1    2  502    0 -0.39927194999E+02 -0.87058269070E+02  0.19985922349E+03  0.22167345878E+03  0.47000000000E+01 0. -1.
         -5    1    1    2    0  502 -0.35935326773E+02  0.43552393607E+02  0.11471453456E+03  0.12794402346E+03  0.47000000000E+01 0. -1.
        -11    1    1    2    0    0  0.53993038426E+02 -0.20431049971E+02  0.11063619445E+03  0.12479200104E+03  0.00000000000E+00 0. -1.
         11    1    1    2    0    0  0.21869483346E+02  0.63936925433E+02  0.90183725135E+02  0.11269121090E+03  0.00000000000E+00 0.  1.
<mgrwt>
<rscale>  0 0.14565974E+03</rscale>
<asrwt>0</asrwt>
<pdfrwt beam="1">  1        2 0.84807253E-01 0.15256387E+03</pdfrwt>
<pdfrwt beam="2">  1       -2 0.55159247E-02 0.15256387E+03</pdfrwt>
<totfact> 0.90299923E+03</totfact>
</mgrwt>
</event>
<event>
 6    1  0.8353100E-006  0.1258240E+03  0.7546771E-02  0.1250180E+00
         -2   -1    0    0    0  501 -0.00000000000E+00  0.00000000000E+00  0.63349085757E+01  0.63349085757E+01  0.00000000000E+00 0.  1.
          2   -1    0    0  501    0  0.00000000000E+00 -0.00000000000E+00 -0.29868319375E+04  0.29868319375E+04  0.00000000000E+00 0. -1.
          5    1    1    2  502    0 -0.40585169511E+02  0.49514810916E+02 -0.14828233634E+04  0.14842122792E+04  0.47000000000E+01 0. -1.
         -5    1    1    2    0  502  0.26963775577E+02 -0.54026548499E+02 -0.10769386379E+04  0.10786402704E+04  0.47000000000E+01 0. -1.
        -11    1    1    2    0    0  0.50991065661E+02  0.87197323651E+01 -0.21212509936E+03  0.21834188853E+03  0.00000000000E+00 0.  1.
         11    1    1    2    0    0 -0.37369671727E+02 -0.42079947812E+01 -0.20860992827E+03  0.21197240801E+03  0.00000000000E+00 0. -1.
<mgrwt>
<rscale>  0 0.11580667E+03</rscale>
<asrwt>0</asrwt>
<pdfrwt beam="2">  1        2 0.45951369E+00 0.12582403E+03</pdfrwt>
<pdfrwt beam="1">  1       -2 0.97459902E-03 0.12582403E+03</pdfrwt>
<totfact> 0.47347453E+03</totfact>
</mgrwt>
</event>
<event>
 6    1  0.8353100E-006  0.1252585E+03  0.7546771E-02  0.1249763E+00
         -2   -1    0    0    0  501 -0.00000000000E+00  0.00000000000E+00  0.99631439425E+01  0.99631439425E+01  0.00000000000E+00 0. -1.
          2   -1    0    0  501    0  0.00000000000E+00 -0.00000000000E+00 -0.13175912424E+04  0.13175912424E+04  0.00000000000E+00 0.  1.
          5    1    1    2  502    0  0.40420626442E+02  0.59312060303E+01 -0.79846771518E+03  0.79952597734E+03  0.47000000000E+01 0. -1.
         -5    1    1    2    0  502 -0.45158077919E+02 -0.12476319586E+02 -0.15106347193E+03  0.15823139101E+03  0.47000000000E+01 0. -1.
        -11    1    1    2    0    0 -0.34746309391E+02 -0.20413903249E+02 -0.21994330184E+03  0.22360476177E+03  0.00000000000E+00 0.  1.
         11    1    1    2    0    0  0.39483760868E+02  0.26959016805E+02 -0.13815360954E+03  0.14619225626E+03  0.00000000000E+00 0. -1.
<mgrwt>
<rscale>  0 0.11604802E+03</rscale>
<asrwt>0</asrwt>
<pdfrwt beam="2">  1        2 0.20270619E+00 0.12525854E+03</pdfrwt>
<pdfrwt beam="1">  1       -2 0.15327926E-02 0.12525854E+03</pdfrwt>
<totfact> 0.18762302E+04</totfact>
</mgrwt>
</event>
<event>
 6    1  0.8353100E-006  0.1356950E+03  0.7546771E-02  0.1230897E+00
         -2   -1    0    0    0  501 -0.00000000000E+00  0.00000000000E+00  0.34931862640E+02  0.34931862640E+02  0.00000000000E+00 0. -1.
          2   -1    0    0  501    0  0.00000000000E+00 -0.00000000000E+00 -0.15313877697E+04  0.15313877697E+04  0.00000000000E+00 0.  1.
          5    1    1    2  502    0  0.28394629125E+02 -0.76852818677E+02 -0.13012286358E+04  0.13038138914E+04  0.47000000000E+01 0.  1.
         -5    1    1    2    0  502 -0.20838250123E+02  0.24582545202E+02 -0.13770110819E+03  0.14149989185E+03  0.47000000000E+01 0.  1.
        -11    1    1    2    0    0  0.25492492664E+02 -0.12926536305E+02 -0.33560379882E+02  0.44082441185E+02  0.00000000000E+00 0.  1.
         11    1    1    2    0    0 -0.33048871665E+02  0.65196809780E+02 -0.23965783181E+02  0.76923407928E+02  0.00000000000E+00 0. -1.
<mgrwt>
<rscale>  0 0.12770758E+03</rscale>
<asrwt>0</asrwt>
<pdfrwt beam="2">  1        2 0.23559811E+00 0.13569497E+03</pdfrwt>
<pdfrwt beam="1">  1       -2 0.53741330E-02 0.13569497E+03</pdfrwt>
<totfact> 0.23016579E+03</totfact>
</mgrwt>
</event>
<event>
 6    1  0.8353100E-006  0.1365366E+03  0.7546771E-02  0.1229985E+00
          2   -1    0    0  501    0  0.00000000000E+00  0.00000000000E+00  0.72359318385E+03  0.72359318385E+03  0.00000000000E+00 0. -1.
         -2   -1    0    0    0  501 -0.00000000000E+00 -0.00000000000E+00 -0.21628162504E+02  0.21628162504E+02  0.00000000000E+00 0.  1.
          5    1    1    2  502    0 -0.37390965068E+02 -0.68182129004E+01  0.26785910853E+03  0.27058300819E+03  0.47000000000E+01 0.  1.
         -5    1    1    2    0  502  0.79898625207E+02 -0.27962093683E+02  0.21202970207E+03  0.22835138177E+03  0.47000000000E+01 0.  1.
        -11    1    1    2    0    0  0.18989820824E+02  0.28877499006E+02  0.13607453442E+03  0.14039516431E+03  0.00000000000E+00 0.  1.
         11    1    1    2    0    0 -0.61497480964E+02  0.59028075778E+01  0.86001676315E+02  0.10589179209E+03  0.00000000000E+00 0. -1.
<mgrwt>
<rscale>  0 0.12831008E+03</rscale>
<asrwt>0</asrwt>
<pdfrwt beam="1">  1        2 0.11132201E+00 0.13653664E+03</pdfrwt>
<pdfrwt beam="2">  1       -2 0.33274102E-02 0.13653664E+03</pdfrwt>
<totfact> 0.13917552E+04</totfact>
</mgrwt>
</event>
<event>
 6    1  0.8353100E-006  0.1835597E+03  0.7546771E-02  0.1169632E+00
          2   -1    0    0  501    0  0.00000000000E+00  0.00000000000E+00  0.51144243544E+02  0.51144243544E+02  0.00000000000E+00 0. -1.
         -2   -1    0    0    0  501 -0.00000000000E+00 -0.00000000000E+00 -0.63268421376E+03  0.63268421376E+03  0.00000000000E+00 0.  1.
          5    1    1    2  502    0 -0.58445999985E+02  0.78496860087E+01 -0.12204921466E+03  0.13563057651E+03  0.47000000000E+01 0. -1.
         -5    1    1    2    0  502  0.12191575133E+01  0.11378523280E+03 -0.92453564487E+02  0.14669123060E+03  0.47000000000E+01 0. -1.
        -11    1    1    2    0    0  0.81580599422E+02 -0.90210402762E+02 -0.25252902141E+03  0.28029309236E+03  0.00000000000E+00 0. -1.
         11    1    1    2    0    0 -0.24353756950E+02 -0.31424516043E+02 -0.11450816965E+03  0.12121355784E+03  0.00000000000E+00 0.  1.
<mgrwt>
<rscale>  0 0.17812336E+03</rscale>
<asrwt>0</asrwt>
<pdfrwt beam="1">  1        2 0.78683447E-02 0.18355969E+03</pdfrwt>
<pdfrwt beam="2">  1       -2 0.97336038E-01 0.18355969E+03</pdfrwt>
<totfact> 0.78372860E+02</totfact>
</mgrwt>
</event>
<event>
 6    1  0.8353100E-006  0.1329390E+03  0.7546771E-02  0.1238613E+00
         -1   -1    0    0    0  501 -0.00000000000E+00  0.00000000000E+00  0.24697414997E+02  0.24697414997E+02  0.00000000000E+00 0.  1.
          1   -1    0    0  501    0  0.00000000000E+00 -0.00000000000E+00 -0.66402993895E+03  0.66402993895E+03  0.00000000000E+00 0. -1.
          5    1    1    2  502    0 -0.12768044394E+02  0.63436321447E+02 -0.20410635189E+03  0.21416975211E+03  0.47000000000E+01 0. -1.
         -5    1    1    2    0  502 -0.32053033638E+02 -0.57096854640E+02 -0.30720827605E+03  0.31414401578E+03  0.47000000000E+01 0. -1.
        -11    1    1    2    0    0 -0.45231268308E+01 -0.18991204115E+02  0.30824988084E+01  0.19764268491E+02  0.00000000000E+00 0. -1.
         11    1    1    2    0    0  0.49344204863E+02  0.12651737308E+02 -0.13110039483E+03  0.14064931758E+03  0.00000000000E+00 0.  1.
<mgrwt>
<rscale>  0 0.12275965E+03</rscale>
<asrwt>0</asrwt>
<pdfrwt beam="2">  1        1 0.10215845E+00 0.13293904E+03</pdfrwt>
<pdfrwt beam="1">  1       -1 0.37996023E-02 0.13293904E+03</pdfrwt>
<totfact> 0.77605889E+03</totfact>
</mgrwt>
</event>
<event>
 6    1  0.8353100E-006  0.1616723E+03  0.7546771E-02  0.1194025E+00
          2   -1    0    0  501    0  0.00000000000E+00  0.00000000000E+00  0.42837860463E+03  0.42837860463E+03  0.00000000000E+00 0. -1.
         -2   -1    0    0    0  501 -0.00000000000E+00 -0.00000000000E+00 -0.74111688751E+02  0.74111688751E+02  0.00000000000E+00 0.  1.
          5    1    1    2  502    0  0.75211225980E+02  0.57515337366E+02  0.29412924221E+03  0.30902887190E+03  0.47000000000E+01 0. -1.
         -5    1    1    2    0  502 -0.27499121864E+02  0.33230802241E+02  0.28703802522E+02  0.52023900278E+02  0.47000000000E+01 0. -1.
        -11    1    1    2    0    0 -0.63455100998E+02 -0.33341332407E+02 -0.46468932754E+01  0.71831663676E+02  0.00000000000E+00 0.  1.
         11    1    1    2    0    0  0.15742996882E+02 -0.57404807200E+02  0.36080764423E+02  0.69605857525E+02  0.00000000000E+00 0. -1.
<mgrwt>
<rscale>  0 0.15537029E+03</rscale>
<asrwt>0</asrwt>
<pdfrwt beam="1">  1        2 0.65904399E-01 0.16167229E+03</pdfrwt>
<pdfrwt beam="2">  1       -2 0.11401799E-01 0.16167229E+03</pdfrwt>
<totfact> 0.38766423E+03</totfact>
</mgrwt>
</event>
<event>
 6    1  0.8353100E-006  0.1350465E+03  0.7546771E-02  0.1232504E+00
          1   -1    0    0  501    0  0.00000000000E+00  0.00000000000E+00  0.42957020336E+03  0.42957020336E+03  0.00000000000E+00 0. -1.
         -1   -1    0    0    0  501 -0.00000000000E+00 -0.00000000000E+00 -0.36006278214E+02  0.36006278214E+02  0.00000000000E+00 0.  1.
          5    1    1    2  502    0 -0.41809399661E+02  0.57057673694E+01  0.79826300254E+02  0.90415208308E+02  0.47000000000E+01 0.  1.
         -5    1    1    2    0  502  0.87914910357E+02 -0.27749412610E+02  0.20250629216E+03  0.22255325144E+03  0.47000000000E+01 0.  1.
        -11    1    1    2    0    0 -0.69782674974E+02  0.81033145855E+01  0.52285979970E+02  0.87573449945E+02  0.00000000000E+00 0.  1.
         11    1    1    2    0    0  0.23677164278E+02  0.13940330655E+02  0.58945352764E+02  0.65034571879E+02  0.00000000000E+00 0. -1.
<mgrwt>
<rscale>  0 0.12665562E+03</rscale>
<asrwt>0</asrwt>
<pdfrwt beam="1">  1        1 0.66087720E-01 0.13504653E+03</pdfrwt>
<pdfrwt beam="2">  1       -1 0.55394277E-02 0.13504653E+03</pdfrwt>
<totfact> 0.79405699E+03</totfact>
</mgrwt>
</event>
<event>
 6    1  0.8353100E-006  0.1493865E+03  0.7546771E-02  0.1221993E+00
          2   -1    0    0  501    0  0.00000000000E+00  0.00000000000E+00  0.11101000635E+04  0.11101000635E+04  0.00000000000E+00 0. -1.
         -2   -1    0    0    0  501 -0.00000000000E+00 -0.00000000000E+00 -0.15209794490E+02  0.15209794490E+02  0.00000000000E+00 0.  1.
          5    1    1    2  502    0 -0.38654605593E+02  0.25889248593E+02  0.61008888662E+03  0.61187823241E+03  0.47000000000E+01 0. -1.
         -5    1    1    2    0  502  0.69332168539E+02 -0.21464810908E+02  0.22487753621E+03  0.23634653371E+03  0.47000000000E+01 0.  1.
        -11    1    1    2    0    0  0.18841621687E+02  0.25283373845E+02  0.14594383725E+03  0.14931128333E+03  0.00000000000E+00 0.  1.
         11    1    1    2    0    0 -0.49519184634E+02 -0.29707811530E+02  0.11398000897E+03  0.12777380858E+03  0.00000000000E+00 0. -1.
<mgrwt>
<rscale>  0 0.13375185E+03</rscale>
<asrwt>0</asrwt>
<pdfrwt beam="1">  1        2 0.17078456E+00 0.14938650E+03</pdfrwt>
<pdfrwt beam="2">  1       -2 0.23399693E-02 0.14938650E+03</pdfrwt>
<totfact> 0.13368626E+04</totfact>
</mgrwt>
</event>
<event>
 6    1  0.8353100E-006  0.1354746E+03  0.7546771E-02  0.1232029E+00
          2   -1    0    0  501    0  0.00000000000E+00  0.00000000000E+00  0.88080339821E+03  0.88080339821E+03  0.00000000000E+00 0.  1.
         -2   -1    0    0    0  501 -0.00000000000E+00 -0.00000000000E+00 -0.17594278196E+02  0.17594278196E+02  0.00000000000E+00 0. -1.
          5    1    1    2  502    0 -0.22522889259E+02  0.31958294122E+02  0.68896318807E+02  0.79356196034E+02  0.47000000000E+01 0.  1.
         -5    1    1    2    0  502 -0.14727488154E+02 -0.68423714348E+02  0.53310961816E+03  0.53770499213E+03  0.47000000000E+01 0.  1.
        -11    1    1    2    0    0 -0.11581095967E+02  0.36564365024E+02  0.42499229512E+02  0.57247350005E+02  0.00000000000E+00 0. -1.
         11    1    1    2    0    0  0.48831473380E+02 -0.98944797742E-01  0.21870395354E+03  0.22408913823E+03  0.00000000000E+00 0.  1.
<mgrwt>
<rscale>  0 0.12696578E+03</rscale>
<asrwt>0</asrwt>
<pdfrwt beam="1">  1        2 0.13550818E+00 0.13547458E+03</pdfrwt>
<pdfrwt beam="2">  1       -2 0.27068127E-02 0.13547458E+03</pdfrwt>
<totfact> 0.14752479E+04</totfact>
</mgrwt>
</event>
<event>
 6    1  0.8353100E-006  0.1268409E+03  0.7546771E-02  0.1246857E+00
          1   -1    0    0  501    0  0.00000000000E+00  0.00000000000E+00  0.99070690754E+03  0.99070690754E+03  0.00000000000E+00 0. -1.
         -1   -1    0    0    0  501 -0.00000000000E+00 -0.00000000000E+00 -0.12357857232E+02  0.12357857232E+02  0.00000000000E+00 0.  1.
          5    1    1    2  502    0  0.85799673531E+01  0.62282167506E+02  0.23825506090E+03  0.24645536771E+03  0.47000000000E+01 0.  1.
         -5    1    1    2    0  502 -0.28498495653E+02 -0.54170261195E+02  0.34678465710E+03  0.35217647544E+03  0.47000000000E+01 0.  1.
        -11    1    1    2    0    0  0.31820007291E+02 -0.40823161885E+02  0.30760668501E+03  0.31193094761E+03  0.00000000000E+00 0. -1.
         11    1    1    2    0    0 -0.11901478991E+02  0.32711255575E+02  0.85702647302E+02  0.92501974022E+02  0.00000000000E+00 0.  1.
<mgrwt>
<rscale>  0 0.11774918E+03</rscale>
<asrwt>0</asrwt>
<pdfrwt beam="1">  1        1 0.15241638E+00 0.12684089E+03</pdfrwt>
<pdfrwt beam="2">  1       -1 0.19012096E-02 0.12684089E+03</pdfrwt>
<totfact> 0.11497539E+04</totfact>
</mgrwt>
</event>
<event>
 6    1  0.8353100E-006  0.1328485E+03  0.7546771E-02  0.1236006E+00
         -1   -1    0    0    0  501 -0.00000000000E+00  0.00000000000E+00  0.35989429179E+02  0.35989429179E+02  0.00000000000E+00 0.  1.
          1   -1    0    0  501    0  0.00000000000E+00 -0.00000000000E+00 -0.43040811878E+03  0.43040811878E+03  0.00000000000E+00 0. -1.
          5    1    1    2  502    0  0.31874192039E+02 -0.16656114845E+02 -0.29584503104E+03  0.29805999845E+03  0.47000000000E+01 0.  1.
         -5    1    1    2    0  502 -0.11807395490E+02 -0.23602429860E+02 -0.62443392678E+00  0.26813601050E+02  0.47000000000E+01 0.  1.
        -11    1    1    2    0    0  0.15650044809E+02 -0.50012272797E+01 -0.79215560335E+02  0.80901428764E+02  0.00000000000E+00 0. -1.
         11    1    1    2    0    0 -0.35716841358E+02  0.45259771985E+02 -0.18733664294E+02  0.60622519699E+02  0.00000000000E+00 0.  1.
<mgrwt>
<rscale>  0 0.12440242E+03</rscale>
<asrwt>0</asrwt>
<pdfrwt beam="2">  1        1 0.66216636E-01 0.13284845E+03</pdfrwt>
<pdfrwt beam="1">  1       -1 0.55368350E-02 0.13284845E+03</pdfrwt>
<totfact> 0.79180033E+03</totfact>
</mgrwt>
</event>
<event>
 6    1  0.8353100E-006  0.2655656E+03  0.7546771E-02  0.1105707E+00
         -1   -1    0    0    0  501 -0.00000000000E+00  0.00000000000E+00  0.11020956380E+03  0.11020956380E+03  0.00000000000E+00 0.  1.
          1   -1    0    0  501    0  0.00000000000E+00 -0.00000000000E+00 -0.61122351554E+03  0.61122351554E+03  0.00000000000E+00 0. -1.
          5    1    1    2  502    0 -0.37122701003E+02  0.67389916815E+02 -0.13526086647E+03  0.15568265098E+03  0.47000000000E+01 0.  1.
         -5    1    1    2    0  502  0.48058035894E+02  0.16666399336E+03 -0.10749741494E+03  0.20411821505E+03  0.47000000000E+01 0.  1.
        -11    1    1    2    0    0 -0.34435874675E+02 -0.19202100273E+03 -0.16036170987E+03  0.25253469652E+03  0.00000000000E+00 0.  1.
         11    1    1    2    0    0  0.23500539783E+02 -0.42032907445E+02 -0.97893960445E+02  0.10909751679E+03  0.00000000000E+00 0. -1.
<mgrwt>
<rscale>  0 0.26240417E+03</rscale>
<asrwt>0</asrwt>
<pdfrwt beam="2">  1        1 0.94034390E-01 0.26556559E+03</pdfrwt>
<pdfrwt beam="1">  1       -1 0.16955317E-01 0.26556559E+03</pdfrwt>
<totfact> 0.90639292E+02</totfact>
</mgrwt>
</event>
<event>
 6    1  0.8353100E-006  0.1522159E+03  0.7546771E-02  0.1206035E+00
         -1   -1    0    0    0  501 -0.00000000000E+00  0.00000000000E+00  0.12031490074E+03  0.12031490074E+03  0.00000000000E+00 0.  1.
          1   -1    0    0  501    0  0.00000000000E+00 -0.00000000000E+00 -0.18383892701E+03  0.18383892701E+03  0.00000000000E+00 0. -1.
          5    1    1    2  502    0 -0.21013717258E+02 -0.69396354003E+02  0.64085502626E+01  0.72942372996E+02  0.47000000000E+01 0.  1.
         -5    1    1    2    0  502  0.39671266877E+02 -0.15439468435E+02 -0.92497832613E+02  0.10193196574E+03  0.47000000000E+01 0.  1.
        -11    1    1    2    0    0  0.16347048247E+02  0.60167975497E+02 -0.23272154169E+02  0.66550765747E+02  0.00000000000E+00 0. -1.
         11    1    1    2    0    0 -0.35004597866E+02  0.24667846940E+02  0.45837410252E+02  0.62728723270E+02  0.00000000000E+00 0.  1.
<mgrwt>
<rscale>  0 0.14556190E+03</rscale>
<asrwt>0</asrwt>
<pdfrwt beam="2">  1        1 0.28282912E-01 0.15221587E+03</pdfrwt>
<pdfrwt beam="1">  1       -1 0.18509985E-01 0.15221587E+03</pdfrwt>
<totfact> 0.36205892E+03</totfact>
</mgrwt>
</event>
<event>
 6    1  0.8353100E-006  0.1750358E+03  0.7546771E-02  0.1185321E+00
         -2   -1    0    0    0  501 -0.00000000000E+00  0.00000000000E+00  0.17692416736E+02  0.17692416736E+02  0.00000000000E+00 0.  1.
          2   -1    0    0  501    0  0.00000000000E+00 -0.00000000000E+00 -0.16601021749E+04  0.16601021749E+04  0.00000000000E+00 0. -1.
          5    1    1    2  502    0  0.51773971741E+02  0.13360681990E+02 -0.11910135460E+04  0.11922224661E+04  0.47000000000E+01 0. -1.
         -5    1    1    2    0  502  0.36144149474E+02  0.28199612220E+02 -0.94337158303E+02  0.10499146207E+03  0.47000000000E+01 0.  1.
        -11    1    1    2    0    0 -0.37434877313E+02  0.23789152557E+02 -0.79949170968E+02  0.91428462512E+02  0.00000000000E+00 0. -1.
         11    1    1    2    0    0 -0.50483243902E+02 -0.65349446767E+02 -0.27710988289E+03  0.28915220094E+03  0.00000000000E+00 0.  1.
<mgrwt>
<rscale>  0 0.16302685E+03</rscale>
<asrwt>0</asrwt>
<pdfrwt beam="2">  1        2 0.25540043E+00 0.17503583E+03</pdfrwt>
<pdfrwt beam="1">  1       -2 0.27219093E-02 0.17503583E+03</pdfrwt>
<totfact> 0.54504969E+03</totfact>
</mgrwt>
</event>
<event>
 6    1  0.8353100E-006  0.1397671E+03  0.7546771E-02  0.1224566E+00
         -2   -1    0    0    0  501 -0.00000000000E+00  0.00000000000E+00  0.58847498772E+02  0.58847498772E+02  0.00000000000E+00 0.  1.
          2   -1    0    0  501    0  0.00000000000E+00 -0.00000000000E+00 -0.27263610605E+03  0.27263610605E+03  0.00000000000E+00 0. -1.
          5    1    1    2  502    0  0.81586058440E+02 -0.31437241728E+02 -0.47326743268E+02  0.99531380617E+02  0.47000000000E+01 0. -1.
         -5    1    1    2    0  502 -0.30670085696E+02 -0.48530456306E+01 -0.94537976370E+02  0.99617895906E+02  0.47000000000E+01 0. -1.
        -11    1    1    2    0    0 -0.54356363567E+02  0.50451346454E+02 -0.17779573352E+02  0.76263135576E+02  0.00000000000E+00 0.  1.
         11    1    1    2    0    0  0.34403908238E+01 -0.14161059096E+02 -0.54144314286E+02  0.56071192722E+02  0.00000000000E+00 0. -1.
<mgrwt>
<rscale>  0 0.13196693E+03</rscale>
<asrwt>0</asrwt>
<pdfrwt beam="2">  1        2 0.41944016E-01 0.13976708E+03</pdfrwt>
<pdfrwt beam="1">  1       -2 0.90534614E-02 0.13976708E+03</pdfrwt>
<totfact> 0.89575315E+03</totfact>
</mgrwt>
</event>
<event>
 6    1  0.8353100E-006  0.5764485E+03  0.7546771E-02  0.9955510E-01
          2   -1    0    0  501    0  0.00000000000E+00  0.00000000000E+00  0.81929203073E+03  0.81929203073E+03  0.00000000000E+00 0. -1.
         -2   -1    0    0    0  501 -0.00000000000E+00 -0.00000000000E+00 -0.10139634471E+03  0.10139634471E+03  0.00000000000E+00 0.  1.
          5    1    1    2  502    0 -0.17734871525E+02 -0.27929701739E+02  0.39736039768E+03  0.39876304938E+03  0.47000000000E+01 0. -1.
         -5    1    1    2    0  502 -0.13341478756E+02  0.93394446533E+02  0.38009873039E+03  0.39166012376E+03  0.47000000000E+01 0.  1.
        -11    1    1    2    0    0 -0.24684187084E+02 -0.44968033337E+02 -0.86431834130E+01  0.52020551071E+02  0.00000000000E+00 0. -1.
         11    1    1    2    0    0  0.55760537365E+02 -0.20496711456E+02 -0.50920258637E+02  0.78244651238E+02  0.00000000000E+00 0.  1.
<mgrwt>
<rscale>  0 0.57644850E+03</rscale>
<asrwt>0</asrwt>
<pdfrwt beam="1">  1        2 0.12604492E+00 0.57644850E+03</pdfrwt>
<pdfrwt beam="2">  1       -2 0.15599438E-01 0.57644850E+03</pdfrwt>
<totfact> 0.10994105E+03</totfact>
</mgrwt>
</event>
<event>
 6    1  0.8353100E-006  0.1280657E+03  0.7546771E-02  0.1245301E+00
         -3   -1    0    0    0  501 -0.00000000000E+00  0.00000000000E+00  0.20890283538E+02  0.20890283538E+02  0.00000000000E+00 0.  1.
          3   -1    0    0  501    0  0.00000000000E+00 -0.00000000000E+00 -0.61690185101E+03  0.61690185101E+03  0.00000000000E+00 0. -1.
          5    1    1    2  502    0 -0.49851415430E+02  0.45002809632E+01 -0.20642327640E+03  0.21245723144E+03  0.47000000000E+01 0. -1.
         -5    1    1    2    0  502  0.71616917686E+02 -0.21996304514E+02 -0.19764435447E+03  0.21141949098E+03  0.47000000000E+01 0. -1.
        -11    1    1    2    0    0 -0.66815661730E+01  0.48011569655E+02 -0.16019119862E+03  0.16736479398E+03  0.00000000000E+00 0. -1.
         11    1    1    2    0    0 -0.15083936083E+02 -0.30515546104E+02 -0.31752737980E+02  0.46550618159E+02  0.00000000000E+00 0.  1.
<mgrwt>
<rscale>  0 0.11867356E+03</rscale>
<asrwt>0</asrwt>
<pdfrwt beam="2">  1        3 0.94907964E-01 0.12806571E+03</pdfrwt>
<pdfrwt beam="1">  1       -3 0.32138902E-02 0.12806571E+03</pdfrwt>
<totfact> 0.10681824E+03</totfact>
</mgrwt>
</event>
<event>
 6    1  0.8353100E-006  0.1264580E+03  0.7546771E-02  0.1248297E+00
          1   -1    0    0  501    0  0.00000000000E+00  0.00000000000E+00  0.19779585032E+03  0.19779585032E+03  0.00000000000E+00 0. -1.
         -1   -1    0    0    0  501 -0.00000000000E+00 -0.00000000000E+00 -0.61163886233E+02  0.61163886233E+02  0.00000000000E+00 0.  1.
          5    1    1    2  502    0 -0.18403924803E+02 -0.38279969977E+02 -0.11343665947E+02  0.44213451649E+02  0.47000000000E+01 0.  1.
         -5    1    1    2    0  502  0.33881677896E+02  0.27007096087E+02  0.10337895386E+03  0.11219023771E+03  0.47000000000E+01 0.  1.
        -11    1    1    2    0    0 -0.36190366310E+02  0.36874417167E+02  0.63027986180E+01  0.52049884971E+02  0.00000000000E+00 0. -1.
         11    1    1    2    0    0  0.20712613217E+02 -0.25601543277E+02  0.38293877560E+02  0.50506162228E+02  0.00000000000E+00 0.  1.
<mgrwt>
<rscale>  0 0.11690179E+03</rscale>
<asrwt>0</asrwt>
<pdfrwt beam="1">  1        1 0.30430131E-01 0.12645798E+03</pdfrwt>
<pdfrwt beam="2">  1       -1 0.94098287E-02 0.12645798E+03</pdfrwt>
<totfact> 0.93535861E+03</totfact>
</mgrwt>
</event>
<event>
 6    1  0.8353100E-006  0.1888404E+03  0.7546771E-02  0.1164440E+00
         -2   -1    0    0    0  501 -0.00000000000E+00  0.00000000000E+00  0.35814640937E+02  0.35814640937E+02  0.00000000000E+00 0.  1.
          2   -1    0    0  501    0  0.00000000000E+00 -0.00000000000E+00 -0.92284709311E+03  0.92284709311E+03  0.00000000000E+00 0. -1.
          5    1    1    2  502    0  0.38368830355E+02 -0.27318728405E+02 -0.18036062230E+03  0.18646856073E+03  0.47000000000E+01 0. -1.
         -5    1    1    2    0  502  0.65974270901E+02  0.12291238573E+03 -0.37647051877E+03  0.40151239145E+03  0.47000000000E+01 0. -1.
        -11    1    1    2    0    0 -0.11858409834E+02 -0.32439572870E+02 -0.18022664313E+03  0.18350637773E+03  0.00000000000E+00 0. -1.
         11    1    1    2    0    0 -0.92484691422E+02 -0.63154084456E+02 -0.14997466797E+03  0.18717440413E+03  0.00000000000E+00 0.  1.
<mgrwt>
<rscale>  0 0.18351902E+03</rscale>
<asrwt>0</asrwt>
<pdfrwt beam="2">  1        2 0.14197646E+00 0.18884036E+03</pdfrwt>
<pdfrwt beam="1">  1       -2 0.55099452E-02 0.18884036E+03</pdfrwt>
<totfact> 0.48887062E+03</totfact>
</mgrwt>
</event>
<event>
 6    1  0.8353100E-006  0.1312392E+03  0.7546771E-02  0.1239899E+00
          2   -1    0    0  501    0  0.00000000000E+00  0.00000000000E+00  0.22188062412E+02  0.22188062412E+02  0.00000000000E+00 0. -1.
         -2   -1    0    0    0  501 -0.00000000000E+00 -0.00000000000E+00 -0.59779239725E+03  0.59779239725E+03  0.00000000000E+00 0.  1.
          5    1    1    2  502    0  0.19143289306E+02  0.48055690869E+02 -0.10683634467E+03  0.11879355830E+03  0.47000000000E+01 0. -1.
         -5    1    1    2    0  502 -0.58903696972E+02 -0.52369803881E+02 -0.19086438029E+03  0.20655155177E+03  0.47000000000E+01 0. -1.
        -11    1    1    2    0    0  0.35711401038E+00 -0.34481830389E+02 -0.54526177966E+02  0.64515333379E+02  0.00000000000E+00 0. -1.
         11    1    1    2    0    0  0.39403293655E+02  0.38795943401E+02 -0.22337743192E+03  0.23012001622E+03  0.00000000000E+00 0.  1.
<mgrwt>
<rscale>  0 0.12195957E+03</rscale>
<asrwt>0</asrwt>
<pdfrwt beam="1">  1        2 0.34135477E-02 0.13123917E+03</pdfrwt>
<pdfrwt beam="2">  1       -2 0.91968071E-01 0.13123917E+03</pdfrwt>
<totfact> 0.26062092E+03</totfact>
</mgrwt>
</event>
<event>
 6    1  0.8353100E-006  0.1487807E+03  0.7546771E-02  0.1211249E+00
         -2   -1    0    0    0  501 -0.00000000000E+00  0.00000000000E+00  0.31679709589E+02  0.31679709589E+02  0.00000000000E+00 0.  1.
          2   -1    0    0  501    0  0.00000000000E+00 -0.00000000000E+00 -0.59313370006E+03  0.59313370006E+03  0.00000000000E+00 0. -1.
          5    1    1    2  502    0 -0.32658066284E+02  0.77886943928E+01 -0.62558943804E+02  0.71154230398E+02  0.47000000000E+01 0.  1.
         -5    1    1    2    0  502  0.11333011194E+03 -0.68138178202E+01 -0.29450072792E+03  0.31566265400E+03  0.47000000000E+01 0.  1.
        -11    1    1    2    0    0 -0.77128039676E+02 -0.19293703236E+02 -0.20442157871E+03  0.21933801160E+03  0.00000000000E+00 0. -1.
         11    1    1    2    0    0 -0.35440059838E+01  0.18318826664E+02  0.27259958292E-01  0.18658513656E+02  0.00000000000E+00 0.  1.
<mgrwt>
<rscale>  0 0.14155710E+03</rscale>
<asrwt>0</asrwt>
<pdfrwt beam="2">  1        2 0.91251331E-01 0.14878069E+03</pdfrwt>
<pdfrwt beam="1">  1       -2 0.48738019E-02 0.14878069E+03</pdfrwt>
<totfact> 0.10002685E+04</totfact>
</mgrwt>
</event>
<event>
 6    1  0.8353100E-006  0.1437821E+03  0.7546771E-02  0.1229710E+00
          1   -1    0    0  501    0  0.00000000000E+00  0.00000000000E+00  0.12828482118E+03  0.12828482118E+03  0.00000000000E+00 0. -1.
         -1   -1    0    0    0  501 -0.00000000000E+00 -0.00000000000E+00 -0.29155137576E+03  0.29155137576E+03  0.00000000000E+00 0.  1.
          5    1    1    2  502    0  0.25018398383E+01 -0.20831812241E+02  0.11601079493E+03  0.11798651679E+03  0.47000000000E+01 0. -1.
         -5    1    1    2    0  502 -0.77553960442E+01  0.19839451245E+02 -0.39323166835E+02  0.44968338233E+02  0.47000000000E+01 0.  1.
        -11    1    1    2    0    0  0.44754684351E+02  0.17762248596E+02 -0.11163359929E+03  0.12157524311E+03  0.00000000000E+00 0.  1.
         11    1    1    2    0    0 -0.39501128145E+02 -0.16769887601E+02 -0.12832058338E+03  0.13530609881E+03  0.00000000000E+00 0. -1.
<mgrwt>
<rscale>  0 0.12849263E+03</rscale>
<asrwt>0</asrwt>
<pdfrwt beam="1">  1        1 0.19736127E-01 0.14378210E+03</pdfrwt>
<pdfrwt beam="2">  1       -1 0.44854057E-01 0.14378210E+03</pdfrwt>
<totfact> 0.12846986E+03</totfact>
</mgrwt>
</event>
<event>
 6    1  0.8353100E-006  0.1407228E+03  0.7546771E-02  0.1223362E+00
         -1   -1    0    0    0  501 -0.00000000000E+00  0.00000000000E+00  0.86457283150E+02  0.86457283150E+02  0.00000000000E+00 0.  1.
          1   -1    0    0  501    0  0.00000000000E+00 -0.00000000000E+00 -0.23737034733E+03  0.23737034733E+03  0.00000000000E+00 0. -1.
          5    1    1    2  502    0 -0.39664973589E+02  0.43676356045E+02 -0.98836213018E+02  0.11520252259E+03  0.47000000000E+01 0.  1.
         -5    1    1    2    0  502 -0.17422578811E+02 -0.74000943140E+02 -0.59679137195E+02  0.96764535106E+02  0.47000000000E+01 0.  1.
        -11    1    1    2    0    0  0.41736430690E+02 -0.20015839990E+02  0.29465929130E+02  0.54870798033E+02  0.00000000000E+00 0. -1.
         11    1    1    2    0    0  0.15351121711E+02  0.50340427085E+02 -0.21863643098E+02  0.56989774753E+02  0.00000000000E+00 0.  1.
<mgrwt>
<rscale>  0 0.13279795E+03</rscale>
<asrwt>0</asrwt>
<pdfrwt beam="2">  1        1 0.36518515E-01 0.14072284E+03</pdfrwt>
<pdfrwt beam="1">  1       -1 0.13301121E-01 0.14072284E+03</pdfrwt>
<totfact> 0.44163646E+03</totfact>
</mgrwt>
</event>
<event>
 6    1  0.8353100E-006  0.1468548E+03  0.7546771E-02  0.1217276E+00
          1   -1    0    0  501    0  0.00000000000E+00  0.00000000000E+00  0.52897738319E+02  0.52897738319E+02  0.00000000000E+00 0. -1.
         -1   -1    0    0    0  501 -0.00000000000E+00 -0.00000000000E+00 -0.32741893337E+03  0.32741893337E+03  0.00000000000E+00 0.  1.
          5    1    1    2  502    0  0.94828417554E+01  0.84446511839E+02 -0.41746480838E+02  0.94794495156E+02  0.47000000000E+01 0. -1.
         -5    1    1    2    0  502  0.38209411289E+02 -0.37508288219E+02 -0.77830685535E+02  0.94586132213E+02  0.47000000000E+01 0.  1.
        -11    1    1    2    0    0 -0.35777656852E+02 -0.73879896767E+02 -0.11592650044E+03  0.14204658877E+03  0.00000000000E+00 0.  1.
         11    1    1    2    0    0 -0.11914596192E+02  0.26941673147E+02 -0.39017528231E+02  0.48889455547E+02  0.00000000000E+00 0. -1.
<mgrwt>
<rscale>  0 0.13710633E+03</rscale>
<asrwt>0</asrwt>
<pdfrwt beam="1">  1        1 0.81381134E-02 0.14685477E+03</pdfrwt>
<pdfrwt beam="2">  1       -1 0.50372145E-01 0.14685477E+03</pdfrwt>
<totfact> 0.33255047E+03</totfact>
</mgrwt>
</event>
<event>
 6    1  0.8353100E-006  0.1712034E+03  0.7546771E-02  0.1182921E+00
         -2   -1    0    0    0  501 -0.00000000000E+00  0.00000000000E+00  0.42456827680E+02  0.42456827680E+02  0.00000000000E+00 0.  1.
          2   -1    0    0  501    0  0.00000000000E+00 -0.00000000000E+00 -0.81357257518E+03  0.81357257518E+03  0.00000000000E+00 0. -1.
          5    1    1    2  502    0  0.12088975811E+03  0.21914346998E+02 -0.61707365828E+03  0.62920311662E+03  0.47000000000E+01 0.  1.
         -5    1    1    2    0  502 -0.40972995721E+01 -0.15038316525E+02 -0.66417819257E+01  0.17582437113E+02  0.47000000000E+01 0.  1.
        -11    1    1    2    0    0 -0.12115007570E+03 -0.20049191213E+02 -0.95617237974E+02  0.15563408081E+03  0.00000000000E+00 0.  1.
         11    1    1    2    0    0  0.43576171650E+01  0.13173160740E+02 -0.51783069319E+02  0.53609768320E+02  0.00000000000E+00 0. -1.
<mgrwt>
<rscale>  0 0.16522489E+03</rscale>
<asrwt>0</asrwt>
<pdfrwt beam="2">  1        2 0.12516500E+00 0.17120339E+03</pdfrwt>
<pdfrwt beam="1">  1       -2 0.65318203E-02 0.17120339E+03</pdfrwt>
<totfact> 0.44273249E+03</totfact>
</mgrwt>
</event>
<event>
 6    1  0.8353100E-006  0.1336315E+03  0.7546771E-02  0.1236878E+00
         -3   -1    0    0    0  501 -0.00000000000E+00  0.00000000000E+00  0.36765729735E+02  0.36765729735E+02  0.00000000000E+00 0.  1.
          3   -1    0    0  501    0  0.00000000000E+00 -0.00000000000E+00 -0.40987613538E+03  0.40987613538E+03  0.00000000000E+00 0. -1.
          5    1    1    2  502    0  0.24653405586E+02 -0.48650978421E+02 -0.56158712132E+02  0.78425755060E+02  0.47000000000E+01 0. -1.
         -5    1    1    2    0  502  0.22186160232E+02  0.54980583749E+02 -0.22731444397E+03  0.23496603315E+03  0.47000000000E+01 0. -1.
        -11    1    1    2    0    0  0.19034615390E+02 -0.51681228098E+01 -0.55802324471E+02  0.59185517593E+02  0.00000000000E+00 0. -1.
         11    1    1    2    0    0 -0.65874181208E+02 -0.11614825176E+01 -0.33834925066E+02  0.74064559309E+02  0.00000000000E+00 0.  1.
<mgrwt>
<rscale>  0 0.12384946E+03</rscale>
<asrwt>0</asrwt>
<pdfrwt beam="2">  1        3 0.63057860E-01 0.13363152E+03</pdfrwt>
<pdfrwt beam="1">  1       -3 0.56562667E-02 0.13363152E+03</pdfrwt>
<totfact> 0.10690782E+03</totfact>
</mgrwt>
</event>
<event>
 6    1  0.8353100E-006  0.1270059E+03  0.7546771E-02  0.1245834E+00
          1   -1    0    0  501    0  0.00000000000E+00  0.00000000000E+00  0.21234918793E+04  0.21234918793E+04  0.00000000000E+00 0. -1.
         -1   -1    0    0    0  501 -0.00000000000E+00 -0.00000000000E+00 -0.89052781760E+01  0.89052781760E+01  0.00000000000E+00 0.  1.
          5    1    1    2  502    0  0.62589479843E+02 -0.23866406918E+02  0.11470457571E+04  0.11490096202E+04  0.47000000000E+01 0. -1.
         -5    1    1    2    0  502 -0.56691621311E+02  0.21773235067E+01  0.62860629803E+03  0.63117877704E+03  0.47000000000E+01 0. -1.
        -11    1    1    2    0    0 -0.43942639638E+02  0.26395940334E+02  0.25255703520E+03  0.25770672726E+03  0.00000000000E+00 0.  1.
         11    1    1    2    0    0  0.38044781106E+02 -0.47068569228E+01  0.86377510808E+02  0.94502033020E+02  0.00000000000E+00 0. -1.
<mgrwt>
<rscale>  0 0.11835596E+03</rscale>
<asrwt>0</asrwt>
<pdfrwt beam="1">  1        1 0.32669065E+00 0.12700594E+03</pdfrwt>
<pdfrwt beam="2">  1       -1 0.13700445E-02 0.12700594E+03</pdfrwt>
<totfact> 0.33239757E+03</totfact>
</mgrwt>
</event>
<event>
 6    1  0.8353100E-006  0.1695536E+03  0.7546771E-02  0.1184866E+00
         -1   -1    0    0    0  501 -0.00000000000E+00  0.00000000000E+00  0.11964935340E+03  0.11964935340E+03  0.00000000000E+00 0.  1.
          1   -1    0    0  501    0  0.00000000000E+00 -0.00000000000E+00 -0.21325731632E+03  0.21325731632E+03  0.00000000000E+00 0. -1.
          5    1    1    2  502    0  0.52213464660E+02  0.11840662882E+03  0.12517360900E+02  0.13009669467E+03  0.47000000000E+01 0. -1.
         -5    1    1    2    0  502 -0.22311566502E+01 -0.15327580048E+02 -0.38074299724E+02  0.41372153311E+02  0.47000000000E+01 0. -1.
        -11    1    1    2    0    0  0.13831256030E+02 -0.18466378465E+02 -0.48448363944E+02  0.53661482889E+02  0.00000000000E+00 0. -1.
         11    1    1    2    0    0 -0.63813564040E+02 -0.84612670309E+02 -0.19602660154E+02  0.10777633886E+03  0.00000000000E+00 0.  1.
<mgrwt>
<rscale>  0 0.16344102E+03</rscale>
<asrwt>0</asrwt>
<pdfrwt beam="2">  1        1 0.32808818E-01 0.16955356E+03</pdfrwt>
<pdfrwt beam="1">  1       -1 0.18407593E-01 0.16955356E+03</pdfrwt>
<totfact> 0.30496769E+03</totfact>
</mgrwt>
</event>
<event>
 6    1  0.8353100E-006  0.1427637E+03  0.7546771E-02  0.1219835E+00
         -2   -1    0    0    0  501 -0.00000000000E+00  0.00000000000E+00  0.12876092106E+03  0.12876092106E+03  0.00000000000E+00 0.  1.
          2   -1    0    0  501    0  0.00000000000E+00 -0.00000000000E+00 -0.15860255740E+03  0.15860255740E+03  0.00000000000E+00 0. -1.
          5    1    1    2  502    0  0.31047450098E+02  0.97255501484E+02 -0.53848919202E+02  0.11551784635E+03  0.47000000000E+01 0. -1.
         -5    1    1    2    0  502 -0.28569429588E+02 -0.28339449150E+02 -0.24075023058E+02  0.47127841244E+02  0.47000000000E+01 0. -1.
        -11    1    1    2    0    0 -0.35632911599E+02 -0.17535705678E+02 -0.93797497028E+01  0.40806679198E+02  0.00000000000E+00 0. -1.
         11    1    1    2    0    0  0.33154891090E+02 -0.51380346657E+02  0.57462055622E+02  0.83911111672E+02  0.00000000000E+00 0.  1.
<mgrwt>
<rscale>  0 0.13527269E+03</rscale>
<asrwt>0</asrwt>
<pdfrwt beam="2">  1        2 0.24400393E-01 0.14276372E+03</pdfrwt>
<pdfrwt beam="1">  1       -2 0.19809372E-01 0.14276372E+03</pdfrwt>
<totfact> 0.45345655E+03</totfact>
</mgrwt>
</event>
<event>
 6    1  0.8353100E-006  0.1616205E+03  0.7546771E-02  0.1201416E+00
         -2   -1    0    0    0  501 -0.00000000000E+00  0.00000000000E+00  0.10207396377E+03  0.10207396377E+03  0.00000000000E+00 0.  1.
          2   -1    0    0  501    0  0.00000000000E+00 -0.00000000000E+00 -0.45832558717E+03  0.45832558717E+03  0.00000000000E+00 0. -1.
          5    1    1    2  502    0 -0.20730208548E+02 -0.10003405972E+03 -0.18614527785E+03  0.21238810964E+03  0.47000000000E+01 0. -1.
         -5    1    1    2    0  502  0.35016446094E+02  0.30508498133E+02 -0.21666361337E+03  0.22163513105E+03  0.47000000000E+01 0.  1.
        -11    1    1    2    0    0 -0.56359180858E+01  0.88492637789E+02  0.54484527405E+02  0.10407340795E+03  0.00000000000E+00 0.  1.
         11    1    1    2    0    0 -0.86503194605E+01 -0.18967076202E+02 -0.79272595898E+01  0.22302902300E+02  0.00000000000E+00 0. -1.
<mgrwt>
<rscale>  0 0.14923492E+03</rscale>
<asrwt>0</asrwt>
<pdfrwt beam="2">  1        2 0.70511629E-01 0.16162045E+03</pdfrwt>
<pdfrwt beam="1">  1       -2 0.15703687E-01 0.16162045E+03</pdfrwt>
<totfact> 0.21436498E+03</totfact>
</mgrwt>
</event>
<event>
 6    1  0.8353100E-006  0.1908733E+03  0.7546771E-02  0.1162178E+00
         -2   -1    0    0    0  501 -0.00000000000E+00  0.00000000000E+00  0.66306760720E+02  0.66306760720E+02  0.00000000000E+00 0.  1.
          2   -1    0    0  501    0  0.00000000000E+00 -0.00000000000E+00 -0.64902378155E+03  0.64902378155E+03  0.00000000000E+00 0. -1.
          5    1    1    2  502    0 -0.26938238266E+02  0.39571337669E+02 -0.29202486320E+03  0.29595974417E+03  0.47000000000E+01 0.  1.
         -5    1    1    2    0  502 -0.11434619965E+03 -0.10467658468E+02 -0.18440674241E+03  0.21728451830E+03  0.47000000000E+01 0.  1.
        -11    1    1    2    0    0  0.11768058175E+03 -0.30195576891E+02 -0.12319918748E+03  0.17302754688E+03  0.00000000000E+00 0. -1.
         11    1    1    2    0    0  0.23603856172E+02  0.10918976901E+01  0.16913772253E+02  0.29058732914E+02  0.00000000000E+00 0.  1.
<mgrwt>
<rscale>  0 0.18593635E+03</rscale>
<asrwt>0</asrwt>
<pdfrwt beam="2">  1        2 0.99849803E-01 0.19087325E+03</pdfrwt>
<pdfrwt beam="1">  1       -2 0.10201041E-01 0.19087325E+03</pdfrwt>
<totfact> 0.29204723E+03</totfact>
</mgrwt>
</event>
<event>
 6    1  0.8353100E-006  0.1289817E+03  0.7546771E-02  0.1240071E+00
          2   -1    0    0  501    0  0.00000000000E+00  0.00000000000E+00  0.41071870296E+03  0.41071870296E+03  0.00000000000E+00 0. -1.
         -2   -1    0    0    0  501 -0.00000000000E+00 -0.00000000000E+00 -0.36100223290E+02  0.36100223290E+02  0.00000000000E+00 0.  1.
          5    1    1    2  502    0  0.59444918829E+02 -0.55805467572E+01  0.19977688939E+03  0.20856110953E+03  0.47000000000E+01 0.  1.
         -5    1    1    2    0  502 -0.52257879161E+02 -0.25392015498E+02  0.75049539508E+02  0.95027173829E+02  0.47000000000E+01 0.  1.
        -11    1    1    2    0    0  0.15342395318E+02  0.55777176239E+02  0.28569090594E+02  0.64518798971E+02  0.00000000000E+00 0.  1.
         11    1    1    2    0    0 -0.22529434986E+02 -0.24804613984E+02  0.71222960179E+02  0.78711843914E+02  0.00000000000E+00 0. -1.
<mgrwt>
<rscale>  0 0.12185305E+03</rscale>
<asrwt>0</asrwt>
<pdfrwt beam="1">  1        2 0.63187489E-01 0.12898170E+03</pdfrwt>
<pdfrwt beam="2">  1       -2 0.55538808E-02 0.12898170E+03</pdfrwt>
<totfact> 0.12182747E+04</totfact>
</mgrwt>
</event>
<event>
 6    1  0.8353100E-006  0.1415432E+03  0.7546771E-02  0.1228972E+00
          2   -1    0    0  501    0  0.00000000000E+00  0.00000000000E+00  0.35742309201E+03  0.35742309201E+03  0.00000000000E+00 0. -1.
         -2   -1    0    0    0  501 -0.00000000000E+00 -0.00000000000E+00 -0.55990794665E+02  0.55990794665E+02  0.00000000000E+00 0.  1.
          5    1    1    2  502    0 -0.50113016497E+02  0.41258496625E+02  0.22312566047E+03  0.23242359675E+03  0.47000000000E+01 0. -1.
         -5    1    1    2    0  502  0.57564356497E+02 -0.55124562965E+01  0.56493650844E+02  0.80979410340E+02  0.47000000000E+01 0.  1.
        -11    1    1    2    0    0  0.31331568895E+02 -0.74679774914E+01  0.37575884080E+02  0.49491261468E+02  0.00000000000E+00 0. -1.
         11    1    1    2    0    0 -0.38782908895E+02 -0.28278062837E+02 -0.15762898046E+02  0.50519618120E+02  0.00000000000E+00 0.  1.
<mgrwt>
<rscale>  0 0.12898308E+03</rscale>
<asrwt>0</asrwt>
<pdfrwt beam="1">  1        2 0.54988167E-01 0.14154323E+03</pdfrwt>
<pdfrwt beam="2">  1       -2 0.86139686E-02 0.14154323E+03</pdfrwt>
<totfact> 0.72670814E+03</totfact>
</mgrwt>
</event>
<event>
 6    1  0.8353100E-006  0.1387315E+03  0.7546771E-02  0.1226326E+00
         -1   -1    0    0    0  501 -0.00000000000E+00  0.00000000000E+00  0.17076568258E+02  0.17076568258E+02  0.00000000000E+00 0.  1.
          1   -1    0    0  501    0  0.00000000000E+00 -0.00000000000E+00 -0.10506771550E+04  0.10506771550E+04  0.00000000000E+00 0. -1.
          5    1    1    2  502    0 -0.39160920963E+02  0.68639367601E+02 -0.63343762773E+03  0.63836530195E+03  0.47000000000E+01 0.  1.
         -5    1    1    2    0  502 -0.15172601255E+02 -0.42768138258E+02 -0.13515150722E+03  0.14264410743E+03  0.47000000000E+01 0.  1.
        -11    1    1    2    0    0  0.27807456098E+02  0.14804737162E+02 -0.20796789499E+02  0.37748394808E+02  0.00000000000E+00 0.  1.
         11    1    1    2    0    0  0.26526066120E+02 -0.40675966505E+02 -0.24421466227E+03  0.24899591905E+03  0.00000000000E+00 0. -1.
<mgrwt>
<rscale>  0 0.13076435E+03</rscale>
<asrwt>0</asrwt>
<pdfrwt beam="2">  1        1 0.16164264E+00 0.13873154E+03</pdfrwt>
<pdfrwt beam="1">  1       -1 0.26271643E-02 0.13873154E+03</pdfrwt>
<totfact> 0.65502054E+03</totfact>
</mgrwt>
</event>
<event>
 6    1  0.8353100E-006  0.1611280E+03  0.7546771E-02  0.1194502E+00
          2   -1    0    0  501    0  0.00000000000E+00  0.00000000000E+00  0.17506092410E+03  0.17506092410E+03  0.00000000000E+00 0. -1.
         -2   -1    0    0    0  501 -0.00000000000E+00 -0.00000000000E+00 -0.12889698086E+03  0.12889698086E+03  0.00000000000E+00 0.  1.
          5    1    1    2  502    0 -0.40773594069E+02  0.61446471747E+02  0.31553033248E+02  0.80348234397E+02  0.47000000000E+01 0.  1.
         -5    1    1    2    0  502  0.78418567885E+02  0.33018257065E+02  0.81890454162E+01  0.85608571730E+02  0.47000000000E+01 0.  1.
        -11    1    1    2    0    0 -0.32411347117E+02 -0.49898453360E+02 -0.41351128977E+02  0.72458725751E+02  0.00000000000E+00 0.  1.
         11    1    1    2    0    0 -0.52336266985E+01 -0.44566275452E+02  0.47772993549E+02  0.65542373078E+02  0.00000000000E+00 0. -1.
<mgrwt>
<rscale>  0 0.15496413E+03</rscale>
<asrwt>0</asrwt>
<pdfrwt beam="1">  1        2 0.26932450E-01 0.16112799E+03</pdfrwt>
<pdfrwt beam="2">  1       -2 0.19830305E-01 0.16112799E+03</pdfrwt>
<totfact> 0.40871171E+03</totfact>
</mgrwt>
</event>
<event>
 6    1  0.8353100E-006  0.3334010E+03  0.7546771E-02  0.1069642E+00
         -1   -1    0    0    0  501 -0.00000000000E+00  0.00000000000E+00  0.12877309577E+03  0.12877309577E+03  0.00000000000E+00 0.  1.
          1   -1    0    0  501    0  0.00000000000E+00 -0.00000000000E+00 -0.21579864424E+03  0.21579864424E+03  0.00000000000E+00 0. -1.
          5    1    1    2  502    0 -0.64602974488E+01 -0.46374810520E+01 -0.58330410410E+02  0.59057331910E+02  0.47000000000E+01 0. -1.
         -5    1    1    2    0  502  0.80116248305E+02 -0.97501286888E+02  0.44779990948E+01  0.12636161072E+03  0.47000000000E+01 0. -1.
        -11    1    1    2    0    0  0.17599798237E+02  0.20946072738E+02  0.10684415830E+02  0.29370863160E+02  0.00000000000E+00 0.  1.
         11    1    1    2    0    0 -0.91255749093E+02  0.81192695202E+02 -0.43857552990E+02  0.12978193422E+03  0.00000000000E+00 0. -1.
<mgrwt>
<rscale>  0 0.33340102E+03</rscale>
<asrwt>0</asrwt>
<pdfrwt beam="2">  1        1 0.33199791E-01 0.33340102E+03</pdfrwt>
<pdfrwt beam="1">  1       -1 0.19811246E-01 0.33340102E+03</pdfrwt>
<totfact> 0.27318350E+03</totfact>
</mgrwt>
</event>
<event>
 6    1  0.8353100E-006  0.1532143E+03  0.7546771E-02  0.1205662E+00
          1   -1    0    0  501    0  0.00000000000E+00  0.00000000000E+00  0.99875162048E+03  0.99875162048E+03  0.00000000000E+00 0. -1.
         -1   -1    0    0    0  501 -0.00000000000E+00 -0.00000000000E+00 -0.23973544516E+02  0.23973544516E+02  0.00000000000E+00 0.  1.
          5    1    1    2  502    0 -0.42046473461E+02  0.44072078647E+02  0.12327049860E+03  0.13757892234E+03  0.47000000000E+01 0.  1.
         -5    1    1    2    0  502 -0.38564768625E+02 -0.72524285137E+01  0.62326595352E+03  0.62451771625E+03  0.47000000000E+01 0.  1.
        -11    1    1    2    0    0  0.47455010434E+02  0.17026698660E+02  0.47986075149E+02  0.69602800883E+02  0.00000000000E+00 0.  1.
         11    1    1    2    0    0  0.33156231652E+02 -0.53846348793E+02  0.18025554869E+03  0.19102572552E+03  0.00000000000E+00 0. -1.
<mgrwt>
<rscale>  0 0.14585448E+03</rscale>
<asrwt>0</asrwt>
<pdfrwt beam="1">  1        1 0.15365406E+00 0.15321427E+03</pdfrwt>
<pdfrwt beam="2">  1       -1 0.36882384E-02 0.15321427E+03</pdfrwt>
<totfact> 0.43703698E+03</totfact>
</mgrwt>
</event>
<event>
 6    1  0.8353100E-006  0.2406467E+03  0.7546771E-02  0.1119363E+00
         -2   -1    0    0    0  501 -0.00000000000E+00  0.00000000000E+00  0.17413737976E+03  0.17413737976E+03  0.00000000000E+00 0. -1.
          2   -1    0    0  501    0  0.00000000000E+00 -0.00000000000E+00 -0.83139570924E+02  0.83139570924E+02  0.00000000000E+00 0.  1.
          5    1    1    2  502    0 -0.18592224229E+01 -0.31278370806E+02  0.47976044990E+02  0.57494209110E+02  0.47000000000E+01 0. -1.
         -5    1    1    2    0  502 -0.31667197018E+02  0.73185080455E+02 -0.17815144087E+02  0.81843367031E+02  0.47000000000E+01 0. -1.
        -11    1    1    2    0    0 -0.12490863710E+02 -0.40169892600E+02  0.58203263450E+02  0.71814078174E+02  0.00000000000E+00 0. -1.
         11    1    1    2    0    0  0.46017283150E+02 -0.17368170494E+01  0.26336444847E+01  0.46125296370E+02  0.00000000000E+00 0.  1.
<mgrwt>
<rscale>  0 0.24064669E+03</rscale>
<asrwt>0</asrwt>
<pdfrwt beam="2">  1        2 0.12790703E-01 0.24064669E+03</pdfrwt>
<pdfrwt beam="1">  1       -2 0.26790366E-01 0.24064669E+03</pdfrwt>
<totfact> 0.58471300E+03</totfact>
</mgrwt>
</event>
<event>
 6    1  0.8353100E-006  0.1426391E+03  0.7546771E-02  0.1221059E+00
         -1   -1    0    0    0  501 -0.00000000000E+00  0.00000000000E+00  0.58992315107E+02  0.58992315107E+02  0.00000000000E+00 0.  1.
          1   -1    0    0  501    0  0.00000000000E+00 -0.00000000000E+00 -0.28817022983E+03  0.28817022983E+03  0.00000000000E+00 0. -1.
          5    1    1    2  502    0 -0.91063412267E+02  0.27373321785E+01 -0.86957397704E+02  0.12603061952E+03  0.47000000000E+01 0. -1.
         -5    1    1    2    0  502  0.33867153034E+02  0.35294316339E+02 -0.76376607747E+02  0.90819320804E+02  0.47000000000E+01 0. -1.
        -11    1    1    2    0    0  0.51100083618E+02 -0.59725530052E+02 -0.72378210758E+02  0.10685018895E+03  0.00000000000E+00 0. -1.
         11    1    1    2    0    0  0.60961756148E+01  0.21693881534E+02  0.65343014817E+01  0.23462415669E+02  0.00000000000E+00 0.  1.
<mgrwt>
<rscale>  0 0.13440728E+03</rscale>
<asrwt>0</asrwt>
<pdfrwt beam="2">  1        1 0.44333881E-01 0.14263905E+03</pdfrwt>
<pdfrwt beam="1">  1       -1 0.90757410E-02 0.14263905E+03</pdfrwt>
<totfact> 0.62552832E+03</totfact>
</mgrwt>
</event>
<event>
 6    1  0.8353100E-006  0.1573968E+03  0.7546771E-02  0.1199830E+00
          1   -1    0    0  501    0  0.00000000000E+00  0.00000000000E+00  0.16204580165E+04  0.16204580165E+04  0.00000000000E+00 0. -1.
         -1   -1    0    0    0  501 -0.00000000000E+00 -0.00000000000E+00 -0.12972200063E+02  0.12972200063E+02  0.00000000000E+00 0.  1.
          5    1    1    2  502    0 -0.31541742005E+02 -0.17789221659E+02  0.50147266467E+03  0.50280041896E+03  0.47000000000E+01 0. -1.
         -5    1    1    2    0  502  0.78103114241E+02 -0.65763962404E+02  0.43815167839E+03  0.44991552372E+03  0.47000000000E+01 0. -1.
        -11    1    1    2    0    0  0.25942033823E+02  0.26396664900E+02  0.13836898630E+03  0.14323319938E+03  0.00000000000E+00 0.  1.
         11    1    1    2    0    0 -0.72503406059E+02  0.57156519163E+02  0.52949248704E+03  0.53748107446E+03  0.00000000000E+00 0. -1.
<mgrwt>
<rscale>  0 0.15052413E+03</rscale>
<asrwt>0</asrwt>
<pdfrwt beam="1">  1        1 0.24930107E+00 0.15739683E+03</pdfrwt>
<pdfrwt beam="2">  1       -1 0.19957244E-02 0.15739683E+03</pdfrwt>
<totfact> 0.40628483E+03</totfact>
</mgrwt>
</event>
<event>
 6    1  0.8353100E-006  0.2719330E+03  0.7546771E-02  0.1100178E+00
         -1   -1    0    0    0  501 -0.00000000000E+00  0.00000000000E+00  0.10357020323E+02  0.10357020323E+02  0.00000000000E+00 0.  1.
          1   -1    0    0  501    0  0.00000000000E+00 -0.00000000000E+00 -0.17849627162E+04  0.17849627162E+04  0.00000000000E+00 0. -1.
          5    1    1    2  502    0 -0.31616279294E+02  0.99549994644E+00 -0.61629939371E+03  0.61712852212E+03  0.47000000000E+01 0.  1.
         -5    1    1    2    0  502  0.83252223173E+02 -0.49194700905E+02 -0.62637359803E+03  0.63381150634E+03  0.47000000000E+01 0.  1.
        -11    1    1    2    0    0 -0.67814641002E+02  0.33743416183E+01 -0.32779909677E+03  0.33475731443E+03  0.00000000000E+00 0.  1.
         11    1    1    2    0    0  0.16178697123E+02  0.44824859341E+02 -0.20413360737E+03  0.20962239364E+03  0.00000000000E+00 0. -1.
<mgrwt>
<rscale>  0 0.27193304E+03</rscale>
<asrwt>0</asrwt>
<pdfrwt beam="2">  1        1 0.27460974E+00 0.27193304E+03</pdfrwt>
<pdfrwt beam="1">  1       -1 0.15933872E-02 0.27193304E+03</pdfrwt>
<totfact> 0.44478283E+03</totfact>
</mgrwt>
</event>
<event>
 6    1  0.8353100E-006  0.2565599E+03  0.7546771E-02  0.1109228E+00
         -3   -1    0    0    0  501 -0.00000000000E+00  0.00000000000E+00  0.18740130647E+03  0.18740130647E+03  0.00000000000E+00 0.  1.
          3   -1    0    0  501    0  0.00000000000E+00 -0.00000000000E+00 -0.87810198923E+02  0.87810198923E+02  0.00000000000E+00 0. -1.
          5    1    1    2  502    0  0.33892611127E+02  0.38441344257E+02  0.53919715019E+02  0.74537720015E+02  0.47000000000E+01 0.  1.
         -5    1    1    2    0  502 -0.41833893228E+01 -0.69279003371E+01 -0.57020845381E+02  0.57783763786E+02  0.47000000000E+01 0.  1.
        -11    1    1    2    0    0 -0.32604410297E+02 -0.50950616874E+02  0.29869985866E+02  0.67462797054E+02  0.00000000000E+00 0. -1.
         11    1    1    2    0    0  0.28951884922E+01  0.19437172954E+02  0.72822252041E+02  0.75427224536E+02  0.00000000000E+00 0.  1.
<mgrwt>
<rscale>  0 0.25655990E+03</rscale>
<asrwt>0</asrwt>
<pdfrwt beam="2">  1        3 0.13509261E-01 0.25655990E+03</pdfrwt>
<pdfrwt beam="1">  1       -3 0.28830970E-01 0.25655990E+03</pdfrwt>
<totfact> 0.12963833E+03</totfact>
</mgrwt>
</event>
<event>
 6    1  0.8353100E-006  0.1618931E+03  0.7546771E-02  0.1196380E+00
         -2   -1    0    0    0  501 -0.00000000000E+00  0.00000000000E+00  0.10926106089E+03  0.10926106089E+03  0.00000000000E+00 0.  1.
          2   -1    0    0  501    0  0.00000000000E+00 -0.00000000000E+00 -0.20480388265E+03  0.20480388265E+03  0.00000000000E+00 0. -1.
          5    1    1    2  502    0 -0.49629393071E+02  0.57777385113E+02 -0.10708178329E+03  0.13149106890E+03  0.47000000000E+01 0. -1.
         -5    1    1    2    0  502 -0.39465197819E+02 -0.25570381901E+02  0.21171229059E+02  0.51784719844E+02  0.47000000000E+01 0.  1.
        -11    1    1    2    0    0 -0.95698185473E+01  0.16645646546E+02  0.46898691918E+01  0.19764965191E+02  0.00000000000E+00 0.  1.
         11    1    1    2    0    0  0.98664409437E+02 -0.48852649758E+02 -0.14322136716E+02  0.11102418961E+03  0.00000000000E+00 0. -1.
<mgrwt>
<rscale>  0 0.15338011E+03</rscale>
<asrwt>0</asrwt>
<pdfrwt beam="2">  1        2 0.31508290E-01 0.16189315E+03</pdfrwt>
<pdfrwt beam="1">  1       -2 0.16809394E-01 0.16189315E+03</pdfrwt>
<totfact> 0.45460365E+03</totfact>
</mgrwt>
</event>
<event>
 6    1  0.8353100E-006  0.1282366E+03  0.7546771E-02  0.1244570E+00
          2   -1    0    0  501    0  0.00000000000E+00  0.00000000000E+00  0.27433600967E+02  0.27433600967E+02  0.00000000000E+00 0. -1.
         -2   -1    0    0    0  501 -0.00000000000E+00 -0.00000000000E+00 -0.46382545759E+03  0.46382545759E+03  0.00000000000E+00 0.  1.
          5    1    1    2  502    0  0.81974691894E+01  0.73172547242E+02 -0.12258847422E+03  0.14307845464E+03  0.47000000000E+01 0. -1.
         -5    1    1    2    0  502 -0.16276078479E+02 -0.45873164330E+02 -0.15867078152E+03  0.16603543249E+03  0.47000000000E+01 0. -1.
        -11    1    1    2    0    0 -0.41526404963E+02 -0.14792712999E+02 -0.65803428511E+02  0.79204531883E+02  0.00000000000E+00 0.  1.
         11    1    1    2    0    0  0.49605014252E+02 -0.12506669913E+02 -0.89329172378E+02  0.10294063954E+03  0.00000000000E+00 0. -1.
<mgrwt>
<rscale>  0 0.11911137E+03</rscale>
<asrwt>0</asrwt>
<pdfrwt beam="1">  1        2 0.42205536E-02 0.12823660E+03</pdfrwt>
<pdfrwt beam="2">  1       -2 0.71357769E-01 0.12823660E+03</pdfrwt>
<totfact> 0.34240722E+03</totfact>
</mgrwt>
</event>
<event>
 6    1  0.8353100E-006  0.1800875E+03  0.7546771E-02  0.1173267E+00
          2   -1    0    0  501    0  0.00000000000E+00  0.00000000000E+00  0.13738210178E+03  0.13738210178E+03  0.00000000000E+00 0. -1.
         -2   -1    0    0    0  501 -0.00000000000E+00 -0.00000000000E+00 -0.21311064168E+03  0.21311064168E+03  0.00000000000E+00 0.  1.
          5    1    1    2  502    0 -0.66537528183E+02  0.10913442484E+02 -0.58945239593E+02  0.89682646896E+02  0.47000000000E+01 0. -1.
         -5    1    1    2    0  502 -0.53932570757E+02 -0.58792363611E+02  0.43630582524E+02  0.91054829300E+02  0.47000000000E+01 0. -1.
        -11    1    1    2    0    0  0.11314429218E+03  0.59667206776E+02 -0.76077423430E+02  0.14882735224E+03  0.00000000000E+00 0.  1.
         11    1    1    2    0    0  0.73258067562E+01 -0.11788285648E+02  0.15663540597E+02  0.20927915022E+02  0.00000000000E+00 0. -1.
<mgrwt>
<rscale>  0 0.17446832E+03</rscale>
<asrwt>0</asrwt>
<pdfrwt beam="1">  1        2 0.21135708E-01 0.18008747E+03</pdfrwt>
<pdfrwt beam="2">  1       -2 0.32786252E-01 0.18008747E+03</pdfrwt>
<totfact> 0.22197381E+03</totfact>
</mgrwt>
</event>
<event>
 6    1  0.8353100E-006  0.1384258E+03  0.7546771E-02  0.1225018E+00
         -4   -1    0    0    0  501 -0.00000000000E+00  0.00000000000E+00  0.27326905430E+03  0.27326905430E+03  0.00000000000E+00 0.  1.
          4   -1    0    0  501    0  0.00000000000E+00 -0.00000000000E+00 -0.79346996014E+02  0.79346996014E+02  0.00000000000E+00 0. -1.
          5    1    1    2  502    0  0.95761825927E+02  0.95883279346E+01  0.22109780928E+02  0.98859474762E+02  0.47000000000E+01 0.  1.
         -5    1    1    2    0  502 -0.36564136881E+02 -0.12951179824E+02 -0.92768559388E+01  0.40159920578E+02  0.47000000000E+01 0.  1.
        -11    1    1    2    0    0 -0.66572530231E+02 -0.33050756551E+02  0.10191229236E+03  0.12613631366E+03  0.00000000000E+00 0. -1.
         11    1    1    2    0    0  0.73748411851E+01  0.36413608440E+02  0.79176840936E+02  0.87460341314E+02  0.00000000000E+00 0.  1.
<mgrwt>
<rscale>  0 0.13165648E+03</rscale>
<asrwt>0</asrwt>
<pdfrwt beam="2">  1        4 0.12207230E-01 0.13842582E+03</pdfrwt>
<pdfrwt beam="1">  1       -4 0.42041393E-01 0.13842582E+03</pdfrwt>
<totfact> 0.49505534E+02</totfact>
</mgrwt>
</event>
<event>
 6    1  0.8353100E-006  0.1808601E+03  0.7546771E-02  0.1172252E+00
         -2   -1    0    0    0  501 -0.00000000000E+00  0.00000000000E+00  0.51939914633E+02  0.51939914633E+02  0.00000000000E+00 0.  1.
          2   -1    0    0  501    0  0.00000000000E+00 -0.00000000000E+00 -0.57233845669E+03  0.57233845669E+03  0.00000000000E+00 0. -1.
          5    1    1    2  502    0 -0.20317565039E+02 -0.10608403341E+03 -0.15116775076E+03  0.18585048954E+03  0.47000000000E+01 0. -1.
         -5    1    1    2    0  502 -0.66378946860E+02  0.82542950244E+01 -0.16988792333E+03  0.18264253192E+03  0.47000000000E+01 0. -1.
        -11    1    1    2    0    0  0.36441729388E+02  0.81856260435E+02 -0.17725360080E+03  0.19861340843E+03  0.00000000000E+00 0. -1.
         11    1    1    2    0    0  0.50254782511E+02  0.15973477947E+02 -0.22089267172E+02  0.57171941432E+02  0.00000000000E+00 0.  1.
<mgrwt>
<rscale>  0 0.17547873E+03</rscale>
<asrwt>0</asrwt>
<pdfrwt beam="2">  1        2 0.88052073E-01 0.18086006E+03</pdfrwt>
<pdfrwt beam="1">  1       -2 0.79907558E-02 0.18086006E+03</pdfrwt>
<totfact> 0.49466389E+03</totfact>
</mgrwt>
</event>
<event>
 6    1  0.8353100E-006  0.2017997E+03  0.7546771E-02  0.1152428E+00
         -1   -1    0    0    0  501 -0.00000000000E+00  0.00000000000E+00  0.81009828760E+02  0.81009828760E+02  0.00000000000E+00 0.  1.
          1   -1    0    0  501    0  0.00000000000E+00 -0.00000000000E+00 -0.58495981456E+03  0.58495981456E+03  0.00000000000E+00 0. -1.
          5    1    1    2  502    0 -0.10090316622E+03  0.36978015603E+02 -0.35048713191E+03  0.36662261554E+03  0.47000000000E+01 0. -1.
         -5    1    1    2    0  502 -0.57492427337E+02 -0.40246284123E+02 -0.67294737444E+02  0.97343794227E+02  0.47000000000E+01 0. -1.
        -11    1    1    2    0    0  0.48709288027E+02 -0.59510916099E+01  0.16209509843E+02  0.51679381196E+02  0.00000000000E+00 0.  1.
         11    1    1    2    0    0  0.10968630553E+03  0.92193601302E+01 -0.10237762628E+03  0.15032385235E+03  0.00000000000E+00 0. -1.
<mgrwt>
<rscale>  0 0.19684612E+03</rscale>
<asrwt>0</asrwt>
<pdfrwt beam="2">  1        1 0.89993818E-01 0.20179975E+03</pdfrwt>
<pdfrwt beam="1">  1       -1 0.12463051E-01 0.20179975E+03</pdfrwt>
<totfact> 0.15662467E+03</totfact>
</mgrwt>
</event>
<event>
 6    1  0.8353100E-006  0.1394877E+03  0.7546771E-02  0.1226152E+00
          3   -1    0    0  501    0  0.00000000000E+00  0.00000000000E+00  0.48589900853E+03  0.48589900853E+03  0.00000000000E+00 0. -1.
         -3   -1    0    0    0  501 -0.00000000000E+00 -0.00000000000E+00 -0.31617543256E+02  0.31617543256E+02  0.00000000000E+00 0.  1.
          5    1    1    2  502    0  0.45275915089E+02 -0.57905838003E+02  0.88070670968E+02  0.11481083419E+03  0.47000000000E+01 0.  1.
         -5    1    1    2    0  502  0.16020008598E+02  0.49310001323E+02  0.18002502455E+03  0.18740121763E+03  0.47000000000E+01 0.  1.
        -11    1    1    2    0    0 -0.13242032711E+02  0.21638813569E+02  0.30871156187E+01  0.25556211883E+02  0.00000000000E+00 0.  1.
         11    1    1    2    0    0 -0.48053890976E+02 -0.13042976888E+02  0.18309865413E+03  0.18974828808E+03  0.00000000000E+00 0. -1.
<mgrwt>
<rscale>  0 0.13088290E+03</rscale>
<asrwt>0</asrwt>
<pdfrwt beam="1">  1        3 0.74753688E-01 0.13948771E+03</pdfrwt>
<pdfrwt beam="2">  1       -3 0.48642378E-02 0.13948771E+03</pdfrwt>
<totfact> 0.95509223E+02</totfact>
</mgrwt>
</event>
<event>
 6    1  0.8353100E-006  0.1359459E+03  0.7546771E-02  0.1230991E+00
          1   -1    0    0  501    0  0.00000000000E+00  0.00000000000E+00  0.98430769970E+03  0.98430769970E+03  0.00000000000E+00 0. -1.
         -1   -1    0    0    0  501 -0.00000000000E+00 -0.00000000000E+00 -0.19702395051E+02  0.19702395051E+02  0.00000000000E+00 0.  1.
          5    1    1    2  502    0  0.32945418623E+02 -0.86231959361E+02  0.51707470126E+03  0.52527106155E+03  0.47000000000E+01 0.  1.
         -5    1    1    2    0  502 -0.27854160271E+02  0.33024913929E+02  0.25896114127E+03  0.26258229543E+03  0.47000000000E+01 0.  1.
        -11    1    1    2    0    0  0.24352575629E+02  0.36517290094E+02  0.17375194319E+03  0.17921020667E+03  0.00000000000E+00 0. -1.
         11    1    1    2    0    0 -0.29443833981E+02  0.16689755338E+02  0.14817518939E+02  0.36946531099E+02  0.00000000000E+00 0.  1.
<mgrwt>
<rscale>  0 0.12764632E+03</rscale>
<asrwt>0</asrwt>
<pdfrwt beam="1">  1        1 0.15143192E+00 0.13594588E+03</pdfrwt>
<pdfrwt beam="2">  1       -1 0.30311385E-02 0.13594588E+03</pdfrwt>
<totfact> 0.59398826E+03</totfact>
</mgrwt>
</event>
<event>
 6    1  0.8353100E-006  0.2927201E+03  0.7546771E-02  0.1088937E+00
          2   -1    0    0  501    0  0.00000000000E+00  0.00000000000E+00  0.12123402333E+04  0.12123402333E+04  0.00000000000E+00 0.  1.
         -2   -1    0    0    0  501 -0.00000000000E+00 -0.00000000000E+00 -0.17669348401E+02  0.17669348401E+02  0.00000000000E+00 0. -1.
          5    1    1    2  502    0 -0.10976094407E+03  0.51649326721E+02  0.60476139146E+03  0.61682537918E+03  0.47000000000E+01 0.  1.
         -5    1    1    2    0  502  0.23120377313E+02 -0.15015308892E+02  0.61532485704E+02  0.67589556480E+02  0.47000000000E+01 0.  1.
        -11    1    1    2    0    0  0.55632340274E+02 -0.69823935690E+02  0.38399700690E+03  0.39423855796E+03  0.00000000000E+00 0. -1.
         11    1    1    2    0    0  0.31008226479E+02  0.33189917862E+02  0.14438000079E+03  0.15135608803E+03  0.00000000000E+00 0.  1.
<mgrwt>
<rscale>  0 0.29272008E+03</rscale>
<asrwt>0</asrwt>
<pdfrwt beam="1">  1        2 0.18651382E+00 0.29272008E+03</pdfrwt>
<pdfrwt beam="2">  1       -2 0.27183622E-02 0.29272008E+03</pdfrwt>
<totfact> 0.96534965E+03</totfact>
</mgrwt>
</event>
<event>
 6    1  0.8353100E-006  0.1504414E+03  0.7546771E-02  0.1208836E+00
         -1   -1    0    0    0  501 -0.00000000000E+00  0.00000000000E+00  0.14855317031E+03  0.14855317031E+03  0.00000000000E+00 0.  1.
          1   -1    0    0  501    0  0.00000000000E+00 -0.00000000000E+00 -0.16458205550E+03  0.16458205550E+03  0.00000000000E+00 0. -1.
          5    1    1    2  502    0  0.68815775649E+02 -0.40660988336E+02 -0.35441614839E+02  0.87562120880E+02  0.47000000000E+01 0.  1.
         -5    1    1    2    0  502  0.10079961097E+02  0.68630662157E+02 -0.47810390537E+02  0.84378296067E+02  0.47000000000E+01 0.  1.
        -11    1    1    2    0    0 -0.49860753101E+02 -0.53523995727E+02  0.71488396278E+02  0.10228149207E+03  0.00000000000E+00 0. -1.
         11    1    1    2    0    0 -0.29034983645E+02  0.25554321907E+02 -0.42652760869E+01  0.38913316788E+02  0.00000000000E+00 0.  1.
<mgrwt>
<rscale>  0 0.14339221E+03</rscale>
<asrwt>0</asrwt>
<pdfrwt beam="2">  1        1 0.25320316E-01 0.15044139E+03</pdfrwt>
<pdfrwt beam="1">  1       -1 0.22854334E-01 0.15044139E+03</pdfrwt>
<totfact> 0.29579593E+03</totfact>
</mgrwt>
</event>
<event>
 6    1  0.8353100E-006  0.1717856E+03  0.7546771E-02  0.1182448E+00
         -2   -1    0    0    0  501 -0.00000000000E+00  0.00000000000E+00  0.18094906364E+02  0.18094906364E+02  0.00000000000E+00 0.  1.
          2   -1    0    0  501    0  0.00000000000E+00 -0.00000000000E+00 -0.14265651039E+04  0.14265651039E+04  0.00000000000E+00 0. -1.
          5    1    1    2  502    0 -0.87167066063E+01 -0.22917493832E+02 -0.45946652995E+03  0.46014429763E+03  0.47000000000E+01 0. -1.
         -5    1    1    2    0  502 -0.10913091600E+03  0.23317040883E+02 -0.35158227702E+03  0.36889758571E+03  0.47000000000E+01 0. -1.
        -11    1    1    2    0    0  0.27268124705E+02  0.27126735486E+02 -0.70972409442E+02  0.80724799814E+02  0.00000000000E+00 0.  1.
         11    1    1    2    0    0  0.90579497898E+02 -0.27526282537E+02 -0.52644898116E+03  0.53489332715E+03  0.00000000000E+00 0. -1.
<mgrwt>
<rscale>  0 0.16566224E+03</rscale>
<asrwt>0</asrwt>
<pdfrwt beam="2">  1        2 0.21947158E+00 0.17178556E+03</pdfrwt>
<pdfrwt beam="1">  1       -2 0.27838314E-02 0.17178556E+03</pdfrwt>
<totfact> 0.69871456E+03</totfact>
</mgrwt>
</event>
<event>
 6    1  0.8353100E-006  0.3664843E+03  0.7546771E-02  0.1056045E+00
         -2   -1    0    0    0  501 -0.00000000000E+00  0.00000000000E+00  0.17341780335E+02  0.17341780335E+02  0.00000000000E+00 0.  1.
          2   -1    0    0  501    0  0.00000000000E+00 -0.00000000000E+00 -0.19362311159E+04  0.19362311159E+04  0.00000000000E+00 0. -1.
          5    1    1    2  502    0 -0.10725787797E+02 -0.12140232385E+03 -0.12873358941E+04  0.12931006770E+04  0.47000000000E+01 0.  1.
         -5    1    1    2    0  502 -0.82699311373E+01  0.31679240797E+02 -0.34382284543E+03  0.34541019831E+03  0.47000000000E+01 0.  1.
        -11    1    1    2    0    0  0.19375852605E+02  0.44134576341E+02 -0.38480610482E+02  0.61676915260E+02  0.00000000000E+00 0. -1.
         11    1    1    2    0    0 -0.38013367115E+00  0.45588506712E+02 -0.24924998559E+03  0.25338510565E+03  0.00000000000E+00 0.  1.
<mgrwt>
<rscale>  0 0.36648435E+03</rscale>
<asrwt>0</asrwt>
<pdfrwt beam="2">  1        2 0.29788178E+00 0.36648435E+03</pdfrwt>
<pdfrwt beam="1">  1       -2 0.26679656E-02 0.36648435E+03</pdfrwt>
<totfact> 0.40429230E+03</totfact>
</mgrwt>
</event>
<event>
 6    1  0.8353100E-006  0.3138764E+03  0.7546771E-02  0.1078503E+00
         -2   -1    0    0    0  501 -0.00000000000E+00  0.00000000000E+00  0.25272270625E+02  0.25272270625E+02  0.00000000000E+00 0.  1.
          2   -1    0    0  501    0  0.00000000000E+00 -0.00000000000E+00 -0.97457013236E+03  0.97457013236E+03  0.00000000000E+00 0. -1.
          5    1    1    2  502    0 -0.92715837928E+02  0.20185372849E+02 -0.65751855979E+03  0.66434661311E+03  0.47000000000E+01 0. -1.
         -5    1    1    2    0  502 -0.84755991114E+01 -0.77910642935E+01  0.23668859449E+00  0.12437141336E+02  0.47000000000E+01 0. -1.
        -11    1    1    2    0    0  0.10216374908E+03  0.18907285590E+02 -0.24937388727E+03  0.27015227692E+03  0.00000000000E+00 0. -1.
         11    1    1    2    0    0 -0.97231203636E+00 -0.31301594146E+02 -0.42642103274E+02  0.52906371623E+02  0.00000000000E+00 0.  1.
<mgrwt>
<rscale>  0 0.31387641E+03</rscale>
<asrwt>0</asrwt>
<pdfrwt beam="2">  1        2 0.14993383E+00 0.31387641E+03</pdfrwt>
<pdfrwt beam="1">  1       -2 0.38880426E-02 0.31387641E+03</pdfrwt>
<totfact> 0.78281180E+03</totfact>
</mgrwt>
</event>
<event>
 6    1  0.8353100E-006  0.1313422E+03  0.7546771E-02  0.1241376E+00
         -1   -1    0    0    0  501 -0.00000000000E+00  0.00000000000E+00  0.65333229503E+02  0.65333229503E+02  0.00000000000E+00 0.  1.
          1   -1    0    0  501    0  0.00000000000E+00 -0.00000000000E+00 -0.27293030235E+03  0.27293030235E+03  0.00000000000E+00 0. -1.
          5    1    1    2  502    0  0.44039803634E+02  0.33022271121E+02 -0.75990914600E+02  0.93950432653E+02  0.47000000000E+01 0. -1.
         -5    1    1    2    0  502 -0.28027485405E+02 -0.70028484841E+02 -0.12900804117E+03  0.14951485984E+03  0.47000000000E+01 0. -1.
        -11    1    1    2    0    0 -0.32840539070E+01  0.52312158243E+02  0.27130288307E+02  0.59020330850E+02  0.00000000000E+00 0.  1.
         11    1    1    2    0    0 -0.12728264322E+02 -0.15305944522E+02 -0.29728405381E+02  0.35777908503E+02  0.00000000000E+00 0. -1.
<mgrwt>
<rscale>  0 0.12104937E+03</rscale>
<asrwt>0</asrwt>
<pdfrwt beam="2">  1        1 0.41989277E-01 0.13134221E+03</pdfrwt>
<pdfrwt beam="1">  1       -1 0.10051266E-01 0.13134221E+03</pdfrwt>
<totfact> 0.56976719E+03</totfact>
</mgrwt>
</event>
<event>
 6    1  0.8353100E-006  0.1184811E+03  0.7546771E-02  0.1326752E+00
          2   -1    0    0  501    0  0.00000000000E+00  0.00000000000E+00  0.58490478540E+03  0.58490478540E+03  0.00000000000E+00 0. -1.
         -2   -1    0    0    0  501 -0.00000000000E+00 -0.00000000000E+00 -0.89126169629E+01  0.89126169629E+01  0.00000000000E+00 0.  1.
          5    1    1    2  502    0  0.56110696374E+02  0.69310345444E+01  0.20532098222E+03  0.21301465965E+03  0.47000000000E+01 0. -1.
         -5    1    1    2    0  502 -0.52237130942E+02 -0.30993794523E+02  0.28148673129E+03  0.28800382470E+03  0.47000000000E+01 0.  1.
        -11    1    1    2    0    0  0.13631067971E+01  0.14514586821E+02  0.45549822519E+02  0.47825909529E+02  0.00000000000E+00 0. -1.
         11    1    1    2    0    0 -0.52366722291E+01  0.95481731581E+01  0.43634632412E+02  0.44973008488E+02  0.00000000000E+00 0.  1.
<mgrwt>
<rscale>  0 0.80815796E+02</rscale>
<asrwt>0</asrwt>
<pdfrwt beam="1">  1        2 0.89985322E-01 0.11848110E+03</pdfrwt>
<pdfrwt beam="2">  1       -2 0.13711723E-02 0.11848110E+03</pdfrwt>
<totfact> 0.63722831E+04</totfact>
</mgrwt>
</event>
<event>
 6    1  0.8353100E-006  0.1327538E+03  0.7546771E-02  0.1235521E+00
         -1   -1    0    0    0  501 -0.00000000000E+00  0.00000000000E+00  0.26037593598E+03  0.26037593598E+03  0.00000000000E+00 0.  1.
          1   -1    0    0  501    0  0.00000000000E+00 -0.00000000000E+00 -0.53640233235E+02  0.53640233235E+02  0.00000000000E+00 0. -1.
          5    1    1    2  502    0 -0.60139410070E+02  0.11267270987E+02  0.69991149987E+02  0.93083570599E+02  0.47000000000E+01 0.  1.
         -5    1    1    2    0  502  0.45195920168E+02 -0.53371527165E+02  0.52861272977E+02  0.87792911402E+02  0.47000000000E+01 0.  1.
        -11    1    1    2    0    0 -0.33302766050E+02  0.11943336426E+02  0.47832225745E+01  0.35701494784E+02  0.00000000000E+00 0. -1.
         11    1    1    2    0    0  0.48246255952E+02  0.30160919752E+02  0.79100057204E+02  0.97438192427E+02  0.00000000000E+00 0.  1.
<mgrwt>
<rscale>  0 0.12471147E+03</rscale>
<asrwt>0</asrwt>
<pdfrwt beam="2">  1        1 0.82523437E-02 0.13275385E+03</pdfrwt>
<pdfrwt beam="1">  1       -1 0.40057836E-01 0.13275385E+03</pdfrwt>
<totfact> 0.48898981E+03</totfact>
</mgrwt>
</event>
<event>
 6    1  0.8353100E-006  0.1260861E+03  0.7546771E-02  0.1250189E+00
          1   -1    0    0  501    0  0.00000000000E+00  0.00000000000E+00  0.12774390611E+03  0.12774390611E+03  0.00000000000E+00 0.  1.
         -1   -1    0    0    0  501 -0.00000000000E+00 -0.00000000000E+00 -0.95599407576E+02  0.95599407576E+02  0.00000000000E+00 0. -1.
          5    1    1    2  502    0  0.60628660490E+02  0.15931852820E+02  0.79785426799E+01  0.63367227731E+02  0.47000000000E+01 0.  1.
         -5    1    1    2    0  502 -0.60362515544E+02  0.46883285806E+00  0.34475553946E+02  0.69674291578E+02  0.47000000000E+01 0.  1.
        -11    1    1    2    0    0 -0.10981773603E+02 -0.63714390057E+01  0.37867211040E+02  0.39938956652E+02  0.00000000000E+00 0.  1.
         11    1    1    2    0    0  0.10715628658E+02 -0.10029246672E+02 -0.48176809128E+02  0.50362837729E+02  0.00000000000E+00 0. -1.
<mgrwt>
<rscale>  0 0.11580096E+03</rscale>
<asrwt>0</asrwt>
<pdfrwt beam="1">  1        1 0.19652909E-01 0.12608606E+03</pdfrwt>
<pdfrwt beam="2">  1       -1 0.14707601E-01 0.12608606E+03</pdfrwt>
<totfact> 0.81386881E+03</totfact>
</mgrwt>
</event>
<event>
 6    1  0.8353100E-006  0.1603954E+03  0.7546771E-02  0.1196179E+00
         -2   -1    0    0    0  501 -0.00000000000E+00  0.00000000000E+00  0.16291335109E+02  0.16291335109E+02  0.00000000000E+00 0.  1.
          2   -1    0    0  501    0  0.00000000000E+00 -0.00000000000E+00 -0.17168697378E+04  0.17168697378E+04  0.00000000000E+00 0. -1.
          5    1    1    2  502    0 -0.40880675894E+02  0.21889325650E+02 -0.10838453784E+04  0.10848471166E+04  0.47000000000E+01 0. -1.
         -5    1    1    2    0  502 -0.13736208628E+02  0.62473309893E+02 -0.23077674715E+03  0.23952368338E+03  0.47000000000E+01 0. -1.
        -11    1    1    2    0    0  0.46509712584E+02 -0.12383335468E+02 -0.72132759812E+02  0.86715831312E+02  0.00000000000E+00 0.  1.
         11    1    1    2    0    0  0.81071719385E+01 -0.71979300074E+02 -0.31382351736E+03  0.32207444159E+03  0.00000000000E+00 0. -1.
<mgrwt>
<rscale>  0 0.15354838E+03</rscale>
<asrwt>0</asrwt>
<pdfrwt beam="2">  1        2 0.26413386E+00 0.16039540E+03</pdfrwt>
<pdfrwt beam="1">  1       -2 0.25063587E-02 0.16039540E+03</pdfrwt>
<totfact> 0.57413278E+03</totfact>
</mgrwt>
</event>
<event>
 6    1  0.8353100E-006  0.3395014E+03  0.7546771E-02  0.1067008E+00
         -3   -1    0    0    0  501 -0.00000000000E+00  0.00000000000E+00  0.93185794640E+02  0.93185794640E+02  0.00000000000E+00 0.  1.
          3   -1    0    0  501    0  0.00000000000E+00 -0.00000000000E+00 -0.30922414101E+03  0.30922414101E+03  0.00000000000E+00 0. -1.
          5    1    1    2  502    0 -0.12969569665E+01  0.30129189669E+01 -0.18126559905E+03  0.18135618870E+03  0.47000000000E+01 0. -1.
         -5    1    1    2    0  502  0.67945576762E+02  0.35556775174E+02 -0.47067739550E+02  0.90101874391E+02  0.47000000000E+01 0. -1.
        -11    1    1    2    0    0  0.15501616402E+02  0.41580799481E+01  0.32435585031E+02  0.36189182309E+02  0.00000000000E+00 0.  1.
         11    1    1    2    0    0 -0.82150236198E+02 -0.42727774089E+02 -0.20140592795E+02  0.94762690253E+02  0.00000000000E+00 0. -1.
<mgrwt>
<rscale>  0 0.33950138E+03</rscale>
<asrwt>0</asrwt>
<pdfrwt beam="2">  1        3 0.47572945E-01 0.33950138E+03</pdfrwt>
<pdfrwt beam="1">  1       -3 0.14336276E-01 0.33950138E+03</pdfrwt>
<totfact> 0.45813094E+02</totfact>
</mgrwt>
</event>
<event>
 6    1  0.8353100E-006  0.3987359E+03  0.7546771E-02  0.1044218E+00
          3   -1    0    0  501    0  0.00000000000E+00  0.00000000000E+00  0.41177210273E+02  0.41177210273E+02  0.00000000000E+00 0. -1.
         -3   -1    0    0    0  501 -0.00000000000E+00 -0.00000000000E+00 -0.96528101389E+03  0.96528101389E+03  0.00000000000E+00 0.  1.
          5    1    1    2  502    0 -0.74373974960E+01 -0.80563313899E+01 -0.12608958272E+03  0.12665264398E+03  0.47000000000E+01 0. -1.
         -5    1    1    2    0  502  0.14898012942E+03  0.95803739104E+02 -0.32463412806E+03  0.36984164515E+03  0.47000000000E+01 0. -1.
        -11    1    1    2    0    0 -0.22362860643E+02  0.11121606929E+02 -0.14211101703E+03  0.14428904614E+03  0.00000000000E+00 0.  1.
         11    1    1    2    0    0 -0.11917987128E+03 -0.98869014643E+02 -0.33126907582E+03  0.36567488889E+03  0.00000000000E+00 0. -1.
<mgrwt>
<rscale>  0 0.39873590E+03</rscale>
<asrwt>0</asrwt>
<pdfrwt beam="1">  1        3 0.63349564E-02 0.39873590E+03</pdfrwt>
<pdfrwt beam="2">  1       -3 0.14850475E+00 0.39873590E+03</pdfrwt>
<totfact> 0.14127381E+02</totfact>
</mgrwt>
</event>
<event>
 6    1  0.8353100E-006  0.1264884E+03  0.7546771E-02  0.1248281E+00
          2   -1    0    0  501    0  0.00000000000E+00  0.00000000000E+00  0.10695835784E+03  0.10695835784E+03  0.00000000000E+00 0. -1.
         -2   -1    0    0    0  501 -0.00000000000E+00 -0.00000000000E+00 -0.11876828577E+03  0.11876828577E+03  0.00000000000E+00 0.  1.
          5    1    1    2  502    0 -0.44242751461E+02 -0.38210385134E+02 -0.43729763765E+01  0.58810437095E+02  0.47000000000E+01 0.  1.
         -5    1    1    2    0  502  0.59177454444E+02  0.26000246264E+02  0.24423223973E+02  0.69257258028E+02  0.47000000000E+01 0.  1.
        -11    1    1    2    0    0 -0.67885801683E+01  0.45065188253E+02  0.70167451710E+01  0.46110635712E+02  0.00000000000E+00 0. -1.
         11    1    1    2    0    0 -0.81461228150E+01 -0.32855049382E+02 -0.38876920696E+02  0.51548312772E+02  0.00000000000E+00 0.  1.
<mgrwt>
<rscale>  0 0.11691145E+03</rscale>
<asrwt>0</asrwt>
<pdfrwt beam="1">  1        2 0.16455132E-01 0.12648843E+03</pdfrwt>
<pdfrwt beam="2">  1       -2 0.18272044E-01 0.12648843E+03</pdfrwt>
<totfact> 0.80412739E+03</totfact>
</mgrwt>
</event>
<event>
 6    1  0.8353100E-006  0.3074484E+03  0.7546771E-02  0.1081575E+00
          1   -1    0    0  501    0  0.00000000000E+00  0.00000000000E+00  0.16498114601E+03  0.16498114601E+03  0.00000000000E+00 0. -1.
         -1   -1    0    0    0  501 -0.00000000000E+00 -0.00000000000E+00 -0.14323534248E+03  0.14323534248E+03  0.00000000000E+00 0.  1.
          5    1    1    2  502    0 -0.68164915990E+02 -0.11414973919E+03  0.56466090978E+01  0.13315627256E+03  0.47000000000E+01 0.  1.
         -5    1    1    2    0  502 -0.46721249937E+01  0.32008270970E+02 -0.58674583859E+01  0.33209565344E+02  0.47000000000E+01 0.  1.
        -11    1    1    2    0    0  0.75484725973E+02  0.20200939639E+02  0.11939499379E+02  0.79047918777E+02  0.00000000000E+00 0. -1.
         11    1    1    2    0    0 -0.26476849890E+01  0.61940528578E+02  0.10027153440E+02  0.62802731808E+02  0.00000000000E+00 0.  1.
<mgrwt>
<rscale>  0 0.30744841E+03</rscale>
<asrwt>0</asrwt>
<pdfrwt beam="1">  1        1 0.25381715E-01 0.30744841E+03</pdfrwt>
<pdfrwt beam="2">  1       -1 0.22036206E-01 0.30744841E+03</pdfrwt>
<totfact> 0.32216005E+03</totfact>
</mgrwt>
</event>
<event>
 6    1  0.8353100E-006  0.1333543E+03  0.7546771E-02  0.1235077E+00
         -2   -1    0    0    0  501 -0.00000000000E+00  0.00000000000E+00  0.10232958451E+02  0.10232958451E+02  0.00000000000E+00 0. -1.
          2   -1    0    0  501    0  0.00000000000E+00 -0.00000000000E+00 -0.16155397270E+04  0.16155397270E+04  0.00000000000E+00 0.  1.
          5    1    1    2  502    0  0.24133475755E+02  0.24687561657E+02 -0.80082954550E+03  0.80158714517E+03  0.47000000000E+01 0. -1.
         -5    1    1    2    0  502 -0.18985212511E+02 -0.70873342375E+02 -0.40756892833E+03  0.41414730507E+03  0.47000000000E+01 0. -1.
        -11    1    1    2    0    0 -0.14511699162E+01  0.66642738679E+02 -0.37040256886E+03  0.37635279132E+03  0.00000000000E+00 0.  1.
         11    1    1    2    0    0 -0.36970933271E+01 -0.20456957961E+02 -0.26505725897E+02  0.33685443940E+02  0.00000000000E+00 0. -1.
<mgrwt>
<rscale>  0 0.12499534E+03</rscale>
<asrwt>0</asrwt>
<pdfrwt beam="2">  1        2 0.24854452E+00 0.13335435E+03</pdfrwt>
<pdfrwt beam="1">  1       -2 0.15743016E-02 0.13335435E+03</pdfrwt>
<totfact> 0.12655759E+04</totfact>
</mgrwt>
</event>
<event>
 6    1  0.8353100E-006  0.1554529E+03  0.7546771E-02  0.1202250E+00
          3   -1    0    0  501    0  0.00000000000E+00  0.00000000000E+00  0.76026931272E+02  0.76026931272E+02  0.00000000000E+00 0. -1.
         -3   -1    0    0    0  501 -0.00000000000E+00 -0.00000000000E+00 -0.26811224822E+03  0.26811224822E+03  0.00000000000E+00 0.  1.
          5    1    1    2  502    0  0.75259741588E+02 -0.72995106592E+02 -0.95741645071E+02  0.14205937805E+03  0.47000000000E+01 0.  1.
         -5    1    1    2    0  502 -0.44858124453E+02 -0.14278682894E+02 -0.18244268697E+02  0.50705773388E+02  0.47000000000E+01 0.  1.
        -11    1    1    2    0    0 -0.35031140012E+02  0.10155422682E+03 -0.47843706470E+02  0.11759873300E+03  0.00000000000E+00 0. -1.
         11    1    1    2    0    0  0.46295228767E+01 -0.14280437334E+02 -0.30255696712E+02  0.33775295055E+02  0.00000000000E+00 0.  1.
<mgrwt>
<rscale>  0 0.14856276E+03</rscale>
<asrwt>0</asrwt>
<pdfrwt beam="1">  1        3 0.11696451E-01 0.15545294E+03</pdfrwt>
<pdfrwt beam="2">  1       -3 0.41248038E-01 0.15545294E+03</pdfrwt>
<totfact> 0.78260951E+02</totfact>
</mgrwt>
</event>
<event>
 6    1  0.8353100E-006  0.1541931E+03  0.7546771E-02  0.1203776E+00
         -2   -1    0    0    0  501 -0.00000000000E+00  0.00000000000E+00  0.27294634699E+02  0.27294634699E+02  0.00000000000E+00 0.  1.
          2   -1    0    0  501    0  0.00000000000E+00 -0.00000000000E+00 -0.73491714177E+03  0.73491714177E+03  0.00000000000E+00 0. -1.
          5    1    1    2  502    0  0.16058083445E+02 -0.19337122578E+02 -0.33451684962E+03  0.33549277046E+03  0.47000000000E+01 0.  1.
         -5    1    1    2    0  502  0.42055574322E+01 -0.68637382068E+02 -0.73866255488E+02  0.10103014714E+03  0.47000000000E+01 0.  1.
        -11    1    1    2    0    0  0.17972995916E+02  0.87775329489E+02 -0.22495253854E+03  0.24213876527E+03  0.00000000000E+00 0. -1.
         11    1    1    2    0    0 -0.38236636793E+02  0.19917515662E+00 -0.74286863424E+02  0.83550093605E+02  0.00000000000E+00 0.  1.
<mgrwt>
<rscale>  0 0.14734299E+03</rscale>
<asrwt>0</asrwt>
<pdfrwt beam="2">  1        2 0.11306417E+00 0.15419305E+03</pdfrwt>
<pdfrwt beam="1">  1       -2 0.41991746E-02 0.15419305E+03</pdfrwt>
<totfact> 0.97460269E+03</totfact>
</mgrwt>
</event>
<event>
 6    1  0.8353100E-006  0.1547864E+03  0.7546771E-02  0.1204903E+00
         -1   -1    0    0    0  501 -0.00000000000E+00  0.00000000000E+00  0.21436171504E+03  0.21436171504E+03  0.00000000000E+00 0.  1.
          1   -1    0    0  501    0  0.00000000000E+00 -0.00000000000E+00 -0.95048430720E+02  0.95048430720E+02  0.00000000000E+00 0. -1.
          5    1    1    2  502    0  0.14136538851E+02  0.27154151150E+02 -0.31022659485E+01  0.31127218144E+02  0.47000000000E+01 0.  1.
         -5    1    1    2    0  502 -0.48968809959E+02 -0.11154407678E+03  0.36026015750E+02  0.12712194628E+03  0.47000000000E+01 0.  1.
        -11    1    1    2    0    0 -0.30554284708E+01  0.78578721311E+02  0.80223002702E+02  0.11233735464E+03  0.00000000000E+00 0.  1.
         11    1    1    2    0    0  0.37887699579E+02  0.58112043234E+01  0.61665318149E+01  0.38823626694E+02  0.00000000000E+00 0. -1.
<mgrwt>
<rscale>  0 0.14645089E+03</rscale>
<asrwt>0</asrwt>
<pdfrwt beam="2">  1        1 0.14622836E-01 0.15478638E+03</pdfrwt>
<pdfrwt beam="1">  1       -1 0.32978725E-01 0.15478638E+03</pdfrwt>
<totfact> 0.32438282E+03</totfact>
</mgrwt>
</event>
<event>
 6    1  0.8353100E-006  0.1312722E+03  0.7546771E-02  0.1234745E+00
          3   -1    0    0  501    0  0.00000000000E+00  0.00000000000E+00  0.11844692311E+03  0.11844692311E+03  0.00000000000E+00 0. -1.
         -3   -1    0    0    0  501 -0.00000000000E+00 -0.00000000000E+00 -0.13215382543E+03  0.13215382543E+03  0.00000000000E+00 0.  1.
          5    1    1    2  502    0  0.37716623674E+02 -0.72038411776E+02  0.40220558363E+02  0.90839747840E+02  0.47000000000E+01 0. -1.
         -5    1    1    2    0  502 -0.21281989824E+02  0.35467750322E+02 -0.12220052345E+02  0.43385528499E+02  0.47000000000E+01 0. -1.
        -11    1    1    2    0    0  0.91240073650E+01  0.55699104687E+02  0.82983882393E+01  0.57048234160E+02  0.00000000000E+00 0. -1.
         11    1    1    2    0    0 -0.25558641215E+02 -0.19128443234E+02 -0.50005796581E+02  0.59327238036E+02  0.00000000000E+00 0.  1.
<mgrwt>
<rscale>  0 0.12520800E+03</rscale>
<asrwt>0</asrwt>
<pdfrwt beam="1">  1        3 0.18222604E-01 0.13127222E+03</pdfrwt>
<pdfrwt beam="2">  1       -3 0.20331358E-01 0.13127222E+03</pdfrwt>
<totfact> 0.13190499E+03</totfact>
</mgrwt>
</event>
<event>
 6    1  0.8353100E-006  0.1276159E+03  0.7546771E-02  0.1245448E+00
         -1   -1    0    0    0  501 -0.00000000000E+00  0.00000000000E+00  0.68784083449E+02  0.68784083449E+02  0.00000000000E+00 0.  1.
          1   -1    0    0  501    0  0.00000000000E+00 -0.00000000000E+00 -0.19091507177E+03  0.19091507177E+03  0.00000000000E+00 0. -1.
          5    1    1    2  502    0  0.33842928667E+02 -0.36868342045E+02 -0.27358144252E+02  0.57229157977E+02  0.47000000000E+01 0.  1.
         -5    1    1    2    0  502 -0.53957798149E+02  0.52901910672E+02 -0.72325206550E+02  0.10470473550E+03  0.47000000000E+01 0.  1.
        -11    1    1    2    0    0  0.41964478775E+02  0.24768520182E+02 -0.14165447694E+02  0.50746004564E+02  0.00000000000E+00 0. -1.
         11    1    1    2    0    0 -0.21849609292E+02 -0.40802088809E+02 -0.82821898274E+01  0.47019257180E+02  0.00000000000E+00 0.  1.
<mgrwt>
<rscale>  0 0.11858630E+03</rscale>
<asrwt>0</asrwt>
<pdfrwt beam="2">  1        1 0.29371549E-01 0.12761589E+03</pdfrwt>
<pdfrwt beam="1">  1       -1 0.10582167E-01 0.12761589E+03</pdfrwt>
<totfact> 0.81788079E+03</totfact>
</mgrwt>
</event>
<event>
 6    1  0.8353100E-006  0.1692822E+03  0.7546771E-02  0.1185343E+00
         -1   -1    0    0    0  501 -0.00000000000E+00  0.00000000000E+00  0.77823198446E+02  0.77823198446E+02  0.00000000000E+00 0.  1.
          1   -1    0    0  501    0  0.00000000000E+00 -0.00000000000E+00 -0.33750147370E+03  0.33750147370E+03  0.00000000000E+00 0. -1.
          5    1    1    2  502    0  0.92736137093E+02  0.47018990227E+02 -0.13724178728E+03  0.17224452020E+03  0.47000000000E+01 0. -1.
         -5    1    1    2    0  502  0.20769598471E+02 -0.59120932760E+02 -0.51107896395E+02  0.80998567795E+02  0.47000000000E+01 0. -1.
        -11    1    1    2    0    0 -0.86852354632E+02  0.34214880515E+02 -0.13004421496E+02  0.94250222983E+02  0.00000000000E+00 0.  1.
         11    1    1    2    0    0 -0.26653380931E+02 -0.22112937982E+02 -0.58324170089E+02  0.67831361167E+02  0.00000000000E+00 0. -1.
<mgrwt>
<rscale>  0 0.16300692E+03</rscale>
<asrwt>0</asrwt>
<pdfrwt beam="2">  1        1 0.51923303E-01 0.16928219E+03</pdfrwt>
<pdfrwt beam="1">  1       -1 0.11972800E-01 0.16928219E+03</pdfrwt>
<totfact> 0.33880681E+03</totfact>
</mgrwt>
</event>
<event>
 6    1  0.8353100E-006  0.1266890E+03  0.7546771E-02  0.1255308E+00
         -4   -1    0    0    0  501 -0.00000000000E+00  0.00000000000E+00  0.36615481771E+03  0.36615481771E+03  0.00000000000E+00 0.  1.
          4   -1    0    0  501    0  0.00000000000E+00 -0.00000000000E+00 -0.29723950681E+02  0.29723950681E+02  0.00000000000E+00 0. -1.
          5    1    1    2  502    0  0.51557561935E+02 -0.48054039974E+02  0.90218895832E+02  0.11458146497E+03  0.47000000000E+01 0. -1.
         -5    1    1    2    0  502 -0.31073544614E+02  0.45820690419E+02  0.88171748507E+02  0.10421827134E+03  0.47000000000E+01 0. -1.
        -11    1    1    2    0    0 -0.21197311057E+02  0.28279487929E+02  0.29830361439E+02  0.46248306965E+02  0.00000000000E+00 0. -1.
         11    1    1    2    0    0  0.71329373482E+00 -0.26046138374E+02  0.12820986125E+03  0.13083072511E+03  0.00000000000E+00 0.  1.
<mgrwt>
<rscale>  0 0.11289094E+03</rscale>
<asrwt>0</asrwt>
<pdfrwt beam="2">  1        4 0.45729157E-02 0.12668900E+03</pdfrwt>
<pdfrwt beam="1">  1       -4 0.56331507E-01 0.12668900E+03</pdfrwt>
<totfact> 0.13576744E+03</totfact>
</mgrwt>
</event>
<event>
 6    1  0.8353100E-006  0.3418331E+03  0.7546771E-02  0.1066018E+00
         -1   -1    0    0    0  501 -0.00000000000E+00  0.00000000000E+00  0.78601157844E+02  0.78601157844E+02  0.00000000000E+00 0.  1.
          1   -1    0    0  501    0  0.00000000000E+00 -0.00000000000E+00 -0.37165436510E+03  0.37165436510E+03  0.00000000000E+00 0. -1.
          5    1    1    2  502    0  0.18148684678E+02 -0.13318265779E+03 -0.67874440214E+02  0.15065199875E+03  0.47000000000E+01 0. -1.
         -5    1    1    2    0  502  0.37208503659E+00  0.18117311125E+01 -0.91051620163E+02  0.91191602416E+02  0.47000000000E+01 0. -1.
        -11    1    1    2    0    0 -0.63433220707E+01  0.22724250066E+02  0.11554474446E+02  0.26270423592E+02  0.00000000000E+00 0. -1.
         11    1    1    2    0    0 -0.12177447644E+02  0.10864667662E+03 -0.14568162133E+03  0.18214149819E+03  0.00000000000E+00 0.  1.
<mgrwt>
<rscale>  0 0.34183308E+03</rscale>
<asrwt>0</asrwt>
<pdfrwt beam="2">  1        1 0.57177595E-01 0.34183308E+03</pdfrwt>
<pdfrwt beam="1">  1       -1 0.12092486E-01 0.34183308E+03</pdfrwt>
<totfact> 0.30226024E+03</totfact>
</mgrwt>
</event>
<event>
 6    1  0.8353100E-006  0.2255268E+03  0.7546771E-02  0.1133758E+00
          1   -1    0    0  501    0  0.00000000000E+00  0.00000000000E+00  0.47308207804E+03  0.47308207804E+03  0.00000000000E+00 0. -1.
         -1   -1    0    0    0  501 -0.00000000000E+00 -0.00000000000E+00 -0.13503302189E+03  0.13503302189E+03  0.00000000000E+00 0.  1.
          5    1    1    2  502    0 -0.10507194624E+03 -0.24726133293E+02  0.24949203113E+03  0.27188206846E+03  0.47000000000E+01 0.  1.
         -5    1    1    2    0  502 -0.78989688779E+02  0.61685101667E+02  0.84780584762E+02  0.13135547287E+03  0.47000000000E+01 0.  1.
        -11    1    1    2    0    0  0.16540768325E+02 -0.33190409261E+02 -0.27653685694E+01  0.37186658186E+02  0.00000000000E+00 0. -1.
         11    1    1    2    0    0  0.16752086670E+03 -0.37685591138E+01  0.65418088256E+01  0.16769090041E+03  0.00000000000E+00 0.  1.
<mgrwt>
<rscale>  0 0.22016778E+03</rscale>
<asrwt>0</asrwt>
<pdfrwt beam="1">  1        1 0.72781857E-01 0.22552679E+03</pdfrwt>
<pdfrwt beam="2">  1       -1 0.20774311E-01 0.22552679E+03</pdfrwt>
<totfact> 0.92264388E+02</totfact>
</mgrwt>
</event>
<event>
 6    1  0.8353100E-006  0.1343095E+03  0.7546771E-02  0.1233613E+00
         -1   -1    0    0    0  501 -0.00000000000E+00  0.00000000000E+00  0.72896319961E+02  0.72896319961E+02  0.00000000000E+00 0.  1.
          1   -1    0    0  501    0  0.00000000000E+00 -0.00000000000E+00 -0.22970885976E+03  0.22970885976E+03  0.00000000000E+00 0. -1.
          5    1    1    2  502    0 -0.35765046684E+02  0.55987707311E+02 -0.14522011832E+03  0.15976462281E+03  0.47000000000E+01 0. -1.
         -5    1    1    2    0  502 -0.95095823488E+01 -0.36935144203E+02 -0.52899257906E+00  0.38431847040E+02  0.47000000000E+01 0. -1.
        -11    1    1    2    0    0 -0.10574727425E+02 -0.28062145099E+02  0.23513118488E+02  0.38107421701E+02  0.00000000000E+00 0.  1.
         11    1    1    2    0    0  0.55849356457E+02  0.90095819914E+01 -0.34576547380E+02  0.66301288170E+02  0.00000000000E+00 0. -1.
<mgrwt>
<rscale>  0 0.12593638E+03</rscale>
<asrwt>0</asrwt>
<pdfrwt beam="2">  1        1 0.35339824E-01 0.13430948E+03</pdfrwt>
<pdfrwt beam="1">  1       -1 0.11214819E-01 0.13430948E+03</pdfrwt>
<totfact> 0.59705798E+03</totfact>
</mgrwt>
</event>
<event>
 6    1  0.8353100E-006  0.1333243E+03  0.7546771E-02  0.1235531E+00
          2   -1    0    0  501    0  0.00000000000E+00  0.00000000000E+00  0.80419977870E+02  0.80419977870E+02  0.00000000000E+00 0. -1.
         -2   -1    0    0    0  501 -0.00000000000E+00 -0.00000000000E+00 -0.19653770753E+03  0.19653770753E+03  0.00000000000E+00 0.  1.
          5    1    1    2  502    0 -0.41881668258E+02 -0.14739124416E+01 -0.45679297072E+02  0.62168599268E+02  0.47000000000E+01 0.  1.
         -5    1    1    2    0  502  0.48546700364E+02 -0.44473380676E+02  0.29189007453E+02  0.72171683236E+02  0.47000000000E+01 0.  1.
        -11    1    1    2    0    0  0.10419964807E+02 -0.23459812804E+02 -0.48035836395E+02  0.54464484406E+02  0.00000000000E+00 0.  1.
         11    1    1    2    0    0 -0.17084996913E+02  0.69407105922E+02 -0.51591603649E+02  0.88152918494E+02  0.00000000000E+00 0. -1.
<mgrwt>
<rscale>  0 0.12470527E+03</rscale>
<asrwt>0</asrwt>
<pdfrwt beam="1">  1        2 0.12372304E-01 0.13332435E+03</pdfrwt>
<pdfrwt beam="2">  1       -2 0.30236570E-01 0.13332435E+03</pdfrwt>
<totfact> 0.47215881E+03</totfact>
</mgrwt>
</event>
<event>
 6    1  0.8353100E-006  0.1718708E+03  0.7546771E-02  0.1182363E+00
          1   -1    0    0  501    0  0.00000000000E+00  0.00000000000E+00  0.37795092074E+03  0.37795092074E+03  0.00000000000E+00 0. -1.
         -1   -1    0    0    0  501 -0.00000000000E+00 -0.00000000000E+00 -0.68074886046E+02  0.68074886046E+02  0.00000000000E+00 0.  1.
          5    1    1    2  502    0  0.86783341166E+02 -0.11150992646E+02  0.17236186721E+03  0.19335562109E+03  0.47000000000E+01 0.  1.
         -5    1    1    2    0  502  0.25679399726E+02 -0.24426850820E+02 -0.15842669338E+02  0.39104766756E+02  0.47000000000E+01 0.  1.
        -11    1    1    2    0    0 -0.10920949468E+03 -0.17806145738E+01  0.98261281108E+02  0.14691890172E+03  0.00000000000E+00 0.  1.
         11    1    1    2    0    0 -0.32532462129E+01  0.37358458040E+02  0.55095555718E+02  0.66646517222E+02  0.00000000000E+00 0. -1.
<mgrwt>
<rscale>  0 0.16574126E+03</rscale>
<asrwt>0</asrwt>
<pdfrwt beam="1">  1        1 0.58146294E-01 0.17187080E+03</pdfrwt>
<pdfrwt beam="2">  1       -1 0.10473060E-01 0.17187080E+03</pdfrwt>
<totfact> 0.36154591E+03</totfact>
</mgrwt>
</event>
<event>
 6    1  0.8353100E-006  0.1468379E+03  0.7546771E-02  0.1214266E+00
          2   -1    0    0  501    0  0.00000000000E+00  0.00000000000E+00  0.23771850987E+03  0.23771850987E+03  0.00000000000E+00 0. -1.
         -2   -1    0    0    0  501 -0.00000000000E+00 -0.00000000000E+00 -0.74443024973E+02  0.74443024973E+02  0.00000000000E+00 0.  1.
          5    1    1    2  502    0 -0.23009330728E+02 -0.41501705732E+02  0.19174764193E+01  0.47724077729E+02  0.47000000000E+01 0. -1.
         -5    1    1    2    0  502  0.85850508461E+02 -0.30732841893E+01  0.95247903351E+02  0.12835111208E+03  0.47000000000E+01 0. -1.
        -11    1    1    2    0    0 -0.44134293861E+02  0.42674215652E+02 -0.58881079397E+01  0.61673287501E+02  0.00000000000E+00 0.  1.
         11    1    1    2    0    0 -0.18706883872E+02  0.19007742696E+01  0.71998213067E+02  0.74413057536E+02  0.00000000000E+00 0. -1.
<mgrwt>
<rscale>  0 0.13930576E+03</rscale>
<asrwt>0</asrwt>
<pdfrwt beam="1">  1        2 0.36572078E-01 0.14683787E+03</pdfrwt>
<pdfrwt beam="2">  1       -2 0.11452773E-01 0.14683787E+03</pdfrwt>
<totfact> 0.71817074E+03</totfact>
</mgrwt>
</event>
<event>
 6    1  0.8353100E-006  0.2181130E+03  0.7546771E-02  0.1161281E+00
          2   -1    0    0  501    0  0.00000000000E+00  0.00000000000E+00  0.12498886127E+04  0.12498886127E+04  0.00000000000E+00 0. -1.
         -2   -1    0    0    0  501 -0.00000000000E+00 -0.00000000000E+00 -0.27939640884E+02  0.27939640884E+02  0.00000000000E+00 0.  1.
          5    1    1    2  502    0  0.63302780405E+02  0.50238761064E+00  0.55281837682E+03  0.55645102403E+03  0.47000000000E+01 0. -1.
         -5    1    1    2    0  502 -0.13269750215E+03  0.32436241643E+02  0.47614819693E+03  0.49537857472E+03  0.47000000000E+01 0.  1.
        -11    1    1    2    0    0 -0.16831000539E+02 -0.23801193078E+02  0.33015188753E+02  0.44042956979E+02  0.00000000000E+00 0.  1.
         11    1    1    2    0    0  0.86225722286E+02 -0.91374361757E+01  0.15996720927E+03  0.18195569781E+03  0.00000000000E+00 0. -1.
<mgrwt>
<rscale>  0 0.18690740E+03</rscale>
<asrwt>0</asrwt>
<pdfrwt beam="1">  1        2 0.19229051E+00 0.21811303E+03</pdfrwt>
<pdfrwt beam="2">  1       -2 0.42984073E-02 0.21811303E+03</pdfrwt>
<totfact> 0.45893296E+03</totfact>
</mgrwt>
</event>
<event>
 6    1  0.8353100E-006  0.1377065E+03  0.7546771E-02  0.1227598E+00
          1   -1    0    0  501    0  0.00000000000E+00  0.00000000000E+00  0.89987684165E+03  0.89987684165E+03  0.00000000000E+00 0. -1.
         -1   -1    0    0    0  501 -0.00000000000E+00 -0.00000000000E+00 -0.22518357514E+02  0.22518357514E+02  0.00000000000E+00 0.  1.
          5    1    1    2  502    0  0.26101479078E+02  0.30482333951E+02  0.52012324831E+03  0.52169027528E+03  0.47000000000E+01 0.  1.
         -5    1    1    2    0  502 -0.65932313578E+02  0.11366790595E+02  0.18569829060E+03  0.19743915274E+03  0.47000000000E+01 0.  1.
        -11    1    1    2    0    0  0.40761504956E+00 -0.15943317597E+02 -0.78529907533E+01  0.17777091714E+02  0.00000000000E+00 0.  1.
         11    1    1    2    0    0  0.39423219451E+02 -0.25905806949E+02  0.17938993598E+03  0.18548867943E+03  0.00000000000E+00 0. -1.
<mgrwt>
<rscale>  0 0.12990414E+03</rscale>
<asrwt>0</asrwt>
<pdfrwt beam="1">  1        1 0.13844256E+00 0.13770653E+03</pdfrwt>
<pdfrwt beam="2">  1       -1 0.34643634E-02 0.13770653E+03</pdfrwt>
<totfact> 0.56605718E+03</totfact>
</mgrwt>
</event>
<event>
 6    1  0.8353100E-006  0.1287869E+03  0.7546771E-02  0.1251585E+00
         -2   -1    0    0    0  501 -0.00000000000E+00  0.00000000000E+00  0.11114715588E+02  0.11114715588E+02  0.00000000000E+00 0.  1.
          2   -1    0    0  501    0  0.00000000000E+00 -0.00000000000E+00 -0.19505175181E+04  0.19505175181E+04  0.00000000000E+00 0. -1.
          5    1    1    2  502    0  0.29685089658E+02 -0.61298687573E+02 -0.64405571840E+03  0.64766394994E+03  0.47000000000E+01 0. -1.
         -5    1    1    2    0  502 -0.10779858400E+01  0.49389247750E+02 -0.11127493632E+04  0.11138553295E+04  0.47000000000E+01 0. -1.
        -11    1    1    2    0    0 -0.53821823878E+02  0.14030677503E+01 -0.10811414866E+03  0.12077841887E+03  0.00000000000E+00 0.  1.
         11    1    1    2    0    0  0.25214720060E+02  0.10506372073E+02 -0.74483572268E+02  0.79334535353E+02  0.00000000000E+00 0. -1.
<mgrwt>
<rscale>  0 0.11499784E+03</rscale>
<asrwt>0</asrwt>
<pdfrwt beam="2">  1        2 0.30008013E+00 0.12878695E+03</pdfrwt>
<pdfrwt beam="1">  1       -2 0.17099533E-02 0.12878695E+03</pdfrwt>
<totfact> 0.75651580E+03</totfact>
</mgrwt>
</event>
<event>
 6    1  0.8353100E-006  0.2041906E+03  0.7546771E-02  0.1180954E+00
         -1   -1    0    0    0  501 -0.00000000000E+00  0.00000000000E+00  0.37276037793E+02  0.37276037793E+02  0.00000000000E+00 0.  1.
          1   -1    0    0  501    0  0.00000000000E+00 -0.00000000000E+00 -0.90501448307E+03  0.90501448307E+03  0.00000000000E+00 0. -1.
          5    1    1    2  502    0  0.11709430004E+02  0.83481515379E+02 -0.68432853929E+03  0.68951715994E+03  0.47000000000E+01 0. -1.
         -5    1    1    2    0  502 -0.24233051179E+02 -0.69070404821E+02 -0.12278896736E+03  0.14302860587E+03  0.47000000000E+01 0.  1.
        -11    1    1    2    0    0  0.38396677081E+02 -0.38149175120E+02 -0.48268623904E+02  0.72522578738E+02  0.00000000000E+00 0.  1.
         11    1    1    2    0    0 -0.25873055905E+02  0.23738064562E+02 -0.12352314724E+02  0.37222176321E+02  0.00000000000E+00 0. -1.
<mgrwt>
<rscale>  0 0.16705559E+03</rscale>
<asrwt>0</asrwt>
<pdfrwt beam="2">  1        1 0.13923299E+00 0.20419055E+03</pdfrwt>
<pdfrwt beam="1">  1       -1 0.57347752E-02 0.20419055E+03</pdfrwt>
<totfact> 0.26914638E+03</totfact>
</mgrwt>
</event>
<event>
 6    1  0.8353100E-006  0.1895690E+03  0.7546771E-02  0.1183738E+00
         -1   -1    0    0    0  501 -0.00000000000E+00  0.00000000000E+00  0.21434957521E+03  0.21434957521E+03  0.00000000000E+00 0.  1.
          1   -1    0    0  501    0  0.00000000000E+00 -0.00000000000E+00 -0.43522078728E+03  0.43522078728E+03  0.00000000000E+00 0. -1.
          5    1    1    2  502    0  0.23504214762E+02  0.98313683633E+02 -0.15697549307E+03  0.18676569258E+03  0.47000000000E+01 0. -1.
         -5    1    1    2    0  502  0.29533391477E+02 -0.74471380399E+02 -0.24192052227E+03  0.25488396734E+03  0.47000000000E+01 0.  1.
        -11    1    1    2    0    0  0.17982148137E+02  0.17478021568E+02  0.36774113856E+02  0.44510384625E+02  0.00000000000E+00 0.  1.
         11    1    1    2    0    0 -0.71019754377E+02 -0.41320324803E+02  0.14125068941E+03  0.16341031795E+03  0.00000000000E+00 0. -1.
<mgrwt>
<rscale>  0 0.16447225E+03</rscale>
<asrwt>0</asrwt>
<pdfrwt beam="2">  1        1 0.66957044E-01 0.18956896E+03</pdfrwt>
<pdfrwt beam="1">  1       -1 0.32976858E-01 0.18956896E+03</pdfrwt>
<totfact> 0.47556472E+02</totfact>
</mgrwt>
</event>
<event>
 6    1  0.8353100E-006  0.1583867E+03  0.7546771E-02  0.1198147E+00
         -2   -1    0    0    0  501 -0.00000000000E+00  0.00000000000E+00  0.14524939775E+03  0.14524939775E+03  0.00000000000E+00 0. -1.
          2   -1    0    0  501    0  0.00000000000E+00 -0.00000000000E+00 -0.14894012495E+03  0.14894012495E+03  0.00000000000E+00 0.  1.
          5    1    1    2  502    0  0.82720629425E+02 -0.37525855712E+02  0.43260736406E+02  0.10071977807E+03  0.47000000000E+01 0. -1.
         -5    1    1    2    0  502 -0.27097903548E+02 -0.42249484290E+02 -0.29253176560E+02  0.58285106488E+02  0.47000000000E+01 0. -1.
        -11    1    1    2    0    0 -0.52685659955E+01 -0.16321216542E+02 -0.20412027284E+02  0.26660659311E+02  0.00000000000E+00 0.  1.
         11    1    1    2    0    0 -0.50354159882E+02  0.96096556545E+02  0.27137402394E+01  0.10852397884E+03  0.00000000000E+00 0. -1.
<mgrwt>
<rscale>  0 0.15190858E+03</rscale>
<asrwt>0</asrwt>
<pdfrwt beam="2">  1        2 0.22913865E-01 0.15838668E+03</pdfrwt>
<pdfrwt beam="1">  1       -2 0.22346061E-01 0.15838668E+03</pdfrwt>
<totfact> 0.39823957E+03</totfact>
</mgrwt>
</event>
<event>
 6    1  0.8353100E-006  0.1349582E+03  0.7546771E-02  0.1231788E+00
         -1   -1    0    0    0  501 -0.00000000000E+00  0.00000000000E+00  0.69207527225E+02  0.69207527225E+02  0.00000000000E+00 0.  1.
          1   -1    0    0  501    0  0.00000000000E+00 -0.00000000000E+00 -0.23737982805E+03  0.23737982805E+03  0.00000000000E+00 0. -1.
          5    1    1    2  502    0  0.19421370811E+02  0.62006046287E+02 -0.11420858777E+03  0.13148243587E+03  0.47000000000E+01 0.  1.
         -5    1    1    2    0  502  0.30121278179E+02 -0.50418231365E+02 -0.30326545709E+02  0.66265215821E+02  0.47000000000E+01 0.  1.
        -11    1    1    2    0    0 -0.30832693769E+02 -0.50667190268E+02  0.35670287981E+00  0.59312278760E+02  0.00000000000E+00 0.  1.
         11    1    1    2    0    0 -0.18709955221E+02  0.39079375347E+02 -0.23993870223E+02  0.49527424829E+02  0.00000000000E+00 0. -1.
<mgrwt>
<rscale>  0 0.12712286E+03</rscale>
<asrwt>0</asrwt>
<pdfrwt beam="2">  1        1 0.36519973E-01 0.13495825E+03</pdfrwt>
<pdfrwt beam="1">  1       -1 0.10647312E-01 0.13495825E+03</pdfrwt>
<totfact> 0.62098682E+03</totfact>
</mgrwt>
</event>
<event>
 6    1  0.8353100E-006  0.1664876E+03  0.7546771E-02  0.1201028E+00
         -1   -1    0    0    0  501 -0.00000000000E+00  0.00000000000E+00  0.36184863161E+03  0.36184863161E+03  0.00000000000E+00 0.  1.
          1   -1    0    0  501    0  0.00000000000E+00 -0.00000000000E+00 -0.66846356223E+02  0.66846356223E+02  0.00000000000E+00 0. -1.
          5    1    1    2  502    0 -0.30611149633E+01 -0.15780071306E+02 -0.36134350980E+02  0.39826654341E+02  0.47000000000E+01 0. -1.
         -5    1    1    2    0  502  0.12556734102E+02 -0.89627357857E+02  0.10942276685E+03  0.14207803051E+03  0.47000000000E+01 0.  1.
        -11    1    1    2    0    0 -0.83742107303E+01  0.12047371711E+02  0.23805223044E+02  0.27963462137E+02  0.00000000000E+00 0.  1.
         11    1    1    2    0    0 -0.11214084086E+01  0.93360057452E+02  0.19790863648E+03  0.21882684085E+03  0.00000000000E+00 0. -1.
<mgrwt>
<rscale>  0 0.14954912E+03</rscale>
<asrwt>0</asrwt>
<pdfrwt beam="2">  1        1 0.10284055E-01 0.16648760E+03</pdfrwt>
<pdfrwt beam="1">  1       -1 0.55669019E-01 0.16648760E+03</pdfrwt>
<totfact> 0.20323993E+03</totfact>
</mgrwt>
</event>
<event>
 6    1  0.8353100E-006  0.1584164E+03  0.7546771E-02  0.1198057E+00
          1   -1    0    0  501    0  0.00000000000E+00  0.00000000000E+00  0.10658492735E+03  0.10658492735E+03  0.00000000000E+00 0. -1.
         -1   -1    0    0    0  501 -0.00000000000E+00 -0.00000000000E+00 -0.20310708016E+03  0.20310708016E+03  0.00000000000E+00 0.  1.
          5    1    1    2  502    0  0.23930985954E+02  0.84246237770E+02 -0.41110933583E+02  0.96862374156E+02  0.47000000000E+01 0. -1.
         -5    1    1    2    0  502 -0.65086582185E+02  0.39485728113E+01  0.51715002814E+01  0.65579637258E+02  0.47000000000E+01 0. -1.
        -11    1    1    2    0    0  0.28346792588E+02 -0.10742166853E+03 -0.50768421271E+02  0.12214904060E+03  0.00000000000E+00 0. -1.
         11    1    1    2    0    0  0.12808803642E+02  0.19226857950E+02 -0.98142982357E+01  0.25100955504E+02  0.00000000000E+00 0.  1.
<mgrwt>
<rscale>  0 0.15198345E+03</rscale>
<asrwt>0</asrwt>
<pdfrwt beam="1">  1        1 0.16397681E-01 0.15841643E+03</pdfrwt>
<pdfrwt beam="2">  1       -1 0.31247243E-01 0.15841643E+03</pdfrwt>
<totfact> 0.30681472E+03</totfact>
</mgrwt>
</event>
<event>
 6    1  0.8353100E-006  0.1687491E+03  0.7546771E-02  0.1186442E+00
         -1   -1    0    0    0  501 -0.00000000000E+00  0.00000000000E+00  0.31022466623E+02  0.31022466623E+02  0.00000000000E+00 0.  1.
          1   -1    0    0  501    0  0.00000000000E+00 -0.00000000000E+00 -0.87346078621E+03  0.87346078621E+03  0.00000000000E+00 0. -1.
          5    1    1    2  502    0  0.11420317298E+03 -0.55237711289E+02 -0.44796072644E+03  0.46560119405E+03  0.47000000000E+01 0. -1.
         -5    1    1    2    0  502 -0.34726736483E+02 -0.22788977100E+02 -0.14745250070E+03  0.15326321694E+03  0.47000000000E+01 0.  1.
        -11    1    1    2    0    0 -0.79402533075E+02  0.36673804894E+02 -0.99826008768E+02  0.13272137074E+03  0.00000000000E+00 0.  1.
         11    1    1    2    0    0 -0.73903421006E-01  0.41352883494E+02 -0.14719908368E+03  0.15289747111E+03  0.00000000000E+00 0. -1.
<mgrwt>
<rscale>  0 0.16201316E+03</rscale>
<asrwt>0</asrwt>
<pdfrwt beam="2">  1        1 0.13437862E+00 0.16874907E+03</pdfrwt>
<pdfrwt beam="1">  1       -1 0.47726860E-02 0.16874907E+03</pdfrwt>
<totfact> 0.37300364E+03</totfact>
</mgrwt>
</event>
<event>
 6    1  0.8353100E-006  0.1918038E+03  0.7546771E-02  0.1161338E+00
          1   -1    0    0  501    0  0.00000000000E+00  0.00000000000E+00  0.35620524048E+03  0.35620524048E+03  0.00000000000E+00 0. -1.
         -1   -1    0    0    0  501 -0.00000000000E+00 -0.00000000000E+00 -0.10495230519E+03  0.10495230519E+03  0.00000000000E+00 0.  1.
          5    1    1    2  502    0  0.89960720793E+02 -0.67835234423E+02  0.58538320710E+02  0.12705658309E+03  0.47000000000E+01 0. -1.
         -5    1    1    2    0  502  0.42911309851E+02  0.85369621228E+01  0.14979406877E+03  0.15612371144E+03  0.47000000000E+01 0. -1.
        -11    1    1    2    0    0 -0.68045058134E+01  0.13661786884E+02  0.41152991641E+02  0.43892077204E+02  0.00000000000E+00 0. -1.
         11    1    1    2    0    0 -0.12606752483E+03  0.45636485417E+02  0.17675541643E+01  0.13408517392E+03  0.00000000000E+00 0.  1.
<mgrwt>
<rscale>  0 0.18684494E+03</rscale>
<asrwt>0</asrwt>
<pdfrwt beam="1">  1        1 0.54800806E-01 0.19180379E+03</pdfrwt>
<pdfrwt beam="2">  1       -1 0.16146509E-01 0.19180379E+03</pdfrwt>
<totfact> 0.19882627E+03</totfact>
</mgrwt>
</event>
<event>
 6    1  0.8353100E-006  0.1624105E+03  0.7546771E-02  0.1193440E+00
          1   -1    0    0  501    0  0.00000000000E+00  0.00000000000E+00  0.15308405284E+04  0.15308405284E+04  0.00000000000E+00 0. -1.
         -1   -1    0    0    0  501 -0.00000000000E+00 -0.00000000000E+00 -0.17654282907E+02  0.17654282907E+02  0.00000000000E+00 0.  1.
          5    1    1    2  502    0 -0.81760992965E+02 -0.46681274416E+02  0.70532181185E+03  0.71159324731E+03  0.47000000000E+01 0.  1.
         -5    1    1    2    0  502 -0.20450759541E+02  0.64111527828E+02  0.41791560235E+03  0.42332500783E+03  0.47000000000E+01 0.  1.
        -11    1    1    2    0    0  0.10753627047E+02 -0.41681383126E+02  0.13015737593E+03  0.13709092130E+03  0.00000000000E+00 0. -1.
         11    1    1    2    0    0  0.91458125460E+02  0.24251129714E+02  0.25979145532E+03  0.27648563482E+03  0.00000000000E+00 0.  1.
<mgrwt>
<rscale>  0 0.15587023E+03</rscale>
<asrwt>0</asrwt>
<pdfrwt beam="1">  1        1 0.23551382E+00 0.16241046E+03</pdfrwt>
<pdfrwt beam="2">  1       -1 0.27160447E-02 0.16241046E+03</pdfrwt>
<totfact> 0.29686577E+03</totfact>
</mgrwt>
</event>
<event>
 6    1  0.8353100E-006  0.2144343E+03  0.7546771E-02  0.1163280E+00
          2   -1    0    0  501    0  0.00000000000E+00  0.00000000000E+00  0.13854043271E+04  0.13854043271E+04  0.00000000000E+00 0. -1.
         -2   -1    0    0    0  501 -0.00000000000E+00 -0.00000000000E+00 -0.27230033698E+02  0.27230033698E+02  0.00000000000E+00 0.  1.
          5    1    1    2  502    0 -0.40943587687E+02 -0.64496021632E+02  0.96165269987E+03  0.96469379564E+03  0.47000000000E+01 0. -1.
         -5    1    1    2    0  502  0.85159344858E+02  0.44305142658E+01  0.21504998473E+03  0.23138783331E+03  0.47000000000E+01 0.  1.
        -11    1    1    2    0    0 -0.92589147173E+01 -0.23686975098E+02  0.57858410507E+02  0.63201233828E+02  0.00000000000E+00 0. -1.
         11    1    1    2    0    0 -0.34956842453E+02  0.83752482463E+02  0.12361319833E+03  0.15335149805E+03  0.00000000000E+00 0.  1.
<mgrwt>
<rscale>  0 0.18475386E+03</rscale>
<asrwt>0</asrwt>
<pdfrwt beam="1">  1        2 0.21313907E+00 0.21443427E+03</pdfrwt>
<pdfrwt beam="2">  1       -2 0.41892370E-02 0.21443427E+03</pdfrwt>
<totfact> 0.40193051E+03</totfact>
</mgrwt>
</event>
<event>
 6    1  0.8353100E-006  0.3358230E+03  0.7546771E-02  0.1068589E+00
          1   -1    0    0  501    0  0.00000000000E+00  0.00000000000E+00  0.15457125374E+03  0.15457125374E+03  0.00000000000E+00 0. -1.
         -1   -1    0    0    0  501 -0.00000000000E+00 -0.00000000000E+00 -0.18240309645E+03  0.18240309645E+03  0.00000000000E+00 0.  1.
          5    1    1    2  502    0 -0.85793514012E+02 -0.75795987496E+02  0.59887275289E+02  0.12928315632E+03  0.47000000000E+01 0. -1.
         -5    1    1    2    0  502 -0.17023988193E+02  0.89696399402E+01 -0.42296495858E+02  0.46704969505E+02  0.47000000000E+01 0. -1.
        -11    1    1    2    0    0  0.87799811943E+02  0.31329441530E+02  0.96997408046E+01  0.93725267967E+02  0.00000000000E+00 0. -1.
         11    1    1    2    0    0  0.15017690262E+02  0.35496906026E+02 -0.55122362944E+02  0.67260956392E+02  0.00000000000E+00 0.  1.
<mgrwt>
<rscale>  0 0.33582302E+03</rscale>
<asrwt>0</asrwt>
<pdfrwt beam="1">  1        1 0.23780193E-01 0.33582302E+03</pdfrwt>
<pdfrwt beam="2">  1       -1 0.28062015E-01 0.33582302E+03</pdfrwt>
<totfact> 0.23428603E+03</totfact>
</mgrwt>
</event>
<event>
 6    1  0.8353100E-006  0.2853675E+03  0.7546771E-02  0.1092793E+00
         -1   -1    0    0    0  501 -0.00000000000E+00  0.00000000000E+00  0.21332772046E+03  0.21332772046E+03  0.00000000000E+00 0.  1.
          1   -1    0    0  501    0  0.00000000000E+00 -0.00000000000E+00 -0.95433727841E+02  0.95433727841E+02  0.00000000000E+00 0. -1.
          5    1    1    2  502    0  0.38495480805E+02 -0.16613515830E+02  0.75622345498E+00  0.42196834295E+02  0.47000000000E+01 0. -1.
         -5    1    1    2    0  502 -0.96143256488E+02 -0.53838475036E+02  0.44463531117E+02  0.11891678923E+03  0.47000000000E+01 0. -1.
        -11    1    1    2    0    0 -0.20606750264E+01  0.53061274009E+02  0.14873229831E+01  0.53122098139E+02  0.00000000000E+00 0. -1.
         11    1    1    2    0    0  0.59708450710E+02  0.17390716857E+02  0.71186915059E+02  0.94525726628E+02  0.00000000000E+00 0.  1.
<mgrwt>
<rscale>  0 0.28536755E+03</rscale>
<asrwt>0</asrwt>
<pdfrwt beam="2">  1        1 0.14682112E-01 0.28536755E+03</pdfrwt>
<pdfrwt beam="1">  1       -1 0.32819649E-01 0.28536755E+03</pdfrwt>
<totfact> 0.33430828E+03</totfact>
</mgrwt>
</event>
<event>
 6    1  0.8353100E-006  0.2265362E+03  0.7546771E-02  0.1132098E+00
         -1   -1    0    0    0  501 -0.00000000000E+00  0.00000000000E+00  0.70394234201E+02  0.70394234201E+02  0.00000000000E+00 0.  1.
          1   -1    0    0  501    0  0.00000000000E+00 -0.00000000000E+00 -0.72691674982E+03  0.72691674982E+03  0.00000000000E+00 0. -1.
          5    1    1    2  502    0  0.27776845487E+02  0.95832120566E+02 -0.99955664926E+02  0.14131020285E+03  0.47000000000E+01 0.  1.
         -5    1    1    2    0  502 -0.23990395493E+02  0.93060279823E+02 -0.34261627779E+03  0.35587042384E+03  0.47000000000E+01 0.  1.
        -11    1    1    2    0    0  0.31909504092E+02 -0.16084440263E+03 -0.17962810240E+03  0.24321881810E+03  0.00000000000E+00 0. -1.
         11    1    1    2    0    0 -0.35695954087E+02 -0.28047997759E+02 -0.34322470513E+02  0.56911539239E+02  0.00000000000E+00 0.  1.
<mgrwt>
<rscale>  0 0.22241180E+03</rscale>
<asrwt>0</asrwt>
<pdfrwt beam="2">  1        1 0.11183334E+00 0.22653620E+03</pdfrwt>
<pdfrwt beam="1">  1       -1 0.10829883E-01 0.22653620E+03</pdfrwt>
<totfact> 0.14333086E+03</totfact>
</mgrwt>
</event>
<event>
 6    1  0.8353100E-006  0.1527177E+03  0.7546771E-02  0.1206474E+00
         -4   -1    0    0    0  501 -0.00000000000E+00  0.00000000000E+00  0.94645073113E+02  0.94645073113E+02  0.00000000000E+00 0.  1.
          4   -1    0    0  501    0  0.00000000000E+00 -0.00000000000E+00 -0.41409440996E+03  0.41409440996E+03  0.00000000000E+00 0. -1.
          5    1    1    2  502    0  0.91615573328E+02  0.33150566135E+01 -0.33119182578E+03  0.34367792822E+03  0.47000000000E+01 0. -1.
         -5    1    1    2    0  502 -0.10604172659E+02  0.30376360643E+02 -0.17353380365E+02  0.36856499750E+02  0.47000000000E+01 0. -1.
        -11    1    1    2    0    0 -0.43274367266E-01 -0.15997775640E+02 -0.24677917856E+02  0.29409697853E+02  0.00000000000E+00 0.  1.
         11    1    1    2    0    0 -0.80968126302E+02 -0.17693641617E+02  0.53773787155E+02  0.98795357257E+02  0.00000000000E+00 0. -1.
<mgrwt>
<rscale>  0 0.14521873E+03</rscale>
<asrwt>0</asrwt>
<pdfrwt beam="2">  1        4 0.63706831E-01 0.15271768E+03</pdfrwt>
<pdfrwt beam="1">  1       -4 0.14560781E-01 0.15271768E+03</pdfrwt>
<totfact> 0.15822435E+02</totfact>
</mgrwt>
</event>
<event>
 6    1  0.8353100E-006  0.1299307E+03  0.7546771E-02  0.1241662E+00
          2   -1    0    0  501    0  0.00000000000E+00  0.00000000000E+00  0.85964663824E+03  0.85964663824E+03  0.00000000000E+00 0. -1.
         -2   -1    0    0    0  501 -0.00000000000E+00 -0.00000000000E+00 -0.15235873807E+02  0.15235873807E+02  0.00000000000E+00 0.  1.
          5    1    1    2  502    0 -0.75206253898E+02  0.19989730296E+02  0.32321365862E+03  0.33248267483E+03  0.47000000000E+01 0. -1.
         -5    1    1    2    0  502  0.41488152270E+02 -0.30932637616E+02  0.21044233564E+03  0.21676291536E+03  0.47000000000E+01 0. -1.
        -11    1    1    2    0    0 -0.17257062932E+02  0.34094827423E+02  0.87710247769E+02  0.95673146921E+02  0.00000000000E+00 0.  1.
         11    1    1    2    0    0  0.50975164560E+02 -0.23151920103E+02  0.22304452241E+03  0.22996377493E+03  0.00000000000E+00 0. -1.
<mgrwt>
<rscale>  0 0.12087395E+03</rscale>
<asrwt>0</asrwt>
<pdfrwt beam="1">  1        2 0.13225329E+00 0.12993074E+03</pdfrwt>
<pdfrwt beam="2">  1       -2 0.23439813E-02 0.12993074E+03</pdfrwt>
<totfact> 0.18724946E+04</totfact>
</mgrwt>
</event>
<event>
 6    1  0.8353100E-006  0.3105331E+03  0.7546771E-02  0.1081654E+00
          1   -1    0    0  501    0  0.00000000000E+00  0.00000000000E+00  0.23149113452E+03  0.23149113452E+03  0.00000000000E+00 0. -1.
         -1   -1    0    0    0  501 -0.00000000000E+00 -0.00000000000E+00 -0.40048736077E+03  0.40048736077E+03  0.00000000000E+00 0.  1.
          5    1    1    2  502    0  0.34831578105E+02 -0.21723915796E+03 -0.10361703604E+03  0.24323788920E+03  0.47000000000E+01 0.  1.
         -5    1    1    2    0  502  0.34862894790E+02 -0.58347778866E+02  0.32267227534E+02  0.75386661316E+02  0.47000000000E+01 0.  1.
        -11    1    1    2    0    0 -0.59435971172E+02  0.27903185718E+03 -0.87219372521E+02  0.29832638323E+03  0.00000000000E+00 0.  1.
         11    1    1    2    0    0 -0.10258501723E+02 -0.34449203518E+01 -0.10427045222E+02  0.15027561542E+02  0.00000000000E+00 0. -1.
<mgrwt>
<rscale>  0 0.30728713E+03</rscale>
<asrwt>0</asrwt>
<pdfrwt beam="1">  1        1 0.35614021E-01 0.31053310E+03</pdfrwt>
<pdfrwt beam="2">  1       -1 0.61613440E-01 0.31053310E+03</pdfrwt>
<totfact> 0.33727754E+02</totfact>
</mgrwt>
</event>
<event>
 6    1  0.8353100E-006  0.1313676E+03  0.7546771E-02  0.1236602E+00
          3   -1    0    0  501    0  0.00000000000E+00  0.00000000000E+00  0.57056641850E+03  0.57056641850E+03  0.00000000000E+00 0. -1.
         -3   -1    0    0    0  501 -0.00000000000E+00 -0.00000000000E+00 -0.24353808843E+02  0.24353808843E+02  0.00000000000E+00 0.  1.
          5    1    1    2  502    0 -0.11540144135E+02  0.78872292367E+02  0.20498993546E+03  0.21999312959E+03  0.47000000000E+01 0.  1.
         -5    1    1    2    0  502  0.28146978869E+02 -0.42051163997E+02  0.10352286014E+03  0.11532400177E+03  0.47000000000E+01 0.  1.
        -11    1    1    2    0    0  0.38702813199E+02 -0.22546879467E+02  0.13292564047E+03  0.14026936736E+03  0.00000000000E+00 0. -1.
         11    1    1    2    0    0 -0.55309647932E+02 -0.14274248904E+02  0.10477417358E+03  0.11933372862E+03  0.00000000000E+00 0.  1.
<mgrwt>
<rscale>  0 0.12402446E+03</rscale>
<asrwt>0</asrwt>
<pdfrwt beam="1">  1        3 0.87779439E-01 0.13136755E+03</pdfrwt>
<pdfrwt beam="2">  1       -3 0.37467402E-02 0.13136755E+03</pdfrwt>
<totfact> 0.10052855E+03</totfact>
</mgrwt>
</event>
<event>
 6    1  0.8353100E-006  0.1398205E+03  0.7546771E-02  0.1224958E+00
          1   -1    0    0  501    0  0.00000000000E+00  0.00000000000E+00  0.48254502089E+03  0.48254502089E+03  0.00000000000E+00 0. -1.
         -1   -1    0    0    0  501 -0.00000000000E+00 -0.00000000000E+00 -0.32349601356E+02  0.32349601356E+02  0.00000000000E+00 0.  1.
          5    1    1    2  502    0 -0.57079005776E+02  0.73369284721E+02  0.11863318278E+03  0.15078788711E+03  0.47000000000E+01 0. -1.
         -5    1    1    2    0  502  0.10013669133E+02 -0.32052770714E+02  0.13118994916E+03  0.13550109387E+03  0.47000000000E+01 0. -1.
        -11    1    1    2    0    0  0.73530813164E+02 -0.32906700611E+02  0.12980428337E+03  0.15277036169E+03  0.00000000000E+00 0. -1.
         11    1    1    2    0    0 -0.26465476521E+02 -0.84098133954E+01  0.70568004220E+02  0.75835279576E+02  0.00000000000E+00 0.  1.
<mgrwt>
<rscale>  0 0.13169761E+03</rscale>
<asrwt>0</asrwt>
<pdfrwt beam="1">  1        1 0.74237690E-01 0.13982054E+03</pdfrwt>
<pdfrwt beam="2">  1       -1 0.49768621E-02 0.13982054E+03</pdfrwt>
<totfact> 0.80341653E+03</totfact>
</mgrwt>
</event>
<event>
 6    1  0.8353100E-006  0.1843121E+03  0.7546771E-02  0.1179951E+00
          2   -1    0    0  501    0  0.00000000000E+00  0.00000000000E+00  0.19078294795E+04  0.19078294795E+04  0.00000000000E+00 0. -1.
         -2   -1    0    0    0  501 -0.00000000000E+00 -0.00000000000E+00 -0.13716490715E+02  0.13716490715E+02  0.00000000000E+00 0.  1.
          5    1    1    2  502    0  0.31271208371E+02  0.17086905748E+01  0.88953159300E+03  0.89009513708E+03  0.47000000000E+01 0. -1.
         -5    1    1    2    0  502 -0.69626677076E+02 -0.80536056398E+02  0.47362397569E+03  0.48546440744E+03  0.47000000000E+01 0.  1.
        -11    1    1    2    0    0 -0.18859916595E+02 -0.26921763020E+01  0.32462321693E+02  0.37639694431E+02  0.00000000000E+00 0.  1.
         11    1    1    2    0    0  0.57215385300E+02  0.81519542125E+02  0.49849509837E+03  0.50834673124E+03  0.00000000000E+00 0. -1.
<mgrwt>
<rscale>  0 0.16799866E+03</rscale>
<asrwt>0</asrwt>
<pdfrwt beam="1">  1        2 0.29351202E+00 0.18431212E+03</pdfrwt>
<pdfrwt beam="2">  1       -2 0.21102309E-02 0.18431212E+03</pdfrwt>
<totfact> 0.59026842E+03</totfact>
</mgrwt>
</event>
<event>
 6    1  0.8353100E-006  0.1448264E+03  0.7546771E-02  0.1213169E+00
         -2   -1    0    0    0  501 -0.00000000000E+00  0.00000000000E+00  0.10020978255E+03  0.10020978255E+03  0.00000000000E+00 0.  1.
          2   -1    0    0  501    0  0.00000000000E+00 -0.00000000000E+00 -0.19372206128E+03  0.19372206128E+03  0.00000000000E+00 0. -1.
          5    1    1    2  502    0  0.32355406275E+02  0.22030337709E+02 -0.55627280370E+02  0.68181320141E+02  0.47000000000E+01 0. -1.
         -5    1    1    2    0  502 -0.92532897659E+02  0.19547565812E+02 -0.26586446626E+02  0.98353310176E+02  0.47000000000E+01 0. -1.
        -11    1    1    2    0    0  0.19419094842E+02  0.13139828949E+02  0.36999424442E+02  0.43803124983E+02  0.00000000000E+00 0.  1.
         11    1    1    2    0    0  0.40758396542E+02 -0.54717732470E+02 -0.48297976179E+02  0.83594088537E+02  0.00000000000E+00 0. -1.
<mgrwt>
<rscale>  0 0.14011902E+03</rscale>
<asrwt>0</asrwt>
<pdfrwt beam="2">  1        2 0.29803394E-01 0.14482640E+03</pdfrwt>
<pdfrwt beam="1">  1       -2 0.15416890E-01 0.14482640E+03</pdfrwt>
<totfact> 0.55337421E+03</totfact>
</mgrwt>
</event>
<event>
 6    1  0.1498665E-005  0.2563614E+03  0.7546771E-02  0.1112028E+00
          1   -1    0    0  501    0  0.00000000000E+00  0.00000000000E+00  0.74594855010E+03  0.74594855010E+03  0.00000000000E+00 0. -1.
         -1   -1    0    0    0  501 -0.00000000000E+00 -0.00000000000E+00 -0.84616195298E+02  0.84616195298E+02  0.00000000000E+00 0.  1.
          5    1    1    2  502    0  0.22312354956E+02 -0.82375618382E+02  0.13926818064E+03  0.16340532374E+03  0.47000000000E+01 0.  1.
         -5    1    1    2    0  502 -0.12481804424E+03 -0.11659286565E+03  0.26961375776E+03  0.31919760159E+03  0.47000000000E+01 0.  1.
        -11    1    1    2    0    0  0.27026819046E+02  0.10187984225E+03  0.16958318066E+03  0.19967074490E+03  0.00000000000E+00 0. -1.
         11    1    1    2    0    0  0.75478870238E+02  0.97088641781E+02  0.82867235738E+02  0.14829107517E+03  0.00000000000E+00 0.  1.
<mgrwt>
<rscale>  0 0.25203016E+03</rscale>
<asrwt>0</asrwt>
<pdfrwt beam="1">  1        1 0.11476131E+00 0.25636135E+03</pdfrwt>
<pdfrwt beam="2">  1       -1 0.13017877E-01 0.25636135E+03</pdfrwt>
<totfact> 0.10346970E+03</totfact>
</mgrwt>
</event>
<event>
 6    1  0.8353100E-006  0.8214798E+03  0.7546771E-02  0.1020391E+00
          2   -1    0    0  501    0  0.00000000000E+00  0.00000000000E+00  0.12282008361E+04  0.12282008361E+04  0.00000000000E+00 0. -1.
         -2   -1    0    0    0  501 -0.00000000000E+00 -0.00000000000E+00 -0.19308697605E+03  0.19308697605E+03  0.00000000000E+00 0.  1.
          5    1    1    2  502    0  0.22159893200E+03 -0.10700258211E+03  0.10700974978E+04  0.10980375149E+04  0.47000000000E+01 0. -1.
         -5    1    1    2    0  502 -0.21298623017E+03  0.84436483117E+02 -0.25835854837E+02  0.23061273885E+03  0.47000000000E+01 0.  1.
        -11    1    1    2    0    0  0.39011727366E+02  0.56691621881E+01  0.60170598697E+01  0.39878055137E+02  0.00000000000E+00 0. -1.
         11    1    1    2    0    0 -0.47624429200E+02  0.16896936807E+02 -0.15164842799E+02  0.52759503288E+02  0.00000000000E+00 0.  1.
<mgrwt>
<rscale>  0 0.47545837E+03</rscale>
<asrwt>0</asrwt>
<pdfrwt beam="1">  1        2 0.18895397E+00 0.82147983E+03</pdfrwt>
<pdfrwt beam="2">  1       -2 0.29705689E-01 0.82147983E+03</pdfrwt>
<totfact> 0.19162428E+02</totfact>
</mgrwt>
</event>
<event>
 6    1  0.8353100E-006  0.2414763E+03  0.7546771E-02  0.1121570E+00
          2   -1    0    0  501    0  0.00000000000E+00  0.00000000000E+00  0.13850541744E+03  0.13850541744E+03  0.00000000000E+00 0. -1.
         -2   -1    0    0    0  501 -0.00000000000E+00 -0.00000000000E+00 -0.61126830934E+03  0.61126830934E+03  0.00000000000E+00 0.  1.
          5    1    1    2  502    0 -0.77221225614E+02  0.55947021251E+02 -0.70741963841E+02  0.11882635364E+03  0.47000000000E+01 0.  1.
         -5    1    1    2    0  502 -0.86444946885E+02  0.70144003771E+02  0.52831336662E+02  0.12331322006E+03  0.47000000000E+01 0.  1.
        -11    1    1    2    0    0  0.73602461562E+02 -0.36981947303E+02 -0.92953096531E+02  0.12419849004E+03  0.00000000000E+00 0. -1.
         11    1    1    2    0    0  0.90063710937E+02 -0.89109077718E+02 -0.36189916818E+03  0.38343566304E+03  0.00000000000E+00 0.  1.
<mgrwt>
<rscale>  0 0.23735084E+03</rscale>
<asrwt>0</asrwt>
<pdfrwt beam="1">  1        2 0.21308525E-01 0.24147626E+03</pdfrwt>
<pdfrwt beam="2">  1       -2 0.94041280E-01 0.24147626E+03</pdfrwt>
<totfact> 0.25626075E+02</totfact>
</mgrwt>
</event>
<event>
 6    1  0.8353100E-006  0.1298566E+03  0.7546771E-02  0.1241638E+00
         -1   -1    0    0    0  501 -0.00000000000E+00  0.00000000000E+00  0.12004071310E+02  0.12004071310E+02  0.00000000000E+00 0.  1.
          1   -1    0    0  501    0  0.00000000000E+00 -0.00000000000E+00 -0.14406778705E+04  0.14406778705E+04  0.00000000000E+00 0. -1.
          5    1    1    2  502    0  0.52736083980E+02 -0.22640167940E+02 -0.32770551135E+03  0.33272610947E+03  0.47000000000E+01 0. -1.
         -5    1    1    2    0  502 -0.59933265822E+02 -0.11795435079E+02 -0.82477737218E+03  0.82704953437E+03  0.47000000000E+01 0. -1.
        -11    1    1    2    0    0 -0.29454343031E+02 -0.89270523900E+01 -0.16724420090E+03  0.17005256047E+03  0.00000000000E+00 0. -1.
         11    1    1    2    0    0  0.36651524873E+02  0.43362655409E+02 -0.10894671478E+03  0.12285373751E+03  0.00000000000E+00 0.  1.
<mgrwt>
<rscale>  0 0.12088877E+03</rscale>
<asrwt>0</asrwt>
<pdfrwt beam="2">  1        1 0.22164265E+00 0.12985664E+03</pdfrwt>
<pdfrwt beam="1">  1       -1 0.18467811E-02 0.12985664E+03</pdfrwt>
<totfact> 0.59093424E+03</totfact>
</mgrwt>
</event>
<event>
 6    1  0.8353100E-006  0.1595305E+03  0.7546771E-02  0.1195473E+00
         -1   -1    0    0    0  501 -0.00000000000E+00  0.00000000000E+00  0.34872604769E+02  0.34872604769E+02  0.00000000000E+00 0.  1.
          1   -1    0    0  501    0  0.00000000000E+00 -0.00000000000E+00 -0.96157178656E+03  0.96157178656E+03  0.00000000000E+00 0. -1.
          5    1    1    2  502    0  0.15084525088E+02 -0.20901440531E+02 -0.20628720518E+02  0.33347372064E+02  0.47000000000E+01 0.  1.
         -5    1    1    2    0  502  0.42967637467E+02 -0.59410476442E+02 -0.75191655097E+03  0.75549746009E+03  0.47000000000E+01 0.  1.
        -11    1    1    2    0    0 -0.32323295962E+02  0.15179313027E+02 -0.12792977930E+03  0.13282031259E+03  0.00000000000E+00 0. -1.
         11    1    1    2    0    0 -0.25728866593E+02  0.65132603946E+02 -0.26224131009E+02  0.74779246587E+02  0.00000000000E+00 0.  1.
<mgrwt>
<rscale>  0 0.15414285E+03</rscale>
<asrwt>0</asrwt>
<pdfrwt beam="2">  1        1 0.14793412E+00 0.15953048E+03</pdfrwt>
<pdfrwt beam="1">  1       -1 0.53650162E-02 0.15953048E+03</pdfrwt>
<totfact> 0.26787216E+03</totfact>
</mgrwt>
</event>
<event>
 6    1  0.8353100E-006  0.3184679E+03  0.7546771E-02  0.1096392E+00
         -2   -1    0    0    0  501 -0.00000000000E+00  0.00000000000E+00  0.35763178066E+03  0.35763178066E+03  0.00000000000E+00 0.  1.
          2   -1    0    0  501    0  0.00000000000E+00 -0.00000000000E+00 -0.55644926428E+03  0.55644926428E+03  0.00000000000E+00 0. -1.
          5    1    1    2  502    0 -0.79601654866E+02 -0.18202319054E+03 -0.49481112818E+03  0.53322510061E+03  0.47000000000E+01 0. -1.
         -5    1    1    2    0  502  0.34111659092E+02  0.21332561771E+02  0.14543060612E+02  0.43038053972E+02  0.47000000000E+01 0.  1.
        -11    1    1    2    0    0  0.26118276382E+02  0.52808674202E+02  0.36094003703E+02  0.69091949860E+02  0.00000000000E+00 0. -1.
         11    1    1    2    0    0  0.19371719391E+02  0.10788195457E+03  0.24535658024E+03  0.26872594051E+03  0.00000000000E+00 0.  1.
<mgrwt>
<rscale>  0 0.27871641E+03</rscale>
<asrwt>0</asrwt>
<pdfrwt beam="2">  1        2 0.85607578E-01 0.31846791E+03</pdfrwt>
<pdfrwt beam="1">  1       -2 0.55020275E-01 0.31846791E+03</pdfrwt>
<totfact> 0.17513319E+02</totfact>
</mgrwt>
</event>
<event>
 6    1  0.8353100E-006  0.1545239E+03  0.7546771E-02  0.1203761E+00
          2   -1    0    0  501    0  0.00000000000E+00  0.00000000000E+00  0.64897398180E+03  0.64897398180E+03  0.00000000000E+00 0. -1.
         -2   -1    0    0    0  501 -0.00000000000E+00 -0.00000000000E+00 -0.32093072974E+02  0.32093072974E+02  0.00000000000E+00 0.  1.
          5    1    1    2  502    0  0.46349467184E+02 -0.26553117674E+00  0.14250517673E+03  0.14992717902E+03  0.47000000000E+01 0.  1.
         -5    1    1    2    0  502 -0.58562809170E+02 -0.89749725527E+02  0.26449341484E+03  0.28541806591E+03  0.47000000000E+01 0.  1.
        -11    1    1    2    0    0  0.35795425280E+02  0.73391062162E+02  0.86265870499E+02  0.11878283078E+03  0.00000000000E+00 0.  1.
         11    1    1    2    0    0 -0.23582083294E+02  0.16624194542E+02  0.12361644675E+03  0.12693897906E+03  0.00000000000E+00 0. -1.
<mgrwt>
<rscale>  0 0.14735517E+03</rscale>
<asrwt>0</asrwt>
<pdfrwt beam="1">  1        2 0.99842141E-01 0.15452388E+03</pdfrwt>
<pdfrwt beam="2">  1       -2 0.49373964E-02 0.15452388E+03</pdfrwt>
<totfact> 0.88638826E+03</totfact>
</mgrwt>
</event>
<event>
 6    1  0.8353100E-006  0.1573075E+03  0.7546771E-02  0.1199710E+00
          2   -1    0    0  501    0  0.00000000000E+00  0.00000000000E+00  0.10185996190E+03  0.10185996190E+03  0.00000000000E+00 0. -1.
         -2   -1    0    0    0  501 -0.00000000000E+00 -0.00000000000E+00 -0.21465780449E+03  0.21465780449E+03  0.00000000000E+00 0.  1.
          5    1    1    2  502    0 -0.54079361638E+02  0.48145204167E+02  0.92043243523E+01  0.73139234521E+02  0.47000000000E+01 0.  1.
         -5    1    1    2    0  502 -0.39538988373E+02 -0.67043135748E+02 -0.38154746051E+02  0.86810070261E+02  0.47000000000E+01 0.  1.
        -11    1    1    2    0    0  0.32911158452E+02  0.22354710830E+02  0.13309564197E+02  0.41952615485E+02  0.00000000000E+00 0. -1.
         11    1    1    2    0    0  0.60707191560E+02 -0.34567792493E+01 -0.97156985094E+02  0.11461584612E+03  0.00000000000E+00 0.  1.
<mgrwt>
<rscale>  0 0.15062255E+03</rscale>
<asrwt>0</asrwt>
<pdfrwt beam="1">  1        2 0.15670763E-01 0.15730751E+03</pdfrwt>
<pdfrwt beam="2">  1       -2 0.33024278E-01 0.15730751E+03</pdfrwt>
<totfact> 0.30715194E+03</totfact>
</mgrwt>
</event>
<event>
 6    1  0.8353100E-006  0.2033841E+03  0.7546771E-02  0.1149063E+00
          1   -1    0    0  501    0  0.00000000000E+00  0.00000000000E+00  0.66100955995E+03  0.66100955995E+03  0.00000000000E+00 0. -1.
         -1   -1    0    0    0  501 -0.00000000000E+00 -0.00000000000E+00 -0.10186239428E+03  0.10186239428E+03  0.00000000000E+00 0.  1.
          5    1    1    2  502    0  0.13582440060E+03  0.77785593090E+02  0.31270168314E+03  0.34971888557E+03  0.47000000000E+01 0. -1.
         -5    1    1    2    0  502  0.69676366483E+01  0.15116544301E+02  0.21697473922E+03  0.21766300864E+03  0.47000000000E+01 0.  1.
        -11    1    1    2    0    0 -0.72252688455E+02  0.46117109539E+01  0.17919664826E+02  0.74584403560E+02  0.00000000000E+00 0. -1.
         11    1    1    2    0    0 -0.70539348790E+02 -0.97513848344E+02  0.11551078488E+02  0.12090565645E+03  0.00000000000E+00 0.  1.
<mgrwt>
<rscale>  0 0.20080336E+03</rscale>
<asrwt>0</asrwt>
<pdfrwt beam="1">  1        1 0.10169378E+00 0.20338412E+03</pdfrwt>
<pdfrwt beam="2">  1       -1 0.15671138E-01 0.20338412E+03</pdfrwt>
<totfact> 0.92077137E+02</totfact>
</mgrwt>
</event>
<event>
 6    1  0.8353100E-006  0.1496850E+03  0.7546771E-02  0.1208117E+00
          2   -1    0    0  501    0  0.00000000000E+00  0.00000000000E+00  0.53798564082E+02  0.53798564082E+02  0.00000000000E+00 0. -1.
         -2   -1    0    0    0  501 -0.00000000000E+00 -0.00000000000E+00 -0.37834726629E+03  0.37834726629E+03  0.00000000000E+00 0.  1.
          5    1    1    2  502    0  0.41604271185E+02 -0.24650235366E+02 -0.81547769707E+02  0.94924592328E+02  0.47000000000E+01 0.  1.
         -5    1    1    2    0  502 -0.74132441931E+02 -0.51004567697E+02 -0.43194550082E+02  0.99924691790E+02  0.47000000000E+01 0.  1.
        -11    1    1    2    0    0  0.62058758149E+02  0.42775643859E+02 -0.16373585878E+03  0.18025114873E+03  0.00000000000E+00 0.  1.
         11    1    1    2    0    0 -0.29530587403E+02  0.32879159204E+02 -0.36070523639E+02  0.57045397517E+02  0.00000000000E+00 0. -1.
<mgrwt>
<rscale>  0 0.14394492E+03</rscale>
<asrwt>0</asrwt>
<pdfrwt beam="1">  1        2 0.82767019E-02 0.14968499E+03</pdfrwt>
<pdfrwt beam="2">  1       -2 0.58207274E-01 0.14968499E+03</pdfrwt>
<totfact> 0.22209547E+03</totfact>
</mgrwt>
</event>
<event>
 6    1  0.8353100E-006  0.1464255E+03  0.7546771E-02  0.1214576E+00
         -1   -1    0    0    0  501 -0.00000000000E+00  0.00000000000E+00  0.50692754794E+03  0.50692754794E+03  0.00000000000E+00 0.  1.
          1   -1    0    0  501    0  0.00000000000E+00 -0.00000000000E+00 -0.53290596952E+02  0.53290596952E+02  0.00000000000E+00 0. -1.
          5    1    1    2  502    0 -0.25320504448E+02  0.21882992385E+02  0.95875168750E+02  0.10165692935E+03  0.47000000000E+01 0.  1.
         -5    1    1    2    0  502 -0.49677274721E+02 -0.35686107015E+02 -0.18340567114E+02  0.64029651410E+02  0.47000000000E+01 0.  1.
        -11    1    1    2    0    0  0.67186072156E+01 -0.30200240792E+02  0.52949066236E+02  0.61325344207E+02  0.00000000000E+00 0. -1.
         11    1    1    2    0    0  0.68279171953E+02  0.44003355423E+02  0.32315328312E+03  0.33320621993E+03  0.00000000000E+00 0.  1.
<mgrwt>
<rscale>  0 0.13907751E+03</rscale>
<asrwt>0</asrwt>
<pdfrwt beam="2">  1        1 0.81985537E-02 0.14642551E+03</pdfrwt>
<pdfrwt beam="1">  1       -1 0.77988850E-01 0.14642551E+03</pdfrwt>
<totfact> 0.14184482E+03</totfact>
</mgrwt>
</event>
<event>
 6    1  0.8353100E-006  0.1250579E+03  0.7546771E-02  0.1249989E+00
         -3   -1    0    0    0  501 -0.00000000000E+00  0.00000000000E+00  0.20818231725E+02  0.20818231725E+02  0.00000000000E+00 0.  1.
          3   -1    0    0  501    0  0.00000000000E+00 -0.00000000000E+00 -0.56898281593E+03  0.56898281593E+03  0.00000000000E+00 0. -1.
          5    1    1    2  502    0  0.34661277154E+02  0.22195993210E+02 -0.29163545758E+02  0.50662300083E+02  0.47000000000E+01 0.  1.
         -5    1    1    2    0  502 -0.38145003607E+02 -0.21161520609E+02 -0.27072451669E+03  0.27425664111E+03  0.47000000000E+01 0.  1.
        -11    1    1    2    0    0  0.44164860736E+02  0.51781479177E+01 -0.78801480209E+02  0.90482160799E+02  0.00000000000E+00 0.  1.
         11    1    1    2    0    0 -0.40681134283E+02 -0.62126205191E+01 -0.16947504155E+03  0.17439994566E+03  0.00000000000E+00 0. -1.
<mgrwt>
<rscale>  0 0.11591682E+03</rscale>
<asrwt>0</asrwt>
<pdfrwt beam="2">  1        3 0.87535822E-01 0.12505786E+03</pdfrwt>
<pdfrwt beam="1">  1       -3 0.32028047E-02 0.12505786E+03</pdfrwt>
<totfact> 0.12798167E+03</totfact>
</mgrwt>
</event>
<event>
 6    1  0.8353100E-006  0.1298877E+03  0.7546771E-02  0.1240949E+00
          1   -1    0    0  501    0  0.00000000000E+00  0.00000000000E+00  0.61678547443E+02  0.61678547443E+02  0.00000000000E+00 0. -1.
         -1   -1    0    0    0  501 -0.00000000000E+00 -0.00000000000E+00 -0.21214511170E+03  0.21214511170E+03  0.00000000000E+00 0.  1.
          5    1    1    2  502    0 -0.35375300070E+02 -0.40522024470E+02  0.13638246195E+02  0.55691454295E+02  0.47000000000E+01 0. -1.
         -5    1    1    2    0  502  0.16086333678E+02  0.10962231185E+02 -0.96093655675E+02  0.98158144363E+02  0.47000000000E+01 0. -1.
        -11    1    1    2    0    0  0.21712639684E+01  0.62003630391E+02 -0.45458063452E+02  0.76912938454E+02  0.00000000000E+00 0.  1.
         11    1    1    2    0    0  0.17117702424E+02 -0.32443837105E+02 -0.22553091326E+02  0.43061122033E+02  0.00000000000E+00 0. -1.
<mgrwt>
<rscale>  0 0.12131180E+03</rscale>
<asrwt>0</asrwt>
<pdfrwt beam="1">  1        1 0.94890073E-02 0.12988766E+03</pdfrwt>
<pdfrwt beam="2">  1       -1 0.32637709E-01 0.12988766E+03</pdfrwt>
<totfact> 0.57692753E+03</totfact>
</mgrwt>
</event>
<event>
 6    1  0.8353100E-006  0.1176278E+03  0.7546771E-02  0.1264081E+00
         -3   -1    0    0    0  501 -0.00000000000E+00  0.00000000000E+00  0.45794347517E+02  0.45794347517E+02  0.00000000000E+00 0.  1.
          3   -1    0    0  501    0  0.00000000000E+00 -0.00000000000E+00 -0.38848447005E+03  0.38848447005E+03  0.00000000000E+00 0. -1.
          5    1    1    2  502    0  0.76341949873E+02  0.20901984698E+00 -0.21983072723E+03  0.23275690244E+03  0.47000000000E+01 0. -1.
         -5    1    1    2    0  502 -0.40281640422E+02 -0.64498628847E+01 -0.10890320538E+03  0.11638818423E+03  0.47000000000E+01 0.  1.
        -11    1    1    2    0    0 -0.30083083900E+02 -0.21858505860E+02 -0.33773247809E+02  0.50233638958E+02  0.00000000000E+00 0. -1.
         11    1    1    2    0    0 -0.59772255513E+01  0.28099348898E+02  0.19817057888E+02  0.34900091936E+02  0.00000000000E+00 0.  1.
<mgrwt>
<rscale>  0 0.10812571E+03</rscale>
<asrwt>0</asrwt>
<pdfrwt beam="2">  1        3 0.59766838E-01 0.11762777E+03</pdfrwt>
<pdfrwt beam="1">  1       -3 0.70452846E-02 0.11762777E+03</pdfrwt>
<totfact> 0.82301565E+02</totfact>
</mgrwt>
</event>
<event>
 6    1  0.8353100E-006  0.1295032E+03  0.7546771E-02  0.1241503E+00
          1   -1    0    0  501    0  0.00000000000E+00  0.00000000000E+00  0.36833862575E+03  0.36833862575E+03  0.00000000000E+00 0.  1.
         -1   -1    0    0    0  501 -0.00000000000E+00 -0.00000000000E+00 -0.36710451295E+02  0.36710451295E+02  0.00000000000E+00 0. -1.
          5    1    1    2  502    0  0.44879022286E+02 -0.13090844578E+02  0.46857423107E+02  0.66356649654E+02  0.47000000000E+01 0. -1.
         -5    1    1    2    0  502 -0.74460630887E+02 -0.33815360199E+01  0.17969460822E+03  0.19459718025E+03  0.47000000000E+01 0. -1.
        -11    1    1    2    0    0 -0.31018447637E+02 -0.36952489256E+01  0.53714074823E+02  0.62136951909E+02  0.00000000000E+00 0. -1.
         11    1    1    2    0    0  0.60600056238E+02  0.20167629523E+02  0.51362068303E+02  0.81958295230E+02  0.00000000000E+00 0.  1.
<mgrwt>
<rscale>  0 0.12097129E+03</rscale>
<asrwt>0</asrwt>
<pdfrwt beam="1">  1        1 0.56667478E-01 0.12950320E+03</pdfrwt>
<pdfrwt beam="2">  1       -1 0.56477620E-02 0.12950320E+03</pdfrwt>
<totfact> 0.93369762E+03</totfact>
</mgrwt>
</event>
<event>
 6    1  0.8353100E-006  0.3579137E+03  0.7546771E-02  0.1059413E+00
          4   -1    0    0  501    0  0.00000000000E+00  0.00000000000E+00  0.18280164171E+03  0.18280164171E+03  0.00000000000E+00 0. -1.
         -4   -1    0    0    0  501 -0.00000000000E+00 -0.00000000000E+00 -0.17519293128E+03  0.17519293128E+03  0.00000000000E+00 0.  1.
          5    1    1    2  502    0  0.15331389776E+01 -0.84594953891E+02  0.13248557372E+03  0.15726784154E+03  0.47000000000E+01 0. -1.
         -5    1    1    2    0  502  0.62044016239E+01  0.28188896800E+02  0.68371470206E+01  0.30032400531E+02  0.47000000000E+01 0.  1.
        -11    1    1    2    0    0  0.36304709211E+02  0.50736201639E+02 -0.91760870052E+02  0.11096058463E+03  0.00000000000E+00 0.  1.
         11    1    1    2    0    0 -0.44042249813E+02  0.56698554520E+01 -0.39953140264E+02  0.59733746295E+02  0.00000000000E+00 0. -1.
<mgrwt>
<rscale>  0 0.35791371E+03</rscale>
<asrwt>0</asrwt>
<pdfrwt beam="1">  1        4 0.28123330E-01 0.35791371E+03</pdfrwt>
<pdfrwt beam="2">  1       -4 0.26952759E-01 0.35791371E+03</pdfrwt>
<totfact> 0.30161027E+02</totfact>
</mgrwt>
</event>
<event>
 6    1  0.8353100E-006  0.1704488E+03  0.7546771E-02  0.1209089E+00
          2   -1    0    0  501    0  0.00000000000E+00  0.00000000000E+00  0.16541696182E+03  0.16541696182E+03  0.00000000000E+00 0. -1.
         -2   -1    0    0    0  501 -0.00000000000E+00 -0.00000000000E+00 -0.12441728686E+03  0.12441728686E+03  0.00000000000E+00 0.  1.
          5    1    1    2  502    0  0.48991758601E+02  0.70461111067E+02  0.86001504192E+02  0.12158663293E+03  0.47000000000E+01 0. -1.
         -5    1    1    2    0  502 -0.36478581391E+02 -0.60308254233E+02  0.30067348809E+01  0.70702919909E+02  0.47000000000E+01 0.  1.
        -11    1    1    2    0    0 -0.89517606721E+01  0.36756910138E+02 -0.22823166879E+02  0.44182591689E+02  0.00000000000E+00 0. -1.
         11    1    1    2    0    0 -0.35614165386E+01 -0.46909766971E+02 -0.25185397233E+02  0.53362104146E+02  0.00000000000E+00 0.  1.
<mgrwt>
<rscale>  0 0.14319852E+03</rscale>
<asrwt>0</asrwt>
<pdfrwt beam="1">  1        2 0.25448763E-01 0.17044884E+03</pdfrwt>
<pdfrwt beam="2">  1       -2 0.19141121E-01 0.17044884E+03</pdfrwt>
<totfact> 0.46337285E+03</totfact>
</mgrwt>
</event>
<event>
 6    1  0.8353100E-006  0.4577848E+03  0.7546771E-02  0.1025426E+00
          2   -1    0    0  501    0  0.00000000000E+00  0.00000000000E+00  0.53231041987E+03  0.53231041987E+03  0.00000000000E+00 0. -1.
         -2   -1    0    0    0  501 -0.00000000000E+00 -0.00000000000E+00 -0.98423249242E+02  0.98423249242E+02  0.00000000000E+00 0.  1.
          5    1    1    2  502    0 -0.86798398814E+01 -0.17453003656E+02  0.11765961092E+03  0.11935585867E+03  0.47000000000E+01 0.  1.
         -5    1    1    2    0  502  0.14563425670E+03  0.68527503727E+02  0.30083324322E+03  0.34121560005E+03  0.47000000000E+01 0.  1.
        -11    1    1    2    0    0 -0.88645050183E+02 -0.64685962409E+02  0.36594834370E+02  0.11567800377E+03  0.00000000000E+00 0. -1.
         11    1    1    2    0    0 -0.48309366637E+02  0.13611462337E+02 -0.21200517884E+02  0.54484206614E+02  0.00000000000E+00 0.  1.
<mgrwt>
<rscale>  0 0.45778476E+03</rscale>
<asrwt>0</asrwt>
<pdfrwt beam="1">  1        2 0.81893909E-01 0.45778476E+03</pdfrwt>
<pdfrwt beam="2">  1       -2 0.15142039E-01 0.45778476E+03</pdfrwt>
<totfact> 0.19647001E+03</totfact>
</mgrwt>
</event>
<event>
 6    1  0.8353100E-006  0.1285386E+03  0.7546771E-02  0.1237530E+00
         -1   -1    0    0    0  501 -0.00000000000E+00  0.00000000000E+00  0.10405959699E+02  0.10405959699E+02  0.00000000000E+00 0.  1.
          1   -1    0    0  501    0  0.00000000000E+00 -0.00000000000E+00 -0.13592476924E+04  0.13592476924E+04  0.00000000000E+00 0. -1.
          5    1    1    2  502    0 -0.27423344724E+02 -0.52960286522E+02 -0.51283267060E+03  0.51631024570E+03  0.47000000000E+01 0. -1.
         -5    1    1    2    0  502  0.58265210647E+02 -0.33342406654E+01 -0.21725006946E+03  0.22500141025E+03  0.47000000000E+01 0.  1.
        -11    1    1    2    0    0 -0.48411320391E+01 -0.24214751303E+02 -0.14524641060E+03  0.14733061641E+03  0.00000000000E+00 0. -1.
         11    1    1    2    0    0 -0.26000733883E+02  0.80509278490E+02 -0.47351258206E+03  0.48101137976E+03  0.00000000000E+00 0.  1.
<mgrwt>
<rscale>  0 0.12343846E+03</rscale>
<asrwt>0</asrwt>
<pdfrwt beam="2">  1        1 0.20911500E+00 0.12853857E+03</pdfrwt>
<pdfrwt beam="1">  1       -1 0.16009171E-02 0.12853857E+03</pdfrwt>
<totfact> 0.82008974E+03</totfact>
</mgrwt>
</event>
<event>
 6    1  0.8353100E-006  0.1256262E+03  0.7546771E-02  0.1249810E+00
          2   -1    0    0  501    0  0.00000000000E+00  0.00000000000E+00  0.19605346347E+03  0.19605346347E+03  0.00000000000E+00 0. -1.
         -2   -1    0    0    0  501 -0.00000000000E+00 -0.00000000000E+00 -0.64253609767E+02  0.64253609767E+02  0.00000000000E+00 0.  1.
          5    1    1    2  502    0  0.42048818531E+02  0.14085773297E+01  0.11611642640E+03  0.12359288697E+03  0.47000000000E+01 0. -1.
         -5    1    1    2    0  502 -0.39161955350E+02 -0.13558609235E+02 -0.76207316697E+01  0.42398822890E+02  0.47000000000E+01 0. -1.
        -11    1    1    2    0    0 -0.10399920980E+02 -0.36083205789E+02 -0.50076018873E+01  0.37884458199E+02  0.00000000000E+00 0.  1.
         11    1    1    2    0    0  0.75130578000E+01  0.48233237694E+02  0.28311760860E+02  0.56430905176E+02  0.00000000000E+00 0. -1.
<mgrwt>
<rscale>  0 0.11602080E+03</rscale>
<asrwt>0</asrwt>
<pdfrwt beam="1">  1        2 0.30162071E-01 0.12562616E+03</pdfrwt>
<pdfrwt beam="2">  1       -2 0.98851708E-02 0.12562616E+03</pdfrwt>
<totfact> 0.11018970E+04</totfact>
</mgrwt>
</event>
<event>
 6    1  0.8353100E-006  0.2558809E+03  0.7546771E-02  0.1109644E+00
         -3   -1    0    0    0  501 -0.00000000000E+00  0.00000000000E+00  0.84696011798E+02  0.84696011798E+02  0.00000000000E+00 0.  1.
          3   -1    0    0  501    0  0.00000000000E+00 -0.00000000000E+00 -0.19326474132E+03  0.19326474132E+03  0.00000000000E+00 0. -1.
          5    1    1    2  502    0 -0.90035701871E+01  0.12572716629E+02  0.22666803903E+02  0.27839027977E+02  0.47000000000E+01 0.  1.
         -5    1    1    2    0  502  0.31057759670E+02 -0.67671475226E+02 -0.12010035179E+03  0.14138669490E+03  0.47000000000E+01 0.  1.
        -11    1    1    2    0    0 -0.33764674811E+02  0.29822881043E+02  0.33486350132E+02  0.56131926245E+02  0.00000000000E+00 0.  1.
         11    1    1    2    0    0  0.11710485328E+02  0.25275877554E+02 -0.44621531763E+02  0.52603103992E+02  0.00000000000E+00 0. -1.
<mgrwt>
<rscale>  0 0.25588085E+03</rscale>
<asrwt>0</asrwt>
<pdfrwt beam="2">  1        3 0.29733037E-01 0.25588085E+03</pdfrwt>
<pdfrwt beam="1">  1       -3 0.13030156E-01 0.25588085E+03</pdfrwt>
<totfact> 0.13017804E+03</totfact>
</mgrwt>
</event>
<event>
 6    1  0.8353100E-006  0.1354193E+03  0.7546771E-02  0.1231548E+00
         -2   -1    0    0    0  501 -0.00000000000E+00  0.00000000000E+00  0.10969902595E+02  0.10969902595E+02  0.00000000000E+00 0.  1.
          2   -1    0    0  501    0  0.00000000000E+00 -0.00000000000E+00 -0.14830041984E+04  0.14830041984E+04  0.00000000000E+00 0. -1.
          5    1    1    2  502    0 -0.50313768208E+02  0.58438957902E+02 -0.55344863416E+03  0.55881487787E+03  0.47000000000E+01 0.  1.
         -5    1    1    2    0  502 -0.17698721461E+01 -0.57251965251E+02 -0.50599643375E+03  0.50924984137E+03  0.47000000000E+01 0.  1.
        -11    1    1    2    0    0 -0.19598406040E+02  0.22528963665E+02 -0.13238589343E+03  0.13571174048E+03  0.00000000000E+00 0.  1.
         11    1    1    2    0    0  0.71682046394E+02 -0.23715956316E+02 -0.28020333449E+03  0.29019764130E+03  0.00000000000E+00 0. -1.
<mgrwt>
<rscale>  0 0.12728051E+03</rscale>
<asrwt>0</asrwt>
<pdfrwt beam="2">  1        2 0.22815442E+00 0.13541932E+03</pdfrwt>
<pdfrwt beam="1">  1       -2 0.16876779E-02 0.13541932E+03</pdfrwt>
<totfact> 0.13416252E+04</totfact>
</mgrwt>
</event>
<event>
 6    1  0.8353100E-006  0.2488312E+03  0.7546771E-02  0.1152974E+00
         -2   -1    0    0    0  501 -0.00000000000E+00  0.00000000000E+00  0.15078612732E+02  0.15078612732E+02  0.00000000000E+00 0.  1.
          2   -1    0    0  501    0  0.00000000000E+00 -0.00000000000E+00 -0.26320027011E+04  0.26320027011E+04  0.00000000000E+00 0. -1.
          5    1    1    2  502    0  0.48041511929E+02  0.21486007649E+02 -0.21912029610E+04  0.21918398988E+04  0.47000000000E+01 0. -1.
         -5    1    1    2    0  502 -0.62292745587E+02  0.17706704260E+02 -0.16269061525E+03  0.17516917485E+03  0.47000000000E+01 0.  1.
        -11    1    1    2    0    0  0.44421148233E+02  0.11760077975E+01 -0.99968839240E+02  0.10940013813E+03  0.00000000000E+00 0.  1.
         11    1    1    2    0    0 -0.30169914574E+02 -0.40368719706E+02 -0.16306167282E+03  0.17067210205E+03  0.00000000000E+00 0. -1.
<mgrwt>
<rscale>  0 0.19621316E+03</rscale>
<asrwt>0</asrwt>
<pdfrwt beam="2">  1        2 0.40492393E+00 0.24883124E+03</pdfrwt>
<pdfrwt beam="1">  1       -2 0.23197841E-02 0.24883124E+03</pdfrwt>
<totfact> 0.21088402E+03</totfact>
</mgrwt>
</event>
<event>
 6    1  0.8353100E-006  0.2042034E+03  0.7546771E-02  0.1150400E+00
         -2   -1    0    0    0  501 -0.00000000000E+00  0.00000000000E+00  0.58533978014E+02  0.58533978014E+02  0.00000000000E+00 0.  1.
          2   -1    0    0  501    0  0.00000000000E+00 -0.00000000000E+00 -0.64998806910E+03  0.64998806910E+03  0.00000000000E+00 0. -1.
          5    1    1    2  502    0 -0.14834230997E+02  0.11451740831E+03 -0.23321949209E+03  0.26028390789E+03  0.47000000000E+01 0. -1.
         -5    1    1    2    0  502  0.62563394563E+02  0.39739765874E+02 -0.52681520841E+02  0.91054159538E+02  0.47000000000E+01 0. -1.
        -11    1    1    2    0    0  0.90266186317E+01 -0.72211506853E+02 -0.68278450323E+02  0.99789420002E+02  0.00000000000E+00 0.  1.
         11    1    1    2    0    0 -0.56755782197E+02 -0.82045667336E+02 -0.23727462783E+03  0.25739455968E+03  0.00000000000E+00 0. -1.
<mgrwt>
<rscale>  0 0.19921805E+03</rscale>
<asrwt>0</asrwt>
<pdfrwt beam="2">  1        2 0.99998167E-01 0.20420345E+03</pdfrwt>
<pdfrwt beam="1">  1       -2 0.90052271E-02 0.20420345E+03</pdfrwt>
<totfact> 0.35571052E+03</totfact>
</mgrwt>
</event>
<event>
 6    1  0.8353100E-006  0.2997372E+03  0.7546771E-02  0.1085372E+00
         -3   -1    0    0    0  501 -0.00000000000E+00  0.00000000000E+00  0.46931837572E+02  0.46931837572E+02  0.00000000000E+00 0.  1.
          3   -1    0    0  501    0  0.00000000000E+00 -0.00000000000E+00 -0.47857916549E+03  0.47857916549E+03  0.00000000000E+00 0. -1.
          5    1    1    2  502    0 -0.57469470362E+02 -0.39218472333E+02 -0.24825868398E+03  0.25786681207E+03  0.47000000000E+01 0. -1.
         -5    1    1    2    0  502  0.10564039369E+02  0.42970957791E+02 -0.39984334128E+02  0.59824235197E+02  0.47000000000E+01 0. -1.
        -11    1    1    2    0    0  0.39278928748E+02  0.66209457512E+02 -0.95599185766E+02  0.12274253878E+03  0.00000000000E+00 0. -1.
         11    1    1    2    0    0  0.76265022454E+01 -0.69961942970E+02 -0.47805124045E+02  0.85077417013E+02  0.00000000000E+00 0.  1.
<mgrwt>
<rscale>  0 0.29973722E+03</rscale>
<asrwt>0</asrwt>
<pdfrwt beam="2">  1        3 0.73627564E-01 0.29973722E+03</pdfrwt>
<pdfrwt beam="1">  1       -3 0.72202827E-02 0.29973722E+03</pdfrwt>
<totfact> 0.57700988E+02</totfact>
</mgrwt>
</event>
<event>
 6    1  0.8353100E-006  0.3499809E+03  0.7546771E-02  0.1064451E+00
         -2   -1    0    0    0  501 -0.00000000000E+00  0.00000000000E+00  0.64116677548E+02  0.64116677548E+02  0.00000000000E+00 0.  1.
          2   -1    0    0  501    0  0.00000000000E+00 -0.00000000000E+00 -0.29273864883E+04  0.29273864883E+04  0.00000000000E+00 0. -1.
          5    1    1    2  502    0  0.77083414225E+02 -0.64685771348E+02 -0.11546649691E+04  0.11590510699E+04  0.47000000000E+01 0. -1.
         -5    1    1    2    0  502  0.19267257286E+03 -0.12331047827E+03 -0.12206168394E+04  0.12418759008E+04  0.47000000000E+01 0.  1.
        -11    1    1    2    0    0 -0.38295706078E+02  0.42679071207E+02 -0.61950137485E+02  0.84414949846E+02  0.00000000000E+00 0. -1.
         11    1    1    2    0    0 -0.23146028101E+03  0.14531717841E+03 -0.42603786480E+03  0.50616124532E+03  0.00000000000E+00 0.  1.
<mgrwt>
<rscale>  0 0.34556218E+03</rscale>
<asrwt>0</asrwt>
<pdfrwt beam="2">  1        2 0.45036724E+00 0.34998093E+03</pdfrwt>
<pdfrwt beam="1">  1       -2 0.98641023E-02 0.34998093E+03</pdfrwt>
<totfact> 0.15276402E+02</totfact>
</mgrwt>
</event>
<event>
 6    1  0.8353100E-006  0.1327321E+03  0.7546771E-02  0.1233713E+00
          2   -1    0    0  501    0  0.00000000000E+00  0.00000000000E+00  0.25034497891E+03  0.25034497891E+03  0.00000000000E+00 0. -1.
         -2   -1    0    0    0  501 -0.00000000000E+00 -0.00000000000E+00 -0.64402943393E+02  0.64402943393E+02  0.00000000000E+00 0.  1.
          5    1    1    2  502    0 -0.79366953820E+02  0.47217586999E+02  0.13506946757E+03  0.16369014922E+03  0.47000000000E+01 0. -1.
         -5    1    1    2    0  502  0.29940107074E+02 -0.16299321162E+02  0.17735149014E+02  0.38713090712E+02  0.47000000000E+01 0.  1.
        -11    1    1    2    0    0  0.27065654540E+02 -0.40687747287E+02 -0.20826083832E+02  0.53120318173E+02  0.00000000000E+00 0.  1.
         11    1    1    2    0    0  0.22361192206E+02  0.97694814497E+01  0.53963502766E+02  0.59224364204E+02  0.00000000000E+00 0. -1.
<mgrwt>
<rscale>  0 0.12587193E+03</rscale>
<asrwt>0</asrwt>
<pdfrwt beam="1">  1        2 0.38514612E-01 0.13273214E+03</pdfrwt>
<pdfrwt beam="2">  1       -2 0.99081453E-02 0.13273214E+03</pdfrwt>
<totfact> 0.84854355E+03</totfact>
</mgrwt>
</event>
<event>
 6    1  0.8353100E-006  0.1960153E+03  0.7546771E-02  0.1157725E+00
          1   -1    0    0  501    0  0.00000000000E+00  0.00000000000E+00  0.61950679837E+03  0.61950679837E+03  0.00000000000E+00 0. -1.
         -1   -1    0    0    0  501 -0.00000000000E+00 -0.00000000000E+00 -0.60310898423E+02  0.60310898423E+02  0.00000000000E+00 0.  1.
          5    1    1    2  502    0 -0.78743914584E+02  0.79771790445E+02  0.30660956679E+03  0.32648990655E+03  0.47000000000E+01 0. -1.
         -5    1    1    2    0  502  0.31013305808E+02  0.63489193609E+02  0.79090806315E+02  0.10616095556E+03  0.47000000000E+01 0. -1.
        -11    1    1    2    0    0  0.17411370034E+02 -0.60509708536E+02  0.13337593671E+02  0.64362038800E+02  0.00000000000E+00 0.  1.
         11    1    1    2    0    0  0.30319238742E+02 -0.82751275517E+02  0.16015793317E+03  0.18280479588E+03  0.00000000000E+00 0. -1.
<mgrwt>
<rscale>  0 0.19081893E+03</rscale>
<asrwt>0</asrwt>
<pdfrwt beam="1">  1        1 0.95308734E-01 0.19601528E+03</pdfrwt>
<pdfrwt beam="2">  1       -1 0.92786002E-02 0.19601528E+03</pdfrwt>
<totfact> 0.22829315E+03</totfact>
</mgrwt>
</event>
<event>
 6    1  0.8353100E-006  0.1349884E+03  0.7546771E-02  0.1232746E+00
         -1   -1    0    0    0  501 -0.00000000000E+00  0.00000000000E+00  0.24119940495E+02  0.24119940495E+02  0.00000000000E+00 0.  1.
          1   -1    0    0  501    0  0.00000000000E+00 -0.00000000000E+00 -0.59253190397E+03  0.59253190397E+03  0.00000000000E+00 0. -1.
          5    1    1    2  502    0  0.33262540082E+02  0.35215860096E+02 -0.13450418539E+03  0.14303852370E+03  0.47000000000E+01 0.  1.
         -5    1    1    2    0  502 -0.17532464099E+02 -0.83698479697E+02 -0.18898419184E+03  0.20748478875E+03  0.47000000000E+01 0.  1.
        -11    1    1    2    0    0 -0.53378493606E+02  0.26027791397E+02 -0.12355093718E+03  0.13708225116E+03  0.00000000000E+00 0.  1.
         11    1    1    2    0    0  0.37648417623E+02  0.22454828204E+02 -0.12137264907E+03  0.12904628085E+03  0.00000000000E+00 0. -1.
<mgrwt>
<rscale>  0 0.12649841E+03</rscale>
<asrwt>0</asrwt>
<pdfrwt beam="2">  1        1 0.91158748E-01 0.13498838E+03</pdfrwt>
<pdfrwt beam="1">  1       -1 0.37107603E-02 0.13498838E+03</pdfrwt>
<totfact> 0.94094330E+03</totfact>
</mgrwt>
</event>
<event>
 6    1  0.8353100E-006  0.1409710E+03  0.7546771E-02  0.1222750E+00
          3   -1    0    0  501    0  0.00000000000E+00  0.00000000000E+00  0.13567262098E+03  0.13567262098E+03  0.00000000000E+00 0. -1.
         -3   -1    0    0    0  501 -0.00000000000E+00 -0.00000000000E+00 -0.11948346351E+03  0.11948346351E+03  0.00000000000E+00 0.  1.
          5    1    1    2  502    0 -0.55789477239E+02  0.58219342434E+02 -0.19185344537E+01  0.80794358581E+02  0.47000000000E+01 0.  1.
         -5    1    1    2    0  502 -0.93599257663E+01 -0.56248114348E+02  0.23350852343E+02  0.61796528084E+02  0.47000000000E+01 0.  1.
        -11    1    1    2    0    0  0.49817952681E+02 -0.27049492760E+02 -0.38236383591E+02  0.68377807058E+02  0.00000000000E+00 0.  1.
         11    1    1    2    0    0  0.15331450324E+02  0.25078264674E+02  0.32993223173E+02  0.44187390775E+02  0.00000000000E+00 0. -1.
<mgrwt>
<rscale>  0 0.13322337E+03</rscale>
<asrwt>0</asrwt>
<pdfrwt beam="1">  1        3 0.20872711E-01 0.14097098E+03</pdfrwt>
<pdfrwt beam="2">  1       -3 0.18382071E-01 0.14097098E+03</pdfrwt>
<totfact> 0.12545865E+03</totfact>
</mgrwt>
</event>
<event>
 6    1  0.8353100E-006  0.1958063E+03  0.7546771E-02  0.1157829E+00
          2   -1    0    0  501    0  0.00000000000E+00  0.00000000000E+00  0.98475231404E+03  0.98475231404E+03  0.00000000000E+00 0. -1.
         -2   -1    0    0    0  501 -0.00000000000E+00 -0.00000000000E+00 -0.41286612239E+02  0.41286612239E+02  0.00000000000E+00 0.  1.
          5    1    1    2  502    0  0.40017964839E+02 -0.31035386296E+02  0.79614050005E+02  0.94472851500E+02  0.47000000000E+01 0.  1.
         -5    1    1    2    0  502  0.10790271948E+03  0.59919949430E+02  0.61120212787E+03  0.62355715722E+03  0.47000000000E+01 0.  1.
        -11    1    1    2    0    0 -0.63811100273E+02  0.49539732587E+01  0.36648976315E+02  0.73753276768E+02  0.00000000000E+00 0.  1.
         11    1    1    2    0    0 -0.84109584044E+02 -0.33838536393E+02  0.21600054761E+03  0.23425564079E+03  0.00000000000E+00 0. -1.
<mgrwt>
<rscale>  0 0.19070241E+03</rscale>
<asrwt>0</asrwt>
<pdfrwt beam="1">  1        2 0.15150034E+00 0.19580629E+03</pdfrwt>
<pdfrwt beam="2">  1       -2 0.63517872E-02 0.19580629E+03</pdfrwt>
<totfact> 0.36046102E+03</totfact>
</mgrwt>
</event>
<event>
 6    1  0.8353100E-006  0.1328932E+03  0.7546771E-02  0.1236094E+00
          2   -1    0    0  501    0  0.00000000000E+00  0.00000000000E+00  0.12732907252E+04  0.12732907252E+04  0.00000000000E+00 0.  1.
         -2   -1    0    0    0  501 -0.00000000000E+00 -0.00000000000E+00 -0.11918837388E+02  0.11918837388E+02  0.00000000000E+00 0. -1.
          5    1    1    2  502    0  0.23314037524E+02 -0.50030845741E+02  0.86966314199E+03  0.87142567119E+03  0.47000000000E+01 0. -1.
         -5    1    1    2    0  502 -0.22372814422E+02  0.49273816234E+01  0.30193699032E+02  0.38191247375E+02  0.47000000000E+01 0. -1.
        -11    1    1    2    0    0 -0.39090396412E+02  0.47148822049E+02  0.18106944277E+03  0.19114709942E+03  0.00000000000E+00 0.  1.
         11    1    1    2    0    0  0.38149173310E+02 -0.20453579322E+01  0.18044560401E+03  0.18444554459E+03  0.00000000000E+00 0. -1.
<mgrwt>
<rscale>  0 0.12434677E+03</rscale>
<asrwt>0</asrwt>
<pdfrwt beam="1">  1        2 0.19589077E+00 0.13289321E+03</pdfrwt>
<pdfrwt beam="2">  1       -2 0.18336683E-02 0.13289321E+03</pdfrwt>
<totfact> 0.15359585E+04</totfact>
</mgrwt>
</event>
<event>
 6    1  0.8353100E-006  0.3021869E+03  0.7546771E-02  0.1085622E+00
         -2   -1    0    0    0  501 -0.00000000000E+00  0.00000000000E+00  0.96262278152E+02  0.96262278152E+02  0.00000000000E+00 0.  1.
          2   -1    0    0  501    0  0.00000000000E+00 -0.00000000000E+00 -0.10916975930E+04  0.10916975930E+04  0.00000000000E+00 0. -1.
          5    1    1    2  502    0  0.92597673874E+02  0.41802478051E+02 -0.45287750104E+03  0.46415719032E+03  0.47000000000E+01 0.  1.
         -5    1    1    2    0  502  0.16311533270E+03  0.59706870109E+02 -0.29360615999E+03  0.34117178852E+03  0.47000000000E+01 0.  1.
        -11    1    1    2    0    0 -0.54843011027E+02 -0.17807228455E+02 -0.84258708672E+01  0.58273909630E+02  0.00000000000E+00 0.  1.
         11    1    1    2    0    0 -0.20086999554E+03 -0.83702119705E+02 -0.24052578297E+03  0.32435698270E+03  0.00000000000E+00 0. -1.
<mgrwt>
<rscale>  0 0.29923918E+03</rscale>
<asrwt>0</asrwt>
<pdfrwt beam="2">  1        2 0.16795346E+00 0.30218688E+03</pdfrwt>
<pdfrwt beam="1">  1       -2 0.14809582E-01 0.30218688E+03</pdfrwt>
<totfact> 0.80873081E+02</totfact>
</mgrwt>
</event>
<event>
 6    1  0.8353100E-006  0.1235083E+03  0.7546771E-02  0.1239045E+00
          1   -1    0    0  501    0  0.00000000000E+00  0.00000000000E+00  0.39003523658E+03  0.39003523658E+03  0.00000000000E+00 0.  1.
         -1   -1    0    0    0  501 -0.00000000000E+00 -0.00000000000E+00 -0.46387533458E+02  0.46387533458E+02  0.00000000000E+00 0. -1.
          5    1    1    2  502    0  0.25092599974E+02  0.59749248529E+02  0.10840987120E+03  0.12638987874E+03  0.47000000000E+01 0. -1.
         -5    1    1    2    0  502 -0.23626068471E+02 -0.43812557736E+02  0.15471703706E+03  0.16259515025E+03  0.47000000000E+01 0.  1.
        -11    1    1    2    0    0 -0.20277099810E+02  0.10652033933E+02  0.10450763562E+03  0.10698818863E+03  0.00000000000E+00 0.  1.
         11    1    1    2    0    0  0.18810568307E+02 -0.26588724726E+02 -0.23986840753E+02  0.40449552431E+02  0.00000000000E+00 0. -1.
<mgrwt>
<rscale>  0 0.12248982E+03</rscale>
<asrwt>0</asrwt>
<pdfrwt beam="1">  1        1 0.60005419E-01 0.12350826E+03</pdfrwt>
<pdfrwt beam="2">  1       -1 0.71365439E-02 0.12350826E+03</pdfrwt>
<totfact> 0.61130496E+03</totfact>
</mgrwt>
</event>
<event>
 6    1  0.8353100E-006  0.1724946E+03  0.7546771E-02  0.1181528E+00
          2   -1    0    0  501    0  0.00000000000E+00  0.00000000000E+00  0.92062531857E+03  0.92062531857E+03  0.00000000000E+00 0. -1.
         -2   -1    0    0    0  501 -0.00000000000E+00 -0.00000000000E+00 -0.30541644095E+02  0.30541644095E+02  0.00000000000E+00 0.  1.
          5    1    1    2  502    0 -0.63517706702E+02  0.83222124102E+02  0.58909294109E+03  0.59834187907E+03  0.47000000000E+01 0.  1.
         -5    1    1    2    0  502 -0.25587543653E+02 -0.45426318813E+01  0.16046176742E+02  0.30901904191E+02  0.47000000000E+01 0.  1.
        -11    1    1    2    0    0  0.32045318164E+02  0.17380356336E+02  0.92065412658E+02  0.99020297972E+02  0.00000000000E+00 0. -1.
         11    1    1    2    0    0  0.57059932192E+02 -0.96059848557E+02  0.19287914398E+03  0.22290288143E+03  0.00000000000E+00 0.  1.
<mgrwt>
<rscale>  0 0.16651840E+03</rscale>
<asrwt>0</asrwt>
<pdfrwt beam="1">  1        2 0.14163464E+00 0.17249460E+03</pdfrwt>
<pdfrwt beam="2">  1       -2 0.46987152E-02 0.17249460E+03</pdfrwt>
<totfact> 0.62205565E+03</totfact>
</mgrwt>
</event>
<event>
 6    1  0.8353100E-006  0.2516997E+03  0.7546771E-02  0.1112235E+00
          1   -1    0    0  501    0  0.00000000000E+00  0.00000000000E+00  0.24280742932E+03  0.24280742932E+03  0.00000000000E+00 0. -1.
         -1   -1    0    0    0  501 -0.00000000000E+00 -0.00000000000E+00 -0.65229407889E+02  0.65229407889E+02  0.00000000000E+00 0.  1.
          5    1    1    2  502    0 -0.11271146936E+02  0.19461530577E+01  0.14652903299E+03  0.14704990233E+03  0.47000000000E+01 0. -1.
         -5    1    1    2    0  502 -0.18753359851E+02  0.44017795177E+02 -0.65097589150E+01  0.48515170401E+02  0.47000000000E+01 0. -1.
        -11    1    1    2    0    0 -0.31290795169E+02 -0.13489976880E+02  0.24250230523E+02  0.41823044114E+02  0.00000000000E+00 0. -1.
         11    1    1    2    0    0  0.61315301956E+02 -0.32473971354E+02  0.13308516834E+02  0.70648720369E+02  0.00000000000E+00 0.  1.
<mgrwt>
<rscale>  0 0.25169970E+03</rscale>
<asrwt>0</asrwt>
<pdfrwt beam="1">  1        1 0.37354989E-01 0.25169970E+03</pdfrwt>
<pdfrwt beam="2">  1       -1 0.10035294E-01 0.25169970E+03</pdfrwt>
<totfact> 0.68603702E+03</totfact>
</mgrwt>
</event>
<event>
 6    1  0.8353100E-006  0.1439556E+03  0.7546771E-02  0.1217514E+00
          2   -1    0    0  501    0  0.00000000000E+00  0.00000000000E+00  0.50832283146E+03  0.50832283146E+03  0.00000000000E+00 0. -1.
         -2   -1    0    0    0  501 -0.00000000000E+00 -0.00000000000E+00 -0.33932246412E+02  0.33932246412E+02  0.00000000000E+00 0.  1.
          5    1    1    2  502    0  0.28147984653E+02  0.55161670604E+02  0.49626167038E+02  0.79498210035E+02  0.47000000000E+01 0.  1.
         -5    1    1    2    0  502 -0.44551548515E+02  0.14321822882E+02  0.23275964589E+03  0.23746388745E+03  0.47000000000E+01 0.  1.
        -11    1    1    2    0    0  0.46022960424E+02 -0.44754160957E+01  0.69385770810E+02  0.83381817120E+02  0.00000000000E+00 0. -1.
         11    1    1    2    0    0 -0.29619396562E+02 -0.65008077390E+02  0.12261900130E+03  0.14191116327E+03  0.00000000000E+00 0.  1.
<mgrwt>
<rscale>  0 0.13693471E+03</rscale>
<asrwt>0</asrwt>
<pdfrwt beam="1">  1        2 0.78203507E-01 0.14395563E+03</pdfrwt>
<pdfrwt beam="2">  1       -2 0.52203460E-02 0.14395563E+03</pdfrwt>
<totfact> 0.10698514E+04</totfact>
</mgrwt>
</event>
<event>
 6    1  0.8353100E-006  0.1667904E+03  0.7546771E-02  0.1188438E+00
          2   -1    0    0  501    0  0.00000000000E+00  0.00000000000E+00  0.52729887710E+02  0.52729887710E+02  0.00000000000E+00 0. -1.
         -2   -1    0    0    0  501 -0.00000000000E+00 -0.00000000000E+00 -0.45227501534E+03  0.45227501534E+03  0.00000000000E+00 0.  1.
          5    1    1    2  502    0 -0.25285635934E+02  0.71831643882E+02 -0.59333765634E+02  0.96652647101E+02  0.47000000000E+01 0. -1.
         -5    1    1    2    0  502  0.75625642407E+02  0.26455535908E+02 -0.15891859153E+03  0.17803466489E+03  0.47000000000E+01 0. -1.
        -11    1    1    2    0    0 -0.31663273526E+02 -0.26071680172E+02 -0.81870455373E+01  0.41824910185E+02  0.00000000000E+00 0. -1.
         11    1    1    2    0    0 -0.18676732947E+02 -0.72215499617E+02 -0.17310572493E+03  0.18849268087E+03  0.00000000000E+00 0.  1.
<mgrwt>
<rscale>  0 0.16022896E+03</rscale>
<asrwt>0</asrwt>
<pdfrwt beam="1">  1        2 0.81122904E-02 0.16679037E+03</pdfrwt>
<pdfrwt beam="2">  1       -2 0.69580772E-01 0.16679037E+03</pdfrwt>
<totfact> 0.15782544E+03</totfact>
</mgrwt>
</event>
<event>
 6    1  0.8353100E-006  0.1810104E+03  0.7546771E-02  0.1171666E+00
         -1   -1    0    0    0  501 -0.00000000000E+00  0.00000000000E+00  0.66431454722E+02  0.66431454722E+02  0.00000000000E+00 0.  1.
          1   -1    0    0  501    0  0.00000000000E+00 -0.00000000000E+00 -0.45531504588E+03  0.45531504588E+03  0.00000000000E+00 0. -1.
          5    1    1    2  502    0 -0.14653284817E+02 -0.94261842665E+02 -0.13040453956E+03  0.16163987032E+03  0.47000000000E+01 0.  1.
         -5    1    1    2    0  502 -0.74658331067E+02 -0.15439758885E+01 -0.31388015502E+02  0.81139064429E+02  0.47000000000E+01 0.  1.
        -11    1    1    2    0    0  0.55629958956E+02  0.99322353799E+01 -0.14448674714E+03  0.15514432549E+03  0.00000000000E+00 0.  1.
         11    1    1    2    0    0  0.33681656928E+02  0.85873583174E+02 -0.82604288963E+02  0.12382324037E+03  0.00000000000E+00 0. -1.
<mgrwt>
<rscale>  0 0.17606547E+03</rscale>
<asrwt>0</asrwt>
<pdfrwt beam="2">  1        1 0.70048466E-01 0.18101044E+03</pdfrwt>
<pdfrwt beam="1">  1       -1 0.10220224E-01 0.18101044E+03</pdfrwt>
<totfact> 0.29648415E+03</totfact>
</mgrwt>
</event>
<event>
 6    1  0.8353100E-006  0.1670293E+03  0.7546771E-02  0.1187970E+00
         -2   -1    0    0    0  501 -0.00000000000E+00  0.00000000000E+00  0.12158808447E+03  0.12158808447E+03  0.00000000000E+00 0.  1.
          2   -1    0    0  501    0  0.00000000000E+00 -0.00000000000E+00 -0.20978837990E+03  0.20978837990E+03  0.00000000000E+00 0. -1.
          5    1    1    2  502    0  0.49102419984E+02 -0.41865908280E+02 -0.22431143973E+02  0.68476624802E+02  0.47000000000E+01 0.  1.
         -5    1    1    2    0  502  0.52473290124E+02  0.86110325084E+02 -0.64834902268E+02  0.11997536753E+03  0.47000000000E+01 0.  1.
        -11    1    1    2    0    0 -0.63963140097E+01 -0.42862338642E+02  0.16084605913E+02  0.46225614698E+02  0.00000000000E+00 0.  1.
         11    1    1    2    0    0 -0.95179396098E+02 -0.13820781623E+01 -0.17018855096E+02  0.96698857338E+02  0.00000000000E+00 0. -1.
<mgrwt>
<rscale>  0 0.16064560E+03</rscale>
<asrwt>0</asrwt>
<pdfrwt beam="2">  1        2 0.32275135E-01 0.16702931E+03</pdfrwt>
<pdfrwt beam="1">  1       -2 0.18705859E-01 0.16702931E+03</pdfrwt>
<totfact> 0.37095818E+03</totfact>
</mgrwt>
</event>
<event>
 6    1  0.8353100E-006  0.1253364E+03  0.7546771E-02  0.1259695E+00
          2   -1    0    0  501    0  0.00000000000E+00  0.00000000000E+00  0.14127900211E+03  0.14127900211E+03  0.00000000000E+00 0. -1.
         -2   -1    0    0    0  501 -0.00000000000E+00 -0.00000000000E+00 -0.71612875227E+02  0.71612875227E+02  0.00000000000E+00 0.  1.
          5    1    1    2  502    0 -0.22600840014E+02  0.53325302620E+02  0.38501628703E+02  0.69705460917E+02  0.47000000000E+01 0.  1.
         -5    1    1    2    0  502  0.17695594248E+02 -0.61087313324E+02  0.93455535577E+01  0.64453264279E+02  0.47000000000E+01 0.  1.
        -11    1    1    2    0    0  0.12674926188E+02 -0.14466609228E+02 -0.21856533456E+02  0.29114336523E+02  0.00000000000E+00 0.  1.
         11    1    1    2    0    0 -0.77696804222E+01  0.22228619932E+02  0.43675478074E+02  0.49618815614E+02  0.00000000000E+00 0. -1.
<mgrwt>
<rscale>  0 0.11047382E+03</rscale>
<asrwt>0</asrwt>
<pdfrwt beam="1">  1        2 0.21735231E-01 0.12533639E+03</pdfrwt>
<pdfrwt beam="2">  1       -2 0.11017365E-01 0.12533639E+03</pdfrwt>
<totfact> 0.13309402E+04</totfact>
</mgrwt>
</event>
<event>
 6    1  0.8353100E-006  0.1321118E+03  0.7546771E-02  0.1237550E+00
          1   -1    0    0  501    0  0.00000000000E+00  0.00000000000E+00  0.13893490946E+03  0.13893490946E+03  0.00000000000E+00 0. -1.
         -1   -1    0    0    0  501 -0.00000000000E+00 -0.00000000000E+00 -0.98420188705E+02  0.98420188705E+02  0.00000000000E+00 0.  1.
          5    1    1    2  502    0 -0.16012488173E+02 -0.38104456398E+02 -0.31324914774E+02  0.52073886551E+02  0.47000000000E+01 0.  1.
         -5    1    1    2    0  502  0.51020114299E+02  0.13537382562E+02  0.65752634541E+02  0.84450054700E+02  0.47000000000E+01 0.  1.
        -11    1    1    2    0    0 -0.54461951929E+02  0.63785433893E+01 -0.24685222821E+02  0.60134434806E+02  0.00000000000E+00 0.  1.
         11    1    1    2    0    0  0.19454325803E+02  0.18188530446E+02  0.30772223807E+02  0.40696722108E+02  0.00000000000E+00 0. -1.
<mgrwt>
<rscale>  0 0.12342599E+03</rscale>
<asrwt>0</asrwt>
<pdfrwt beam="1">  1        1 0.21374601E-01 0.13211177E+03</pdfrwt>
<pdfrwt beam="2">  1       -1 0.15141568E-01 0.13211177E+03</pdfrwt>
<totfact> 0.70164431E+03</totfact>
</mgrwt>
</event>
<event>
 6    1  0.8353100E-006  0.3208220E+03  0.7546771E-02  0.1075272E+00
          1   -1    0    0  501    0  0.00000000000E+00  0.00000000000E+00  0.96641449341E+03  0.96641449341E+03  0.00000000000E+00 0.  1.
         -1   -1    0    0    0  501 -0.00000000000E+00 -0.00000000000E+00 -0.26625935841E+02  0.26625935841E+02  0.00000000000E+00 0. -1.
          5    1    1    2  502    0 -0.94469755421E+02  0.73876345250E+02  0.26381464286E+03  0.28983185620E+03  0.47000000000E+01 0. -1.
         -5    1    1    2    0  502 -0.13850117963E+02 -0.28448847168E+02  0.24589289451E+03  0.24796485284E+03  0.47000000000E+01 0. -1.
        -11    1    1    2    0    0  0.48831797012E+02 -0.45773581686E+02  0.34497175593E+03  0.35140472047E+03  0.00000000000E+00 0.  1.
         11    1    1    2    0    0  0.59488076372E+02  0.34608360407E+00  0.85109264270E+02  0.10383899975E+03  0.00000000000E+00 0. -1.
<mgrwt>
<rscale>  0 0.32082201E+03</rscale>
<asrwt>0</asrwt>
<pdfrwt beam="1">  1        1 0.14867913E+00 0.32082201E+03</pdfrwt>
<pdfrwt beam="2">  1       -1 0.40962986E-02 0.32082201E+03</pdfrwt>
<totfact> 0.40339928E+03</totfact>
</mgrwt>
</event>
<event>
 6    1  0.8353100E-006  0.2723570E+03  0.7546771E-02  0.1099938E+00
          2   -1    0    0  501    0  0.00000000000E+00  0.00000000000E+00  0.27690862874E+03  0.27690862874E+03  0.00000000000E+00 0. -1.
         -2   -1    0    0    0  501 -0.00000000000E+00 -0.00000000000E+00 -0.66970028259E+02  0.66970028259E+02  0.00000000000E+00 0.  1.
          5    1    1    2  502    0  0.61393381093E+02 -0.75585536891E+01  0.19911564404E+02  0.65152431827E+02  0.47000000000E+01 0.  1.
         -5    1    1    2    0  502 -0.47218067762E+01  0.21139611212E+02  0.16006449618E+03  0.16159180535E+03  0.47000000000E+01 0.  1.
        -11    1    1    2    0    0 -0.34508000459E+02 -0.23279794561E+02 -0.30767591573E+02  0.51762878800E+02  0.00000000000E+00 0.  1.
         11    1    1    2    0    0 -0.22163573858E+02  0.96987370383E+01  0.60730131473E+02  0.65371541017E+02  0.00000000000E+00 0. -1.
<mgrwt>
<rscale>  0 0.27235696E+03</rscale>
<asrwt>0</asrwt>
<pdfrwt beam="1">  1        2 0.42601327E-01 0.27235696E+03</pdfrwt>
<pdfrwt beam="2">  1       -2 0.10303081E-01 0.27235696E+03</pdfrwt>
<totfact> 0.74846712E+03</totfact>
</mgrwt>
</event>
<event>
 6    1  0.8353100E-006  0.2417580E+03  0.7546771E-02  0.1121359E+00
         -1   -1    0    0    0  501 -0.00000000000E+00  0.00000000000E+00  0.19222469387E+03  0.19222469387E+03  0.00000000000E+00 0.  1.
          1   -1    0    0  501    0  0.00000000000E+00 -0.00000000000E+00 -0.41106681073E+03  0.41106681073E+03  0.00000000000E+00 0. -1.
          5    1    1    2  502    0  0.60351861865E+02 -0.71160919220E+02 -0.63513503831E+02  0.11297025637E+03  0.47000000000E+01 0.  1.
         -5    1    1    2    0  502  0.13791918775E+03  0.11905727590E+02 -0.21592815755E+03  0.25653558802E+03  0.47000000000E+01 0.  1.
        -11    1    1    2    0    0 -0.28592183359E+02  0.42589035955E+02  0.33199105257E+02  0.61102532867E+02  0.00000000000E+00 0.  1.
         11    1    1    2    0    0 -0.16967886625E+03  0.16666155675E+02  0.27400439265E+02  0.17268312735E+03  0.00000000000E+00 0. -1.
<mgrwt>
<rscale>  0 0.23766447E+03</rscale>
<asrwt>0</asrwt>
<pdfrwt beam="2">  1        1 0.63241047E-01 0.24175799E+03</pdfrwt>
<pdfrwt beam="1">  1       -1 0.29573030E-01 0.24175799E+03</pdfrwt>
<totfact> 0.61540495E+02</totfact>
</mgrwt>
</event>
<event>
 6    1  0.8353100E-006  0.3632296E+03  0.7546771E-02  0.1057312E+00
          1   -1    0    0  501    0  0.00000000000E+00  0.00000000000E+00  0.28016359414E+03  0.28016359414E+03  0.00000000000E+00 0. -1.
         -1   -1    0    0    0  501 -0.00000000000E+00 -0.00000000000E+00 -0.11773100567E+03  0.11773100567E+03  0.00000000000E+00 0.  1.
          5    1    1    2  502    0  0.10534222309E+02  0.24198154642E+01 -0.26634494986E+02  0.29125790456E+02  0.47000000000E+01 0.  1.
         -5    1    1    2    0  502  0.13310120403E+03 -0.89046228761E+01  0.13595462778E+03  0.19052814395E+03  0.47000000000E+01 0.  1.
        -11    1    1    2    0    0 -0.41908277534E+02 -0.25017015393E+02 -0.15910780998E+02  0.51335248485E+02  0.00000000000E+00 0.  1.
         11    1    1    2    0    0 -0.10172714880E+03  0.31501822805E+02  0.69023236678E+02  0.12690541693E+03  0.00000000000E+00 0. -1.
<mgrwt>
<rscale>  0 0.36322963E+03</rscale>
<asrwt>0</asrwt>
<pdfrwt beam="1">  1        1 0.43102091E-01 0.36322963E+03</pdfrwt>
<pdfrwt beam="2">  1       -1 0.18112462E-01 0.36322963E+03</pdfrwt>
<totfact> 0.22746662E+03</totfact>
</mgrwt>
</event>
<event>
 6    1  0.8353100E-006  0.2523075E+03  0.7546771E-02  0.1157589E+00
          2   -1    0    0  501    0  0.00000000000E+00  0.00000000000E+00  0.77999261570E+03  0.77999261570E+03  0.00000000000E+00 0. -1.
         -2   -1    0    0    0  501 -0.00000000000E+00 -0.00000000000E+00 -0.36033015740E+02  0.36033015740E+02  0.00000000000E+00 0.  1.
          5    1    1    2  502    0  0.49434127567E+02  0.88939736004E+02  0.50544780916E+03  0.51560991785E+03  0.47000000000E+01 0. -1.
         -5    1    1    2    0  502 -0.53804050005E+02 -0.67936644353E+02  0.65917333512E+02  0.10898370658E+03  0.47000000000E+01 0.  1.
        -11    1    1    2    0    0 -0.26854589605E+02  0.16097598516E+02  0.44035451390E+02  0.54031681817E+02  0.00000000000E+00 0. -1.
         11    1    1    2    0    0  0.31224512043E+02 -0.37100690167E+02  0.12855900590E+03  0.13740032519E+03  0.00000000000E+00 0.  1.
<mgrwt>
<rscale>  0 0.19097094E+03</rscale>
<asrwt>0</asrwt>
<pdfrwt beam="1">  1        2 0.11999885E+00 0.25230749E+03</pdfrwt>
<pdfrwt beam="2">  1       -2 0.55435415E-02 0.25230749E+03</pdfrwt>
<totfact> 0.60875693E+03</totfact>
</mgrwt>
</event>
<event>
 6    1  0.8353100E-006  0.1296530E+03  0.7546771E-02  0.1241086E+00
         -2   -1    0    0    0  501 -0.00000000000E+00  0.00000000000E+00  0.25143747072E+02  0.25143747072E+02  0.00000000000E+00 0.  1.
          2   -1    0    0  501    0  0.00000000000E+00 -0.00000000000E+00 -0.59568489628E+03  0.59568489628E+03  0.00000000000E+00 0. -1.
          5    1    1    2  502    0 -0.24618622926E+01 -0.51294801289E+02 -0.86026042883E+02  0.10029849181E+03  0.47000000000E+01 0.  1.
         -5    1    1    2    0  502 -0.31845634281E+02  0.48581458006E+02 -0.34211306804E+03  0.34704141512E+03  0.47000000000E+01 0.  1.
        -11    1    1    2    0    0  0.42143849374E+02  0.36223887227E+02 -0.12049643996E+03  0.13269388113E+03  0.00000000000E+00 0. -1.
         11    1    1    2    0    0 -0.78363528008E+01 -0.33510543944E+02 -0.21905598330E+02  0.40794855299E+02  0.00000000000E+00 0.  1.
<mgrwt>
<rscale>  0 0.12122740E+03</rscale>
<asrwt>0</asrwt>
<pdfrwt beam="2">  1        2 0.91643822E-01 0.12965298E+03</pdfrwt>
<pdfrwt beam="1">  1       -2 0.38682691E-02 0.12965298E+03</pdfrwt>
<totfact> 0.13918922E+04</totfact>
</mgrwt>
</event>
<event>
 6    1  0.8353100E-006  0.2975598E+03  0.7546771E-02  0.1088277E+00
         -1   -1    0    0    0  501 -0.00000000000E+00  0.00000000000E+00  0.19860310620E+03  0.19860310620E+03  0.00000000000E+00 0.  1.
          1   -1    0    0  501    0  0.00000000000E+00 -0.00000000000E+00 -0.49748070055E+03  0.49748070055E+03  0.00000000000E+00 0. -1.
          5    1    1    2  502    0  0.12387830869E+03  0.81718861051E+02 -0.14176884487E+03  0.20529077668E+03  0.47000000000E+01 0.  1.
         -5    1    1    2    0  502  0.14312776064E+03 -0.41439660234E+02 -0.14343395224E+03  0.20687723403E+03  0.47000000000E+01 0.  1.
        -11    1    1    2    0    0 -0.16508866958E+03 -0.60445172333E+02 -0.31203790883E+02  0.17855409333E+03  0.00000000000E+00 0. -1.
         11    1    1    2    0    0 -0.10191739975E+03  0.20165971515E+02  0.17528993640E+02  0.10536170271E+03  0.00000000000E+00 0.  1.
<mgrwt>
<rscale>  0 0.29400316E+03</rscale>
<asrwt>0</asrwt>
<pdfrwt beam="2">  1        1 0.76535492E-01 0.29755980E+03</pdfrwt>
<pdfrwt beam="1">  1       -1 0.30554324E-01 0.29755980E+03</pdfrwt>
<totfact> 0.45217728E+02</totfact>
</mgrwt>
</event>
<event>
 6    1  0.8353100E-006  0.4164252E+03  0.7546771E-02  0.1038952E+00
          2   -1    0    0  501    0  0.00000000000E+00  0.00000000000E+00  0.39302149117E+03  0.39302149117E+03  0.00000000000E+00 0. -1.
         -2   -1    0    0    0  501 -0.00000000000E+00 -0.00000000000E+00 -0.46421012294E+03  0.46421012294E+03  0.00000000000E+00 0.  1.
          5    1    1    2  502    0 -0.36379227695E+03 -0.33702328566E+02  0.89310637528E+02  0.37613713948E+03  0.47000000000E+01 0.  1.
         -5    1    1    2    0  502 -0.27220266341E+02 -0.36255156321E+02 -0.12613148974E+02  0.47292290984E+02  0.47000000000E+01 0.  1.
        -11    1    1    2    0    0  0.20800594085E+03 -0.44635299395E+01 -0.98339954720E+02  0.23012418652E+03  0.00000000000E+00 0. -1.
         11    1    1    2    0    0  0.18300660244E+03  0.74421014826E+02 -0.49546165607E+02  0.20367799712E+03  0.00000000000E+00 0.  1.
<mgrwt>
<rscale>  0 0.41425608E+03</rscale>
<asrwt>0</asrwt>
<pdfrwt beam="1">  1        2 0.60464845E-01 0.41642524E+03</pdfrwt>
<pdfrwt beam="2">  1       -2 0.71416942E-01 0.41642524E+03</pdfrwt>
<totfact> 0.14831606E+02</totfact>
</mgrwt>
</event>
<event>
 6    1  0.8353100E-006  0.4530395E+03  0.7546771E-02  0.1068596E+00
          2   -1    0    0  501    0  0.00000000000E+00  0.00000000000E+00  0.66246718889E+03  0.66246718889E+03  0.00000000000E+00 0. -1.
         -2   -1    0    0    0  501 -0.00000000000E+00 -0.00000000000E+00 -0.15766859875E+03  0.15766859875E+03  0.00000000000E+00 0.  1.
          5    1    1    2  502    0 -0.23078818121E+02  0.68171874840E+02  0.50617351329E+03  0.51128636978E+03  0.47000000000E+01 0. -1.
         -5    1    1    2    0  502  0.54843149417E+02 -0.16279728669E+03  0.52374263837E+01  0.17193094028E+03  0.47000000000E+01 0.  1.
        -11    1    1    2    0    0  0.45970117220E+01  0.44535621385E+02  0.39522048365E+02  0.59720569287E+02  0.00000000000E+00 0. -1.
         11    1    1    2    0    0 -0.36361343018E+02  0.50089790465E+02 -0.46134397897E+02  0.77197908289E+02  0.00000000000E+00 0.  1.
<mgrwt>
<rscale>  0 0.33580779E+03</rscale>
<asrwt>0</asrwt>
<pdfrwt beam="1">  1        2 0.10191803E+00 0.45303945E+03</pdfrwt>
<pdfrwt beam="2">  1       -2 0.24256708E-01 0.45303945E+03</pdfrwt>
<totfact> 0.67173704E+02</totfact>
</mgrwt>
</event>
<event>
 6    1  0.8353100E-006  0.3497981E+03  0.7546771E-02  0.1062698E+00
         -1   -1    0    0    0  501 -0.00000000000E+00  0.00000000000E+00  0.20129788042E+02  0.20129788042E+02  0.00000000000E+00 0.  1.
          1   -1    0    0  501    0  0.00000000000E+00 -0.00000000000E+00 -0.15196225381E+04  0.15196225381E+04  0.00000000000E+00 0. -1.
          5    1    1    2  502    0 -0.12280905884E+03  0.45363558343E+02 -0.64699384311E+03  0.66012350389E+03  0.47000000000E+01 0. -1.
         -5    1    1    2    0  502 -0.58256812371E+01 -0.43927284747E+02 -0.35528615148E+03  0.35806966409E+03  0.47000000000E+01 0. -1.
        -11    1    1    2    0    0  0.73740033125E+02 -0.38087541923E+02 -0.19000736024E+03  0.20734283272E+03  0.00000000000E+00 0.  1.
         11    1    1    2    0    0  0.54894706953E+02  0.36651268326E+02 -0.30720539527E+03  0.31421632549E+03  0.00000000000E+00 0. -1.
<mgrwt>
<rscale>  0 0.34979811E+03</rscale>
<asrwt>0</asrwt>
<pdfrwt beam="2">  1        1 0.23378820E+00 0.34979811E+03</pdfrwt>
<pdfrwt beam="1">  1       -1 0.30968889E-02 0.34979811E+03</pdfrwt>
<totfact> 0.24991086E+03</totfact>
</mgrwt>
</event>
<event>
 6    1  0.8353100E-006  0.1633520E+03  0.7546771E-02  0.1192201E+00
          2   -1    0    0  501    0  0.00000000000E+00  0.00000000000E+00  0.10238811134E+03  0.10238811134E+03  0.00000000000E+00 0. -1.
         -2   -1    0    0    0  501 -0.00000000000E+00 -0.00000000000E+00 -0.22351822978E+03  0.22351822978E+03  0.00000000000E+00 0.  1.
          5    1    1    2  502    0 -0.34147535924E+02 -0.22012904394E+02  0.35019404157E+02  0.53843020319E+02  0.47000000000E+01 0. -1.
         -5    1    1    2    0  502 -0.66326803397E+02 -0.90255851546E+01 -0.10335249279E+03  0.12322554038E+03  0.47000000000E+01 0. -1.
        -11    1    1    2    0    0  0.52619703051E+02  0.11213876156E+02 -0.75148770411E+02  0.92422518154E+02  0.00000000000E+00 0.  1.
         11    1    1    2    0    0  0.47854636270E+02  0.19824613393E+02  0.22351740609E+02  0.56415262270E+02  0.00000000000E+00 0. -1.
<mgrwt>
<rscale>  0 0.15693539E+03</rscale>
<asrwt>0</asrwt>
<pdfrwt beam="1">  1        2 0.15752017E-01 0.16335196E+03</pdfrwt>
<pdfrwt beam="2">  1       -2 0.34387419E-01 0.16335196E+03</pdfrwt>
<totfact> 0.28394423E+03</totfact>
</mgrwt>
</event>
<event>
 6    1  0.8353100E-006  0.1330424E+03  0.7546771E-02  0.1238689E+00
          2   -1    0    0  501    0  0.00000000000E+00  0.00000000000E+00  0.52812011714E+02  0.52812011714E+02  0.00000000000E+00 0. -1.
         -2   -1    0    0    0  501 -0.00000000000E+00 -0.00000000000E+00 -0.28466197841E+03  0.28466197841E+03  0.00000000000E+00 0.  1.
          5    1    1    2  502    0  0.29925320030E+02 -0.91969114694E+01 -0.75806006002E+02  0.82150766919E+02  0.47000000000E+01 0.  1.
         -5    1    1    2    0  502 -0.46409445793E+02  0.51648831189E+02  0.27123173545E+01  0.69648295654E+02  0.47000000000E+01 0.  1.
        -11    1    1    2    0    0  0.28015621270E+02 -0.64762233027E+02 -0.10738630644E+03  0.12849451612E+03  0.00000000000E+00 0.  1.
         11    1    1    2    0    0 -0.11531495507E+02  0.22310313307E+02 -0.51369971608E+02  0.57180411432E+02  0.00000000000E+00 0. -1.
<mgrwt>
<rscale>  0 0.12271197E+03</rscale>
<asrwt>0</asrwt>
<pdfrwt beam="1">  1        2 0.81249246E-02 0.13304235E+03</pdfrwt>
<pdfrwt beam="2">  1       -2 0.43794152E-01 0.13304235E+03</pdfrwt>
<totfact> 0.39683779E+03</totfact>
</mgrwt>
</event>
<event>
 6    1  0.8353100E-006  0.1478296E+03  0.7546771E-02  0.1208116E+00
          1   -1    0    0  501    0  0.00000000000E+00  0.00000000000E+00  0.30150599499E+03  0.30150599499E+03  0.00000000000E+00 0. -1.
         -1   -1    0    0    0  501 -0.00000000000E+00 -0.00000000000E+00 -0.65535230723E+02  0.65535230723E+02  0.00000000000E+00 0.  1.
          5    1    1    2  502    0 -0.57511796945E+02  0.52878303854E+01  0.10606236513E+03  0.12085893941E+03  0.47000000000E+01 0. -1.
         -5    1    1    2    0  502  0.15102854958E+02 -0.71858898903E+02  0.28064300206E+02  0.78749555716E+02  0.47000000000E+01 0. -1.
        -11    1    1    2    0    0  0.40761237499E+01  0.72509901474E+02  0.17658631915E+02  0.74740403248E+02  0.00000000000E+00 0.  1.
         11    1    1    2    0    0  0.38332818237E+02 -0.59388329571E+01  0.84185467014E+02  0.92692327338E+02  0.00000000000E+00 0. -1.
<mgrwt>
<rscale>  0 0.14394596E+03</rscale>
<asrwt>0</asrwt>
<pdfrwt beam="1">  1        1 0.46385537E-01 0.14782959E+03</pdfrwt>
<pdfrwt beam="2">  1       -1 0.10082343E-01 0.14782959E+03</pdfrwt>
<totfact> 0.50481648E+03</totfact>
</mgrwt>
</event>
<event>
 6    1  0.8353100E-006  0.1343478E+03  0.7546771E-02  0.1227429E+00
         -1   -1    0    0    0  501 -0.00000000000E+00  0.00000000000E+00  0.31408402596E+02  0.31408402596E+02  0.00000000000E+00 0.  1.
          1   -1    0    0  501    0  0.00000000000E+00 -0.00000000000E+00 -0.74373874749E+03  0.74373874749E+03  0.00000000000E+00 0. -1.
          5    1    1    2  502    0 -0.53562913972E+02 -0.23182909293E+02 -0.31932286441E+03  0.32464690785E+03  0.47000000000E+01 0. -1.
         -5    1    1    2    0  502 -0.23831702891E+00  0.73288280716E+02 -0.27139013535E+03  0.28115107051E+03  0.47000000000E+01 0.  1.
        -11    1    1    2    0    0  0.77090049909E+02 -0.21984953420E+02 -0.72037710120E+02  0.10777590478E+03  0.00000000000E+00 0.  1.
         11    1    1    2    0    0 -0.23288818908E+02 -0.28120418003E+02 -0.49579635007E+02  0.61573266945E+02  0.00000000000E+00 0. -1.
<mgrwt>
<rscale>  0 0.13001828E+03</rscale>
<asrwt>0</asrwt>
<pdfrwt beam="2">  1        1 0.11442134E+00 0.13434784E+03</pdfrwt>
<pdfrwt beam="1">  1       -1 0.48320622E-02 0.13434784E+03</pdfrwt>
<totfact> 0.46357512E+03</totfact>
</mgrwt>
</event>
<event>
 6    1  0.8353100E-006  0.1280374E+03  0.7546771E-02  0.1245216E+00
          2   -1    0    0  501    0  0.00000000000E+00  0.00000000000E+00  0.11009954658E+04  0.11009954658E+04  0.00000000000E+00 0. -1.
         -2   -1    0    0    0  501 -0.00000000000E+00 -0.00000000000E+00 -0.14934474387E+02  0.14934474387E+02  0.00000000000E+00 0.  1.
          5    1    1    2  502    0 -0.38664956348E+02  0.38869426292E+02  0.17383350919E+03  0.18233482955E+03  0.47000000000E+01 0. -1.
         -5    1    1    2    0  502  0.12284992720E+02 -0.30386619743E+02  0.70494368363E+03  0.70572087598E+03  0.47000000000E+01 0. -1.
        -11    1    1    2    0    0  0.39177992574E+02 -0.42714042911E+02  0.13333848007E+03  0.14539104109E+03  0.00000000000E+00 0. -1.
         11    1    1    2    0    0 -0.12798028945E+02  0.34231236363E+02  0.73945318502E+02  0.82483193538E+02  0.00000000000E+00 0.  1.
<mgrwt>
<rscale>  0 0.11872489E+03</rscale>
<asrwt>0</asrwt>
<pdfrwt beam="1">  1        2 0.16938385E+00 0.12803742E+03</pdfrwt>
<pdfrwt beam="2">  1       -2 0.22976123E-02 0.12803742E+03</pdfrwt>
<totfact> 0.13767873E+04</totfact>
</mgrwt>
</event>
<event>
 6    1  0.8353100E-006  0.1277743E+03  0.7546771E-02  0.1244786E+00
          1   -1    0    0  501    0  0.00000000000E+00  0.00000000000E+00  0.16968957084E+03  0.16968957084E+03  0.00000000000E+00 0. -1.
         -1   -1    0    0    0  501 -0.00000000000E+00 -0.00000000000E+00 -0.74188466576E+02  0.74188466576E+02  0.00000000000E+00 0.  1.
          5    1    1    2  502    0 -0.15129500373E+02  0.21554522869E+02  0.85253754404E+02  0.89352067002E+02  0.47000000000E+01 0. -1.
         -5    1    1    2    0  502  0.41416151763E+02 -0.24200336435E+02 -0.22279302677E+02  0.53098128387E+02  0.47000000000E+01 0. -1.
        -11    1    1    2    0    0 -0.52399816223E+00  0.24477905279E+02  0.55448972019E+02  0.60613784892E+02  0.00000000000E+00 0. -1.
         11    1    1    2    0    0 -0.25762653228E+02 -0.21832091713E+02 -0.22922319477E+02  0.40814057139E+02  0.00000000000E+00 0.  1.
<mgrwt>
<rscale>  0 0.11898184E+03</rscale>
<asrwt>0</asrwt>
<pdfrwt beam="1">  1        1 0.26106088E-01 0.12777432E+03</pdfrwt>
<pdfrwt beam="2">  1       -1 0.11413610E-01 0.12777432E+03</pdfrwt>
<totfact> 0.84368645E+03</totfact>
</mgrwt>
</event>
<event>
 6    1  0.8353100E-006  0.1402727E+03  0.7546771E-02  0.1224366E+00
          1   -1    0    0  501    0  0.00000000000E+00  0.00000000000E+00  0.16039308217E+03  0.16039308217E+03  0.00000000000E+00 0. -1.
         -1   -1    0    0    0  501 -0.00000000000E+00 -0.00000000000E+00 -0.11834715693E+03  0.11834715693E+03  0.00000000000E+00 0.  1.
          5    1    1    2  502    0 -0.45725730599E+02 -0.67975544141E+01  0.77662124184E+01  0.47111073434E+02  0.47000000000E+01 0.  1.
         -5    1    1    2    0  502  0.54168576920E+02  0.69893192596E+02  0.72924246979E+02  0.11471411811E+03  0.47000000000E+01 0.  1.
        -11    1    1    2    0    0  0.13346574739E+02  0.19651747409E+02 -0.20291128299E+01  0.23841969976E+02  0.00000000000E+00 0.  1.
         11    1    1    2    0    0 -0.21789421061E+02 -0.82747385590E+02 -0.36615421327E+02  0.93073077585E+02  0.00000000000E+00 0. -1.
<mgrwt>
<rscale>  0 0.13210426E+03</rscale>
<asrwt>0</asrwt>
<pdfrwt beam="1">  1        1 0.24675859E-01 0.14027274E+03</pdfrwt>
<pdfrwt beam="2">  1       -1 0.18207255E-01 0.14027274E+03</pdfrwt>
<totfact> 0.43915298E+03</totfact>
</mgrwt>
</event>
<event>
 6    1  0.8353100E-006  0.1412655E+03  0.7546771E-02  0.1228191E+00
         -3   -1    0    0    0  501 -0.00000000000E+00  0.00000000000E+00  0.14591211959E+02  0.14591211959E+02  0.00000000000E+00 0.  1.
          3   -1    0    0  501    0  0.00000000000E+00 -0.00000000000E+00 -0.11671075231E+04  0.11671075231E+04  0.00000000000E+00 0. -1.
          5    1    1    2  502    0 -0.46430027104E+02 -0.12345879287E+02 -0.22098156352E+03  0.22619263818E+03  0.47000000000E+01 0. -1.
         -5    1    1    2    0  502  0.76382050476E+02 -0.46262126732E+02 -0.66354397191E+03  0.66954245172E+03  0.47000000000E+01 0. -1.
        -11    1    1    2    0    0 -0.32334532127E+02  0.13434925498E+02 -0.20747788095E+03  0.21041171610E+03  0.00000000000E+00 0. -1.
         11    1    1    2    0    0  0.23825087555E+01  0.45173080522E+02 -0.60512894818E+02  0.75551929102E+02  0.00000000000E+00 0.  1.
<mgrwt>
<rscale>  0 0.12950556E+03</rscale>
<asrwt>0</asrwt>
<pdfrwt beam="2">  1        3 0.17955510E+00 0.14126545E+03</pdfrwt>
<pdfrwt beam="1">  1       -3 0.22448007E-02 0.14126545E+03</pdfrwt>
<totfact> 0.40461750E+02</totfact>
</mgrwt>
</event>
<event>
 6    1  0.8353100E-006  0.1309963E+03  0.7546771E-02  0.1239615E+00
         -2   -1    0    0    0  501 -0.00000000000E+00  0.00000000000E+00  0.43209693249E+02  0.43209693249E+02  0.00000000000E+00 0.  1.
          2   -1    0    0  501    0  0.00000000000E+00 -0.00000000000E+00 -0.39042603426E+03  0.39042603426E+03  0.00000000000E+00 0. -1.
          5    1    1    2  502    0 -0.61027743852E+02  0.33101018305E+02 -0.13967730083E+03  0.15605095738E+03  0.47000000000E+01 0. -1.
         -5    1    1    2    0  502  0.27743004154E+02 -0.53799983342E+02 -0.15290854615E+03  0.16452120220E+03  0.47000000000E+01 0. -1.
        -11    1    1    2    0    0  0.70841527983E+01  0.55059817968E+02 -0.26597836919E+02  0.61556589447E+02  0.00000000000E+00 0. -1.
         11    1    1    2    0    0  0.26200586900E+02 -0.34360852931E+02 -0.28032657118E+02  0.51506978490E+02  0.00000000000E+00 0.  1.
<mgrwt>
<rscale>  0 0.12213534E+03</rscale>
<asrwt>0</asrwt>
<pdfrwt beam="2">  1        2 0.60065541E-01 0.13099630E+03</pdfrwt>
<pdfrwt beam="1">  1       -2 0.66476454E-02 0.13099630E+03</pdfrwt>
<totfact> 0.98041094E+03</totfact>
</mgrwt>
</event>
<event>
 6    1  0.8353100E-006  0.3254310E+03  0.7546771E-02  0.1073177E+00
          1   -1    0    0  501    0  0.00000000000E+00  0.00000000000E+00  0.49366270387E+03  0.49366270387E+03  0.00000000000E+00 0. -1.
         -1   -1    0    0    0  501 -0.00000000000E+00 -0.00000000000E+00 -0.53632433289E+02  0.53632433289E+02  0.00000000000E+00 0.  1.
          5    1    1    2  502    0  0.29680868055E+02  0.12095000770E+03  0.19301698216E+03  0.22975531266E+03  0.47000000000E+01 0. -1.
         -5    1    1    2    0  502  0.98500121248E+01 -0.21391450777E+02  0.13646589917E+03  0.13856279638E+03  0.47000000000E+01 0. -1.
        -11    1    1    2    0    0 -0.44822427370E+02 -0.16052258949E+02  0.10870017743E+02  0.48835256715E+02  0.00000000000E+00 0.  1.
         11    1    1    2    0    0  0.52915471906E+01 -0.83506297978E+02  0.99677371515E+02  0.13014177141E+03  0.00000000000E+00 0. -1.
<mgrwt>
<rscale>  0 0.32543099E+03</rscale>
<asrwt>0</asrwt>
<pdfrwt beam="1">  1        1 0.75948105E-01 0.32543099E+03</pdfrwt>
<pdfrwt beam="2">  1       -1 0.82511439E-02 0.32543099E+03</pdfrwt>
<totfact> 0.37762137E+03</totfact>
</mgrwt>
</event>
<event>
 6    1  0.8353100E-006  0.1466370E+03  0.7546771E-02  0.1215124E+00
         -3   -1    0    0    0  501 -0.00000000000E+00  0.00000000000E+00  0.11052290461E+03  0.11052290461E+03  0.00000000000E+00 0.  1.
          3   -1    0    0  501    0  0.00000000000E+00 -0.00000000000E+00 -0.20559801648E+03  0.20559801648E+03  0.00000000000E+00 0. -1.
          5    1    1    2  502    0 -0.18018726163E+02 -0.14121192427E+02 -0.93146605960E+02  0.96033654361E+02  0.47000000000E+01 0. -1.
         -5    1    1    2    0  502  0.91745018767E+02 -0.69033474189E+01 -0.34480604094E+02  0.98365678632E+02  0.47000000000E+01 0. -1.
        -11    1    1    2    0    0 -0.78905909435E+02 -0.66679441147E+01  0.68956044280E+00  0.79190147847E+02  0.00000000000E+00 0.  1.
         11    1    1    2    0    0  0.51796168316E+01  0.27692483960E+02  0.31862537747E+02  0.42531440254E+02  0.00000000000E+00 0. -1.
<mgrwt>
<rscale>  0 0.13867433E+03</rscale>
<asrwt>0</asrwt>
<pdfrwt beam="2">  1        3 0.31630464E-01 0.14663695E+03</pdfrwt>
<pdfrwt beam="1">  1       -3 0.17003524E-01 0.14663695E+03</pdfrwt>
<totfact> 0.67953579E+02</totfact>
</mgrwt>
</event>
<event>
 6    1  0.8353100E-006  0.1711590E+03  0.7546771E-02  0.1183728E+00
          1   -1    0    0  501    0  0.00000000000E+00  0.00000000000E+00  0.62319643404E+03  0.62319643404E+03  0.00000000000E+00 0. -1.
         -1   -1    0    0    0  501 -0.00000000000E+00 -0.00000000000E+00 -0.49825447134E+02  0.49825447134E+02  0.00000000000E+00 0.  1.
          5    1    1    2  502    0  0.51274456941E+01 -0.59449949168E+02  0.90158385161E+02  0.10821835136E+03  0.47000000000E+01 0. -1.
         -5    1    1    2    0  502 -0.98140300271E+02 -0.11384316943E+02  0.36137005435E+03  0.37466188409E+03  0.47000000000E+01 0. -1.
        -11    1    1    2    0    0  0.32022999237E+01  0.45453432355E+02  0.14317098833E+02  0.47762417827E+02  0.00000000000E+00 0.  1.
         11    1    1    2    0    0  0.89810554653E+02  0.25380833756E+02  0.10752544856E+03  0.14237922790E+03  0.00000000000E+00 0. -1.
<mgrwt>
<rscale>  0 0.16448192E+03</rscale>
<asrwt>0</asrwt>
<pdfrwt beam="1">  1        1 0.95876369E-01 0.17115896E+03</pdfrwt>
<pdfrwt beam="2">  1       -1 0.76654538E-02 0.17115896E+03</pdfrwt>
<totfact> 0.30178769E+03</totfact>
</mgrwt>
</event>
<event>
 6    1  0.8353100E-006  0.1498653E+03  0.7546771E-02  0.1209762E+00
         -3   -1    0    0    0  501 -0.00000000000E+00  0.00000000000E+00  0.39048626104E+03  0.39048626104E+03  0.00000000000E+00 0.  1.
          3   -1    0    0  501    0  0.00000000000E+00 -0.00000000000E+00 -0.52801816400E+02  0.52801816400E+02  0.00000000000E+00 0. -1.
          5    1    1    2  502    0  0.18399612427E+02 -0.53519110180E+02 -0.72820235877E+01  0.57253460677E+02  0.47000000000E+01 0. -1.
         -5    1    1    2    0  502  0.48083960798E+02  0.43894529915E+01  0.12258403000E+03  0.13183424818E+03  0.47000000000E+01 0. -1.
        -11    1    1    2    0    0 -0.34139334078E+02 -0.16519893460E+02  0.13496410338E+03  0.14019169095E+03  0.00000000000E+00 0.  1.
         11    1    1    2    0    0 -0.32344239148E+02  0.65649550648E+02  0.87418334855E+02  0.11400867763E+03  0.00000000000E+00 0. -1.
<mgrwt>
<rscale>  0 0.14268460E+03</rscale>
<asrwt>0</asrwt>
<pdfrwt beam="2">  1        3 0.81233566E-02 0.14986530E+03</pdfrwt>
<pdfrwt beam="1">  1       -3 0.60074808E-01 0.14986530E+03</pdfrwt>
<totfact> 0.67058471E+02</totfact>
</mgrwt>
</event>
<event>
 6    1  0.8353100E-006  0.1509569E+03  0.7546771E-02  0.1206009E+00
         -2   -1    0    0    0  501 -0.00000000000E+00  0.00000000000E+00  0.59516016593E+02  0.59516016593E+02  0.00000000000E+00 0.  1.
          2   -1    0    0  501    0  0.00000000000E+00 -0.00000000000E+00 -0.43086676641E+03  0.43086676641E+03  0.00000000000E+00 0. -1.
          5    1    1    2  502    0 -0.27638867846E+02  0.18210203328E+02 -0.72483563970E+02  0.79821523206E+02  0.47000000000E+01 0.  1.
         -5    1    1    2    0  502  0.89468721742E+02 -0.76007204682E+02 -0.24022923490E+03  0.26742087173E+03  0.47000000000E+01 0.  1.
        -11    1    1    2    0    0 -0.33616140014E+02  0.75638204227E+02 -0.89139102369E+01  0.83250469091E+02  0.00000000000E+00 0.  1.
         11    1    1    2    0    0 -0.28213713882E+02 -0.17841202873E+02 -0.49724040706E+02  0.59889918978E+02  0.00000000000E+00 0. -1.
<mgrwt>
<rscale>  0 0.14558201E+03</rscale>
<asrwt>0</asrwt>
<pdfrwt beam="2">  1        2 0.66287194E-01 0.15095690E+03</pdfrwt>
<pdfrwt beam="1">  1       -2 0.91563104E-02 0.15095690E+03</pdfrwt>
<totfact> 0.54291822E+03</totfact>
</mgrwt>
</event>
<event>
 6    1  0.8353100E-006  0.1364707E+03  0.7546771E-02  0.1230429E+00
         -1   -1    0    0    0  501 -0.00000000000E+00  0.00000000000E+00  0.37665217539E+03  0.37665217539E+03  0.00000000000E+00 0.  1.
          1   -1    0    0  501    0  0.00000000000E+00 -0.00000000000E+00 -0.39494471542E+02  0.39494471542E+02  0.00000000000E+00 0. -1.
          5    1    1    2  502    0 -0.67614756281E+01  0.33137565749E+02  0.44223052970E+01  0.34430547492E+02  0.47000000000E+01 0. -1.
         -5    1    1    2    0  502 -0.27788641825E+02 -0.75646458879E+02  0.16030581729E+03  0.17948437373E+03  0.47000000000E+01 0. -1.
        -11    1    1    2    0    0 -0.15970126365E+02 -0.12643801852E+02  0.83898506745E+02  0.86335798458E+02  0.00000000000E+00 0.  1.
         11    1    1    2    0    0  0.50520243818E+02  0.55152694982E+02  0.88531074514E+02  0.11589592725E+03  0.00000000000E+00 0. -1.
<mgrwt>
<rscale>  0 0.12801629E+03</rscale>
<asrwt>0</asrwt>
<pdfrwt beam="2">  1        1 0.60760728E-02 0.13647065E+03</pdfrwt>
<pdfrwt beam="1">  1       -1 0.57946486E-01 0.13647065E+03</pdfrwt>
<totfact> 0.37882659E+03</totfact>
</mgrwt>
</event>
<event>
 6    1  0.8353100E-006  0.2102582E+03  0.7546771E-02  0.1145265E+00
          3   -1    0    0  501    0  0.00000000000E+00  0.00000000000E+00  0.59476904945E+02  0.59476904945E+02  0.00000000000E+00 0. -1.
         -3   -1    0    0    0  501 -0.00000000000E+00 -0.00000000000E+00 -0.70992851132E+03  0.70992851132E+03  0.00000000000E+00 0.  1.
          5    1    1    2  502    0 -0.94100069539E+02 -0.40926990961E+02 -0.10473530571E+03  0.14670179255E+03  0.47000000000E+01 0. -1.
         -5    1    1    2    0  502  0.88354789828E+01 -0.10506506662E+03 -0.15398124282E+03  0.18667899468E+03  0.47000000000E+01 0. -1.
        -11    1    1    2    0    0  0.10370262388E+02  0.62293485665E+02 -0.23411139258E+03  0.24247920496E+03  0.00000000000E+00 0.  1.
         11    1    1    2    0    0  0.74894328168E+02  0.83698571914E+02 -0.15762366525E+03  0.19354542408E+03  0.00000000000E+00 0. -1.
<mgrwt>
<rscale>  0 0.20539524E+03</rscale>
<asrwt>0</asrwt>
<pdfrwt beam="1">  1        3 0.91502932E-02 0.21025817E+03</pdfrwt>
<pdfrwt beam="2">  1       -3 0.10921977E+00 0.21025817E+03</pdfrwt>
<totfact> 0.15482302E+02</totfact>
</mgrwt>
</event>
<event>
 6    1  0.8353100E-006  0.1582277E+03  0.7546771E-02  0.1202554E+00
         -2   -1    0    0    0  501 -0.00000000000E+00  0.00000000000E+00  0.30889168644E+02  0.30889168644E+02  0.00000000000E+00 0.  1.
          2   -1    0    0  501    0  0.00000000000E+00 -0.00000000000E+00 -0.66368045630E+03  0.66368045630E+03  0.00000000000E+00 0. -1.
          5    1    1    2  502    0 -0.22364172542E+01  0.11241627149E+03 -0.28363151197E+03  0.30514151510E+03  0.47000000000E+01 0.  1.
         -5    1    1    2    0  502  0.38654689967E+02 -0.22509350306E+02 -0.14175873219E+03  0.14872284310E+03  0.47000000000E+01 0.  1.
        -11    1    1    2    0    0  0.71019689438E+01 -0.47660102443E+02 -0.14864236998E+03  0.15625772775E+03  0.00000000000E+00 0. -1.
         11    1    1    2    0    0 -0.43520241657E+02 -0.42246818745E+02 -0.58758673514E+02  0.84447538987E+02  0.00000000000E+00 0.  1.
<mgrwt>
<rscale>  0 0.14831903E+03</rscale>
<asrwt>0</asrwt>
<pdfrwt beam="2">  1        2 0.10210468E+00 0.15822767E+03</pdfrwt>
<pdfrwt beam="1">  1       -2 0.47521799E-02 0.15822767E+03</pdfrwt>
<totfact> 0.91583273E+03</totfact>
</mgrwt>
</event>
<event>
 6    1  0.8353100E-006  0.2774910E+03  0.7546771E-02  0.1097067E+00
          4   -1    0    0  501    0  0.00000000000E+00  0.00000000000E+00  0.25783672688E+03  0.25783672688E+03  0.00000000000E+00 0. -1.
         -4   -1    0    0    0  501 -0.00000000000E+00 -0.00000000000E+00 -0.74660858426E+02  0.74660858426E+02  0.00000000000E+00 0.  1.
          5    1    1    2  502    0  0.21560731786E+02 -0.32793600623E+02 -0.19783663476E+01  0.39576373386E+02  0.47000000000E+01 0. -1.
         -5    1    1    2    0  502  0.13121153225E+02  0.41630293403E+01  0.19045950551E+03  0.19101415841E+03  0.47000000000E+01 0. -1.
        -11    1    1    2    0    0  0.41633960595E+01  0.51999786909E+02  0.11747975870E+02  0.53472671921E+02  0.00000000000E+00 0. -1.
         11    1    1    2    0    0 -0.38845281071E+02 -0.23369215626E+02 -0.17053246580E+02  0.48434381584E+02  0.00000000000E+00 0.  1.
<mgrwt>
<rscale>  0 0.27749098E+03</rscale>
<asrwt>0</asrwt>
<pdfrwt beam="1">  1        4 0.39667188E-01 0.27749098E+03</pdfrwt>
<pdfrwt beam="2">  1       -4 0.11486286E-01 0.27749098E+03</pdfrwt>
<totfact> 0.69543720E+02</totfact>
</mgrwt>
</event>
<event>
 6    1  0.8353100E-006  0.1769948E+03  0.7546771E-02  0.1198984E+00
          1   -1    0    0  501    0  0.00000000000E+00  0.00000000000E+00  0.31529350042E+03  0.31529350042E+03  0.00000000000E+00 0. -1.
         -1   -1    0    0    0  501 -0.00000000000E+00 -0.00000000000E+00 -0.67515116194E+02  0.67515116194E+02  0.00000000000E+00 0.  1.
          5    1    1    2  502    0 -0.56403090729E+02 -0.52408553469E+02  0.21194432453E+03  0.22554478894E+03  0.47000000000E+01 0. -1.
         -5    1    1    2    0  502  0.25989404572E+02  0.52521392171E+02  0.12173532256E+02  0.60035245258E+02  0.47000000000E+01 0.  1.
        -11    1    1    2    0    0  0.50197666125E+02  0.27150596018E+02  0.18518961679E+01  0.57099825463E+02  0.00000000000E+00 0.  1.
         11    1    1    2    0    0 -0.19783979969E+02 -0.27263434720E+02  0.21808631276E+02  0.40128756949E+02  0.00000000000E+00 0. -1.
<mgrwt>
<rscale>  0 0.15121847E+03</rscale>
<asrwt>0</asrwt>
<pdfrwt beam="1">  1        1 0.48506692E-01 0.17699475E+03</pdfrwt>
<pdfrwt beam="2">  1       -1 0.10386941E-01 0.17699475E+03</pdfrwt>
<totfact> 0.46046255E+03</totfact>
</mgrwt>
</event>
<event>
 6    1  0.8353100E-006  0.2352196E+03  0.7546771E-02  0.1123019E+00
          1   -1    0    0  501    0  0.00000000000E+00  0.00000000000E+00  0.46616510091E+03  0.46616510091E+03  0.00000000000E+00 0. -1.
         -1   -1    0    0    0  501 -0.00000000000E+00 -0.00000000000E+00 -0.29672027913E+02  0.29672027913E+02  0.00000000000E+00 0.  1.
          5    1    1    2  502    0 -0.25403176511E+02  0.82144021741E+01  0.84177610708E+01  0.28385673875E+02  0.47000000000E+01 0. -1.
         -5    1    1    2    0  502  0.48227008483E+02 -0.16043669311E+02  0.31639287196E+03  0.32048367056E+03  0.47000000000E+01 0. -1.
        -11    1    1    2    0    0 -0.27504616320E+02 -0.38749605411E+02  0.67862283533E+02  0.82845189147E+02  0.00000000000E+00 0.  1.
         11    1    1    2    0    0  0.46807843482E+01  0.46578872548E+02  0.43820156437E+02  0.64122595239E+02  0.00000000000E+00 0. -1.
<mgrwt>
<rscale>  0 0.23521959E+03</rscale>
<asrwt>0</asrwt>
<pdfrwt beam="1">  1        1 0.71717702E-01 0.23521959E+03</pdfrwt>
<pdfrwt beam="2">  1       -1 0.45649277E-02 0.23521959E+03</pdfrwt>
<totfact> 0.98638718E+03</totfact>
</mgrwt>
</event>
<event>
 6    1  0.8353100E-006  0.1405845E+03  0.7546771E-02  0.1224089E+00
         -1   -1    0    0    0  501 -0.00000000000E+00  0.00000000000E+00  0.10211862160E+03  0.10211862160E+03  0.00000000000E+00 0.  1.
          1   -1    0    0  501    0  0.00000000000E+00 -0.00000000000E+00 -0.15447644397E+03  0.15447644397E+03  0.00000000000E+00 0. -1.
          5    1    1    2  502    0 -0.19297430750E+02  0.32243874431E+02 -0.16409445601E+02  0.41272486923E+02  0.47000000000E+01 0. -1.
         -5    1    1    2    0  502  0.49602443981E+02 -0.88997245098E+02 -0.19782172159E+02  0.10389579596E+03  0.47000000000E+01 0. -1.
        -11    1    1    2    0    0 -0.30631904567E+02  0.70044789252E+02  0.14671575443E+02  0.77844981885E+02  0.00000000000E+00 0.  1.
         11    1    1    2    0    0  0.32689133639E+00 -0.13291418585E+02 -0.30837780053E+02  0.33581800794E+02  0.00000000000E+00 0. -1.
<mgrwt>
<rscale>  0 0.13229564E+03</rscale>
<asrwt>0</asrwt>
<pdfrwt beam="2">  1        1 0.23765607E-01 0.14058448E+03</pdfrwt>
<pdfrwt beam="1">  1       -1 0.15710557E-01 0.14058448E+03</pdfrwt>
<totfact> 0.58160835E+03</totfact>
</mgrwt>
</event>
<event>
 6    1  0.8353100E-006  0.2505427E+03  0.7546771E-02  0.1112962E+00
         -1   -1    0    0    0  501 -0.00000000000E+00  0.00000000000E+00  0.40030489305E+02  0.40030489305E+02  0.00000000000E+00 0.  1.
          1   -1    0    0  501    0  0.00000000000E+00 -0.00000000000E+00 -0.39202404542E+03  0.39202404542E+03  0.00000000000E+00 0. -1.
          5    1    1    2  502    0 -0.40056866806E+02  0.11019688491E+02 -0.73942860799E+02  0.84944821948E+02  0.47000000000E+01 0.  1.
         -5    1    1    2    0  502  0.74244355891E+02 -0.62391013774E+02 -0.13830996803E+03  0.16898698245E+03  0.47000000000E+01 0.  1.
        -11    1    1    2    0    0 -0.43086393355E+02  0.57574551922E+01 -0.16646662990E+02  0.46547792336E+02  0.00000000000E+00 0.  1.
         11    1    1    2    0    0  0.88989042692E+01  0.45613870091E+02 -0.12309406429E+03  0.13157493799E+03  0.00000000000E+00 0. -1.
<mgrwt>
<rscale>  0 0.25054273E+03</rscale>
<asrwt>0</asrwt>
<pdfrwt beam="2">  1        1 0.60311393E-01 0.25054273E+03</pdfrwt>
<pdfrwt beam="1">  1       -1 0.61585367E-02 0.25054273E+03</pdfrwt>
<totfact> 0.78974942E+03</totfact>
</mgrwt>
</event>
<event>
 6    1  0.2221546E-005  0.2336585E+03  0.7546771E-02  0.1127040E+00
         -3   -1    0    0    0  501 -0.00000000000E+00  0.00000000000E+00  0.39801376076E+02  0.39801376076E+02  0.00000000000E+00 0.  1.
          3   -1    0    0  501    0  0.00000000000E+00 -0.00000000000E+00 -0.15757391058E+04  0.15757391058E+04  0.00000000000E+00 0. -1.
          5    1    1    2  502    0  0.10820792760E+03  0.14760885425E+03 -0.10899044555E+04  0.11051747109E+04  0.47000000000E+01 0. -1.
         -5    1    1    2    0  502  0.29756046563E+02 -0.64095380944E+01 -0.52390652340E+02  0.60773143232E+02  0.47000000000E+01 0. -1.
        -11    1    1    2    0    0 -0.12419455085E+03 -0.95885150003E+02 -0.22415426698E+03  0.27361173925E+03  0.00000000000E+00 0.  1.
         11    1    1    2    0    0 -0.13769423318E+02 -0.45314166154E+02 -0.16948835486E+03  0.17598088847E+03  0.00000000000E+00 0. -1.
<mgrwt>
<rscale>  0 0.22943241E+03</rscale>
<asrwt>0</asrwt>
<pdfrwt beam="2">  1        3 0.24242139E+00 0.23365848E+03</pdfrwt>
<pdfrwt beam="1">  1       -3 0.61232888E-02 0.23365848E+03</pdfrwt>
<totfact> 0.37258943E+01</totfact>
</mgrwt>
</event>
<event>
 6    1  0.8353100E-006  0.4246142E+03  0.7546771E-02  0.1035575E+00
          2   -1    0    0  501    0  0.00000000000E+00  0.00000000000E+00  0.65413019051E+03  0.65413019051E+03  0.00000000000E+00 0. -1.
         -2   -1    0    0    0  501 -0.00000000000E+00 -0.00000000000E+00 -0.68907238670E+02  0.68907238670E+02  0.00000000000E+00 0.  1.
          5    1    1    2  502    0 -0.11678727326E+03 -0.23435020339E+02  0.47226021491E+03  0.48707316490E+03  0.47000000000E+01 0.  1.
         -5    1    1    2    0  502 -0.13428141921E+01  0.42007614375E+02  0.66782266789E+02  0.79046846698E+02  0.47000000000E+01 0.  1.
        -11    1    1    2    0    0  0.59877360312E+02  0.31684916697E+02  0.42336788695E+02  0.79885141929E+02  0.00000000000E+00 0. -1.
         11    1    1    2    0    0  0.58252727144E+02 -0.50257510733E+02  0.38436814369E+01  0.77032275650E+02  0.00000000000E+00 0.  1.
<mgrwt>
<rscale>  0 0.42461420E+03</rscale>
<asrwt>0</asrwt>
<pdfrwt beam="1">  1        2 0.10063541E+00 0.42461420E+03</pdfrwt>
<pdfrwt beam="2">  1       -2 0.10601114E-01 0.42461420E+03</pdfrwt>
<totfact> 0.27668174E+03</totfact>
</mgrwt>
</event>
<event>
 6    1  0.8353100E-006  0.1391231E+03  0.7546771E-02  0.1226081E+00
         -2   -1    0    0    0  501 -0.00000000000E+00  0.00000000000E+00  0.33391569693E+02  0.33391569693E+02  0.00000000000E+00 0.  1.
          2   -1    0    0  501    0  0.00000000000E+00 -0.00000000000E+00 -0.53073517737E+03  0.53073517737E+03  0.00000000000E+00 0. -1.
          5    1    1    2  502    0  0.25997109122E+02  0.29134176308E+02 -0.73988594309E+02  0.83791717966E+02  0.47000000000E+01 0.  1.
         -5    1    1    2    0  502 -0.84381709681E+02 -0.47033162882E+02 -0.30207088118E+03  0.31717707767E+03  0.47000000000E+01 0.  1.
        -11    1    1    2    0    0  0.76139247591E+02  0.22847824361E+02 -0.61235774816E+02  0.10034454753E+03  0.00000000000E+00 0.  1.
         11    1    1    2    0    0 -0.17754647032E+02 -0.49488377864E+01 -0.60048357368E+02  0.62813403898E+02  0.00000000000E+00 0. -1.
<mgrwt>
<rscale>  0 0.13093072E+03</rscale>
<asrwt>0</asrwt>
<pdfrwt beam="2">  1        2 0.81651562E-01 0.13912313E+03</pdfrwt>
<pdfrwt beam="1">  1       -2 0.51371648E-02 0.13912313E+03</pdfrwt>
<totfact> 0.10424956E+04</totfact>
</mgrwt>
</event>
<event>
 6    1  0.8353100E-006  0.1360867E+03  0.7546771E-02  0.1230234E+00
          1   -1    0    0  501    0  0.00000000000E+00  0.00000000000E+00  0.13726963744E+03  0.13726963744E+03  0.00000000000E+00 0. -1.
         -1   -1    0    0    0  501 -0.00000000000E+00 -0.00000000000E+00 -0.11513158081E+03  0.11513158081E+03  0.00000000000E+00 0.  1.
          5    1    1    2  502    0  0.31583517549E+02  0.23039457233E+02  0.61650905180E+02  0.73152301946E+02  0.47000000000E+01 0.  1.
         -5    1    1    2    0  502 -0.64835530259E+02  0.19260766638E+02 -0.17313671812E+02  0.69974826524E+02  0.47000000000E+01 0.  1.
        -11    1    1    2    0    0 -0.30526789036E+02 -0.17977808920E+02 -0.20631538677E+02  0.40996912696E+02  0.00000000000E+00 0.  1.
         11    1    1    2    0    0  0.63778801746E+02 -0.24322414951E+02 -0.15676380675E+01  0.68277177082E+02  0.00000000000E+00 0. -1.
<mgrwt>
<rscale>  0 0.12814540E+03</rscale>
<asrwt>0</asrwt>
<pdfrwt beam="1">  1        1 0.21118406E-01 0.13608668E+03</pdfrwt>
<pdfrwt beam="2">  1       -1 0.17712551E-01 0.13608668E+03</pdfrwt>
<totfact> 0.55741402E+03</totfact>
</mgrwt>
</event>
<event>
 6    1  0.8353100E-006  0.3024761E+03  0.7546771E-02  0.1084009E+00
          1   -1    0    0  501    0  0.00000000000E+00  0.00000000000E+00  0.36907109944E+03  0.36907109944E+03  0.00000000000E+00 0. -1.
         -1   -1    0    0    0  501 -0.00000000000E+00 -0.00000000000E+00 -0.61974376349E+02  0.61974376349E+02  0.00000000000E+00 0.  1.
          5    1    1    2  502    0 -0.36895797561E+02  0.94924589445E+02  0.11038693393E+03  0.15026424305E+03  0.47000000000E+01 0. -1.
         -5    1    1    2    0  502  0.16527543920E+02 -0.12466861688E+02  0.14455098670E+03  0.14610154039E+03  0.47000000000E+01 0. -1.
        -11    1    1    2    0    0  0.38288278810E+02  0.82439910957E+00  0.97486357977E+01  0.39518449211E+02  0.00000000000E+00 0.  1.
         11    1    1    2    0    0 -0.17920025169E+02 -0.83282126866E+02  0.42410166661E+02  0.95161243128E+02  0.00000000000E+00 0. -1.
<mgrwt>
<rscale>  0 0.30247612E+03</rscale>
<asrwt>0</asrwt>
<pdfrwt beam="1">  1        1 0.56780168E-01 0.30247612E+03</pdfrwt>
<pdfrwt beam="2">  1       -1 0.95345196E-02 0.30247612E+03</pdfrwt>
<totfact> 0.44057720E+03</totfact>
</mgrwt>
</event>
<event>
 6    1  0.8353100E-006  0.1279202E+03  0.7546771E-02  0.1244893E+00
         -1   -1    0    0    0  501 -0.00000000000E+00  0.00000000000E+00  0.61834248301E+02  0.61834248301E+02  0.00000000000E+00 0.  1.
          1   -1    0    0  501    0  0.00000000000E+00 -0.00000000000E+00 -0.21520109737E+03  0.21520109737E+03  0.00000000000E+00 0. -1.
          5    1    1    2  502    0 -0.37972321407E+02  0.66247757904E+02 -0.71291357443E+02  0.10457155572E+03  0.47000000000E+01 0. -1.
         -5    1    1    2    0  502  0.31706037549E+02 -0.40187545618E+02 -0.49933315421E+02  0.71664060929E+02  0.47000000000E+01 0. -1.
        -11    1    1    2    0    0 -0.19911458449E+02  0.35647763137E+01 -0.52550428106E+02  0.56309158242E+02  0.00000000000E+00 0. -1.
         11    1    1    2    0    0  0.26177742308E+02 -0.29624988600E+02  0.20408251905E+02  0.44490570773E+02  0.00000000000E+00 0.  1.
<mgrwt>
<rscale>  0 0.11891813E+03</rscale>
<asrwt>0</asrwt>
<pdfrwt beam="2">  1        1 0.33107861E-01 0.12792018E+03</pdfrwt>
<pdfrwt beam="1">  1       -1 0.95129615E-02 0.12792018E+03</pdfrwt>
<totfact> 0.82945954E+03</totfact>
</mgrwt>
</event>
<event>
 6    1  0.8353100E-006  0.3916191E+03  0.7546771E-02  0.1046721E+00
          2   -1    0    0  501    0  0.00000000000E+00  0.00000000000E+00  0.15929021227E+04  0.15929021227E+04  0.00000000000E+00 0. -1.
         -2   -1    0    0    0  501 -0.00000000000E+00 -0.00000000000E+00 -0.24070146895E+02  0.24070146895E+02  0.00000000000E+00 0.  1.
          5    1    1    2  502    0 -0.88589145547E+02  0.85625480103E+02  0.11616019815E+04  0.11681271391E+04  0.47000000000E+01 0.  1.
         -5    1    1    2    0  502 -0.24064430108E+02 -0.15222564565E+02  0.55381816385E+02  0.62450451195E+02  0.47000000000E+01 0.  1.
        -11    1    1    2    0    0  0.52006847885E+02 -0.19494354211E+02  0.51355741476E+02  0.75644922207E+02  0.00000000000E+00 0.  1.
         11    1    1    2    0    0  0.60646727770E+02 -0.50908561327E+02  0.30049243639E+03  0.31074975709E+03  0.00000000000E+00 0. -1.
<mgrwt>
<rscale>  0 0.39161914E+03</rscale>
<asrwt>0</asrwt>
<pdfrwt beam="1">  1        2 0.24506178E+00 0.39161914E+03</pdfrwt>
<pdfrwt beam="2">  1       -2 0.37031008E-02 0.39161914E+03</pdfrwt>
<totfact> 0.37602529E+03</totfact>
</mgrwt>
</event>
<event>
 6    1  0.8353100E-006  0.1316527E+03  0.7546771E-02  0.1238159E+00
         -1   -1    0    0    0  501 -0.00000000000E+00  0.00000000000E+00  0.54878281030E+02  0.54878281030E+02  0.00000000000E+00 0.  1.
          1   -1    0    0  501    0  0.00000000000E+00 -0.00000000000E+00 -0.24623086721E+03  0.24623086721E+03  0.00000000000E+00 0. -1.
          5    1    1    2  502    0  0.28630511429E+02 -0.42354493820E+02 -0.10376271134E+03  0.11576873324E+03  0.47000000000E+01 0.  1.
         -5    1    1    2    0  502 -0.57370823443E+02  0.12639165674E+02 -0.13332550779E+02  0.60423561644E+02  0.47000000000E+01 0.  1.
        -11    1    1    2    0    0  0.36882050743E+02  0.41227526878E+01 -0.87447191659E+02  0.94996284589E+02  0.00000000000E+00 0. -1.
         11    1    1    2    0    0 -0.81417387281E+01  0.25592575458E+02  0.13189867597E+02  0.29920568767E+02  0.00000000000E+00 0.  1.
<mgrwt>
<rscale>  0 0.12304360E+03</rscale>
<asrwt>0</asrwt>
<pdfrwt beam="2">  1        1 0.37881672E-01 0.13165267E+03</pdfrwt>
<pdfrwt beam="1">  1       -1 0.84428125E-02 0.13165267E+03</pdfrwt>
<totfact> 0.84323089E+03</totfact>
</mgrwt>
</event>
<event>
 6    1  0.8353100E-006  0.1259790E+03  0.7546771E-02  0.1247736E+00
          4   -1    0    0  501    0  0.00000000000E+00  0.00000000000E+00  0.12266869073E+03  0.12266869073E+03  0.00000000000E+00 0. -1.
         -4   -1    0    0    0  501 -0.00000000000E+00 -0.00000000000E+00 -0.10811514872E+03  0.10811514872E+03  0.00000000000E+00 0.  1.
          5    1    1    2  502    0  0.66529091930E+02  0.48703685795E+01  0.33260318209E+02  0.74687209952E+02  0.47000000000E+01 0. -1.
         -5    1    1    2    0  502 -0.55082239835E+02 -0.15208365675E+02  0.80879623894E+01  0.57903822563E+02  0.47000000000E+01 0. -1.
        -11    1    1    2    0    0 -0.17383861590E+02  0.25524480305E+02 -0.56452956945E+02  0.64347758986E+02  0.00000000000E+00 0.  1.
         11    1    1    2    0    0  0.59370094958E+01 -0.15186483210E+02  0.29658218363E+02  0.33845047946E+02  0.00000000000E+00 0. -1.
<mgrwt>
<rscale>  0 0.11723106E+03</rscale>
<asrwt>0</asrwt>
<pdfrwt beam="1">  1        4 0.18872106E-01 0.12597897E+03</pdfrwt>
<pdfrwt beam="2">  1       -4 0.16633100E-01 0.12597897E+03</pdfrwt>
<totfact> 0.12754507E+03</totfact>
</mgrwt>
</event>
<event>
 6    1  0.8353100E-006  0.1292362E+03  0.7546771E-02  0.1242919E+00
         -4   -1    0    0    0  501 -0.00000000000E+00  0.00000000000E+00  0.13557696190E+03  0.13557696190E+03  0.00000000000E+00 0.  1.
          4   -1    0    0  501    0  0.00000000000E+00 -0.00000000000E+00 -0.12545115194E+03  0.12545115194E+03  0.00000000000E+00 0. -1.
          5    1    1    2  502    0  0.50031608520E+02  0.16214931168E+02  0.21143432468E+01  0.52845494521E+02  0.47000000000E+01 0.  1.
         -5    1    1    2    0  502 -0.43096420642E+02 -0.48272956487E+02 -0.61442349266E+02  0.89357887640E+02  0.47000000000E+01 0.  1.
        -11    1    1    2    0    0 -0.47197613789E+01 -0.18823438224E+02  0.64845436735E+02  0.67686990178E+02  0.00000000000E+00 0.  1.
         11    1    1    2    0    0 -0.22154264987E+01  0.50881463543E+02  0.46083792455E+01  0.51137741504E+02  0.00000000000E+00 0. -1.
<mgrwt>
<rscale>  0 0.12010804E+03</rscale>
<asrwt>0</asrwt>
<pdfrwt beam="2">  1        4 0.19300177E-01 0.12923618E+03</pdfrwt>
<pdfrwt beam="1">  1       -4 0.20857994E-01 0.12923618E+03</pdfrwt>
<totfact> 0.82304294E+02</totfact>
</mgrwt>
</event>
<event>
 6    1  0.8353100E-006  0.1343083E+03  0.7546771E-02  0.1234317E+00
         -1   -1    0    0    0  501 -0.00000000000E+00  0.00000000000E+00  0.38293610364E+03  0.38293610364E+03  0.00000000000E+00 0.  1.
          1   -1    0    0  501    0  0.00000000000E+00 -0.00000000000E+00 -0.41418182718E+02  0.41418182718E+02  0.00000000000E+00 0. -1.
          5    1    1    2  502    0 -0.40491612684E+02  0.44811159055E+02  0.31546293731E+02  0.68299848622E+02  0.47000000000E+01 0. -1.
         -5    1    1    2    0  502  0.68286091081E+02 -0.42904773111E+01  0.87494592967E+02  0.11117010493E+03  0.47000000000E+01 0. -1.
        -11    1    1    2    0    0  0.25462934484E+02  0.99625037545E+01  0.81300518837E+02  0.85775211319E+02  0.00000000000E+00 0.  1.
         11    1    1    2    0    0 -0.53257412881E+02 -0.50483185499E+02  0.14117651538E+03  0.15910912149E+03  0.00000000000E+00 0. -1.
<mgrwt>
<rscale>  0 0.12548232E+03</rscale>
<asrwt>0</asrwt>
<pdfrwt beam="2">  1        1 0.63720284E-02 0.13430834E+03</pdfrwt>
<pdfrwt beam="1">  1       -1 0.58913244E-01 0.13430834E+03</pdfrwt>
<totfact> 0.34392365E+03</totfact>
</mgrwt>
</event>
<event>
 6    1  0.8353100E-006  0.2025548E+03  0.7546771E-02  0.1152168E+00
          2   -1    0    0  501    0  0.00000000000E+00  0.00000000000E+00  0.25169988616E+03  0.25169988616E+03  0.00000000000E+00 0. -1.
         -2   -1    0    0    0  501 -0.00000000000E+00 -0.00000000000E+00 -0.15481715931E+03  0.15481715931E+03  0.00000000000E+00 0.  1.
          5    1    1    2  502    0  0.70383917489E+02  0.12421182935E+03  0.83695317120E+02  0.16555805779E+03  0.47000000000E+01 0. -1.
         -5    1    1    2    0  502  0.52632595265E+02 -0.22875756708E+02  0.13663626955E+02  0.59180022228E+02  0.47000000000E+01 0. -1.
        -11    1    1    2    0    0 -0.68235339189E+01 -0.28126461665E+02 -0.29592600474E+02  0.41393000178E+02  0.00000000000E+00 0.  1.
         11    1    1    2    0    0 -0.11619297884E+03 -0.73209610982E+02  0.29116383257E+02  0.14038596527E+03  0.00000000000E+00 0. -1.
<mgrwt>
<rscale>  0 0.19714802E+03</rscale>
<asrwt>0</asrwt>
<pdfrwt beam="1">  1        2 0.38723059E-01 0.20255478E+03</pdfrwt>
<pdfrwt beam="2">  1       -2 0.23818025E-01 0.20255478E+03</pdfrwt>
<totfact> 0.20281879E+03</totfact>
</mgrwt>
</event>
<event>
 6    1  0.8353100E-006  0.1385615E+03  0.7546771E-02  0.1226352E+00
          1   -1    0    0  501    0  0.00000000000E+00  0.00000000000E+00  0.56844303289E+03  0.56844303289E+03  0.00000000000E+00 0. -1.
         -1   -1    0    0    0  501 -0.00000000000E+00 -0.00000000000E+00 -0.27592220934E+02  0.27592220934E+02  0.00000000000E+00 0.  1.
          5    1    1    2  502    0 -0.87903692935E+02 -0.42245922067E+01  0.17538911003E+03  0.19628636308E+03  0.47000000000E+01 0.  1.
         -5    1    1    2    0  502  0.36275548675E+02  0.34414735987E+02  0.87827910693E+02  0.10117371883E+03  0.47000000000E+01 0.  1.
        -11    1    1    2    0    0  0.62824968011E+02  0.11724929208E+02  0.13271291669E+03  0.14729958868E+03  0.00000000000E+00 0.  1.
         11    1    1    2    0    0 -0.11196823752E+02 -0.41915072989E+02  0.14492087454E+03  0.15127558323E+03  0.00000000000E+00 0. -1.
<mgrwt>
<rscale>  0 0.13074654E+03</rscale>
<asrwt>0</asrwt>
<pdfrwt beam="1">  1        1 0.87452766E-01 0.13856154E+03</pdfrwt>
<pdfrwt beam="2">  1       -1 0.42449575E-02 0.13856154E+03</pdfrwt>
<totfact> 0.81819276E+03</totfact>
</mgrwt>
</event>
<event>
 6    1  0.8353100E-006  0.2932852E+03  0.7546771E-02  0.1088646E+00
         -3   -1    0    0    0  501 -0.00000000000E+00  0.00000000000E+00  0.30406771258E+02  0.30406771258E+02  0.00000000000E+00 0.  1.
          3   -1    0    0  501    0  0.00000000000E+00 -0.00000000000E+00 -0.70721284851E+03  0.70721284851E+03  0.00000000000E+00 0. -1.
          5    1    1    2  502    0  0.30175430814E+02 -0.99991727634E+02 -0.47181925805E+03  0.48326432155E+03  0.47000000000E+01 0.  1.
         -5    1    1    2    0  502  0.74052257651E+01  0.25386663492E+02 -0.28528740847E+02  0.39182893029E+02  0.47000000000E+01 0.  1.
        -11    1    1    2    0    0 -0.42458569313E+01  0.49185626351E+02 -0.16425176557E+03  0.17151062834E+03  0.00000000000E+00 0. -1.
         11    1    1    2    0    0 -0.33334799648E+02  0.25419437791E+02 -0.12206312781E+02  0.43661776841E+02  0.00000000000E+00 0.  1.
<mgrwt>
<rscale>  0 0.29328525E+03</rscale>
<asrwt>0</asrwt>
<pdfrwt beam="2">  1        3 0.10880198E+00 0.29328525E+03</pdfrwt>
<pdfrwt beam="1">  1       -3 0.46779648E-02 0.29328525E+03</pdfrwt>
<totfact> 0.48231672E+02</totfact>
</mgrwt>
</event>
<event>
 6    1  0.8353100E-006  0.3450803E+03  0.7546771E-02  0.1064653E+00
          2   -1    0    0  501    0  0.00000000000E+00  0.00000000000E+00  0.29514134867E+03  0.29514134867E+03  0.00000000000E+00 0. -1.
         -2   -1    0    0    0  501 -0.00000000000E+00 -0.00000000000E+00 -0.10086726075E+03  0.10086726075E+03  0.00000000000E+00 0.  1.
          5    1    1    2  502    0 -0.19836460340E+02  0.93406884551E+02  0.11197091725E+03  0.14723419287E+03  0.47000000000E+01 0.  1.
         -5    1    1    2    0  502  0.32117086555E+02 -0.21675878243E+02  0.11950737625E+03  0.12571974357E+03  0.47000000000E+01 0.  1.
        -11    1    1    2    0    0 -0.14468146662E+02 -0.29367607927E+02 -0.64694362471E+02  0.72506166625E+02  0.00000000000E+00 0.  1.
         11    1    1    2    0    0  0.21875204467E+01 -0.42363398382E+02  0.27490156898E+02  0.50548506352E+02  0.00000000000E+00 0. -1.
<mgrwt>
<rscale>  0 0.34508028E+03</rscale>
<asrwt>0</asrwt>
<pdfrwt beam="1">  1        2 0.45406361E-01 0.34508028E+03</pdfrwt>
<pdfrwt beam="2">  1       -2 0.15518040E-01 0.34508028E+03</pdfrwt>
<totfact> 0.36110504E+03</totfact>
</mgrwt>
</event>
<event>
 6    1  0.8353100E-006  0.1792039E+03  0.7546771E-02  0.1175359E+00
         -2   -1    0    0    0  501 -0.00000000000E+00  0.00000000000E+00  0.12793925713E+03  0.12793925713E+03  0.00000000000E+00 0. -1.
          2   -1    0    0  501    0  0.00000000000E+00 -0.00000000000E+00 -0.34535055744E+03  0.34535055744E+03  0.00000000000E+00 0.  1.
          5    1    1    2  502    0 -0.66327738069E+02 -0.49922247406E+02 -0.43678540825E+02  0.93922864905E+02  0.47000000000E+01 0. -1.
         -5    1    1    2    0  502 -0.18259799918E+02 -0.46693045355E+02 -0.21465000979E+03  0.22047761220E+03  0.47000000000E+01 0. -1.
        -11    1    1    2    0    0  0.77316828056E+02  0.24767424522E+02  0.18406381129E+02  0.83247294757E+02  0.00000000000E+00 0. -1.
         11    1    1    2    0    0  0.72707099308E+01  0.71847868239E+02  0.22510869176E+02  0.75642042704E+02  0.00000000000E+00 0.  1.
<mgrwt>
<rscale>  0 0.17240868E+03</rscale>
<asrwt>0</asrwt>
<pdfrwt beam="2">  1        2 0.53130855E-01 0.17920385E+03</pdfrwt>
<pdfrwt beam="1">  1       -2 0.19682963E-01 0.17920385E+03</pdfrwt>
<totfact> 0.19994748E+03</totfact>
</mgrwt>
</event>
<event>
 6    1  0.8353100E-006  0.3182493E+03  0.7546771E-02  0.1076458E+00
         -2   -1    0    0    0  501 -0.00000000000E+00  0.00000000000E+00  0.20833024881E+02  0.20833024881E+02  0.00000000000E+00 0.  1.
          2   -1    0    0  501    0  0.00000000000E+00 -0.00000000000E+00 -0.12154095741E+04  0.12154095741E+04  0.00000000000E+00 0. -1.
          5    1    1    2  502    0  0.12475957547E+01 -0.85800205111E+01 -0.21870193863E+01  0.10101796916E+02  0.47000000000E+01 0. -1.
         -5    1    1    2    0  502  0.74702807742E+02  0.13337784801E+02 -0.97793274032E+03  0.98088375487E+03  0.47000000000E+01 0. -1.
        -11    1    1    2    0    0 -0.14685881517E+02  0.35293208979E+02 -0.11886730795E+03  0.12486281518E+03  0.00000000000E+00 0. -1.
         11    1    1    2    0    0 -0.61264521980E+02 -0.40050973269E+02 -0.95589481522E+02  0.12039423197E+03  0.00000000000E+00 0.  1.
<mgrwt>
<rscale>  0 0.31824932E+03</rscale>
<asrwt>0</asrwt>
<pdfrwt beam="2">  1        2 0.18698608E+00 0.31824932E+03</pdfrwt>
<pdfrwt beam="1">  1       -2 0.32050809E-02 0.31824932E+03</pdfrwt>
<totfact> 0.75320711E+03</totfact>
</mgrwt>
</event>
<event>
 6    1  0.8353100E-006  0.1346109E+03  0.7546771E-02  0.1233233E+00
          2   -1    0    0  501    0  0.00000000000E+00  0.00000000000E+00  0.22611585115E+03  0.22611585115E+03  0.00000000000E+00 0. -1.
         -2   -1    0    0    0  501 -0.00000000000E+00 -0.00000000000E+00 -0.70887295746E+02  0.70887295746E+02  0.00000000000E+00 0.  1.
          5    1    1    2  502    0 -0.83784826917E+01  0.34036123738E+02  0.10250277985E+03  0.10843231330E+03  0.47000000000E+01 0. -1.
         -5    1    1    2    0  502  0.54994496740E+02 -0.51989192809E+02  0.33409446037E+02  0.82858626136E+02  0.47000000000E+01 0. -1.
        -11    1    1    2    0    0 -0.73850676163E+02  0.70496928972E+01  0.18039991987E+02  0.76348293043E+02  0.00000000000E+00 0. -1.
         11    1    1    2    0    0  0.27234662114E+02  0.10903376173E+02  0.12763375342E+01  0.29363914418E+02  0.00000000000E+00 0.  1.
<mgrwt>
<rscale>  0 0.12618215E+03</rscale>
<asrwt>0</asrwt>
<pdfrwt beam="1">  1        2 0.34787054E-01 0.13461089E+03</pdfrwt>
<pdfrwt beam="2">  1       -2 0.10905738E-01 0.13461089E+03</pdfrwt>
<totfact> 0.81407924E+03</totfact>
</mgrwt>
</event>
<event>
 6    1  0.8353100E-006  0.1714531E+03  0.7546771E-02  0.1181986E+00
          2   -1    0    0  501    0  0.00000000000E+00  0.00000000000E+00  0.17606412573E+04  0.17606412573E+04  0.00000000000E+00 0.  1.
         -2   -1    0    0    0  501 -0.00000000000E+00 -0.00000000000E+00 -0.25576373827E+02  0.25576373827E+02  0.00000000000E+00 0. -1.
          5    1    1    2  502    0  0.95672847636E+01  0.86972706806E+02  0.40024156411E+03  0.40972086145E+03  0.47000000000E+01 0.  1.
         -5    1    1    2    0  502  0.34645010124E+01  0.29650862241E+02  0.10791062349E+04  0.10795293107E+04  0.47000000000E+01 0.  1.
        -11    1    1    2    0    0 -0.16718692502E+02 -0.77729058208E+02  0.66181520282E+02  0.10344715944E+03  0.00000000000E+00 0. -1.
         11    1    1    2    0    0  0.36869067263E+01 -0.38894510839E+02  0.18953556413E+03  0.19352029951E+03  0.00000000000E+00 0.  1.
<mgrwt>
<rscale>  0 0.16609140E+03</rscale>
<asrwt>0</asrwt>
<pdfrwt beam="1">  1        2 0.27086779E+00 0.17145310E+03</pdfrwt>
<pdfrwt beam="2">  1       -2 0.39348281E-02 0.17145310E+03</pdfrwt>
<totfact> 0.27981665E+03</totfact>
</mgrwt>
</event>
<event>
 6    1  0.8353100E-006  0.4322386E+03  0.7546771E-02  0.1033822E+00
          2   -1    0    0  501    0  0.00000000000E+00  0.00000000000E+00  0.39046434670E+03  0.39046434670E+03  0.00000000000E+00 0. -1.
         -2   -1    0    0    0  501 -0.00000000000E+00 -0.00000000000E+00 -0.62645130519E+03  0.62645130519E+03  0.00000000000E+00 0.  1.
          5    1    1    2  502    0  0.39192914831E+03 -0.28779131861E+02  0.91009019726E+02  0.40341223011E+03  0.47000000000E+01 0.  1.
         -5    1    1    2    0  502  0.20626491792E+02 -0.28798157759E+01  0.44853870711E+02  0.49676002459E+02  0.47000000000E+01 0.  1.
        -11    1    1    2    0    0 -0.12317037474E+03  0.49823052639E+02 -0.13520854785E+03  0.18956431415E+03  0.00000000000E+00 0. -1.
         11    1    1    2    0    0 -0.28938526537E+03 -0.18164105002E+02 -0.23664130107E+03  0.37426310517E+03  0.00000000000E+00 0.  1.
<mgrwt>
<rscale>  0 0.43012011E+03</rscale>
<asrwt>0</asrwt>
<pdfrwt beam="1">  1        2 0.60071438E-01 0.43223862E+03</pdfrwt>
<pdfrwt beam="2">  1       -2 0.96377124E-01 0.43223862E+03</pdfrwt>
<totfact> 0.76067561E+01</totfact>
</mgrwt>
</event>
<event>
 6    1  0.8353100E-006  0.1757569E+03  0.7546771E-02  0.1177895E+00
         -2   -1    0    0    0  501 -0.00000000000E+00  0.00000000000E+00  0.76026453221E+02  0.76026453221E+02  0.00000000000E+00 0.  1.
          2   -1    0    0  501    0  0.00000000000E+00 -0.00000000000E+00 -0.35854351330E+03  0.35854351330E+03  0.00000000000E+00 0. -1.
          5    1    1    2  502    0 -0.33517807059E+02 -0.66685659380E+02 -0.13545423854E+03  0.15472673103E+03  0.47000000000E+01 0.  1.
         -5    1    1    2    0  502 -0.67050277625E+02 -0.50853869179E+01 -0.38893488993E+00  0.67408027416E+02  0.47000000000E+01 0.  1.
        -11    1    1    2    0    0  0.60657065852E+00  0.24963577448E+02  0.43787539236E+01  0.25351954814E+02  0.00000000000E+00 0.  1.
         11    1    1    2    0    0  0.99961514026E+02  0.46807468850E+02 -0.15105264057E+03  0.18708325326E+03  0.00000000000E+00 0. -1.
<mgrwt>
<rscale>  0 0.16995497E+03</rscale>
<asrwt>0</asrwt>
<pdfrwt beam="2">  1        2 0.55160541E-01 0.17575689E+03</pdfrwt>
<pdfrwt beam="1">  1       -2 0.11696377E-01 0.17575689E+03</pdfrwt>
<totfact> 0.45242699E+03</totfact>
</mgrwt>
</event>
<event>
 6    1  0.8353100E-006  0.1257951E+03  0.7546771E-02  0.1249000E+00
          1   -1    0    0  501    0  0.00000000000E+00  0.00000000000E+00  0.27312607975E+02  0.27312607975E+02  0.00000000000E+00 0. -1.
         -1   -1    0    0    0  501 -0.00000000000E+00 -0.00000000000E+00 -0.43702040472E+03  0.43702040472E+03  0.00000000000E+00 0.  1.
          5    1    1    2  502    0 -0.64245862408E+02  0.15838732901E+02 -0.12071930979E+03  0.13774482949E+03  0.47000000000E+01 0. -1.
         -5    1    1    2    0  502  0.53492749975E+02 -0.24870305931E+02 -0.12516115746E+03  0.13844642196E+03  0.47000000000E+01 0. -1.
        -11    1    1    2    0    0  0.34120285398E+02  0.35567140713E+02 -0.55676103283E+02  0.74357540646E+02  0.00000000000E+00 0.  1.
         11    1    1    2    0    0 -0.23367172966E+02 -0.26535567682E+02 -0.10815122622E+03  0.11378422060E+03  0.00000000000E+00 0. -1.
<mgrwt>
<rscale>  0 0.11649139E+03</rscale>
<asrwt>0</asrwt>
<pdfrwt beam="1">  1        1 0.42019396E-02 0.12579508E+03</pdfrwt>
<pdfrwt beam="2">  1       -1 0.67233911E-01 0.12579508E+03</pdfrwt>
<totfact> 0.46880005E+03</totfact>
</mgrwt>
</event>
<event>
 6    1  0.8353100E-006  0.2854118E+03  0.7546771E-02  0.1092769E+00
         -1   -1    0    0    0  501 -0.00000000000E+00  0.00000000000E+00  0.56536803859E+02  0.56536803859E+02  0.00000000000E+00 0.  1.
          1   -1    0    0  501    0  0.00000000000E+00 -0.00000000000E+00 -0.36020741107E+03  0.36020741107E+03  0.00000000000E+00 0. -1.
          5    1    1    2  502    0  0.58752335044E+01  0.12437738955E+02 -0.18888600675E+03  0.18944452820E+03  0.47000000000E+01 0.  1.
         -5    1    1    2    0  502 -0.46235417340E+02  0.58201341137E+02 -0.42235298819E+02  0.85621378131E+02  0.47000000000E+01 0.  1.
        -11    1    1    2    0    0  0.20611549856E+02 -0.21004345685E+02  0.19463906403E+02  0.35282604461E+02  0.00000000000E+00 0.  1.
         11    1    1    2    0    0  0.19748633980E+02 -0.49634734407E+02 -0.92013208039E+02  0.10639570413E+03  0.00000000000E+00 0. -1.
<mgrwt>
<rscale>  0 0.28541181E+03</rscale>
<asrwt>0</asrwt>
<pdfrwt beam="2">  1        1 0.55416525E-01 0.28541181E+03</pdfrwt>
<pdfrwt beam="1">  1       -1 0.86979698E-02 0.28541181E+03</pdfrwt>
<totfact> 0.52271462E+03</totfact>
</mgrwt>
</event>
<event>
 6    1  0.8353100E-006  0.2483768E+03  0.7546771E-02  0.1116842E+00
         -2   -1    0    0    0  501 -0.00000000000E+00  0.00000000000E+00  0.69489812128E+02  0.69489812128E+02  0.00000000000E+00 0.  1.
          2   -1    0    0  501    0  0.00000000000E+00 -0.00000000000E+00 -0.84979681359E+03  0.84979681359E+03  0.00000000000E+00 0. -1.
          5    1    1    2  502    0 -0.14523329788E+03  0.71005768357E+02 -0.22294868706E+03  0.27543190994E+03  0.47000000000E+01 0.  1.
         -5    1    1    2    0  502 -0.64449874541E+02 -0.25182732159E+02 -0.24147339169E+03  0.25123583587E+03  0.47000000000E+01 0.  1.
        -11    1    1    2    0    0  0.11774994004E+03 -0.22162467918E+02 -0.97433418251E+02  0.15443281502E+03  0.00000000000E+00 0.  1.
         11    1    1    2    0    0  0.91933232385E+02 -0.23660568280E+02 -0.21845150446E+03  0.23818606489E+03  0.00000000000E+00 0. -1.
<mgrwt>
<rscale>  0 0.24448348E+03</rscale>
<asrwt>0</asrwt>
<pdfrwt beam="2">  1        2 0.13073798E+00 0.24837683E+03</pdfrwt>
<pdfrwt beam="1">  1       -2 0.10690740E-01 0.24837683E+03</pdfrwt>
<totfact> 0.19516189E+03</totfact>
</mgrwt>
</event>
<event>
 6    1  0.8353100E-006  0.1352731E+03  0.7546771E-02  0.1232235E+00
          2   -1    0    0  501    0  0.00000000000E+00  0.00000000000E+00  0.39601724844E+03  0.39601724844E+03  0.00000000000E+00 0. -1.
         -2   -1    0    0    0  501 -0.00000000000E+00 -0.00000000000E+00 -0.46287821982E+02  0.46287821982E+02  0.00000000000E+00 0.  1.
          5    1    1    2  502    0  0.64332185921E+02 -0.12680463391E+02  0.63134611463E+02  0.91145452228E+02  0.47000000000E+01 0. -1.
         -5    1    1    2    0  502 -0.21303285652E+02 -0.15937911162E+02  0.23135259238E+03  0.23292479256E+03  0.47000000000E+01 0. -1.
        -11    1    1    2    0    0 -0.18546307490E+02  0.32070001038E+02  0.76904752727E+02  0.85362705441E+02  0.00000000000E+00 0. -1.
         11    1    1    2    0    0 -0.24482592779E+02 -0.34516264846E+01 -0.21662530113E+02  0.32872120186E+02  0.00000000000E+00 0.  1.
<mgrwt>
<rscale>  0 0.12683088E+03</rscale>
<asrwt>0</asrwt>
<pdfrwt beam="1">  1        2 0.60925728E-01 0.13527310E+03</pdfrwt>
<pdfrwt beam="2">  1       -2 0.71212036E-02 0.13527310E+03</pdfrwt>
<totfact> 0.87122155E+03</totfact>
</mgrwt>
</event>
<event>
 6    1  0.8353100E-006  0.3277268E+03  0.7546771E-02  0.1072147E+00
          1   -1    0    0  501    0  0.00000000000E+00  0.00000000000E+00  0.10144825043E+03  0.10144825043E+03  0.00000000000E+00 0. -1.
         -1   -1    0    0    0  501 -0.00000000000E+00 -0.00000000000E+00 -0.26467885703E+03  0.26467885703E+03  0.00000000000E+00 0.  1.
          5    1    1    2  502    0  0.19290369763E+02  0.12159983618E+02 -0.28613763504E+02  0.36889307788E+02  0.47000000000E+01 0.  1.
         -5    1    1    2    0  502 -0.11988290005E+03 -0.20761664672E+02  0.22886855531E+02  0.12389049440E+03  0.47000000000E+01 0.  1.
        -11    1    1    2    0    0  0.41589750095E+02 -0.38163039692E+02 -0.69434234569E+02  0.89483170718E+02  0.00000000000E+00 0.  1.
         11    1    1    2    0    0  0.59002780196E+02  0.46764720746E+02 -0.88069464055E+02  0.11586413456E+03  0.00000000000E+00 0. -1.
<mgrwt>
<rscale>  0 0.32772676E+03</rscale>
<asrwt>0</asrwt>
<pdfrwt beam="1">  1        1 0.15607423E-01 0.32772676E+03</pdfrwt>
<pdfrwt beam="2">  1       -1 0.40719824E-01 0.32772676E+03</pdfrwt>
<totfact> 0.21185442E+03</totfact>
</mgrwt>
</event>
<event>
 6    1  0.8353100E-006  0.1520116E+03  0.7546771E-02  0.1205720E+00
         -1   -1    0    0    0  501 -0.00000000000E+00  0.00000000000E+00  0.26878947231E+02  0.26878947231E+02  0.00000000000E+00 0.  1.
          1   -1    0    0  501    0  0.00000000000E+00 -0.00000000000E+00 -0.73283090832E+03  0.73283090832E+03  0.00000000000E+00 0. -1.
          5    1    1    2  502    0 -0.44929255113E+01 -0.26032191819E+02 -0.13997877441E+02  0.30263707034E+02  0.47000000000E+01 0.  1.
         -5    1    1    2    0  502  0.90290304708E+02  0.37052199911E+02 -0.37117323808E+03  0.38381879489E+03  0.47000000000E+01 0.  1.
        -11    1    1    2    0    0 -0.95043601951E+02  0.16312962094E+02 -0.20887290647E+03  0.23005931857E+03  0.00000000000E+00 0.  1.
         11    1    1    2    0    0  0.92462227541E+01 -0.27332970185E+02 -0.11190793910E+03  0.11556803506E+03  0.00000000000E+00 0. -1.
<mgrwt>
<rscale>  0 0.14580865E+03</rscale>
<asrwt>0</asrwt>
<pdfrwt beam="2">  1        1 0.11274321E+00 0.15201161E+03</pdfrwt>
<pdfrwt beam="1">  1       -1 0.41352228E-02 0.15201161E+03</pdfrwt>
<totfact> 0.59944740E+03</totfact>
</mgrwt>
</event>
<event>
 6    1  0.8353100E-006  0.1419163E+03  0.7546771E-02  0.1221439E+00
          1   -1    0    0  501    0  0.00000000000E+00  0.00000000000E+00  0.18086955193E+03  0.18086955193E+03  0.00000000000E+00 0. -1.
         -1   -1    0    0    0  501 -0.00000000000E+00 -0.00000000000E+00 -0.10728538873E+03  0.10728538873E+03  0.00000000000E+00 0.  1.
          5    1    1    2  502    0  0.30248685928E+02 -0.37851665759E+02  0.91379497944E+02  0.10353759822E+03  0.47000000000E+01 0.  1.
         -5    1    1    2    0  502 -0.65510857989E+02 -0.19435872375E+02  0.63802872739E+01  0.68791160153E+02  0.47000000000E+01 0.  1.
        -11    1    1    2    0    0 -0.67920739827E+00  0.42830225120E+02 -0.52557084503E+02  0.67802187561E+02  0.00000000000E+00 0.  1.
         11    1    1    2    0    0  0.35941379460E+02  0.14457313014E+02  0.28381462483E+02  0.48023994729E+02  0.00000000000E+00 0. -1.
<mgrwt>
<rscale>  0 0.13413982E+03</rscale>
<asrwt>0</asrwt>
<pdfrwt beam="1">  1        1 0.27826085E-01 0.14191626E+03</pdfrwt>
<pdfrwt beam="2">  1       -1 0.16505444E-01 0.14191626E+03</pdfrwt>
<totfact> 0.44168514E+03</totfact>
</mgrwt>
</event>
<event>
 6    1  0.8353100E-006  0.2033722E+03  0.7546771E-02  0.1151423E+00
         -1   -1    0    0    0  501 -0.00000000000E+00  0.00000000000E+00  0.48257206596E+02  0.48257206596E+02  0.00000000000E+00 0.  1.
          1   -1    0    0  501    0  0.00000000000E+00 -0.00000000000E+00 -0.80383646944E+03  0.80383646944E+03  0.00000000000E+00 0. -1.
          5    1    1    2  502    0 -0.13583652916E+03  0.18688248641E+02 -0.36470824395E+03  0.38966011663E+03  0.47000000000E+01 0.  1.
         -5    1    1    2    0  502 -0.19041860279E+02 -0.60559167529E+02 -0.11645023462E+03  0.13271304516E+03  0.47000000000E+01 0.  1.
        -11    1    1    2    0    0  0.11706263135E+03 -0.11163385476E+02 -0.18032345588E+03  0.21527849306E+03  0.00000000000E+00 0. -1.
         11    1    1    2    0    0  0.37815758088E+02  0.53034304364E+02 -0.94097328401E+02  0.11444202118E+03  0.00000000000E+00 0.  1.
<mgrwt>
<rscale>  0 0.19801648E+03</rscale>
<asrwt>0</asrwt>
<pdfrwt beam="2">  1        1 0.12366715E+00 0.20337217E+03</pdfrwt>
<pdfrwt beam="1">  1       -1 0.74241856E-02 0.20337217E+03</pdfrwt>
<totfact> 0.21966552E+03</totfact>
</mgrwt>
</event>
<event>
 6    1  0.8353100E-006  0.1413293E+03  0.7546771E-02  0.1221352E+00
         -1   -1    0    0    0  501 -0.00000000000E+00  0.00000000000E+00  0.12068928557E+03  0.12068928557E+03  0.00000000000E+00 0.  1.
          1   -1    0    0  501    0  0.00000000000E+00 -0.00000000000E+00 -0.13611502904E+03  0.13611502904E+03  0.00000000000E+00 0. -1.
          5    1    1    2  502    0 -0.43934712012E+02  0.50673789720E+02  0.21967498694E+02  0.70730141263E+02  0.47000000000E+01 0. -1.
         -5    1    1    2    0  502  0.64120267507E+02  0.12105371330E+02 -0.26751335575E+02  0.70680072688E+02  0.47000000000E+01 0. -1.
        -11    1    1    2    0    0 -0.56361174105E+02 -0.53068347885E+02 -0.58812566011E+01  0.77636464841E+02  0.00000000000E+00 0.  1.
         11    1    1    2    0    0  0.36175618610E+02 -0.97108131653E+01 -0.47606499870E+01  0.37757635817E+02  0.00000000000E+00 0. -1.
<mgrwt>
<rscale>  0 0.13420117E+03</rscale>
<asrwt>0</asrwt>
<pdfrwt beam="2">  1        1 0.20940774E-01 0.14132927E+03</pdfrwt>
<pdfrwt beam="1">  1       -1 0.18567582E-01 0.14132927E+03</pdfrwt>
<totfact> 0.52391855E+03</totfact>
</mgrwt>
</event>
<event>
 6    1  0.8353100E-006  0.1430936E+03  0.7546771E-02  0.1219515E+00
          1   -1    0    0  501    0  0.00000000000E+00  0.00000000000E+00  0.60514010589E+03  0.60514010589E+03  0.00000000000E+00 0. -1.
         -1   -1    0    0    0  501 -0.00000000000E+00 -0.00000000000E+00 -0.67042238427E+02  0.67042238427E+02  0.00000000000E+00 0.  1.
          5    1    1    2  502    0  0.57357326860E+02 -0.33446724389E+02  0.18544080641E+03  0.19702519889E+03  0.47000000000E+01 0.  1.
         -5    1    1    2    0  502  0.12767674669E+01  0.71014405442E+02  0.35299807046E+03  0.36010332359E+03  0.47000000000E+01 0.  1.
        -11    1    1    2    0    0 -0.58357050237E+02  0.11206856612E+01  0.30241455512E+02  0.65736952167E+02  0.00000000000E+00 0. -1.
         11    1    1    2    0    0 -0.27704408938E+00 -0.38688366714E+02 -0.30582464921E+02  0.49316869660E+02  0.00000000000E+00 0.  1.
<mgrwt>
<rscale>  0 0.13550017E+03</rscale>
<asrwt>0</asrwt>
<pdfrwt beam="1">  1        1 0.93098474E-01 0.14309356E+03</pdfrwt>
<pdfrwt beam="2">  1       -1 0.10314191E-01 0.14309356E+03</pdfrwt>
<totfact> 0.19901929E+03</totfact>
</mgrwt>
</event>
<event>
 6    1  0.8353100E-006  0.2968165E+03  0.7546771E-02  0.1086843E+00
         -3   -1    0    0    0  501 -0.00000000000E+00  0.00000000000E+00  0.11027337778E+03  0.11027337778E+03  0.00000000000E+00 0.  1.
          3   -1    0    0  501    0  0.00000000000E+00 -0.00000000000E+00 -0.19973096586E+03  0.19973096586E+03  0.00000000000E+00 0. -1.
          5    1    1    2  502    0 -0.26880402690E+02 -0.24937592005E+02 -0.21667136114E+02  0.42848504421E+02  0.47000000000E+01 0.  1.
         -5    1    1    2    0  502  0.62036914474E+02  0.83123723969E+02 -0.10474629753E+03  0.14748562334E+03  0.47000000000E+01 0.  1.
        -11    1    1    2    0    0 -0.50087018017E+02 -0.74805735470E+01 -0.67406551637E+01  0.51089184633E+02  0.00000000000E+00 0. -1.
         11    1    1    2    0    0  0.14930506233E+02 -0.50705558417E+02  0.43696500726E+02  0.68581031244E+02  0.00000000000E+00 0.  1.
<mgrwt>
<rscale>  0 0.29681650E+03</rscale>
<asrwt>0</asrwt>
<pdfrwt beam="2">  1        3 0.30727840E-01 0.29681650E+03</pdfrwt>
<pdfrwt beam="1">  1       -3 0.16965135E-01 0.29681650E+03</pdfrwt>
<totfact> 0.78832832E+02</totfact>
</mgrwt>
</event>
<event>
 6    1  0.8353100E-006  0.1294118E+03  0.7546771E-02  0.1242908E+00
         -2   -1    0    0    0  501 -0.00000000000E+00  0.00000000000E+00  0.90943156477E+02  0.90943156477E+02  0.00000000000E+00 0.  1.
          2   -1    0    0  501    0  0.00000000000E+00 -0.00000000000E+00 -0.14134267409E+03  0.14134267409E+03  0.00000000000E+00 0. -1.
          5    1    1    2  502    0  0.76456866426E+01 -0.61429878958E+02 -0.66737232964E+02  0.91148421910E+02  0.47000000000E+01 0. -1.
         -5    1    1    2    0  502  0.11984482021E+02  0.34259901947E+02  0.25578247298E+02  0.44650928608E+02  0.47000000000E+01 0. -1.
        -11    1    1    2    0    0 -0.48264225557E+02  0.38504010267E+02  0.61725074117E+01  0.62049126690E+02  0.00000000000E+00 0.  1.
         11    1    1    2    0    0  0.28634056894E+02 -0.11334033255E+02 -0.15413039359E+02  0.34437353358E+02  0.00000000000E+00 0. -1.
<mgrwt>
<rscale>  0 0.12011485E+03</rscale>
<asrwt>0</asrwt>
<pdfrwt beam="2">  1        2 0.21745027E-01 0.12941175E+03</pdfrwt>
<pdfrwt beam="1">  1       -2 0.13991255E-01 0.12941175E+03</pdfrwt>
<totfact> 0.91011288E+03</totfact>
</mgrwt>
</event>
<event>
 6    1  0.8353100E-006  0.4084315E+03  0.7546771E-02  0.1040899E+00
          1   -1    0    0  501    0  0.00000000000E+00  0.00000000000E+00  0.23308544774E+04  0.23308544774E+04  0.00000000000E+00 0. -1.
         -1   -1    0    0    0  501 -0.00000000000E+00 -0.00000000000E+00 -0.17892182720E+02  0.17892182720E+02  0.00000000000E+00 0.  1.
          5    1    1    2  502    0  0.21932139799E+02  0.16555911267E+01  0.17107662471E+04  0.17109140837E+04  0.47000000000E+01 0. -1.
         -5    1    1    2    0  502  0.53689164194E+02 -0.31856322519E+02  0.37585650975E+03  0.38103485085E+03  0.47000000000E+01 0. -1.
        -11    1    1    2    0    0 -0.17715007473E+02  0.52808638665E+02  0.76979299986E+02  0.95017821664E+02  0.00000000000E+00 0.  1.
         11    1    1    2    0    0 -0.57906296521E+02 -0.22607907273E+02  0.14936023789E+03  0.16177990392E+03  0.00000000000E+00 0. -1.
<mgrwt>
<rscale>  0 0.40843151E+03</rscale>
<asrwt>0</asrwt>
<pdfrwt beam="1">  1        1 0.35859276E+00 0.40843151E+03</pdfrwt>
<pdfrwt beam="2">  1       -1 0.27526453E-02 0.40843151E+03</pdfrwt>
<totfact> 0.86662137E+02</totfact>
</mgrwt>
</event>
<event>
 6    1  0.8353100E-006  0.1317243E+03  0.7546771E-02  0.1241224E+00
         -2   -1    0    0    0  501 -0.00000000000E+00  0.00000000000E+00  0.54357036562E+02  0.54357036562E+02  0.00000000000E+00 0.  1.
          2   -1    0    0  501    0  0.00000000000E+00 -0.00000000000E+00 -0.31832923266E+03  0.31832923266E+03  0.00000000000E+00 0. -1.
          5    1    1    2  502    0 -0.15002744055E+02 -0.48154446026E+02 -0.22559729209E+02  0.55452361385E+02  0.47000000000E+01 0.  1.
         -5    1    1    2    0  502 -0.72876756297E+01  0.13103044219E+02 -0.22005293457E+03  0.22061319996E+03  0.47000000000E+01 0.  1.
        -11    1    1    2    0    0  0.38903426039E+02  0.16759014427E+02 -0.45436887679E+02  0.62119657791E+02  0.00000000000E+00 0. -1.
         11    1    1    2    0    0 -0.16613006354E+02  0.18292387380E+02  0.24077355357E+02  0.34501050087E+02  0.00000000000E+00 0.  1.
<mgrwt>
<rscale>  0 0.12114261E+03</rscale>
<asrwt>0</asrwt>
<pdfrwt beam="2">  1        2 0.48973728E-01 0.13172429E+03</pdfrwt>
<pdfrwt beam="1">  1       -2 0.83626210E-02 0.13172429E+03</pdfrwt>
<totfact> 0.85630805E+03</totfact>
</mgrwt>
</event>
<event>
 6    1  0.8353100E-006  0.1416333E+03  0.7546771E-02  0.1222314E+00
         -2   -1    0    0    0  501 -0.00000000000E+00  0.00000000000E+00  0.27221037085E+02  0.27221037085E+02  0.00000000000E+00 0.  1.
          2   -1    0    0  501    0  0.00000000000E+00 -0.00000000000E+00 -0.67691023460E+03  0.67691023460E+03  0.00000000000E+00 0. -1.
          5    1    1    2  502    0 -0.46564561715E+02 -0.53206009705E+02 -0.44102194496E+03  0.44667838969E+03  0.47000000000E+01 0. -1.
         -5    1    1    2    0  502 -0.17127872040E+02  0.33751796329E+02 -0.42240486306E+02  0.56911303266E+02  0.47000000000E+01 0. -1.
        -11    1    1    2    0    0 -0.11085362051E+02  0.38161828793E+01  0.50894483226E+01  0.12780883686E+02  0.00000000000E+00 0.  1.
         11    1    1    2    0    0  0.74777795806E+02  0.15638030497E+02 -0.17151621457E+03  0.18776069504E+03  0.00000000000E+00 0. -1.
<mgrwt>
<rscale>  0 0.13352745E+03</rscale>
<asrwt>0</asrwt>
<pdfrwt beam="2">  1        2 0.10414002E+00 0.14163333E+03</pdfrwt>
<pdfrwt beam="1">  1       -2 0.41878523E-02 0.14163333E+03</pdfrwt>
<totfact> 0.10738567E+04</totfact>
</mgrwt>
</event>
<event>
 6    1  0.8353100E-006  0.1307626E+03  0.7546771E-02  0.1239890E+00
          2   -1    0    0  501    0  0.00000000000E+00  0.00000000000E+00  0.55951833482E+03  0.55951833482E+03  0.00000000000E+00 0. -1.
         -2   -1    0    0    0  501 -0.00000000000E+00 -0.00000000000E+00 -0.26133754193E+02  0.26133754193E+02  0.00000000000E+00 0.  1.
          5    1    1    2  502    0  0.25452805431E+02 -0.67312766550E+02  0.12886835112E+03  0.14767530520E+03  0.47000000000E+01 0. -1.
         -5    1    1    2    0  502 -0.36134206468E+01  0.35734052427E+02  0.26185503126E+03  0.26434849481E+03  0.47000000000E+01 0. -1.
        -11    1    1    2    0    0  0.64962363404E+01  0.41185071160E+02  0.17977279619E+02  0.45404776792E+02  0.00000000000E+00 0.  1.
         11    1    1    2    0    0 -0.28335621124E+02 -0.96063570360E+01  0.12468391863E+03  0.12822351222E+03  0.00000000000E+00 0. -1.
<mgrwt>
<rscale>  0 0.12196514E+03</rscale>
<asrwt>0</asrwt>
<pdfrwt beam="1">  1        2 0.86079735E-01 0.13076257E+03</pdfrwt>
<pdfrwt beam="2">  1       -2 0.40205780E-02 0.13076257E+03</pdfrwt>
<totfact> 0.14113709E+04</totfact>
</mgrwt>
</event>
<event>
 6    1  0.8353100E-006  0.3155943E+03  0.7546771E-02  0.1079081E+00
         -2   -1    0    0    0  501 -0.00000000000E+00  0.00000000000E+00  0.15648582686E+03  0.15648582686E+03  0.00000000000E+00 0.  1.
          2   -1    0    0  501    0  0.00000000000E+00 -0.00000000000E+00 -0.64809880050E+03  0.64809880050E+03  0.00000000000E+00 0. -1.
          5    1    1    2  502    0  0.86300040359E+02 -0.19055824074E+02 -0.13464478227E+03  0.16112767853E+03  0.47000000000E+01 0. -1.
         -5    1    1    2    0  502  0.11140671310E+03 -0.19280615892E+03 -0.20872348758E+03  0.30524294407E+03  0.47000000000E+01 0. -1.
        -11    1    1    2    0    0 -0.12868847722E+03  0.91631213628E+02 -0.41755558946E+02  0.16340296871E+03  0.00000000000E+00 0. -1.
         11    1    1    2    0    0 -0.69018276239E+02  0.12023076936E+03 -0.10648914484E+03  0.17481103605E+03  0.00000000000E+00 0.  1.
<mgrwt>
<rscale>  0 0.31265335E+03</rscale>
<asrwt>0</asrwt>
<pdfrwt beam="2">  1        2 0.99707507E-01 0.31559434E+03</pdfrwt>
<pdfrwt beam="1">  1       -2 0.24074743E-01 0.31559434E+03</pdfrwt>
<totfact> 0.70171481E+02</totfact>
</mgrwt>
</event>
<event>
 6    1  0.8353100E-006  0.1549084E+03  0.7546771E-02  0.1203515E+00
          1   -1    0    0  501    0  0.00000000000E+00  0.00000000000E+00  0.41772725088E+03  0.41772725088E+03  0.00000000000E+00 0. -1.
         -1   -1    0    0    0  501 -0.00000000000E+00 -0.00000000000E+00 -0.59216696010E+02  0.59216696010E+02  0.00000000000E+00 0.  1.
          5    1    1    2  502    0  0.33957000440E+02 -0.28614594054E+02  0.52412912923E+02  0.68855474095E+02  0.47000000000E+01 0.  1.
         -5    1    1    2    0  502 -0.97971704299E+02 -0.36861745322E+02  0.24547197406E+03  0.26690039932E+03  0.47000000000E+01 0.  1.
        -11    1    1    2    0    0  0.61430243055E+02  0.20410434361E+02 -0.10713853175E+01  0.64741087874E+02  0.00000000000E+00 0.  1.
         11    1    1    2    0    0  0.25844608043E+01  0.45065905015E+02  0.61697053214E+02  0.76446985603E+02  0.00000000000E+00 0. -1.
<mgrwt>
<rscale>  0 0.14755079E+03</rscale>
<asrwt>0</asrwt>
<pdfrwt beam="1">  1        1 0.64265729E-01 0.15490836E+03</pdfrwt>
<pdfrwt beam="2">  1       -1 0.91102612E-02 0.15490836E+03</pdfrwt>
<totfact> 0.39248074E+03</totfact>
</mgrwt>
</event>
<event>
 6    1  0.8353100E-006  0.2224422E+03  0.7546771E-02  0.1149912E+00
         -2   -1    0    0    0  501 -0.00000000000E+00  0.00000000000E+00  0.11373886150E+03  0.11373886150E+03  0.00000000000E+00 0.  1.
          2   -1    0    0  501    0  0.00000000000E+00 -0.00000000000E+00 -0.29863968685E+03  0.29863968685E+03  0.00000000000E+00 0. -1.
          5    1    1    2  502    0  0.10112116340E+03 -0.98703049628E+01 -0.14814360475E+03  0.17969844250E+03  0.47000000000E+01 0. -1.
         -5    1    1    2    0  502  0.10117275216E+02  0.28681220392E+02  0.53755356588E+02  0.61941101240E+02  0.47000000000E+01 0.  1.
        -11    1    1    2    0    0 -0.96655444407E+02 -0.38934702987E+02 -0.99725907886E+02  0.14423398606E+03  0.00000000000E+00 0.  1.
         11    1    1    2    0    0 -0.14582994212E+02  0.20123787557E+02  0.92133307051E+01  0.26505018553E+02  0.00000000000E+00 0. -1.
<mgrwt>
<rscale>  0 0.19979514E+03</rscale>
<asrwt>0</asrwt>
<pdfrwt beam="2">  1        2 0.45944566E-01 0.22244219E+03</pdfrwt>
<pdfrwt beam="1">  1       -2 0.17498287E-01 0.22244219E+03</pdfrwt>
<totfact> 0.28713139E+03</totfact>
</mgrwt>
</event>
<event>
 6    1  0.8353100E-006  0.2924183E+03  0.7546771E-02  0.1090876E+00
          2   -1    0    0  501    0  0.00000000000E+00  0.00000000000E+00  0.25206102347E+04  0.25206102347E+04  0.00000000000E+00 0. -1.
         -2   -1    0    0    0  501 -0.00000000000E+00 -0.00000000000E+00 -0.36559966702E+02  0.36559966702E+02  0.00000000000E+00 0.  1.
          5    1    1    2  502    0 -0.19610030424E+02 -0.17217424469E+03  0.92489077184E+03  0.94099604338E+03  0.47000000000E+01 0. -1.
         -5    1    1    2    0  502 -0.98124880636E+02 -0.64525509982E+02  0.77527174063E+03  0.78413034341E+03  0.47000000000E+01 0. -1.
        -11    1    1    2    0    0  0.13102244613E+03  0.19970483883E+03  0.64951593846E+03  0.69204035891E+03  0.00000000000E+00 0.  1.
         11    1    1    2    0    0 -0.13287535075E+02  0.36994915843E+02  0.13437181709E+03  0.14000345573E+03  0.00000000000E+00 0. -1.
<mgrwt>
<rscale>  0 0.28899324E+03</rscale>
<asrwt>0</asrwt>
<pdfrwt beam="1">  1        2 0.38778605E+00 0.29241833E+03</pdfrwt>
<pdfrwt beam="2">  1       -2 0.56246122E-02 0.29241833E+03</pdfrwt>
<totfact> 0.63644312E+02</totfact>
</mgrwt>
</event>
<event>
 6    1  0.8353100E-006  0.1188861E+03  0.7546771E-02  0.1312292E+00
         -2   -1    0    0    0  501 -0.00000000000E+00  0.00000000000E+00  0.43237425342E+01  0.43237425342E+01  0.00000000000E+00 0.  1.
          2   -1    0    0  501    0  0.00000000000E+00 -0.00000000000E+00 -0.19928032612E+04  0.19928032612E+04  0.00000000000E+00 0. -1.
          5    1    1    2  502    0 -0.39488200661E+02  0.14154146973E+02 -0.91011043438E+03  0.91108877209E+03  0.47000000000E+01 0. -1.
         -5    1    1    2    0  502  0.71497007881E+02 -0.16162595689E+02 -0.97036873528E+03  0.97314470868E+03  0.47000000000E+01 0.  1.
        -11    1    1    2    0    0 -0.15281368664E+02  0.45405579333E+01 -0.54208734300E+02  0.56504192491E+02  0.00000000000E+00 0. -1.
         11    1    1    2    0    0 -0.16727438556E+02 -0.25321092166E+01 -0.53791614758E+02  0.56389330516E+02  0.00000000000E+00 0.  1.
<mgrwt>
<rscale>  0 0.86212468E+02</rscale>
<asrwt>0</asrwt>
<pdfrwt beam="2">  1        2 0.30658420E+00 0.11888609E+03</pdfrwt>
<pdfrwt beam="1">  1       -2 0.66519316E-03 0.11888609E+03</pdfrwt>
<totfact> 0.27661401E+04</totfact>
</mgrwt>
</event>
<event>
 6    1  0.8353100E-006  0.1666937E+03  0.7546771E-02  0.1187935E+00
          2   -1    0    0  501    0  0.00000000000E+00  0.00000000000E+00  0.70805681462E+03  0.70805681462E+03  0.00000000000E+00 0. -1.
         -2   -1    0    0    0  501 -0.00000000000E+00 -0.00000000000E+00 -0.36287467781E+02  0.36287467781E+02  0.00000000000E+00 0.  1.
          5    1    1    2  502    0  0.29218326486E+00  0.41453536213E+02  0.85543309415E+02  0.95174727850E+02  0.47000000000E+01 0. -1.
         -5    1    1    2    0  502 -0.10962676679E+03 -0.55889031765E+02  0.36544547729E+03  0.38563467004E+03  0.47000000000E+01 0. -1.
        -11    1    1    2    0    0  0.11721500470E+03  0.34590210259E+02  0.18987531726E+03  0.22580627998E+03  0.00000000000E+00 0.  1.
         11    1    1    2    0    0 -0.78804211717E+01 -0.20154714707E+02  0.30905242877E+02  0.37728604534E+02  0.00000000000E+00 0. -1.
<mgrwt>
<rscale>  0 0.16067672E+03</rscale>
<asrwt>0</asrwt>
<pdfrwt beam="1">  1        2 0.10893181E+00 0.16669371E+03</pdfrwt>
<pdfrwt beam="2">  1       -2 0.55826879E-02 0.16669371E+03</pdfrwt>
<totfact> 0.66672650E+03</totfact>
</mgrwt>
</event>
<event>
 6    1  0.8353100E-006  0.1322697E+03  0.7546771E-02  0.1237808E+00
         -3   -1    0    0    0  501 -0.00000000000E+00  0.00000000000E+00  0.79901126300E+02  0.79901126300E+02  0.00000000000E+00 0.  1.
          3   -1    0    0  501    0  0.00000000000E+00 -0.00000000000E+00 -0.16847550145E+03  0.16847550145E+03  0.00000000000E+00 0. -1.
          5    1    1    2  502    0 -0.92960179738E+01 -0.76669188471E+02 -0.14164245798E+02  0.78659368609E+02  0.47000000000E+01 0.  1.
         -5    1    1    2    0  502  0.32375220802E+02  0.40096016449E+02 -0.34898015357E+02  0.62416399551E+02  0.47000000000E+01 0.  1.
        -11    1    1    2    0    0  0.31411983121E+02  0.11540906756E+01 -0.26291311845E+02  0.40978990805E+02  0.00000000000E+00 0. -1.
         11    1    1    2    0    0 -0.54491185949E+02  0.35419081347E+02 -0.13220802149E+02  0.66321868784E+02  0.00000000000E+00 0.  1.
<mgrwt>
<rscale>  0 0.12326378E+03</rscale>
<asrwt>0</asrwt>
<pdfrwt beam="2">  1        3 0.25919308E-01 0.13226967E+03</pdfrwt>
<pdfrwt beam="1">  1       -3 0.12292481E-01 0.13226967E+03</pdfrwt>
<totfact> 0.16772266E+03</totfact>
</mgrwt>
</event>
<event>
 6    1  0.8353100E-006  0.1280846E+03  0.7546771E-02  0.1245264E+00
          2   -1    0    0  501    0  0.00000000000E+00  0.00000000000E+00  0.37058423189E+03  0.37058423189E+03  0.00000000000E+00 0.  1.
         -2   -1    0    0    0  501 -0.00000000000E+00 -0.00000000000E+00 -0.37286071230E+02  0.37286071230E+02  0.00000000000E+00 0. -1.
          5    1    1    2  502    0  0.57740846562E+01 -0.46296929662E+02  0.15720581477E+03  0.16405030919E+03  0.47000000000E+01 0. -1.
         -5    1    1    2    0  502 -0.24214103494E+02  0.67295762989E+02  0.97073895922E+02  0.12066678828E+03  0.47000000000E+01 0. -1.
        -11    1    1    2    0    0  0.37080249344E+02 -0.32972564513E+02  0.86540288834E+02  0.99756485971E+02  0.00000000000E+00 0.  1.
         11    1    1    2    0    0 -0.18640230506E+02  0.11973731185E+02 -0.75218388616E+01  0.23396719678E+02  0.00000000000E+00 0. -1.
<mgrwt>
<rscale>  0 0.11869576E+03</rscale>
<asrwt>0</asrwt>
<pdfrwt beam="1">  1        2 0.57012956E-01 0.12808456E+03</pdfrwt>
<pdfrwt beam="2">  1       -2 0.57363189E-02 0.12808456E+03</pdfrwt>
<totfact> 0.12938298E+04</totfact>
</mgrwt>
</event>
<event>
 6    1  0.9515917E-006  0.1418482E+03  0.7546771E-02  0.1221756E+00
         -1   -1    0    0    0  501 -0.00000000000E+00  0.00000000000E+00  0.61935854627E+03  0.61935854627E+03  0.00000000000E+00 0.  1.
          1   -1    0    0  501    0  0.00000000000E+00 -0.00000000000E+00 -0.26627879173E+02  0.26627879173E+02  0.00000000000E+00 0. -1.
          5    1    1    2  502    0  0.20615683000E+02  0.70250527365E+02  0.27277216310E+03  0.28246572526E+03  0.47000000000E+01 0. -1.
         -5    1    1    2    0  502  0.26256000771E+02 -0.22303065024E+02  0.14021875927E+02  0.37490095898E+02  0.47000000000E+01 0. -1.
        -11    1    1    2    0    0  0.14588159304E+02 -0.34551687630E+02  0.19434860276E+03  0.19793436514E+03  0.00000000000E+00 0.  1.
         11    1    1    2    0    0 -0.61459843076E+02 -0.13395774711E+02  0.11158802531E+03  0.12809623915E+03  0.00000000000E+00 0. -1.
<mgrwt>
<rscale>  0 0.13391767E+03</rscale>
<asrwt>0</asrwt>
<pdfrwt beam="2">  1        1 0.40965973E-02 0.14184818E+03</pdfrwt>
<pdfrwt beam="1">  1       -1 0.95285919E-01 0.14184818E+03</pdfrwt>
<totfact> 0.23928983E+03</totfact>
</mgrwt>
</event>
<event>
 6    1  0.8353100E-006  0.1367711E+03  0.7546771E-02  0.1230481E+00
         -1   -1    0    0    0  501 -0.00000000000E+00  0.00000000000E+00  0.22084784200E+02  0.22084784200E+02  0.00000000000E+00 0.  1.
          1   -1    0    0  501    0  0.00000000000E+00 -0.00000000000E+00 -0.73199837835E+03  0.73199837835E+03  0.00000000000E+00 0. -1.
          5    1    1    2  502    0 -0.20115146821E+02  0.44158565097E+02 -0.29048920822E+03  0.29455163910E+03  0.47000000000E+01 0.  1.
         -5    1    1    2    0  502  0.73806702530E+02 -0.29981410328E+02 -0.22334444607E+03  0.23717324025E+03  0.47000000000E+01 0.  1.
        -11    1    1    2    0    0 -0.50828075328E+02  0.16374815578E+02 -0.50219673271E+02  0.73305139044E+02  0.00000000000E+00 0.  1.
         11    1    1    2    0    0 -0.28634803802E+01 -0.30551970347E+02 -0.14586026658E+03  0.14905314414E+03  0.00000000000E+00 0. -1.
<mgrwt>
<rscale>  0 0.12798213E+03</rscale>
<asrwt>0</asrwt>
<pdfrwt beam="2">  1        1 0.11261516E+00 0.13677106E+03</pdfrwt>
<pdfrwt beam="1">  1       -1 0.33976585E-02 0.13677106E+03</pdfrwt>
<totfact> 0.79662957E+03</totfact>
</mgrwt>
</event>
<event>
 6    1  0.8353100E-006  0.2645142E+03  0.7546771E-02  0.1104461E+00
          1   -1    0    0  501    0  0.00000000000E+00  0.00000000000E+00  0.74194937421E+02  0.74194937421E+02  0.00000000000E+00 0. -1.
         -1   -1    0    0    0  501 -0.00000000000E+00 -0.00000000000E+00 -0.23575649172E+03  0.23575649172E+03  0.00000000000E+00 0.  1.
          5    1    1    2  502    0 -0.10439386975E+03 -0.21068807606E+02 -0.68338048464E+02  0.12662603825E+03  0.47000000000E+01 0. -1.
         -5    1    1    2    0  502  0.35802742004E+02 -0.43900514110E+01 -0.41260529564E+02  0.55005728668E+02  0.47000000000E+01 0. -1.
        -11    1    1    2    0    0  0.14020872247E+02  0.34478273766E+02  0.16154160021E+02  0.40574537661E+02  0.00000000000E+00 0. -1.
         11    1    1    2    0    0  0.54570255499E+02 -0.90194147481E+01 -0.68117136289E+02  0.87745124559E+02  0.00000000000E+00 0.  1.
<mgrwt>
<rscale>  0 0.26451418E+03</rscale>
<asrwt>0</asrwt>
<pdfrwt beam="1">  1        1 0.11414606E-01 0.26451418E+03</pdfrwt>
<pdfrwt beam="2">  1       -1 0.36270229E-01 0.26451418E+03</pdfrwt>
<totfact> 0.39145388E+03</totfact>
</mgrwt>
</event>
<event>
 6    1  0.8353100E-006  0.3135368E+03  0.7546771E-02  0.1078663E+00
          1   -1    0    0  501    0  0.00000000000E+00  0.00000000000E+00  0.42900245280E+03  0.42900245280E+03  0.00000000000E+00 0. -1.
         -1   -1    0    0    0  501 -0.00000000000E+00 -0.00000000000E+00 -0.57287146908E+02  0.57287146908E+02  0.00000000000E+00 0.  1.
          5    1    1    2  502    0  0.62334923401E+01 -0.10087547260E+03  0.10616456803E+03  0.14665511551E+03  0.47000000000E+01 0. -1.
         -5    1    1    2    0  502 -0.13839797516E+01  0.37890094930E+01  0.18237795628E+03  0.18248309765E+03  0.47000000000E+01 0. -1.
        -11    1    1    2    0    0 -0.28145106154E+01  0.41225437709E+02  0.91725007822E+02  0.10060285903E+03  0.00000000000E+00 0. -1.
         11    1    1    2    0    0 -0.20350019730E+01  0.55861025398E+02 -0.85522262365E+01  0.56548527525E+02  0.00000000000E+00 0.  1.
<mgrwt>
<rscale>  0 0.31353677E+03</rscale>
<asrwt>0</asrwt>
<pdfrwt beam="1">  1        1 0.66000375E-01 0.31353677E+03</pdfrwt>
<pdfrwt beam="2">  1       -1 0.88134075E-02 0.31353677E+03</pdfrwt>
<totfact> 0.41013102E+03</totfact>
</mgrwt>
</event>
<event>
 6    1  0.8353100E-006  0.1475995E+03  0.7546771E-02  0.1211334E+00
         -1   -1    0    0    0  501 -0.00000000000E+00  0.00000000000E+00  0.27222611348E+02  0.27222611348E+02  0.00000000000E+00 0.  1.
          1   -1    0    0  501    0  0.00000000000E+00 -0.00000000000E+00 -0.68148081701E+03  0.68148081701E+03  0.00000000000E+00 0. -1.
          5    1    1    2  502    0 -0.96739736099E+02  0.22634806780E+02 -0.18341996840E+03  0.20865254809E+03  0.47000000000E+01 0.  1.
         -5    1    1    2    0  502  0.29735411378E+02  0.18224074928E+02 -0.18346327697E+03  0.18680785742E+03  0.47000000000E+01 0.  1.
        -11    1    1    2    0    0  0.14506214136E+02  0.31151203052E+02 -0.61942637068E+02  0.70835852413E+02  0.00000000000E+00 0.  1.
         11    1    1    2    0    0  0.52498110585E+02 -0.72010084760E+02 -0.22543232322E+03  0.24240717043E+03  0.00000000000E+00 0. -1.
<mgrwt>
<rscale>  0 0.14149268E+03</rscale>
<asrwt>0</asrwt>
<pdfrwt beam="2">  1        1 0.10484319E+00 0.14759951E+03</pdfrwt>
<pdfrwt beam="1">  1       -1 0.41880945E-02 0.14759951E+03</pdfrwt>
<totfact> 0.65221899E+03</totfact>
</mgrwt>
</event>
<event>
 6    1  0.8353100E-006  0.2898374E+03  0.7546771E-02  0.1128721E+00
          2   -1    0    0  501    0  0.00000000000E+00  0.00000000000E+00  0.15293904441E+04  0.15293904441E+04  0.00000000000E+00 0. -1.
         -2   -1    0    0    0  501 -0.00000000000E+00 -0.00000000000E+00 -0.26879170140E+02  0.26879170140E+02  0.00000000000E+00 0.  1.
          5    1    1    2  502    0  0.74752106014E+02  0.65661574767E+02  0.91632833982E+03  0.92172611774E+03  0.47000000000E+01 0. -1.
         -5    1    1    2    0  502 -0.12737152232E+03 -0.36134340072E+02  0.28834560755E+03  0.31732392697E+03  0.47000000000E+01 0.  1.
        -11    1    1    2    0    0  0.63425891546E+02 -0.36706812356E+02  0.29496431700E+03  0.30393121277E+03  0.00000000000E+00 0.  1.
         11    1    1    2    0    0 -0.10806475237E+02  0.71795776610E+01  0.28730096296E+01  0.13288356812E+02  0.00000000000E+00 0. -1.
<mgrwt>
<rscale>  0 0.22706787E+03</rscale>
<asrwt>0</asrwt>
<pdfrwt beam="1">  1        2 0.23529077E+00 0.28983736E+03</pdfrwt>
<pdfrwt beam="2">  1       -2 0.41352581E-02 0.28983736E+03</pdfrwt>
<totfact> 0.34387090E+03</totfact>
</mgrwt>
</event>
<event>
 6    1  0.8353100E-006  0.1298278E+03  0.7546771E-02  0.1242070E+00
          2   -1    0    0  501    0  0.00000000000E+00  0.00000000000E+00  0.38298313674E+03  0.38298313674E+03  0.00000000000E+00 0. -1.
         -2   -1    0    0    0  501 -0.00000000000E+00 -0.00000000000E+00 -0.33540298961E+02  0.33540298961E+02  0.00000000000E+00 0.  1.
          5    1    1    2  502    0 -0.66839252988E+02  0.20431016026E+02  0.87116990145E+02  0.11178717336E+03  0.47000000000E+01 0. -1.
         -5    1    1    2    0  502  0.55038510511E+02  0.12588569063E+02  0.11920137296E+03  0.13198017664E+03  0.47000000000E+01 0. -1.
        -11    1    1    2    0    0  0.30726793700E+02 -0.15790102851E+02  0.83077073736E+01  0.35531411468E+02  0.00000000000E+00 0.  1.
         11    1    1    2    0    0 -0.18926051222E+02 -0.17229482238E+02  0.13481676730E+03  0.13722467423E+03  0.00000000000E+00 0. -1.
<mgrwt>
<rscale>  0 0.12062450E+03</rscale>
<asrwt>0</asrwt>
<pdfrwt beam="1">  1        2 0.58920479E-01 0.12982779E+03</pdfrwt>
<pdfrwt beam="2">  1       -2 0.51600463E-02 0.12982779E+03</pdfrwt>
<totfact> 0.14669830E+04</totfact>
</mgrwt>
</event>
<event>
 6    1  0.8353100E-006  0.1262646E+03  0.7546771E-02  0.1248405E+00
         -2   -1    0    0    0  501 -0.00000000000E+00  0.00000000000E+00  0.77030616773E+02  0.77030616773E+02  0.00000000000E+00 0. -1.
          2   -1    0    0  501    0  0.00000000000E+00 -0.00000000000E+00 -0.16692278858E+03  0.16692278858E+03  0.00000000000E+00 0.  1.
          5    1    1    2  502    0 -0.31648561119E+02 -0.61311496027E+01  0.20801960275E+02  0.38652735578E+02  0.47000000000E+01 0. -1.
         -5    1    1    2    0  502  0.42153534943E+02 -0.82336494124E+01 -0.10383926270E+03  0.11246953352E+03  0.47000000000E+01 0. -1.
        -11    1    1    2    0    0  0.48248141776E+00 -0.22475512679E+02 -0.37463095821E+02  0.43690559702E+02  0.00000000000E+00 0.  1.
         11    1    1    2    0    0 -0.10987455242E+02  0.36840311694E+02  0.30608226442E+02  0.49140576557E+02  0.00000000000E+00 0. -1.
<mgrwt>
<rscale>  0 0.11683899E+03</rscale>
<asrwt>0</asrwt>
<pdfrwt beam="2">  1        2 0.25680429E-01 0.12626459E+03</pdfrwt>
<pdfrwt beam="1">  1       -2 0.11850864E-01 0.12626459E+03</pdfrwt>
<totfact> 0.98622934E+03</totfact>
</mgrwt>
</event>
<event>
 6    1  0.8353100E-006  0.2798886E+03  0.7546771E-02  0.1095750E+00
         -1   -1    0    0    0  501 -0.00000000000E+00  0.00000000000E+00  0.14813658604E+03  0.14813658604E+03  0.00000000000E+00 0.  1.
          1   -1    0    0  501    0  0.00000000000E+00 -0.00000000000E+00 -0.13220509646E+03  0.13220509646E+03  0.00000000000E+00 0. -1.
          5    1    1    2  502    0  0.27429789953E+01  0.17475861791E+02 -0.43347605393E+02  0.47053528799E+02  0.47000000000E+01 0. -1.
         -5    1    1    2    0  502 -0.92083742646E+02 -0.19562284092E+02  0.22384424232E+02  0.96877505473E+02  0.47000000000E+01 0.  1.
        -11    1    1    2    0    0  0.80249796574E+02 -0.24218427686E+02 -0.73437490012E+01  0.84145663816E+02  0.00000000000E+00 0.  1.
         11    1    1    2    0    0  0.90909670768E+01  0.26304849987E+02  0.44238419742E+02  0.52264984421E+02  0.00000000000E+00 0. -1.
<mgrwt>
<rscale>  0 0.27988863E+03</rscale>
<asrwt>0</asrwt>
<pdfrwt beam="2">  1        1 0.20339246E-01 0.27988863E+03</pdfrwt>
<pdfrwt beam="1">  1       -1 0.22790244E-01 0.27988863E+03</pdfrwt>
<totfact> 0.40393884E+03</totfact>
</mgrwt>
</event>
<event>
 6    1  0.1020921E-005  0.1469826E+03  0.7546771E-02  0.1214384E+00
          3   -1    0    0  501    0  0.00000000000E+00  0.00000000000E+00  0.24573447183E+03  0.24573447183E+03  0.00000000000E+00 0. -1.
         -3   -1    0    0    0  501 -0.00000000000E+00 -0.00000000000E+00 -0.79297328064E+02  0.79297328064E+02  0.00000000000E+00 0.  1.
          5    1    1    2  502    0 -0.55891136262E+01 -0.44190766355E+02 -0.87210020836E+01  0.45631216284E+02  0.47000000000E+01 0.  1.
         -5    1    1    2    0  502 -0.48606784744E+02 -0.10961503258E+02  0.15043556656E+03  0.15854249829E+03  0.47000000000E+01 0.  1.
        -11    1    1    2    0    0 -0.12636587694E+02  0.33072909115E+02 -0.16745810927E+02  0.39165327134E+02  0.00000000000E+00 0.  1.
         11    1    1    2    0    0  0.66832486064E+02  0.22079360498E+02  0.41468390218E+02  0.81692758191E+02  0.00000000000E+00 0. -1.
<mgrwt>
<rscale>  0 0.13921881E+03</rscale>
<asrwt>0</asrwt>
<pdfrwt beam="1">  1        3 0.37805303E-01 0.14698261E+03</pdfrwt>
<pdfrwt beam="2">  1       -3 0.12199589E-01 0.14698261E+03</pdfrwt>
<totfact> 0.85558845E+02</totfact>
</mgrwt>
</event>
<event>
 6    1  0.8353100E-006  0.1251090E+03  0.7546771E-02  0.1250759E+00
         -2   -1    0    0    0  501 -0.00000000000E+00  0.00000000000E+00  0.45809042224E+02  0.45809042224E+02  0.00000000000E+00 0.  1.
          2   -1    0    0  501    0  0.00000000000E+00 -0.00000000000E+00 -0.25578981924E+03  0.25578981924E+03  0.00000000000E+00 0. -1.
          5    1    1    2  502    0 -0.41143377750E+02 -0.41579197074E+02 -0.72083142864E+02  0.92949860931E+02  0.47000000000E+01 0. -1.
         -5    1    1    2    0  502  0.42420598124E+02  0.46643770163E+02 -0.38483997594E+02  0.74015245126E+02  0.47000000000E+01 0. -1.
        -11    1    1    2    0    0  0.38020340573E+02 -0.15729937873E+02 -0.20809160573E+02  0.46108550254E+02  0.00000000000E+00 0.  1.
         11    1    1    2    0    0 -0.39297560947E+02  0.10665364784E+02 -0.78604475986E+02  0.88525205153E+02  0.00000000000E+00 0. -1.
<mgrwt>
<rscale>  0 0.11547239E+03</rscale>
<asrwt>0</asrwt>
<pdfrwt beam="2">  1        2 0.39352279E-01 0.12510897E+03</pdfrwt>
<pdfrwt beam="1">  1       -2 0.70475451E-02 0.12510897E+03</pdfrwt>
<totfact> 0.13984302E+04</totfact>
</mgrwt>
</event>
<event>
 6    1  0.8353100E-006  0.1314001E+03  0.7546771E-02  0.1239443E+00
          1   -1    0    0  501    0  0.00000000000E+00  0.00000000000E+00  0.99082409203E+03  0.99082409203E+03  0.00000000000E+00 0. -1.
         -1   -1    0    0    0  501 -0.00000000000E+00 -0.00000000000E+00 -0.18212077104E+02  0.18212077104E+02  0.00000000000E+00 0.  1.
          5    1    1    2  502    0 -0.63634604261E+01 -0.83072919615E+01  0.14228660799E+01  0.11559380442E+02  0.47000000000E+01 0.  1.
         -5    1    1    2    0  502 -0.28690361999E+01 -0.31099530298E+02  0.79526393349E+03  0.79589083803E+03  0.47000000000E+01 0.  1.
        -11    1    1    2    0    0  0.19918548787E+02  0.31453950607E+02  0.18282993791E+03  0.18658211541E+03  0.00000000000E+00 0. -1.
         11    1    1    2    0    0 -0.10686052161E+02  0.79528716525E+01 -0.69047225618E+01  0.15003835242E+02  0.00000000000E+00 0.  1.
<mgrwt>
<rscale>  0 0.12224237E+03</rscale>
<asrwt>0</asrwt>
<pdfrwt beam="1">  1        1 0.15243443E+00 0.13140015E+03</pdfrwt>
<pdfrwt beam="2">  1       -1 0.28018588E-02 0.13140015E+03</pdfrwt>
<totfact> 0.65764523E+03</totfact>
</mgrwt>
</event>
<event>
 6    1  0.8353100E-006  0.1399204E+03  0.7546771E-02  0.1225801E+00
         -1   -1    0    0    0  501 -0.00000000000E+00  0.00000000000E+00  0.50747532020E+02  0.50747532020E+02  0.00000000000E+00 0.  1.
          1   -1    0    0  501    0  0.00000000000E+00 -0.00000000000E+00 -0.30458558940E+03  0.30458558940E+03  0.00000000000E+00 0. -1.
          5    1    1    2  502    0 -0.48070638567E+02  0.77179367458E+02 -0.12326749697E+03  0.15324622952E+03  0.47000000000E+01 0.  1.
         -5    1    1    2    0  502 -0.62309233825E+01 -0.45451483029E+02 -0.34263896425E+02  0.57452295985E+02  0.47000000000E+01 0.  1.
        -11    1    1    2    0    0  0.17045522338E+02 -0.41080219921E+01 -0.96678565431E+02  0.98255639483E+02  0.00000000000E+00 0. -1.
         11    1    1    2    0    0  0.37256039612E+02 -0.27619862437E+02  0.37190144816E+00  0.46378956427E+02  0.00000000000E+00 0.  1.
<mgrwt>
<rscale>  0 0.13112169E+03</rscale>
<asrwt>0</asrwt>
<pdfrwt beam="2">  1        1 0.46859322E-01 0.13992044E+03</pdfrwt>
<pdfrwt beam="1">  1       -1 0.78073125E-02 0.13992044E+03</pdfrwt>
<totfact> 0.73262304E+03</totfact>
</mgrwt>
</event>
<event>
 6    1  0.8353100E-006  0.1411068E+03  0.7546771E-02  0.1227207E+00
         -1   -1    0    0    0  501 -0.00000000000E+00  0.00000000000E+00  0.11635482624E+03  0.11635482624E+03  0.00000000000E+00 0.  1.
          1   -1    0    0  501    0  0.00000000000E+00 -0.00000000000E+00 -0.13157136510E+03  0.13157136510E+03  0.00000000000E+00 0. -1.
          5    1    1    2  502    0 -0.31854614399E+01 -0.49511856958E+02  0.24862356741E+02  0.55693787146E+02  0.47000000000E+01 0. -1.
         -5    1    1    2    0  502 -0.39707234612E+02  0.56124910841E+02 -0.56027694359E+02  0.88813639902E+02  0.47000000000E+01 0.  1.
        -11    1    1    2    0    0 -0.22620858785E+02 -0.25261064596E+02  0.80058435040E+01  0.34841328432E+02  0.00000000000E+00 0.  1.
         11    1    1    2    0    0  0.65513554837E+02  0.18648010713E+02  0.79429552526E+01  0.68577435860E+02  0.00000000000E+00 0. -1.
<mgrwt>
<rscale>  0 0.13016794E+03</rscale>
<asrwt>0</asrwt>
<pdfrwt beam="2">  1        1 0.20241748E-01 0.14110676E+03</pdfrwt>
<pdfrwt beam="1">  1       -1 0.17900743E-01 0.14110676E+03</pdfrwt>
<totfact> 0.57977731E+03</totfact>
</mgrwt>
</event>
<event>
 6    1  0.8353100E-006  0.1538328E+03  0.7546771E-02  0.1203129E+00
         -2   -1    0    0    0  501 -0.00000000000E+00  0.00000000000E+00  0.80449147683E+02  0.80449147683E+02  0.00000000000E+00 0.  1.
          2   -1    0    0  501    0  0.00000000000E+00 -0.00000000000E+00 -0.30734572616E+03  0.30734572616E+03  0.00000000000E+00 0. -1.
          5    1    1    2  502    0 -0.48767260230E+02 -0.66112984722E+01 -0.55519608652E+02  0.74340244032E+02  0.47000000000E+01 0.  1.
         -5    1    1    2    0  502  0.63819687968E+02 -0.81789111992E+02 -0.14689905964E+03  0.17989951400E+03  0.47000000000E+01 0.  1.
        -11    1    1    2    0    0  0.28254805542E+02  0.22459091043E+02  0.21727884701E+02  0.42128918575E+02  0.00000000000E+00 0.  1.
         11    1    1    2    0    0 -0.43307233280E+02  0.65941319421E+02 -0.46205794887E+02  0.91426197244E+02  0.00000000000E+00 0. -1.
<mgrwt>
<rscale>  0 0.14785874E+03</rscale>
<asrwt>0</asrwt>
<pdfrwt beam="2">  1        2 0.47283957E-01 0.15383282E+03</pdfrwt>
<pdfrwt beam="1">  1       -2 0.12376792E-01 0.15383282E+03</pdfrwt>
<totfact> 0.48380316E+03</totfact>
</mgrwt>
</event>
<event>
 6    1  0.8353100E-006  0.1307735E+03  0.7546771E-02  0.1239278E+00
         -1   -1    0    0    0  501 -0.00000000000E+00  0.00000000000E+00  0.27332131019E+02  0.27332131019E+02  0.00000000000E+00 0.  1.
          1   -1    0    0  501    0  0.00000000000E+00 -0.00000000000E+00 -0.57742566436E+03  0.57742566436E+03  0.00000000000E+00 0. -1.
          5    1    1    2  502    0 -0.24764994793E+02  0.29350515695E+02 -0.44182391818E+02  0.58727604118E+02  0.47000000000E+01 0. -1.
         -5    1    1    2    0  502  0.60670858950E+02 -0.15678498413E+02 -0.37983552596E+03  0.38499855223E+03  0.47000000000E+01 0. -1.
        -11    1    1    2    0    0 -0.59425121200E+02  0.14386799712E+02 -0.95176320888E+02  0.11312319432E+03  0.00000000000E+00 0. -1.
         11    1    1    2    0    0  0.23519257042E+02 -0.28058816994E+02 -0.30899294669E+02  0.47908444704E+02  0.00000000000E+00 0.  1.
<mgrwt>
<rscale>  0 0.12234482E+03</rscale>
<asrwt>0</asrwt>
<pdfrwt beam="2">  1        1 0.88834717E-01 0.13077350E+03</pdfrwt>
<pdfrwt beam="1">  1       -1 0.42049432E-02 0.13077350E+03</pdfrwt>
<totfact> 0.80943380E+03</totfact>
</mgrwt>
</event>
<event>
 6    1  0.8353100E-006  0.1770098E+03  0.7546771E-02  0.1175755E+00
         -1   -1    0    0    0  501 -0.00000000000E+00  0.00000000000E+00  0.15676198102E+03  0.15676198102E+03  0.00000000000E+00 0.  1.
          1   -1    0    0  501    0  0.00000000000E+00 -0.00000000000E+00 -0.17949390970E+03  0.17949390970E+03  0.00000000000E+00 0. -1.
          5    1    1    2  502    0 -0.71043036562E+02 -0.18027757146E+02 -0.29461923324E+02  0.79134113994E+02  0.47000000000E+01 0. -1.
         -5    1    1    2    0  502  0.12845486518E+02 -0.92975675227E+02  0.27394117104E+02  0.97887743665E+02  0.47000000000E+01 0. -1.
        -11    1    1    2    0    0  0.60242325730E+02  0.77522310406E+02  0.26189652493E+02  0.10161074903E+03  0.00000000000E+00 0.  1.
         11    1    1    2    0    0 -0.20447756853E+01  0.33481121967E+02 -0.46853774956E+02  0.57623284039E+02  0.00000000000E+00 0. -1.
<mgrwt>
<rscale>  0 0.17202236E+03</rscale>
<asrwt>0</asrwt>
<pdfrwt beam="2">  1        1 0.27614448E-01 0.17700978E+03</pdfrwt>
<pdfrwt beam="1">  1       -1 0.24117228E-01 0.17700978E+03</pdfrwt>
<totfact> 0.24448167E+03</totfact>
</mgrwt>
</event>
<event>
 6    1  0.8353100E-006  0.2817364E+03  0.7546771E-02  0.1094744E+00
          4   -1    0    0  501    0  0.00000000000E+00  0.00000000000E+00  0.96591214666E+02  0.96591214666E+02  0.00000000000E+00 0. -1.
         -4   -1    0    0    0  501 -0.00000000000E+00 -0.00000000000E+00 -0.20544154872E+03  0.20544154872E+03  0.00000000000E+00 0.  1.
          5    1    1    2  502    0  0.12112937184E+02 -0.34109770360E+02 -0.10800989292E+02  0.38065089661E+02  0.47000000000E+01 0.  1.
         -5    1    1    2    0  502  0.13833346989E+02  0.11061687450E+03 -0.64929196775E+01  0.11176628480E+03  0.47000000000E+01 0.  1.
        -11    1    1    2    0    0  0.32605497405E+02 -0.36845537626E+02 -0.25440733195E+02  0.55389015242E+02  0.00000000000E+00 0.  1.
         11    1    1    2    0    0 -0.58551781578E+02 -0.39661566511E+02 -0.66115691892E+02  0.96812373684E+02  0.00000000000E+00 0. -1.
<mgrwt>
<rscale>  0 0.28173639E+03</rscale>
<asrwt>0</asrwt>
<pdfrwt beam="1">  1        4 0.14860187E-01 0.28173639E+03</pdfrwt>
<pdfrwt beam="2">  1       -4 0.31606392E-01 0.28173639E+03</pdfrwt>
<totfact> 0.69373957E+02</totfact>
</mgrwt>
</event>
<event>
 6    1  0.8353100E-006  0.2995199E+03  0.7546771E-02  0.1085481E+00
         -2   -1    0    0    0  501 -0.00000000000E+00  0.00000000000E+00  0.43619733241E+03  0.43619733241E+03  0.00000000000E+00 0. -1.
          2   -1    0    0  501    0  0.00000000000E+00 -0.00000000000E+00 -0.51417208726E+02  0.51417208726E+02  0.00000000000E+00 0.  1.
          5    1    1    2  502    0  0.56664204820E+02  0.10055109233E+03  0.17966685246E+03  0.21359686830E+03  0.47000000000E+01 0. -1.
         -5    1    1    2    0  502 -0.23278871875E+02 -0.48217633266E+01 -0.41179617766E+01  0.24580538776E+02  0.47000000000E+01 0. -1.
        -11    1    1    2    0    0  0.63705022959E+01 -0.34604130056E+02  0.89653816463E+01  0.36309877230E+02  0.00000000000E+00 0.  1.
         11    1    1    2    0    0 -0.39755835241E+02 -0.61125198949E+02  0.20026585135E+03  0.21312725682E+03  0.00000000000E+00 0. -1.
<mgrwt>
<rscale>  0 0.29951994E+03</rscale>
<asrwt>0</asrwt>
<pdfrwt beam="2">  1        2 0.79103401E-02 0.29951994E+03</pdfrwt>
<pdfrwt beam="1">  1       -2 0.67107279E-01 0.29951994E+03</pdfrwt>
<totfact> 0.18035048E+03</totfact>
</mgrwt>
</event>
<event>
 6    1  0.8353100E-006  0.3150410E+03  0.7546771E-02  0.1077954E+00
         -2   -1    0    0    0  501 -0.00000000000E+00  0.00000000000E+00  0.40890075227E+02  0.40890075227E+02  0.00000000000E+00 0.  1.
          2   -1    0    0  501    0  0.00000000000E+00 -0.00000000000E+00 -0.60681482156E+03  0.60681482156E+03  0.00000000000E+00 0. -1.
          5    1    1    2  502    0 -0.15136709854E+02  0.19816059496E+02 -0.29306013899E+03  0.29415664409E+03  0.47000000000E+01 0. -1.
         -5    1    1    2    0  502 -0.83991850168E+02  0.92583340717E+01 -0.99741595730E+02  0.13080834669E+03  0.47000000000E+01 0. -1.
        -11    1    1    2    0    0  0.52344637836E+02  0.28395010104E+02 -0.44662972361E+02  0.74438019917E+02  0.00000000000E+00 0.  1.
         11    1    1    2    0    0  0.46783922186E+02 -0.57469403671E+02 -0.12846003925E+03  0.14830188609E+03  0.00000000000E+00 0. -1.
<mgrwt>
<rscale>  0 0.31504097E+03</rscale>
<asrwt>0</asrwt>
<pdfrwt beam="2">  1        2 0.93356130E-01 0.31504097E+03</pdfrwt>
<pdfrwt beam="1">  1       -2 0.62907806E-02 0.31504097E+03</pdfrwt>
<totfact> 0.68570358E+03</totfact>
</mgrwt>
</event>
<event>
 6    1  0.8353100E-006  0.1686741E+03  0.7546771E-02  0.1185694E+00
         -4   -1    0    0    0  501 -0.00000000000E+00  0.00000000000E+00  0.11054996092E+03  0.11054996092E+03  0.00000000000E+00 0.  1.
          4   -1    0    0  501    0  0.00000000000E+00 -0.00000000000E+00 -0.26449550932E+03  0.26449550932E+03  0.00000000000E+00 0. -1.
          5    1    1    2  502    0 -0.69467716063E+02 -0.85713091059E+02 -0.62937959135E+02  0.12710536674E+03  0.47000000000E+01 0.  1.
         -5    1    1    2    0  502  0.37148547823E+02 -0.22833071298E+02 -0.92044694339E+02  0.10195920511E+03  0.47000000000E+01 0.  1.
        -11    1    1    2    0    0  0.29794066150E+02  0.12217893673E+03  0.14577464704E+02  0.12660126948E+03  0.00000000000E+00 0.  1.
         11    1    1    2    0    0  0.25251020894E+01 -0.13632774370E+02 -0.13540359626E+02  0.19379628902E+02  0.00000000000E+00 0. -1.
<mgrwt>
<rscale>  0 0.16268877E+03</rscale>
<asrwt>0</asrwt>
<pdfrwt beam="2">  1        4 0.40691617E-01 0.16867411E+03</pdfrwt>
<pdfrwt beam="1">  1       -4 0.17007686E-01 0.16867411E+03</pdfrwt>
<totfact> 0.30694298E+02</totfact>
</mgrwt>
</event>
<event>
 6    1  0.8353100E-006  0.3003969E+03  0.7546771E-02  0.1085042E+00
         -1   -1    0    0    0  501 -0.00000000000E+00  0.00000000000E+00  0.14377920898E+02  0.14377920898E+02  0.00000000000E+00 0.  1.
          1   -1    0    0  501    0  0.00000000000E+00 -0.00000000000E+00 -0.15690424628E+04  0.15690424628E+04  0.00000000000E+00 0. -1.
          5    1    1    2  502    0  0.86901025709E+01 -0.26946843188E+02 -0.29255342894E+03  0.29395790349E+03  0.47000000000E+01 0. -1.
         -5    1    1    2    0  502 -0.31540187410E+02  0.12132839593E+03 -0.70436363330E+03  0.71544781850E+03  0.47000000000E+01 0. -1.
        -11    1    1    2    0    0 -0.31776496499E+02 -0.32735152685E+02 -0.11590558878E+03  0.12456099494E+03  0.00000000000E+00 0. -1.
         11    1    1    2    0    0  0.54626581338E+02 -0.61646400054E+02 -0.44184189089E+03  0.44945366677E+03  0.00000000000E+00 0.  1.
<mgrwt>
<rscale>  0 0.30039686E+03</rscale>
<asrwt>0</asrwt>
<pdfrwt beam="2">  1        1 0.24139116E+00 0.30039686E+03</pdfrwt>
<pdfrwt beam="1">  1       -1 0.22119877E-02 0.30039686E+03</pdfrwt>
<totfact> 0.38124013E+03</totfact>
</mgrwt>
</event>
<event>
 6    1  0.1003015E-005  0.1650858E+03  0.7546771E-02  0.1189908E+00
         -3   -1    0    0    0  501 -0.00000000000E+00  0.00000000000E+00  0.10656600009E+03  0.10656600009E+03  0.00000000000E+00 0.  1.
          3   -1    0    0  501    0  0.00000000000E+00 -0.00000000000E+00 -0.22340117134E+03  0.22340117134E+03  0.00000000000E+00 0. -1.
          5    1    1    2  502    0 -0.10330758440E+02  0.11040223541E+03 -0.34267194979E+02  0.11615381528E+03  0.47000000000E+01 0.  1.
         -5    1    1    2    0  502 -0.45637996183E+02 -0.18228950552E+02 -0.45728700234E+02  0.67292832894E+02  0.47000000000E+01 0.  1.
        -11    1    1    2    0    0  0.25844346406E+02 -0.10564425218E+03 -0.26531695941E+02  0.11194895779E+03  0.00000000000E+00 0.  1.
         11    1    1    2    0    0  0.30124408217E+02  0.13470967326E+02 -0.10307580097E+02  0.34571565463E+02  0.00000000000E+00 0. -1.
<mgrwt>
<rscale>  0 0.15893220E+03</rscale>
<asrwt>0</asrwt>
<pdfrwt beam="2">  1        3 0.34369411E-01 0.16508582E+03</pdfrwt>
<pdfrwt beam="1">  1       -3 0.16394769E-01 0.16508582E+03</pdfrwt>
<totfact> 0.62976993E+02</totfact>
</mgrwt>
</event>
<event>
 6    1  0.8353100E-006  0.3704023E+03  0.7546771E-02  0.1055454E+00
          2   -1    0    0  501    0  0.00000000000E+00  0.00000000000E+00  0.12170631546E+04  0.12170631546E+04  0.00000000000E+00 0. -1.
         -2   -1    0    0    0  501 -0.00000000000E+00 -0.00000000000E+00 -0.12788583768E+03  0.12788583768E+03  0.00000000000E+00 0.  1.
          5    1    1    2  502    0 -0.85253062568E+02 -0.88323362388E+02  0.15680937105E+03  0.19919932196E+03  0.47000000000E+01 0. -1.
         -5    1    1    2    0  502 -0.12151497544E+03 -0.19242533329E+03  0.64620933668E+03  0.68512918122E+03  0.47000000000E+01 0. -1.
        -11    1    1    2    0    0  0.16115583196E+03  0.22665078241E+03  0.27089107634E+03  0.38823157339E+03  0.00000000000E+00 0. -1.
         11    1    1    2    0    0  0.45612206051E+02  0.54097913266E+02  0.15267532869E+02  0.72388915729E+02  0.00000000000E+00 0.  1.
<mgrwt>
<rscale>  0 0.36801611E+03</rscale>
<asrwt>0</asrwt>
<pdfrwt beam="1">  1        2 0.18724048E+00 0.37040229E+03</pdfrwt>
<pdfrwt beam="2">  1       -2 0.19674745E-01 0.37040229E+03</pdfrwt>
<totfact> 0.42045919E+02</totfact>
</mgrwt>
</event>
<event>
 6    1  0.8353100E-006  0.1827265E+03  0.7546771E-02  0.1220985E+00
         -1   -1    0    0    0  501 -0.00000000000E+00  0.00000000000E+00  0.93767843449E+02  0.93767843449E+02  0.00000000000E+00 0.  1.
          1   -1    0    0  501    0  0.00000000000E+00 -0.00000000000E+00 -0.16286827254E+03  0.16286827254E+03  0.00000000000E+00 0. -1.
          5    1    1    2  502    0  0.13110990840E+02  0.22050630808E+02  0.45620055519E+02  0.52549099567E+02  0.47000000000E+01 0. -1.
         -5    1    1    2    0  502 -0.48962696786E+02 -0.53528225212E+02 -0.12950217741E+03  0.14851101146E+03  0.47000000000E+01 0.  1.
        -11    1    1    2    0    0  0.22600162810E+02  0.41908596815E+01  0.90613733994E+01  0.24707066839E+02  0.00000000000E+00 0.  1.
         11    1    1    2    0    0  0.13251543136E+02  0.27286734723E+02  0.57203193933E+01  0.30868938130E+02  0.00000000000E+00 0. -1.
<mgrwt>
<rscale>  0 0.13445903E+03</rscale>
<asrwt>0</asrwt>
<pdfrwt beam="2">  1        1 0.25056657E-01 0.18272646E+03</pdfrwt>
<pdfrwt beam="1">  1       -1 0.14425822E-01 0.18272646E+03</pdfrwt>
<totfact> 0.63248861E+03</totfact>
</mgrwt>
</event>
<event>
 6    1  0.8353100E-006  0.1260744E+03  0.7546771E-02  0.1247515E+00
          2   -1    0    0  501    0  0.00000000000E+00  0.00000000000E+00  0.18431555369E+03  0.18431555369E+03  0.00000000000E+00 0. -1.
         -2   -1    0    0    0  501 -0.00000000000E+00 -0.00000000000E+00 -0.67867177002E+02  0.67867177002E+02  0.00000000000E+00 0.  1.
          5    1    1    2  502    0 -0.48981178708E+02 -0.23097983291E+02  0.15576196646E+02  0.56545385327E+02  0.47000000000E+01 0.  1.
         -5    1    1    2    0  502  0.51775625193E+02  0.39386535231E+02  0.70894327949E+02  0.96333328900E+02  0.47000000000E+01 0.  1.
        -11    1    1    2    0    0 -0.45272931593E+02 -0.94490070241E+01 -0.10452929760E+01  0.46260292975E+02  0.00000000000E+00 0.  1.
         11    1    1    2    0    0  0.42478485108E+02 -0.68395449163E+01  0.31023145070E+02  0.53043723491E+02  0.00000000000E+00 0. -1.
<mgrwt>
<rscale>  0 0.11736118E+03</rscale>
<asrwt>0</asrwt>
<pdfrwt beam="1">  1        2 0.28356239E-01 0.12607438E+03</pdfrwt>
<pdfrwt beam="2">  1       -2 0.10441104E-01 0.12607438E+03</pdfrwt>
<totfact> 0.10814047E+04</totfact>
</mgrwt>
</event>
<event>
 6    1  0.8353100E-006  0.2881653E+03  0.7546771E-02  0.1091311E+00
         -1   -1    0    0    0  501 -0.00000000000E+00  0.00000000000E+00  0.18812659473E+02  0.18812659473E+02  0.00000000000E+00 0.  1.
          1   -1    0    0  501    0  0.00000000000E+00 -0.00000000000E+00 -0.11035021172E+04  0.11035021172E+04  0.00000000000E+00 0. -1.
          5    1    1    2  502    0  0.55563233718E+01  0.17140059775E+02 -0.73566958318E+03  0.73590521128E+03  0.47000000000E+01 0. -1.
         -5    1    1    2    0  502 -0.55015192435E+02  0.13291374392E+02 -0.11852711874E+03  0.13143097013E+03  0.47000000000E+01 0.  1.
        -11    1    1    2    0    0  0.46478787729E+02  0.39207522951E+01 -0.20945610471E+03  0.21458683512E+03  0.00000000000E+00 0. -1.
         11    1    1    2    0    0  0.29800813347E+01 -0.34352186462E+02 -0.21036651143E+02  0.40391760184E+02  0.00000000000E+00 0.  1.
<mgrwt>
<rscale>  0 0.28816530E+03</rscale>
<asrwt>0</asrwt>
<pdfrwt beam="2">  1        1 0.16976960E+00 0.28816530E+03</pdfrwt>
<pdfrwt beam="1">  1       -1 0.28942546E-02 0.28816530E+03</pdfrwt>
<totfact> 0.53404050E+03</totfact>
</mgrwt>
</event>
<event>
 6    1  0.8353100E-006  0.2632121E+03  0.7546771E-02  0.1107295E+00
          1   -1    0    0  501    0  0.00000000000E+00  0.00000000000E+00  0.13050925687E+03  0.13050925687E+03  0.00000000000E+00 0. -1.
         -1   -1    0    0    0  501 -0.00000000000E+00 -0.00000000000E+00 -0.52180396560E+03  0.52180396560E+03  0.00000000000E+00 0.  1.
          5    1    1    2  502    0 -0.11937429353E+03  0.69994208464E+02 -0.16327342843E+02  0.13942052682E+03  0.47000000000E+01 0. -1.
         -5    1    1    2    0  502 -0.99052979251E+02  0.71058138542E+01 -0.12376650349E+03  0.15875207927E+03  0.47000000000E+01 0. -1.
        -11    1    1    2    0    0  0.10955105477E+03  0.75671027490E+01 -0.13318954649E+03  0.17262140638E+03  0.00000000000E+00 0.  1.
         11    1    1    2    0    0  0.10887621801E+03 -0.84667125067E+02 -0.11801131591E+03  0.18151921000E+03  0.00000000000E+00 0. -1.
<mgrwt>
<rscale>  0 0.25974808E+03</rscale>
<asrwt>0</asrwt>
<pdfrwt beam="1">  1        1 0.20078347E-01 0.26321211E+03</pdfrwt>
<pdfrwt beam="2">  1       -1 0.80277535E-01 0.26321211E+03</pdfrwt>
<totfact> 0.41285587E+02</totfact>
</mgrwt>
</event>
<event>
 6    1  0.8353100E-006  0.1521769E+03  0.7546771E-02  0.1206817E+00
         -2   -1    0    0    0  501 -0.00000000000E+00  0.00000000000E+00  0.15291438629E+02  0.15291438629E+02  0.00000000000E+00 0.  1.
          2   -1    0    0  501    0  0.00000000000E+00 -0.00000000000E+00 -0.12850682575E+04  0.12850682575E+04  0.00000000000E+00 0. -1.
          5    1    1    2  502    0 -0.71575779331E+02 -0.43987998256E+02 -0.27389238244E+03  0.28652602558E+03  0.47000000000E+01 0.  1.
         -5    1    1    2    0  502 -0.15172049768E+02  0.41566767490E+02 -0.51436767440E+03  0.51628885493E+03  0.47000000000E+01 0.  1.
        -11    1    1    2    0    0  0.78432639283E+02  0.24771873117E+02 -0.45283423035E+03  0.46024359287E+03  0.00000000000E+00 0. -1.
         11    1    1    2    0    0  0.83151898171E+01 -0.22350642352E+02 -0.28682531704E+02  0.37301222770E+02  0.00000000000E+00 0.  1.
<mgrwt>
<rscale>  0 0.14495158E+03</rscale>
<asrwt>0</asrwt>
<pdfrwt beam="2">  1        2 0.19770289E+00 0.15217692E+03</pdfrwt>
<pdfrwt beam="1">  1       -2 0.23525280E-02 0.15217692E+03</pdfrwt>
<totfact> 0.10608292E+04</totfact>
</mgrwt>
</event>
<event>
 6    1  0.8353100E-006  0.1313545E+03  0.7546771E-02  0.1238451E+00
          1   -1    0    0  501    0  0.00000000000E+00  0.00000000000E+00  0.73782855364E+03  0.73782855364E+03  0.00000000000E+00 0. -1.
         -1   -1    0    0    0  501 -0.00000000000E+00 -0.00000000000E+00 -0.21790763169E+02  0.21790763169E+02  0.00000000000E+00 0.  1.
          5    1    1    2  502    0 -0.31253247979E+01  0.56380994781E+02  0.51068314209E+03  0.51381703538E+03  0.47000000000E+01 0. -1.
         -5    1    1    2    0  502  0.24735672329E+02 -0.22296324817E+02  0.39732359219E+02  0.52055066564E+02  0.47000000000E+01 0. -1.
        -11    1    1    2    0    0  0.28006838628E+02 -0.38915640034E+02  0.58837433112E+02  0.75898969587E+02  0.00000000000E+00 0.  1.
         11    1    1    2    0    0 -0.49617186160E+02  0.48309700701E+01  0.10678485604E+03  0.11784824527E+03  0.00000000000E+00 0. -1.
<mgrwt>
<rscale>  0 0.12286066E+03</rscale>
<asrwt>0</asrwt>
<pdfrwt beam="1">  1        1 0.11351207E+00 0.13135453E+03</pdfrwt>
<pdfrwt beam="2">  1       -1 0.33524257E-02 0.13135453E+03</pdfrwt>
<totfact> 0.80117921E+03</totfact>
</mgrwt>
</event>
<event>
 6    1  0.8353100E-006  0.3085212E+03  0.7546771E-02  0.1104632E+00
          2   -1    0    0  501    0  0.00000000000E+00  0.00000000000E+00  0.19798197609E+03  0.19798197609E+03  0.00000000000E+00 0. -1.
         -2   -1    0    0    0  501 -0.00000000000E+00 -0.00000000000E+00 -0.38663877594E+03  0.38663877594E+03  0.00000000000E+00 0.  1.
          5    1    1    2  502    0 -0.78591172344E+02  0.16678238890E+03  0.10717450076E+03  0.21331057459E+03  0.47000000000E+01 0. -1.
         -5    1    1    2    0  502  0.42631204898E+02 -0.39678324206E+02 -0.77026969207E+02  0.96680054965E+02  0.47000000000E+01 0.  1.
        -11    1    1    2    0    0  0.68411978820E+02 -0.58841173363E+02 -0.12488802061E+03  0.15407628053E+03  0.00000000000E+00 0. -1.
         11    1    1    2    0    0 -0.32452011374E+02 -0.68262891332E+02 -0.93916310793E+02  0.12055384195E+03  0.00000000000E+00 0.  1.
<mgrwt>
<rscale>  0 0.26422371E+03</rscale>
<asrwt>0</asrwt>
<pdfrwt beam="1">  1        2 0.30458766E-01 0.30852118E+03</pdfrwt>
<pdfrwt beam="2">  1       -2 0.59482888E-01 0.30852118E+03</pdfrwt>
<totfact> 0.46607594E+02</totfact>
</mgrwt>
</event>
<event>
 6    1  0.8353100E-006  0.1404696E+03  0.7546771E-02  0.1220555E+00
          1   -1    0    0  501    0  0.00000000000E+00  0.00000000000E+00  0.67498683655E+03  0.67498683655E+03  0.00000000000E+00 0. -1.
         -1   -1    0    0    0  501 -0.00000000000E+00 -0.00000000000E+00 -0.36672330279E+02  0.36672330279E+02  0.00000000000E+00 0.  1.
          5    1    1    2  502    0 -0.31446396283E+02  0.48524227538E+02  0.20502554744E+03  0.21307520175E+03  0.47000000000E+01 0. -1.
         -5    1    1    2    0  502  0.81572962549E+02 -0.85897566470E+01  0.33292776372E+03  0.34291532190E+03  0.47000000000E+01 0. -1.
        -11    1    1    2    0    0 -0.16027910287E+01  0.25026589821E+02 -0.19148767377E+01  0.25150862611E+02  0.00000000000E+00 0.  1.
         11    1    1    2    0    0 -0.48523775237E+02 -0.64961060712E+02  0.10227607186E+03  0.13051778058E+03  0.00000000000E+00 0. -1.
<mgrwt>
<rscale>  0 0.13476308E+03</rscale>
<asrwt>0</asrwt>
<pdfrwt beam="1">  1        1 0.10384412E+00 0.14046956E+03</pdfrwt>
<pdfrwt beam="2">  1       -1 0.56418975E-02 0.14046956E+03</pdfrwt>
<totfact> 0.42434302E+03</totfact>
</mgrwt>
</event>
<event>
 6    1  0.8353100E-006  0.1501996E+03  0.7546771E-02  0.1209469E+00
         -2   -1    0    0    0  501 -0.00000000000E+00  0.00000000000E+00  0.53643512690E+02  0.53643512690E+02  0.00000000000E+00 0.  1.
          2   -1    0    0  501    0  0.00000000000E+00 -0.00000000000E+00 -0.42434357158E+03  0.42434357158E+03  0.00000000000E+00 0. -1.
          5    1    1    2  502    0  0.20448484373E+02  0.93595189176E+01 -0.25974186328E+03  0.26075595228E+03  0.47000000000E+01 0. -1.
         -5    1    1    2    0  502  0.34996832830E+02  0.52823273869E+02 -0.41604501802E+02  0.75948016041E+02  0.47000000000E+01 0. -1.
        -11    1    1    2    0    0 -0.16777370020E+02 -0.22700640493E+02  0.21128461704E+02  0.35259199049E+02  0.00000000000E+00 0.  1.
         11    1    1    2    0    0 -0.38667947183E+02 -0.39482152293E+02 -0.90482155510E+02  0.10602391690E+03  0.00000000000E+00 0. -1.
<mgrwt>
<rscale>  0 0.14290807E+03</rscale>
<asrwt>0</asrwt>
<pdfrwt beam="2">  1        2 0.65283627E-01 0.15019964E+03</pdfrwt>
<pdfrwt beam="1">  1       -2 0.82528480E-02 0.15019964E+03</pdfrwt>
<totfact> 0.64869581E+03</totfact>
</mgrwt>
</event>
<event>
 6    1  0.8353100E-006  0.1448075E+03  0.7546771E-02  0.1216850E+00
         -2   -1    0    0    0  501 -0.00000000000E+00  0.00000000000E+00  0.29403200228E+02  0.29403200228E+02  0.00000000000E+00 0.  1.
          2   -1    0    0  501    0  0.00000000000E+00 -0.00000000000E+00 -0.15603716992E+04  0.15603716992E+04  0.00000000000E+00 0. -1.
          5    1    1    2  502    0  0.57034677665E+02 -0.49984810851E+02 -0.11417193558E+04  0.11442449970E+04  0.47000000000E+01 0. -1.
         -5    1    1    2    0  502  0.16068843813E+02  0.49542233919E+02 -0.28098879779E+03  0.28581363713E+03  0.47000000000E+01 0. -1.
        -11    1    1    2    0    0 -0.67626618044E+02  0.29543846470E+02 -0.37012751205E+02  0.82559930258E+02  0.00000000000E+00 0.  1.
         11    1    1    2    0    0 -0.54769034335E+01 -0.29101269538E+02 -0.71247594157E+02  0.77156335015E+02  0.00000000000E+00 0. -1.
<mgrwt>
<rscale>  0 0.13741520E+03</rscale>
<asrwt>0</asrwt>
<pdfrwt beam="2">  1        2 0.24005721E+00 0.14480748E+03</pdfrwt>
<pdfrwt beam="1">  1       -2 0.45235688E-02 0.14480748E+03</pdfrwt>
<totfact> 0.28810582E+03</totfact>
</mgrwt>
</event>
<event>
 6    1  0.8353100E-006  0.1261088E+03  0.7546771E-02  0.1248980E+00
         -1   -1    0    0    0  501 -0.00000000000E+00  0.00000000000E+00  0.93167663218E+02  0.93167663218E+02  0.00000000000E+00 0.  1.
          1   -1    0    0  501    0  0.00000000000E+00 -0.00000000000E+00 -0.12881417294E+03  0.12881417294E+03  0.00000000000E+00 0. -1.
          5    1    1    2  502    0 -0.35318565466E+02 -0.22511618036E+02 -0.59223570772E+02  0.72689031828E+02  0.47000000000E+01 0.  1.
         -5    1    1    2    0  502  0.47894480716E+02  0.14756983268E+02  0.27486616930E+02  0.57352017824E+02  0.47000000000E+01 0.  1.
        -11    1    1    2    0    0  0.13396509312E+02  0.10050819218E+02  0.38597333452E+02  0.42074215124E+02  0.00000000000E+00 0.  1.
         11    1    1    2    0    0 -0.25972424562E+02 -0.22961844508E+01 -0.42506889334E+02  0.49866571383E+02  0.00000000000E+00 0. -1.
<mgrwt>
<rscale>  0 0.11650323E+03</rscale>
<asrwt>0</asrwt>
<pdfrwt beam="2">  1        1 0.19817565E-01 0.12610884E+03</pdfrwt>
<pdfrwt beam="1">  1       -1 0.14333487E-01 0.12610884E+03</pdfrwt>
<totfact> 0.83834197E+03</totfact>
</mgrwt>
</event>
<event>
 6    1  0.8353100E-006  0.3399119E+03  0.7546771E-02  0.1066833E+00
          1   -1    0    0  501    0  0.00000000000E+00  0.00000000000E+00  0.58282591616E+02  0.58282591616E+02  0.00000000000E+00 0. -1.
         -1   -1    0    0    0  501 -0.00000000000E+00 -0.00000000000E+00 -0.49560304885E+03  0.49560304885E+03  0.00000000000E+00 0.  1.
          5    1    1    2  502    0 -0.23233018854E+02 -0.15721669973E+02 -0.10867925900E+03  0.11233973210E+03  0.47000000000E+01 0.  1.
         -5    1    1    2    0  502 -0.84468575406E+02  0.76936443967E+02 -0.50661796201E+02  0.12507143653E+03  0.47000000000E+01 0.  1.
        -11    1    1    2    0    0  0.24693074673E+02 -0.63573133075E+02 -0.12852764118E+03  0.14550135991E+03  0.00000000000E+00 0.  1.
         11    1    1    2    0    0  0.83008519588E+02  0.23583590806E+01 -0.14945176084E+03  0.17097311192E+03  0.00000000000E+00 0. -1.
<mgrwt>
<rscale>  0 0.33991193E+03</rscale>
<asrwt>0</asrwt>
<pdfrwt beam="1">  1        1 0.89665521E-02 0.33991193E+03</pdfrwt>
<pdfrwt beam="2">  1       -1 0.76246627E-01 0.33991193E+03</pdfrwt>
<totfact> 0.13448095E+03</totfact>
</mgrwt>
</event>
<event>
 6    1  0.8353100E-006  0.1319486E+03  0.7546771E-02  0.1238100E+00
          1   -1    0    0  501    0  0.00000000000E+00  0.00000000000E+00  0.71074137824E+03  0.71074137824E+03  0.00000000000E+00 0. -1.
         -1   -1    0    0    0  501 -0.00000000000E+00 -0.00000000000E+00 -0.18937654444E+02  0.18937654444E+02  0.00000000000E+00 0.  1.
          5    1    1    2  502    0 -0.28047234619E+02 -0.44902231412E+02  0.67325488731E+02  0.85776856951E+02  0.47000000000E+01 0.  1.
         -5    1    1    2    0  502 -0.13533871064E+02  0.37396452194E+02  0.34088411792E+03  0.34322839648E+03  0.47000000000E+01 0.  1.
        -11    1    1    2    0    0  0.20584708022E+01  0.35611186417E+02  0.20675955670E+03  0.20981398473E+03  0.00000000000E+00 0. -1.
         11    1    1    2    0    0  0.39522634882E+02 -0.28105407199E+02  0.76834560444E+02  0.90859794521E+02  0.00000000000E+00 0.  1.
<mgrwt>
<rscale>  0 0.12308069E+03</rscale>
<asrwt>0</asrwt>
<pdfrwt beam="1">  1        1 0.10934481E+00 0.13194857E+03</pdfrwt>
<pdfrwt beam="2">  1       -1 0.29134858E-02 0.13194857E+03</pdfrwt>
<totfact> 0.10377855E+04</totfact>
</mgrwt>
</event>
<event>
 6    1  0.8353100E-006  0.1385079E+03  0.7546771E-02  0.1227004E+00
         -2   -1    0    0    0  501 -0.00000000000E+00  0.00000000000E+00  0.23113620606E+03  0.23113620606E+03  0.00000000000E+00 0.  1.
          2   -1    0    0  501    0  0.00000000000E+00 -0.00000000000E+00 -0.71410504380E+02  0.71410504380E+02  0.00000000000E+00 0. -1.
          5    1    1    2  502    0  0.27744291823E+02 -0.14061335689E+00 -0.35330235754E+02  0.45167256495E+02  0.47000000000E+01 0.  1.
         -5    1    1    2    0  502 -0.10269095989E+02  0.57193238399E+02  0.82769728717E+02  0.10123951226E+03  0.47000000000E+01 0.  1.
        -11    1    1    2    0    0 -0.68212196495E+00 -0.51369913862E+02  0.12445180867E+03  0.13463872408E+03  0.00000000000E+00 0.  1.
         11    1    1    2    0    0 -0.16793073869E+02 -0.56827111802E+01 -0.12165599951E+02  0.21501217605E+02  0.00000000000E+00 0. -1.
<mgrwt>
<rscale>  0 0.13030462E+03</rscale>
<asrwt>0</asrwt>
<pdfrwt beam="2">  1        2 0.10986232E-01 0.13850789E+03</pdfrwt>
<pdfrwt beam="1">  1       -2 0.35559416E-01 0.13850789E+03</pdfrwt>
<totfact> 0.40628251E+03</totfact>
</mgrwt>
</event>
<event>
 6    1  0.8353100E-006  0.1604285E+03  0.7546771E-02  0.1193111E+00
         -1   -1    0    0    0  501 -0.00000000000E+00  0.00000000000E+00  0.13013932977E+03  0.13013932977E+03  0.00000000000E+00 0.  1.
          1   -1    0    0  501    0  0.00000000000E+00 -0.00000000000E+00 -0.22539675439E+03  0.22539675439E+03  0.00000000000E+00 0. -1.
          5    1    1    2  502    0  0.81498344051E+01  0.27990288910E+02 -0.12018785321E+03  0.12376221609E+03  0.47000000000E+01 0. -1.
         -5    1    1    2    0  502  0.53625258181E+02  0.62760480614E+02 -0.10873908519E+02  0.83395911940E+02  0.47000000000E+01 0.  1.
        -11    1    1    2    0    0 -0.40931515188E+02 -0.10703083935E+03  0.40459351761E+02  0.12152344898E+03  0.00000000000E+00 0.  1.
         11    1    1    2    0    0 -0.20843577398E+02  0.16280069825E+02 -0.46550146550E+01  0.26854507139E+02  0.00000000000E+00 0. -1.
<mgrwt>
<rscale>  0 0.15615170E+03</rscale>
<asrwt>0</asrwt>
<pdfrwt beam="2">  1        1 0.34676424E-01 0.16042850E+03</pdfrwt>
<pdfrwt beam="1">  1       -1 0.20021435E-01 0.16042850E+03</pdfrwt>
<totfact> 0.24812191E+03</totfact>
</mgrwt>
</event>
<event>
 6    1  0.8353100E-006  0.1472420E+03  0.7546771E-02  0.1218589E+00
         -2   -1    0    0    0  501 -0.00000000000E+00  0.00000000000E+00  0.24990539660E+03  0.24990539660E+03  0.00000000000E+00 0.  1.
          2   -1    0    0  501    0  0.00000000000E+00 -0.00000000000E+00 -0.67058295336E+02  0.67058295336E+02  0.00000000000E+00 0. -1.
          5    1    1    2  502    0 -0.36948752056E+02 -0.14876744737E+02 -0.31039916472E+02  0.50715818312E+02  0.47000000000E+01 0. -1.
         -5    1    1    2    0  502 -0.28778093906E+02 -0.26781064325E+02  0.10883857884E+03  0.11581593301E+03  0.47000000000E+01 0. -1.
        -11    1    1    2    0    0  0.32635513027E+02  0.49280365570E+02  0.99913994566E+02  0.11608805904E+03  0.00000000000E+00 0.  1.
         11    1    1    2    0    0  0.33091332935E+02 -0.76225565075E+01  0.51344443299E+01  0.34343881576E+02  0.00000000000E+00 0. -1.
<mgrwt>
<rscale>  0 0.13616190E+03</rscale>
<asrwt>0</asrwt>
<pdfrwt beam="2">  1        2 0.10316661E-01 0.14724195E+03</pdfrwt>
<pdfrwt beam="1">  1       -2 0.38446984E-01 0.14724195E+03</pdfrwt>
<totfact> 0.38065294E+03</totfact>
</mgrwt>
</event>
<event>
 6    1  0.8353100E-006  0.1546269E+03  0.7546771E-02  0.1203269E+00
          1   -1    0    0  501    0  0.00000000000E+00  0.00000000000E+00  0.30466357730E+03  0.30466357730E+03  0.00000000000E+00 0. -1.
         -1   -1    0    0    0  501 -0.00000000000E+00 -0.00000000000E+00 -0.79462204545E+02  0.79462204545E+02  0.00000000000E+00 0.  1.
          5    1    1    2  502    0 -0.64915460833E+02  0.77083207515E+01  0.16679084241E+02  0.67629262270E+02  0.47000000000E+01 0.  1.
         -5    1    1    2    0  502 -0.25702375598E+02  0.10110136521E+01  0.18330892564E+03  0.18516448493E+03  0.47000000000E+01 0.  1.
        -11    1    1    2    0    0  0.21813376489E+01 -0.22745596976E+02 -0.20587314564E+02  0.30756429193E+02  0.00000000000E+00 0.  1.
         11    1    1    2    0    0  0.88436498783E+02  0.14026262573E+02  0.45800677441E+02  0.10057560546E+03  0.00000000000E+00 0. -1.
<mgrwt>
<rscale>  0 0.14774670E+03</rscale>
<asrwt>0</asrwt>
<pdfrwt beam="1">  1        1 0.46871319E-01 0.15462689E+03</pdfrwt>
<pdfrwt beam="2">  1       -1 0.12224955E-01 0.15462689E+03</pdfrwt>
<totfact> 0.37125117E+03</totfact>
</mgrwt>
</event>
<event>
 6    1  0.8353100E-006  0.1603480E+03  0.7546771E-02  0.1196328E+00
         -1   -1    0    0    0  501 -0.00000000000E+00  0.00000000000E+00  0.21339576154E+03  0.21339576154E+03  0.00000000000E+00 0.  1.
          1   -1    0    0  501    0  0.00000000000E+00 -0.00000000000E+00 -0.11516103259E+03  0.11516103259E+03  0.00000000000E+00 0. -1.
          5    1    1    2  502    0  0.65447787154E+01  0.29149044267E+02  0.16100265624E+02  0.34260902838E+02  0.47000000000E+01 0.  1.
         -5    1    1    2    0  502 -0.87262333114E+02 -0.88923857569E+02 -0.18979117570E+02  0.12611290231E+03  0.47000000000E+01 0.  1.
        -11    1    1    2    0    0  0.97635485066E+02  0.51907597259E+02  0.10064269054E+03  0.14951935579E+03  0.00000000000E+00 0.  1.
         11    1    1    2    0    0 -0.16917930666E+02  0.78672160426E+01  0.47089035167E+00  0.18663633195E+02  0.00000000000E+00 0. -1.
<mgrwt>
<rscale>  0 0.15342354E+03</rscale>
<asrwt>0</asrwt>
<pdfrwt beam="2">  1        1 0.17717082E-01 0.16034796E+03</pdfrwt>
<pdfrwt beam="1">  1       -1 0.32830117E-01 0.16034796E+03</pdfrwt>
<totfact> 0.25541565E+03</totfact>
</mgrwt>
</event>
<event>
 6    1  0.8353100E-006  0.2662323E+03  0.7546771E-02  0.1103456E+00
         -2   -1    0    0    0  501 -0.00000000000E+00  0.00000000000E+00  0.84109325633E+02  0.84109325633E+02  0.00000000000E+00 0.  1.
          2   -1    0    0  501    0  0.00000000000E+00 -0.00000000000E+00 -0.21067710047E+03  0.21067710047E+03  0.00000000000E+00 0. -1.
          5    1    1    2  502    0  0.69045061053E+02  0.18811669958E+02 -0.12681441573E+03  0.14568831600E+03  0.47000000000E+01 0.  1.
         -5    1    1    2    0  502  0.13560236854E+01 -0.81342327032E+00  0.28640553798E+02  0.29066678165E+02  0.47000000000E+01 0.  1.
        -11    1    1    2    0    0 -0.21749989765E+02 -0.48019579889E+02  0.64072610541E+01  0.53103626069E+02  0.00000000000E+00 0. -1.
         11    1    1    2    0    0 -0.48651094974E+02  0.30021333201E+02 -0.34801173957E+02  0.66927805866E+02  0.00000000000E+00 0.  1.
<mgrwt>
<rscale>  0 0.26623230E+03</rscale>
<asrwt>0</asrwt>
<pdfrwt beam="2">  1        2 0.32411862E-01 0.26623230E+03</pdfrwt>
<pdfrwt beam="1">  1       -2 0.12939896E-01 0.26623230E+03</pdfrwt>
<totfact> 0.69670616E+03</totfact>
</mgrwt>
</event>
<event>
 6    1  0.8353100E-006  0.2882349E+03  0.7546771E-02  0.1091274E+00
         -1   -1    0    0    0  501 -0.00000000000E+00  0.00000000000E+00  0.31341543672E+02  0.31341543672E+02  0.00000000000E+00 0.  1.
          1   -1    0    0  501    0  0.00000000000E+00 -0.00000000000E+00 -0.66269346929E+03  0.66269346929E+03  0.00000000000E+00 0. -1.
          5    1    1    2  502    0  0.72175038935E+02  0.26380077240E+02 -0.30758890010E+03  0.31707753971E+03  0.47000000000E+01 0. -1.
         -5    1    1    2    0  502 -0.18791335012E+02 -0.86574679927E+01 -0.17700893590E+01  0.21290590408E+02  0.47000000000E+01 0. -1.
        -11    1    1    2    0    0 -0.16036159311E+02  0.48958463991E+02 -0.45263923651E+02  0.68577783473E+02  0.00000000000E+00 0.  1.
         11    1    1    2    0    0 -0.37347544612E+02 -0.66681073238E+02 -0.27672901251E+03  0.28708909937E+03  0.00000000000E+00 0. -1.
<mgrwt>
<rscale>  0 0.28823488E+03</rscale>
<asrwt>0</asrwt>
<pdfrwt beam="2">  1        1 0.10195283E+00 0.28823488E+03</pdfrwt>
<pdfrwt beam="1">  1       -1 0.48217764E-02 0.28823488E+03</pdfrwt>
<totfact> 0.56678721E+03</totfact>
</mgrwt>
</event>
<event>
 6    1  0.8353100E-006  0.3652771E+03  0.7546771E-02  0.1056514E+00
         -2   -1    0    0    0  501 -0.00000000000E+00  0.00000000000E+00  0.11614236435E+03  0.11614236435E+03  0.00000000000E+00 0.  1.
          2   -1    0    0  501    0  0.00000000000E+00 -0.00000000000E+00 -0.28720644846E+03  0.28720644846E+03  0.00000000000E+00 0. -1.
          5    1    1    2  502    0  0.12878601606E+03  0.84594532705E+02 -0.13431006331E+03  0.20445869022E+03  0.47000000000E+01 0. -1.
         -5    1    1    2    0  502 -0.87927000697E+01 -0.58511411722E+01  0.15924984238E+02  0.19678479375E+02  0.47000000000E+01 0. -1.
        -11    1    1    2    0    0 -0.48860572387E+02 -0.20277785689E+02 -0.67700303737E+02  0.85917840130E+02  0.00000000000E+00 0. -1.
         11    1    1    2    0    0 -0.71132743607E+02 -0.58465605844E+02  0.15021298701E+02  0.93293803087E+02  0.00000000000E+00 0.  1.
<mgrwt>
<rscale>  0 0.36527708E+03</rscale>
<asrwt>0</asrwt>
<pdfrwt beam="2">  1        2 0.44185608E-01 0.36527708E+03</pdfrwt>
<pdfrwt beam="1">  1       -2 0.17868056E-01 0.36527708E+03</pdfrwt>
<totfact> 0.29371278E+03</totfact>
</mgrwt>
</event>
<event>
 6    1  0.8353100E-006  0.3082540E+03  0.7546771E-02  0.1102722E+00
          2   -1    0    0  501    0  0.00000000000E+00  0.00000000000E+00  0.56357809331E+03  0.56357809331E+03  0.00000000000E+00 0. -1.
         -2   -1    0    0    0  501 -0.00000000000E+00 -0.00000000000E+00 -0.10383056209E+03  0.10383056209E+03  0.00000000000E+00 0.  1.
          5    1    1    2  502    0  0.53387798115E+01 -0.88231627138E+02  0.11753654664E+03  0.14714024736E+03  0.47000000000E+01 0. -1.
         -5    1    1    2    0  502 -0.12271746654E+03  0.17568803805E+03  0.15777092975E+03  0.26615713325E+03  0.47000000000E+01 0.  1.
        -11    1    1    2    0    0  0.64980393893E+02 -0.49996582465E+02  0.16905581496E+03  0.18788820724E+03  0.00000000000E+00 0.  1.
         11    1    1    2    0    0  0.52398292834E+02 -0.37459828445E+02  0.15384239862E+02  0.66223067546E+02  0.00000000000E+00 0. -1.
<mgrwt>
<rscale>  0 0.26749505E+03</rscale>
<asrwt>0</asrwt>
<pdfrwt beam="1">  1        2 0.86704320E-01 0.30825398E+03</pdfrwt>
<pdfrwt beam="2">  1       -2 0.15973933E-01 0.30825398E+03</pdfrwt>
<totfact> 0.16739445E+03</totfact>
</mgrwt>
</event>
<event>
 6    1  0.8353100E-006  0.1794114E+03  0.7546771E-02  0.1177436E+00
          1   -1    0    0  501    0  0.00000000000E+00  0.00000000000E+00  0.18389034590E+04  0.18389034590E+04  0.00000000000E+00 0. -1.
         -1   -1    0    0    0  501 -0.00000000000E+00 -0.00000000000E+00 -0.15988868266E+02  0.15988868266E+02  0.00000000000E+00 0.  1.
          5    1    1    2  502    0 -0.66048000019E+02  0.54018519780E+02  0.97907592258E+03  0.98279809268E+03  0.47000000000E+01 0. -1.
         -5    1    1    2    0  502 -0.50115625320E+02 -0.54014990700E+02  0.30820771897E+03  0.31692788321E+03  0.47000000000E+01 0.  1.
        -11    1    1    2    0    0  0.17704863783E+02 -0.20395626944E+02  0.33322672132E+02  0.42893405997E+02  0.00000000000E+00 0.  1.
         11    1    1    2    0    0  0.98458761556E+02  0.20392097864E+02  0.50230827703E+03  0.51227294537E+03  0.00000000000E+00 0. -1.
<mgrwt>
<rscale>  0 0.17039556E+03</rscale>
<asrwt>0</asrwt>
<pdfrwt beam="1">  1        1 0.28290806E+00 0.17941137E+03</pdfrwt>
<pdfrwt beam="2">  1       -1 0.24598273E-02 0.17941137E+03</pdfrwt>
<totfact> 0.21729275E+03</totfact>
</mgrwt>
</event>
<event>
 6    1  0.8353100E-006  0.1521591E+03  0.7546771E-02  0.1206881E+00
          1   -1    0    0  501    0  0.00000000000E+00  0.00000000000E+00  0.20862001061E+03  0.20862001061E+03  0.00000000000E+00 0. -1.
         -1   -1    0    0    0  501 -0.00000000000E+00 -0.00000000000E+00 -0.10300617934E+03  0.10300617934E+03  0.00000000000E+00 0.  1.
          5    1    1    2  502    0 -0.65004206843E+02 -0.27172020951E+02  0.50684403579E+02  0.86918722932E+02  0.47000000000E+01 0.  1.
         -5    1    1    2    0  502 -0.27624539786E+01  0.81361419748E+02  0.57097020570E+02  0.99546328578E+02  0.47000000000E+01 0.  1.
        -11    1    1    2    0    0 -0.11209271488E+02 -0.15402491260E+02 -0.27633650015E+02  0.33563419335E+02  0.00000000000E+00 0.  1.
         11    1    1    2    0    0  0.78975932309E+02 -0.38786907537E+02  0.25466057136E+02  0.91597719112E+02  0.00000000000E+00 0. -1.
<mgrwt>
<rscale>  0 0.14490203E+03</rscale>
<asrwt>0</asrwt>
<pdfrwt beam="1">  1        1 0.32095386E-01 0.15215906E+03</pdfrwt>
<pdfrwt beam="2">  1       -1 0.15847104E-01 0.15215906E+03</pdfrwt>
<totfact> 0.39570044E+03</totfact>
</mgrwt>
</event>
<event>
 6    1  0.8353100E-006  0.1363742E+03  0.7546771E-02  0.1230729E+00
         -2   -1    0    0    0  501 -0.00000000000E+00  0.00000000000E+00  0.26109681442E+03  0.26109681442E+03  0.00000000000E+00 0.  1.
          2   -1    0    0  501    0  0.00000000000E+00 -0.00000000000E+00 -0.14666680138E+03  0.14666680138E+03  0.00000000000E+00 0. -1.
          5    1    1    2  502    0  0.52056845173E+02  0.30681338351E+02 -0.11474624091E+03  0.12976921613E+03  0.47000000000E+01 0.  1.
         -5    1    1    2    0  502 -0.30393575766E+02  0.19330910358E+02  0.14886095340E+02  0.39257348071E+02  0.47000000000E+01 0.  1.
        -11    1    1    2    0    0 -0.32998779568E+02  0.25210475832E+01  0.23676687631E+02  0.40692267952E+02  0.00000000000E+00 0. -1.
         11    1    1    2    0    0  0.11335510161E+02 -0.52533296293E+02  0.19061347098E+03  0.19804478365E+03  0.00000000000E+00 0.  1.
<mgrwt>
<rscale>  0 0.12781821E+03</rscale>
<asrwt>0</asrwt>
<pdfrwt beam="2">  1        2 0.22564123E-01 0.13637423E+03</pdfrwt>
<pdfrwt beam="1">  1       -2 0.40168741E-01 0.13637423E+03</pdfrwt>
<totfact> 0.13975629E+03</totfact>
</mgrwt>
</event>
<event>
 6    1  0.8353100E-006  0.3455593E+03  0.7546771E-02  0.1064453E+00
         -4   -1    0    0    0  501 -0.00000000000E+00  0.00000000000E+00  0.18144145552E+03  0.18144145552E+03  0.00000000000E+00 0.  1.
          4   -1    0    0  501    0  0.00000000000E+00 -0.00000000000E+00 -0.16453134345E+03  0.16453134345E+03  0.00000000000E+00 0. -1.
          5    1    1    2  502    0 -0.93612380274E+02  0.62953575724E+02 -0.54649478734E+02  0.12543957096E+03  0.47000000000E+01 0. -1.
         -5    1    1    2    0  502  0.38816761779E+02  0.94626354653E+01 -0.34070943479E+02  0.52718134020E+02  0.47000000000E+01 0. -1.
        -11    1    1    2    0    0 -0.12673213350E+02 -0.60533389181E+02  0.52360790307E+02  0.81034276105E+02  0.00000000000E+00 0.  1.
         11    1    1    2    0    0  0.67468831844E+02 -0.11882822009E+02  0.53269743979E+02  0.86780817886E+02  0.00000000000E+00 0. -1.
<mgrwt>
<rscale>  0 0.34555929E+03</rscale>
<asrwt>0</asrwt>
<pdfrwt beam="2">  1        4 0.25312514E-01 0.34555929E+03</pdfrwt>
<pdfrwt beam="1">  1       -4 0.27914070E-01 0.34555929E+03</pdfrwt>
<totfact> 0.34299744E+02</totfact>
</mgrwt>
</event>
<event>
 6    1  0.8353100E-006  0.1773683E+03  0.7546771E-02  0.1175929E+00
         -1   -1    0    0    0  501 -0.00000000000E+00  0.00000000000E+00  0.73112161257E+02  0.73112161257E+02  0.00000000000E+00 0.  1.
          1   -1    0    0  501    0  0.00000000000E+00 -0.00000000000E+00 -0.47345385328E+03  0.47345385328E+03  0.00000000000E+00 0. -1.
          5    1    1    2  502    0 -0.77112215309E+01 -0.35572878973E+02 -0.23388386567E+03  0.23674595092E+03  0.47000000000E+01 0.  1.
         -5    1    1    2    0  502  0.59718081407E+02 -0.79017290252E+02 -0.97184272126E+02  0.13884111118E+03  0.47000000000E+01 0.  1.
        -11    1    1    2    0    0 -0.41049381124E+02  0.27442869205E+01 -0.33457874994E+02  0.53028409371E+02  0.00000000000E+00 0. -1.
         11    1    1    2    0    0 -0.10957478752E+02  0.11184588230E+03 -0.35815679227E+02  0.11795054306E+03  0.00000000000E+00 0.  1.
<mgrwt>
<rscale>  0 0.17185358E+03</rscale>
<asrwt>0</asrwt>
<pdfrwt beam="2">  1        1 0.72839052E-01 0.17736834E+03</pdfrwt>
<pdfrwt beam="1">  1       -1 0.11248025E-01 0.17736834E+03</pdfrwt>
<totfact> 0.24292001E+03</totfact>
</mgrwt>
</event>
<event>
 6    1  0.8353100E-006  0.1327159E+03  0.7546771E-02  0.1248630E+00
          1   -1    0    0  501    0  0.00000000000E+00  0.00000000000E+00  0.10256261552E+03  0.10256261552E+03  0.00000000000E+00 0. -1.
         -1   -1    0    0    0  501 -0.00000000000E+00 -0.00000000000E+00 -0.14647876174E+03  0.14647876174E+03  0.00000000000E+00 0.  1.
          5    1    1    2  502    0  0.34102903178E+02 -0.16602673633E+02  0.43174420212E+02  0.57660882213E+02  0.47000000000E+01 0. -1.
         -5    1    1    2    0  502 -0.78276954987E+02  0.10529814256E+02 -0.83131933736E+01  0.79557261481E+02  0.47000000000E+01 0. -1.
        -11    1    1    2    0    0  0.47477098468E+02  0.24372335661E+02 -0.76230142666E+02  0.93054394176E+02  0.00000000000E+00 0.  1.
         11    1    1    2    0    0 -0.33030466596E+01 -0.18299476283E+02 -0.25472303915E+01  0.18768839393E+02  0.00000000000E+00 0. -1.
<mgrwt>
<rscale>  0 0.11670714E+03</rscale>
<asrwt>0</asrwt>
<pdfrwt beam="1">  1        1 0.15778864E-01 0.13271591E+03</pdfrwt>
<pdfrwt beam="2">  1       -1 0.22535194E-01 0.13271591E+03</pdfrwt>
<totfact> 0.54877267E+03</totfact>
</mgrwt>
</event>
<event>
 6    1  0.8353100E-006  0.1433037E+03  0.7546771E-02  0.1219569E+00
          1   -1    0    0  501    0  0.00000000000E+00  0.00000000000E+00  0.17696385706E+03  0.17696385706E+03  0.00000000000E+00 0. -1.
         -1   -1    0    0    0  501 -0.00000000000E+00 -0.00000000000E+00 -0.94676570552E+02  0.94676570552E+02  0.00000000000E+00 0.  1.
          5    1    1    2  502    0  0.34108895773E+02 -0.59659774600E+01  0.95377206769E+02  0.10157711961E+03  0.47000000000E+01 0.  1.
         -5    1    1    2    0  502  0.35611947822E+02  0.13199573627E+02 -0.36934647152E+02  0.53185503024E+02  0.47000000000E+01 0.  1.
        -11    1    1    2    0    0 -0.35446859513E+02 -0.13118115185E+02 -0.33042495644E+02  0.50203299829E+02  0.00000000000E+00 0.  1.
         11    1    1    2    0    0 -0.34273984082E+02  0.58845190183E+01  0.56887222537E+02  0.66674505150E+02  0.00000000000E+00 0. -1.
<mgrwt>
<rscale>  0 0.13546218E+03</rscale>
<asrwt>0</asrwt>
<pdfrwt beam="1">  1        1 0.27225209E-01 0.14330365E+03</pdfrwt>
<pdfrwt beam="2">  1       -1 0.14565626E-01 0.14330365E+03</pdfrwt>
<totfact> 0.55287255E+03</totfact>
</mgrwt>
</event>
<event>
 6    1  0.8353100E-006  0.1633343E+03  0.7546771E-02  0.1189528E+00
         -1   -1    0    0    0  501 -0.00000000000E+00  0.00000000000E+00  0.14512558545E+03  0.14512558545E+03  0.00000000000E+00 0.  1.
          1   -1    0    0  501    0  0.00000000000E+00 -0.00000000000E+00 -0.16854413892E+03  0.16854413892E+03  0.00000000000E+00 0. -1.
          5    1    1    2  502    0 -0.33446036518E+02  0.11576737286E+03 -0.10675643953E+02  0.12106519463E+03  0.47000000000E+01 0. -1.
         -5    1    1    2    0  502 -0.34043581883E+02 -0.22149313365E+02 -0.18406487440E+02  0.44838000957E+02  0.47000000000E+01 0.  1.
        -11    1    1    2    0    0  0.17739551874E+02 -0.28115091087E+02  0.45518509116E+02  0.56365634208E+02  0.00000000000E+00 0.  1.
         11    1    1    2    0    0  0.49750066527E+02 -0.65502968406E+02 -0.39854931197E+02  0.91400894581E+02  0.00000000000E+00 0. -1.
<mgrwt>
<rscale>  0 0.15926572E+03</rscale>
<asrwt>0</asrwt>
<pdfrwt beam="2">  1        1 0.25929868E-01 0.16333432E+03</pdfrwt>
<pdfrwt beam="1">  1       -1 0.22327013E-01 0.16333432E+03</pdfrwt>
<totfact> 0.29932554E+03</totfact>
</mgrwt>
</event>
<event>
 6    1  0.8353100E-006  0.1262865E+03  0.7546771E-02  0.1245423E+00
          1   -1    0    0  501    0  0.00000000000E+00  0.00000000000E+00  0.34904704867E+02  0.34904704867E+02  0.00000000000E+00 0. -1.
         -1   -1    0    0    0  501 -0.00000000000E+00 -0.00000000000E+00 -0.36699084232E+03  0.36699084232E+03  0.00000000000E+00 0.  1.
          5    1    1    2  502    0 -0.41579577131E+02  0.31722118286E+02 -0.94724209627E+02  0.10830475480E+03  0.47000000000E+01 0. -1.
         -5    1    1    2    0  502  0.52262802125E+02 -0.46180856773E+02 -0.66383361294E+02  0.96399754538E+02  0.47000000000E+01 0. -1.
        -11    1    1    2    0    0 -0.19289802965E+02 -0.36712614454E+02 -0.46370134330E+02  0.62210143194E+02  0.00000000000E+00 0.  1.
         11    1    1    2    0    0  0.86065779705E+01  0.51171352940E+02 -0.12460843220E+03  0.13498089465E+03  0.00000000000E+00 0. -1.
<mgrwt>
<rscale>  0 0.11860070E+03</rscale>
<asrwt>0</asrwt>
<pdfrwt beam="1">  1        1 0.53699547E-02 0.12628653E+03</pdfrwt>
<pdfrwt beam="2">  1       -1 0.56460129E-01 0.12628653E+03</pdfrwt>
<totfact> 0.46809702E+03</totfact>
</mgrwt>
</event>
<event>
 6    1  0.8353100E-006  0.2390679E+03  0.7546771E-02  0.1123290E+00
         -2   -1    0    0    0  501 -0.00000000000E+00  0.00000000000E+00  0.10320070739E+03  0.10320070739E+03  0.00000000000E+00 0. -1.
          2   -1    0    0  501    0  0.00000000000E+00 -0.00000000000E+00 -0.66321650911E+03  0.66321650911E+03  0.00000000000E+00 0.  1.
          5    1    1    2  502    0 -0.12749458659E+03  0.98431249318E+02 -0.37519836269E+03  0.40833746071E+03  0.47000000000E+01 0. -1.
         -5    1    1    2    0  502 -0.64611853975E+02 -0.30458972090E+02 -0.92955406067E+02  0.11732535179E+03  0.47000000000E+01 0. -1.
        -11    1    1    2    0    0  0.14662525832E+03 -0.75641373589E+02 -0.37008004484E+02  0.16908629800E+03  0.00000000000E+00 0. -1.
         11    1    1    2    0    0  0.45481182243E+02  0.76690963610E+01 -0.54854028482E+02  0.71668106002E+02  0.00000000000E+00 0.  1.
<mgrwt>
<rscale>  0 0.23482423E+03</rscale>
<asrwt>0</asrwt>
<pdfrwt beam="2">  1        2 0.10203331E+00 0.23906786E+03</pdfrwt>
<pdfrwt beam="1">  1       -2 0.15877032E-01 0.23906786E+03</pdfrwt>
<totfact> 0.13933879E+03</totfact>
</mgrwt>
</event>
<event>
 6    1  0.8353100E-006  0.1325688E+03  0.7546771E-02  0.1250692E+00
          1   -1    0    0  501    0  0.00000000000E+00  0.00000000000E+00  0.61377331481E+03  0.61377331481E+03  0.00000000000E+00 0.  1.
         -1   -1    0    0    0  501 -0.00000000000E+00 -0.00000000000E+00 -0.29528901252E+02  0.29528901252E+02  0.00000000000E+00 0. -1.
          5    1    1    2  502    0  0.41017524620E+01  0.21368726366E+02  0.51344771324E+03  0.51393004492E+03  0.47000000000E+01 0. -1.
         -5    1    1    2    0  502 -0.26520849755E+02  0.16670429277E+02  0.24314957492E+02  0.39932015249E+02  0.47000000000E+01 0. -1.
        -11    1    1    2    0    0  0.28738057980E+01 -0.52196215096E+02  0.31363579080E+02  0.60962100709E+02  0.00000000000E+00 0.  1.
         11    1    1    2    0    0  0.19545291495E+02  0.14157059453E+02  0.15118163743E+02  0.28478055182E+02  0.00000000000E+00 0. -1.
<mgrwt>
<rscale>  0 0.11551097E+03</rscale>
<asrwt>0</asrwt>
<pdfrwt beam="1">  1        1 0.94426654E-01 0.13256882E+03</pdfrwt>
<pdfrwt beam="2">  1       -1 0.45429084E-02 0.13256882E+03</pdfrwt>
<totfact> 0.66553628E+03</totfact>
</mgrwt>
</event>
<event>
 6    1  0.8353100E-006  0.1351140E+03  0.7546771E-02  0.1232300E+00
         -1   -1    0    0    0  501 -0.00000000000E+00  0.00000000000E+00  0.38561085145E+02  0.38561085145E+02  0.00000000000E+00 0.  1.
          1   -1    0    0  501    0  0.00000000000E+00 -0.00000000000E+00 -0.40339763002E+03  0.40339763002E+03  0.00000000000E+00 0. -1.
          5    1    1    2  502    0  0.40892973255E+00  0.59535163648E+02 -0.16963528133E+03  0.17984110099E+03  0.47000000000E+01 0.  1.
         -5    1    1    2    0  502 -0.50088124080E+02 -0.46770786861E+02 -0.94273370583E+02  0.11664426723E+03  0.47000000000E+01 0.  1.
        -11    1    1    2    0    0  0.41275673137E+01  0.20298820421E+02  0.85218556311E+01  0.22398681788E+02  0.00000000000E+00 0.  1.
         11    1    1    2    0    0  0.45551627034E+02 -0.33063197209E+02 -0.10944974859E+03  0.12307466515E+03  0.00000000000E+00 0. -1.
<mgrwt>
<rscale>  0 0.12678886E+03</rscale>
<asrwt>0</asrwt>
<pdfrwt beam="2">  1        1 0.62061177E-01 0.13511401E+03</pdfrwt>
<pdfrwt beam="1">  1       -1 0.59324743E-02 0.13511401E+03</pdfrwt>
<totfact> 0.77657500E+03</totfact>
</mgrwt>
</event>
<event>
 6    1  0.8353100E-006  0.1349882E+03  0.7546771E-02  0.1232221E+00
          2   -1    0    0  501    0  0.00000000000E+00  0.00000000000E+00  0.13428918963E+04  0.13428918963E+04  0.00000000000E+00 0. -1.
         -2   -1    0    0    0  501 -0.00000000000E+00 -0.00000000000E+00 -0.11549022991E+02  0.11549022991E+02  0.00000000000E+00 0.  1.
          5    1    1    2  502    0 -0.15650129378E+01 -0.38240196303E+02  0.65284689799E+03  0.65398465126E+03  0.47000000000E+01 0. -1.
         -5    1    1    2    0  502  0.52129955749E+02  0.44632321552E+02  0.26719818699E+03  0.27591037955E+03  0.47000000000E+01 0. -1.
        -11    1    1    2    0    0  0.20946646411E+02  0.19611717318E+02  0.13077248837E+03  0.13388362546E+03  0.00000000000E+00 0. -1.
         11    1    1    2    0    0 -0.71511589223E+02 -0.26003842567E+02  0.28052529997E+03  0.29066226302E+03  0.00000000000E+00 0.  1.
<mgrwt>
<rscale>  0 0.12684012E+03</rscale>
<asrwt>0</asrwt>
<pdfrwt beam="1">  1        2 0.20659863E+00 0.13498818E+03</pdfrwt>
<pdfrwt beam="2">  1       -2 0.17767738E-02 0.13498818E+03</pdfrwt>
<totfact> 0.14762103E+04</totfact>
</mgrwt>
</event>
<event>
 6    1  0.8353100E-006  0.1380018E+03  0.7546771E-02  0.1227627E+00
         -1   -1    0    0    0  501 -0.00000000000E+00  0.00000000000E+00  0.25167522061E+02  0.25167522061E+02  0.00000000000E+00 0.  1.
          1   -1    0    0  501    0  0.00000000000E+00 -0.00000000000E+00 -0.90979222052E+03  0.90979222052E+03  0.00000000000E+00 0. -1.
          5    1    1    2  502    0 -0.75944044300E+02  0.42511708377E+02 -0.62992663779E+03  0.63592798508E+03  0.47000000000E+01 0. -1.
         -5    1    1    2    0  502  0.17891272079E+02 -0.35574900384E+02 -0.11807850527E+03  0.12470082021E+03  0.47000000000E+01 0. -1.
        -11    1    1    2    0    0  0.23798553372E+02  0.18168677473E+02 -0.12740188298E+03  0.13087288402E+03  0.00000000000E+00 0. -1.
         11    1    1    2    0    0  0.34254218849E+02 -0.25105485467E+02 -0.92176724171E+01  0.43458053272E+02  0.00000000000E+00 0.  1.
<mgrwt>
<rscale>  0 0.12988498E+03</rscale>
<asrwt>0</asrwt>
<pdfrwt beam="2">  1        1 0.13996802E+00 0.13800176E+03</pdfrwt>
<pdfrwt beam="1">  1       -1 0.38719267E-02 0.13800176E+03</pdfrwt>
<totfact> 0.47264638E+03</totfact>
</mgrwt>
</event>
<event>
 6    1  0.8353100E-006  0.1331588E+03  0.7546771E-02  0.1236039E+00
          3   -1    0    0  501    0  0.00000000000E+00  0.00000000000E+00  0.52600952490E+02  0.52600952490E+02  0.00000000000E+00 0. -1.
         -3   -1    0    0    0  501 -0.00000000000E+00 -0.00000000000E+00 -0.33066766474E+03  0.33066766474E+03  0.00000000000E+00 0.  1.
          5    1    1    2  502    0  0.59075519360E+01 -0.49281995960E+02  0.76013673528E+01  0.50432976130E+02  0.47000000000E+01 0.  1.
         -5    1    1    2    0  502 -0.50782275959E+02  0.39614957676E+02 -0.74478434751E+02  0.98576425510E+02  0.47000000000E+01 0.  1.
        -11    1    1    2    0    0  0.70080355304E+02 -0.24377631940E+01 -0.12117955404E+03  0.14000601132E+03  0.00000000000E+00 0.  1.
         11    1    1    2    0    0 -0.25205631281E+02  0.12104801478E+02 -0.90010090807E+02  0.94253204265E+02  0.00000000000E+00 0. -1.
<mgrwt>
<rscale>  0 0.12438185E+03</rscale>
<asrwt>0</asrwt>
<pdfrwt beam="1">  1        3 0.80924543E-02 0.13315878E+03</pdfrwt>
<pdfrwt beam="2">  1       -3 0.50871948E-01 0.13315878E+03</pdfrwt>
<totfact> 0.92939624E+02</totfact>
</mgrwt>
</event>
<event>
 6    1  0.8353100E-006  0.1484279E+03  0.7546771E-02  0.1211991E+00
         -1   -1    0    0    0  501 -0.00000000000E+00  0.00000000000E+00  0.10247702120E+03  0.10247702120E+03  0.00000000000E+00 0.  1.
          1   -1    0    0  501    0  0.00000000000E+00 -0.00000000000E+00 -0.17762901617E+03  0.17762901617E+03  0.00000000000E+00 0. -1.
          5    1    1    2  502    0 -0.28391990429E+02  0.18625695219E+02  0.35228166244E+02  0.49154199615E+02  0.47000000000E+01 0. -1.
         -5    1    1    2    0  502  0.22386654210E+02  0.61178641670E+02 -0.85421292745E+02  0.10753081297E+03  0.47000000000E+01 0. -1.
        -11    1    1    2    0    0 -0.25786029023E+02 -0.19672170518E+02  0.23374352336E+02  0.39978418338E+02  0.00000000000E+00 0.  1.
         11    1    1    2    0    0  0.31791365243E+02 -0.60132166371E+02 -0.48333220804E+02  0.83442606441E+02  0.00000000000E+00 0. -1.
<mgrwt>
<rscale>  0 0.14099939E+03</rscale>
<asrwt>0</asrwt>
<pdfrwt beam="2">  1        1 0.27327541E-01 0.14842791E+03</pdfrwt>
<pdfrwt beam="1">  1       -1 0.15765696E-01 0.14842791E+03</pdfrwt>
<totfact> 0.48694843E+03</totfact>
</mgrwt>
</event>
<event>
 6    1  0.8353100E-006  0.1257409E+03  0.7546771E-02  0.1249919E+00
         -1   -1    0    0    0  501 -0.00000000000E+00  0.00000000000E+00  0.73474733341E+03  0.73474733341E+03  0.00000000000E+00 0.  1.
          1   -1    0    0  501    0  0.00000000000E+00 -0.00000000000E+00 -0.16519488079E+02  0.16519488079E+02  0.00000000000E+00 0. -1.
          5    1    1    2  502    0  0.46387458948E+02  0.50948055564E+02  0.21482540057E+03  0.22565359169E+03  0.47000000000E+01 0.  1.
         -5    1    1    2    0  502 -0.39034704096E+02 -0.39473276702E+02  0.13274651700E+03  0.14396379918E+03  0.47000000000E+01 0.  1.
        -11    1    1    2    0    0 -0.67606163857E+01 -0.50776019226E+02  0.22749992436E+03  0.23319546661E+03  0.00000000000E+00 0.  1.
         11    1    1    2    0    0 -0.59213846620E+00  0.39301240364E+02  0.14315600340E+03  0.14845396401E+03  0.00000000000E+00 0. -1.
<mgrwt>
<rscale>  0 0.11595747E+03</rscale>
<asrwt>0</asrwt>
<pdfrwt beam="2">  1        1 0.25414603E-02 0.12574092E+03</pdfrwt>
<pdfrwt beam="1">  1       -1 0.11303803E+00 0.12574092E+03</pdfrwt>
<totfact> 0.31424266E+03</totfact>
</mgrwt>
</event>
<event>
 6    1  0.8353100E-006  0.2562238E+03  0.7546771E-02  0.1109433E+00
          1   -1    0    0  501    0  0.00000000000E+00  0.00000000000E+00  0.27053422593E+03  0.27053422593E+03  0.00000000000E+00 0. -1.
         -1   -1    0    0    0  501 -0.00000000000E+00 -0.00000000000E+00 -0.60667602791E+02  0.60667602791E+02  0.00000000000E+00 0.  1.
          5    1    1    2  502    0 -0.39586098050E+02 -0.51260274394E+02  0.25169870738E+02  0.69644003925E+02  0.47000000000E+01 0. -1.
         -5    1    1    2    0  502 -0.30196437092E+01  0.25271016717E+02  0.14514044676E+03  0.14742992172E+03  0.47000000000E+01 0. -1.
        -11    1    1    2    0    0  0.26593143432E+02 -0.12346924762E+02  0.60774530071E+02  0.67477294952E+02  0.00000000000E+00 0.  1.
         11    1    1    2    0    0  0.16012598327E+02  0.38336182439E+02 -0.21218224436E+02  0.46650608114E+02  0.00000000000E+00 0. -1.
<mgrwt>
<rscale>  0 0.25622383E+03</rscale>
<asrwt>0</asrwt>
<pdfrwt beam="1">  1        1 0.41620649E-01 0.25622383E+03</pdfrwt>
<pdfrwt beam="2">  1       -1 0.93334775E-02 0.25622383E+03</pdfrwt>
<totfact> 0.67038406E+03</totfact>
</mgrwt>
</event>
<event>
 6    1  0.8353100E-006  0.1378912E+03  0.7546771E-02  0.1227609E+00
         -1   -1    0    0    0  501 -0.00000000000E+00  0.00000000000E+00  0.36616548755E+02  0.36616548755E+02  0.00000000000E+00 0.  1.
          1   -1    0    0  501    0  0.00000000000E+00 -0.00000000000E+00 -0.52727875955E+03  0.52727875955E+03  0.00000000000E+00 0. -1.
          5    1    1    2  502    0 -0.28505654010E+02  0.66446563149E+02 -0.28438374534E+03  0.29346877633E+03  0.47000000000E+01 0.  1.
         -5    1    1    2    0  502 -0.27669568458E+02 -0.51169693332E+02 -0.11339271766E+03  0.12753015704E+03  0.47000000000E+01 0.  1.
        -11    1    1    2    0    0  0.42939663352E+01 -0.45840208186E+02 -0.55118532783E+02  0.71817932924E+02  0.00000000000E+00 0.  1.
         11    1    1    2    0    0  0.51881256133E+02  0.30563338369E+02 -0.37767215005E+02  0.71078442016E+02  0.00000000000E+00 0. -1.
<mgrwt>
<rscale>  0 0.12989699E+03</rscale>
<asrwt>0</asrwt>
<pdfrwt beam="2">  1        1 0.81119807E-01 0.13789122E+03</pdfrwt>
<pdfrwt beam="1">  1       -1 0.56333153E-02 0.13789122E+03</pdfrwt>
<totfact> 0.59487763E+03</totfact>
</mgrwt>
</event>
<event>
 6    1  0.8353100E-006  0.2978822E+03  0.7546771E-02  0.1086580E+00
          2   -1    0    0  501    0  0.00000000000E+00  0.00000000000E+00  0.17431184664E+03  0.17431184664E+03  0.00000000000E+00 0. -1.
         -2   -1    0    0    0  501 -0.00000000000E+00 -0.00000000000E+00 -0.53294377312E+03  0.53294377312E+03  0.00000000000E+00 0.  1.
          5    1    1    2  502    0 -0.54870745026E+01 -0.83199160602E+01 -0.72722247140E+02  0.73552323002E+02  0.47000000000E+01 0.  1.
         -5    1    1    2    0  502 -0.40011413839E+00 -0.25960286385E+03 -0.18645065147E+03  0.31965566231E+03  0.47000000000E+01 0.  1.
        -11    1    1    2    0    0 -0.58989629065E+02  0.17293160433E+03 -0.56430209484E+02  0.19123149494E+03  0.00000000000E+00 0. -1.
         11    1    1    2    0    0  0.64876817706E+02  0.94991175579E+02 -0.43028818385E+02  0.12281613951E+03  0.00000000000E+00 0.  1.
<mgrwt>
<rscale>  0 0.29733662E+03</rscale>
<asrwt>0</asrwt>
<pdfrwt beam="1">  1        2 0.26817207E-01 0.29788222E+03</pdfrwt>
<pdfrwt beam="2">  1       -2 0.81991349E-01 0.29788222E+03</pdfrwt>
<totfact> 0.26913524E+02</totfact>
</mgrwt>
</event>
<event>
 6    1  0.8353100E-006  0.1281887E+03  0.7546771E-02  0.1244285E+00
          2   -1    0    0  501    0  0.00000000000E+00  0.00000000000E+00  0.79012495158E+03  0.79012495158E+03  0.00000000000E+00 0. -1.
         -2   -1    0    0    0  501 -0.00000000000E+00 -0.00000000000E+00 -0.15922367384E+02  0.15922367384E+02  0.00000000000E+00 0.  1.
          5    1    1    2  502    0 -0.10591015265E+02 -0.12036385050E+02  0.40068845766E+03  0.40103662460E+03  0.47000000000E+01 0.  1.
         -5    1    1    2    0  502  0.27202160467E+02  0.35263414072E+02  0.48187202754E+02  0.65784210988E+02  0.47000000000E+01 0.  1.
        -11    1    1    2    0    0 -0.10720951433E+02  0.32391214107E+02  0.18581015429E+03  0.18891676206E+03  0.00000000000E+00 0. -1.
         11    1    1    2    0    0 -0.58901937684E+01 -0.55618243129E+02  0.13951676949E+03  0.15030972131E+03  0.00000000000E+00 0.  1.
<mgrwt>
<rscale>  0 0.11928301E+03</rscale>
<asrwt>0</asrwt>
<pdfrwt beam="1">  1        2 0.12155765E+00 0.12818867E+03</pdfrwt>
<pdfrwt beam="2">  1       -2 0.24495956E-02 0.12818867E+03</pdfrwt>
<totfact> 0.19501257E+04</totfact>
</mgrwt>
</event>
<event>
 6    1  0.8353100E-006  0.1256833E+03  0.7546771E-02  0.1251345E+00
          1   -1    0    0  501    0  0.00000000000E+00  0.00000000000E+00  0.11137050410E+04  0.11137050410E+04  0.00000000000E+00 0. -1.
         -1   -1    0    0    0  501 -0.00000000000E+00 -0.00000000000E+00 -0.10650706143E+02  0.10650706143E+02  0.00000000000E+00 0.  1.
          5    1    1    2  502    0 -0.18275421730E+02  0.35078593264E+02  0.89105460639E+02  0.97603134481E+02  0.47000000000E+01 0.  1.
         -5    1    1    2    0  502  0.29388092253E+02 -0.42238067874E+02  0.65565493058E+03  0.65768776204E+03  0.47000000000E+01 0.  1.
        -11    1    1    2    0    0  0.29188899445E+01  0.46399683322E+02  0.20515484280E+03  0.21035674473E+03  0.00000000000E+00 0.  1.
         11    1    1    2    0    0 -0.14031560468E+02 -0.39240208712E+02  0.15313910084E+03  0.15870810589E+03  0.00000000000E+00 0. -1.
<mgrwt>
<rscale>  0 0.11513527E+03</rscale>
<asrwt>0</asrwt>
<pdfrwt beam="1">  1        1 0.17133914E+00 0.12568332E+03</pdfrwt>
<pdfrwt beam="2">  1       -1 0.16385711E-02 0.12568332E+03</pdfrwt>
<totfact> 0.11617930E+04</totfact>
</mgrwt>
</event>
<event>
 6    1  0.8353100E-006  0.1300502E+03  0.7546771E-02  0.1246005E+00
          1   -1    0    0  501    0  0.00000000000E+00  0.00000000000E+00  0.51143695308E+02  0.51143695308E+02  0.00000000000E+00 0. -1.
         -1   -1    0    0    0  501 -0.00000000000E+00 -0.00000000000E+00 -0.31871157443E+03  0.31871157443E+03  0.00000000000E+00 0.  1.
          5    1    1    2  502    0 -0.60861059481E+02  0.23030882165E+02 -0.29037149051E+01  0.65307056699E+02  0.47000000000E+01 0.  1.
         -5    1    1    2    0  502  0.52233483406E+02  0.11803965450E+02 -0.55465956695E+02  0.77241392667E+02  0.47000000000E+01 0.  1.
        -11    1    1    2    0    0  0.30491616287E+02 -0.25739039177E+02 -0.19635340960E+03  0.20036690910E+03  0.00000000000E+00 0.  1.
         11    1    1    2    0    0 -0.21864040211E+02 -0.90958084385E+01 -0.12844797918E+02  0.26939911267E+02  0.00000000000E+00 0. -1.
<mgrwt>
<rscale>  0 0.11825444E+03</rscale>
<asrwt>0</asrwt>
<pdfrwt beam="1">  1        1 0.78682607E-02 0.13005015E+03</pdfrwt>
<pdfrwt beam="2">  1       -1 0.49032551E-01 0.13005015E+03</pdfrwt>
<totfact> 0.36296077E+03</totfact>
</mgrwt>
</event>
<event>
 6    1  0.8353100E-006  0.2639472E+03  0.7546771E-02  0.1104795E+00
         -1   -1    0    0    0  501 -0.00000000000E+00  0.00000000000E+00  0.75006264277E+02  0.75006264277E+02  0.00000000000E+00 0.  1.
          1   -1    0    0  501    0  0.00000000000E+00 -0.00000000000E+00 -0.23220770090E+03  0.23220770090E+03  0.00000000000E+00 0. -1.
          5    1    1    2  502    0 -0.91319662758E+01  0.71066029177E+02 -0.14335776066E+03  0.16033499572E+03  0.47000000000E+01 0. -1.
         -5    1    1    2    0  502  0.12042365242E+02 -0.28413062292E+00  0.23467461370E+02  0.26793861872E+02  0.47000000000E+01 0. -1.
        -11    1    1    2    0    0 -0.13094955617E+02 -0.55058173061E+02 -0.65295936429E+02  0.86408562062E+02  0.00000000000E+00 0. -1.
         11    1    1    2    0    0  0.10184556651E+02 -0.15723725493E+02  0.27984799100E+02  0.33676545521E+02  0.00000000000E+00 0.  1.
<mgrwt>
<rscale>  0 0.26394721E+03</rscale>
<asrwt>0</asrwt>
<pdfrwt beam="2">  1        1 0.35724261E-01 0.26394721E+03</pdfrwt>
<pdfrwt beam="1">  1       -1 0.11539426E-01 0.26394721E+03</pdfrwt>
<totfact> 0.58537096E+03</totfact>
</mgrwt>
</event>
<event>
 6    1  0.8353100E-006  0.1782422E+03  0.7546771E-02  0.1175527E+00
          2   -1    0    0  501    0  0.00000000000E+00  0.00000000000E+00  0.96755672043E+03  0.96755672043E+03  0.00000000000E+00 0. -1.
         -2   -1    0    0    0  501 -0.00000000000E+00 -0.00000000000E+00 -0.34950139787E+02  0.34950139787E+02  0.00000000000E+00 0.  1.
          5    1    1    2  502    0 -0.49636884680E+02 -0.32341748756E+02  0.55373245075E+03  0.55691249406E+03  0.47000000000E+01 0. -1.
         -5    1    1    2    0  502 -0.17172200290E+02 -0.75736685000E+02  0.14920369633E+03  0.16826991090E+03  0.47000000000E+01 0. -1.
        -11    1    1    2    0    0 -0.26245525729E+01  0.29703723375E+02  0.60825919876E+01  0.30433491154E+02  0.00000000000E+00 0.  1.
         11    1    1    2    0    0  0.69433637543E+02  0.78374710381E+02  0.22358784158E+03  0.24689096410E+03  0.00000000000E+00 0. -1.
<mgrwt>
<rscale>  0 0.17224469E+03</rscale>
<asrwt>0</asrwt>
<pdfrwt beam="1">  1        2 0.14885486E+00 0.17824223E+03</pdfrwt>
<pdfrwt beam="2">  1       -2 0.53769453E-02 0.17824223E+03</pdfrwt>
<totfact> 0.47496864E+03</totfact>
</mgrwt>
</event>
<event>
 6    1  0.8353100E-006  0.1669493E+03  0.7546771E-02  0.1188134E+00
         -1   -1    0    0    0  501 -0.00000000000E+00  0.00000000000E+00  0.46098905664E+03  0.46098905664E+03  0.00000000000E+00 0.  1.
          1   -1    0    0  501    0  0.00000000000E+00 -0.00000000000E+00 -0.96307752258E+02  0.96307752258E+02  0.00000000000E+00 0. -1.
          5    1    1    2  502    0 -0.16060048456E+02  0.32613061423E+02 -0.53914433944E+02  0.65195039069E+02  0.47000000000E+01 0. -1.
         -5    1    1    2    0  502  0.39789372899E+02  0.75489635361E+02  0.55236091896E+02  0.10175949632E+03  0.47000000000E+01 0. -1.
        -11    1    1    2    0    0 -0.55844605599E+02 -0.58773741475E+02  0.17230593763E+03  0.19042664941E+03  0.00000000000E+00 0.  1.
         11    1    1    2    0    0  0.32115281156E+02 -0.49328955309E+02  0.19105370880E+03  0.19991562410E+03  0.00000000000E+00 0. -1.
<mgrwt>
<rscale>  0 0.16049960E+03</rscale>
<asrwt>0</asrwt>
<pdfrwt beam="2">  1        1 0.14816578E-01 0.16694930E+03</pdfrwt>
<pdfrwt beam="1">  1       -1 0.70921392E-01 0.16694930E+03</pdfrwt>
<totfact> 0.78712035E+02</totfact>
</mgrwt>
</event>
<event>
 6    1  0.8353100E-006  0.1293155E+03  0.7546771E-02  0.1243330E+00
          1   -1    0    0  501    0  0.00000000000E+00  0.00000000000E+00  0.13964719050E+04  0.13964719050E+04  0.00000000000E+00 0. -1.
         -1   -1    0    0    0  501 -0.00000000000E+00 -0.00000000000E+00 -0.91721900166E+01  0.91721900166E+01  0.00000000000E+00 0.  1.
          5    1    1    2  502    0 -0.80760957577E+02  0.25996107354E+00  0.51788167613E+03  0.52416211263E+03  0.47000000000E+01 0. -1.
         -5    1    1    2    0  502  0.47748938284E+02  0.22971697713E+01  0.36121412512E+03  0.36439397949E+03  0.47000000000E+01 0. -1.
        -11    1    1    2    0    0  0.51585584743E+02  0.28244190241E+02  0.34397837866E+03  0.34896981506E+03  0.00000000000E+00 0.  1.
         11    1    1    2    0    0 -0.18573565451E+02 -0.30801321086E+02  0.16422553509E+03  0.16811818786E+03  0.00000000000E+00 0. -1.
<mgrwt>
<rscale>  0 0.11985896E+03</rscale>
<asrwt>0</asrwt>
<pdfrwt beam="1">  1        1 0.21484166E+00 0.12931551E+03</pdfrwt>
<pdfrwt beam="2">  1       -1 0.14111073E-02 0.12931551E+03</pdfrwt>
<totfact> 0.92905158E+03</totfact>
</mgrwt>
</event>
<event>
 6    1  0.8353100E-006  0.1504021E+03  0.7546771E-02  0.1216330E+00
         -1   -1    0    0    0  501 -0.00000000000E+00  0.00000000000E+00  0.14023515105E+03  0.14023515105E+03  0.00000000000E+00 0.  1.
          1   -1    0    0  501    0  0.00000000000E+00 -0.00000000000E+00 -0.44391221390E+03  0.44391221390E+03  0.00000000000E+00 0. -1.
          5    1    1    2  502    0  0.78219749148E+02  0.87204292943E+01 -0.12825369788E+03  0.15055057643E+03  0.47000000000E+01 0. -1.
         -5    1    1    2    0  502 -0.36711462489E+02 -0.34384611795E+02 -0.28011874463E+03  0.28463772431E+03  0.47000000000E+01 0.  1.
        -11    1    1    2    0    0 -0.60800149575E+02 -0.12542210031E+02  0.51347133000E+02  0.80563597785E+02  0.00000000000E+00 0.  1.
         11    1    1    2    0    0  0.19291862916E+02  0.38206392531E+02  0.53348246659E+02  0.68395466418E+02  0.00000000000E+00 0. -1.
<mgrwt>
<rscale>  0 0.13779288E+03</rscale>
<asrwt>0</asrwt>
<pdfrwt beam="2">  1        1 0.68294186E-01 0.15040215E+03</pdfrwt>
<pdfrwt beam="1">  1       -1 0.21574639E-01 0.15040215E+03</pdfrwt>
<totfact> 0.93996966E+02</totfact>
</mgrwt>
</event>
<event>
 6    1  0.8353100E-006  0.1482618E+03  0.7546771E-02  0.1212023E+00
         -2   -1    0    0    0  501 -0.00000000000E+00  0.00000000000E+00  0.38472578056E+02  0.38472578056E+02  0.00000000000E+00 0.  1.
          2   -1    0    0  501    0  0.00000000000E+00 -0.00000000000E+00 -0.59258599669E+03  0.59258599669E+03  0.00000000000E+00 0. -1.
          5    1    1    2  502    0  0.49245042523E+00  0.46103045804E+02 -0.35650277758E+02  0.58470211595E+02  0.47000000000E+01 0. -1.
         -5    1    1    2    0  502  0.36340461530E+01  0.33569205755E+02 -0.40544038225E+03  0.40687109927E+03  0.47000000000E+01 0. -1.
        -11    1    1    2    0    0  0.56912453549E+01 -0.71159015322E+02 -0.12758610499E+03  0.14619921313E+03  0.00000000000E+00 0. -1.
         11    1    1    2    0    0 -0.98177419331E+01 -0.85132362363E+01  0.14563346356E+02  0.19518050747E+02  0.00000000000E+00 0.  1.
<mgrwt>
<rscale>  0 0.14097515E+03</rscale>
<asrwt>0</asrwt>
<pdfrwt beam="2">  1        2 0.91167071E-01 0.14826181E+03</pdfrwt>
<pdfrwt beam="1">  1       -2 0.59188585E-02 0.14826181E+03</pdfrwt>
<totfact> 0.74652563E+03</totfact>
</mgrwt>
</event>
<event>
 6    1  0.8353100E-006  0.1617211E+03  0.7546771E-02  0.1192856E+00
         -2   -1    0    0    0  501 -0.00000000000E+00  0.00000000000E+00  0.15826421147E+03  0.15826421147E+03  0.00000000000E+00 0.  1.
          2   -1    0    0  501    0  0.00000000000E+00 -0.00000000000E+00 -0.14719069642E+03  0.14719069642E+03  0.00000000000E+00 0. -1.
          5    1    1    2  502    0 -0.57931747244E+02 -0.26602800444E+02  0.21971380363E+02  0.67591625852E+02  0.47000000000E+01 0. -1.
         -5    1    1    2    0  502  0.45698498759E+02 -0.75271871750E+02 -0.34228423829E+02  0.94593247451E+02  0.47000000000E+01 0. -1.
        -11    1    1    2    0    0  0.20207963992E+02  0.55213385994E+02 -0.34785190548E+02  0.68314634472E+02  0.00000000000E+00 0. -1.
         11    1    1    2    0    0 -0.79747155065E+01  0.46661286200E+02  0.58115749059E+02  0.74955400112E+02  0.00000000000E+00 0.  1.
<mgrwt>
<rscale>  0 0.15637047E+03</rscale>
<asrwt>0</asrwt>
<pdfrwt beam="2">  1        2 0.22644723E-01 0.16172105E+03</pdfrwt>
<pdfrwt beam="1">  1       -2 0.24348340E-01 0.16172105E+03</pdfrwt>
<totfact> 0.34810640E+03</totfact>
</mgrwt>
</event>
<event>
 6    1  0.8353100E-006  0.1396223E+03  0.7546771E-02  0.1224968E+00
          2   -1    0    0  501    0  0.00000000000E+00  0.00000000000E+00  0.16206261633E+03  0.16206261633E+03  0.00000000000E+00 0. -1.
         -2   -1    0    0    0  501 -0.00000000000E+00 -0.00000000000E+00 -0.10100408137E+03  0.10100408137E+03  0.00000000000E+00 0.  1.
          5    1    1    2  502    0 -0.65978895463E+02  0.23859434245E+02 -0.16020735998E+02  0.72119631383E+02  0.47000000000E+01 0. -1.
         -5    1    1    2    0  502  0.16160264143E+02  0.13392235766E+02  0.77517308139E+02  0.80445815162E+02  0.47000000000E+01 0. -1.
        -11    1    1    2    0    0  0.69423298302E+02 -0.31559047753E+02  0.22775433789E+02  0.79588241760E+02  0.00000000000E+00 0. -1.
         11    1    1    2    0    0 -0.19604666982E+02 -0.56926222577E+01 -0.23213470963E+02  0.30913009394E+02  0.00000000000E+00 0.  1.
<mgrwt>
<rscale>  0 0.13169129E+03</rscale>
<asrwt>0</asrwt>
<pdfrwt beam="1">  1        2 0.24932710E-01 0.13962230E+03</pdfrwt>
<pdfrwt beam="2">  1       -2 0.15539090E-01 0.13962230E+03</pdfrwt>
<totfact> 0.66251722E+03</totfact>
</mgrwt>
</event>
<event>
 6    1  0.8353100E-006  0.1303694E+03  0.7546771E-02  0.1241147E+00
         -1   -1    0    0    0  501 -0.00000000000E+00  0.00000000000E+00  0.32761682226E+03  0.32761682226E+03  0.00000000000E+00 0.  1.
          1   -1    0    0  501    0  0.00000000000E+00 -0.00000000000E+00 -0.40892270163E+02  0.40892270163E+02  0.00000000000E+00 0. -1.
          5    1    1    2  502    0  0.32275905134E+02  0.29373738619E+01 -0.10646667296E+02  0.34435501186E+02  0.47000000000E+01 0. -1.
         -5    1    1    2    0  502 -0.30906347056E+02 -0.39938145522E+02  0.14133777222E+03  0.15016229091E+03  0.47000000000E+01 0. -1.
        -11    1    1    2    0    0  0.30044433862E+02  0.11709850572E+02  0.13426303022E+03  0.13808095412E+03  0.00000000000E+00 0.  1.
         11    1    1    2    0    0 -0.31413991940E+02  0.25290921088E+02  0.21770416956E+02  0.45830346208E+02  0.00000000000E+00 0. -1.
<mgrwt>
<rscale>  0 0.12118956E+03</rscale>
<asrwt>0</asrwt>
<pdfrwt beam="2">  1        1 0.62911187E-02 0.13036940E+03</pdfrwt>
<pdfrwt beam="1">  1       -1 0.50402586E-01 0.13036940E+03</pdfrwt>
<totfact> 0.46667621E+03</totfact>
</mgrwt>
</event>
<event>
 6    1  0.8353100E-006  0.2051348E+03  0.7546771E-02  0.1149181E+00
         -2   -1    0    0    0  501 -0.00000000000E+00  0.00000000000E+00  0.59324935442E+03  0.59324935442E+03  0.00000000000E+00 0.  1.
          2   -1    0    0  501    0  0.00000000000E+00 -0.00000000000E+00 -0.91320316215E+02  0.91320316215E+02  0.00000000000E+00 0. -1.
          5    1    1    2  502    0  0.92064797115E+02 -0.38057590628E+02 -0.21690962108E+02  0.10206319077E+03  0.47000000000E+01 0.  1.
         -5    1    1    2    0  502  0.51791372107E+02 -0.37837531407E+02  0.97153539718E+02  0.11651148135E+03  0.47000000000E+01 0.  1.
        -11    1    1    2    0    0 -0.12976412397E+03  0.94355164553E+02  0.33227660226E+03  0.36898423456E+03  0.00000000000E+00 0. -1.
         11    1    1    2    0    0 -0.14092045255E+02 -0.18460042518E+02  0.94189858336E+02  0.97010763952E+02  0.00000000000E+00 0.  1.
<mgrwt>
<rscale>  0 0.20066288E+03</rscale>
<asrwt>0</asrwt>
<pdfrwt beam="2">  1        2 0.14049280E-01 0.20513480E+03</pdfrwt>
<pdfrwt beam="1">  1       -2 0.91269129E-01 0.20513480E+03</pdfrwt>
<totfact> 0.44559829E+02</totfact>
</mgrwt>
</event>
<event>
 6    1  0.8353100E-006  0.1270385E+03  0.7546771E-02  0.1246371E+00
         -2   -1    0    0    0  501 -0.00000000000E+00  0.00000000000E+00  0.18762092989E+03  0.18762092989E+03  0.00000000000E+00 0.  1.
          2   -1    0    0  501    0  0.00000000000E+00 -0.00000000000E+00 -0.66640095681E+02  0.66640095681E+02  0.00000000000E+00 0. -1.
          5    1    1    2  502    0  0.24482159459E+02  0.18865558319E+01 -0.28973705806E+02  0.38268797378E+02  0.47000000000E+01 0.  1.
         -5    1    1    2    0  502 -0.24325401310E+01 -0.71936876530E+01  0.11456593868E+03  0.11491349224E+03  0.47000000000E+01 0.  1.
        -11    1    1    2    0    0 -0.45846706144E+02  0.14020046731E+02  0.52038504381E+02  0.70756541131E+02  0.00000000000E+00 0.  1.
         11    1    1    2    0    0  0.23797086816E+02 -0.87129149098E+01 -0.16649903048E+02  0.30322194820E+02  0.00000000000E+00 0. -1.
<mgrwt>
<rscale>  0 0.11803686E+03</rscale>
<asrwt>0</asrwt>
<pdfrwt beam="2">  1        2 0.10252322E-01 0.12703851E+03</pdfrwt>
<pdfrwt beam="1">  1       -2 0.28864758E-01 0.12703851E+03</pdfrwt>
<totfact> 0.64179360E+03</totfact>
</mgrwt>
</event>
<event>
 6    1  0.8353100E-006  0.4673670E+03  0.7546771E-02  0.1048017E+00
         -2   -1    0    0    0  501 -0.00000000000E+00  0.00000000000E+00  0.34546513169E+02  0.34546513169E+02  0.00000000000E+00 0.  1.
          2   -1    0    0  501    0  0.00000000000E+00 -0.00000000000E+00 -0.36468480170E+04  0.36468480170E+04  0.00000000000E+00 0. -1.
          5    1    1    2  502    0  0.27468553834E+02  0.12773690418E+03 -0.17556766513E+04  0.17605379383E+04  0.47000000000E+01 0. -1.
         -5    1    1    2    0  502 -0.22855030834E+03 -0.14347497826E+03 -0.10690868858E+04  0.11026283020E+04  0.47000000000E+01 0.  1.
        -11    1    1    2    0    0  0.18495300832E+03 -0.13785596717E+02 -0.70754415580E+03  0.73144814606E+03  0.00000000000E+00 0. -1.
         11    1    1    2    0    0  0.16128746184E+02  0.29523670792E+02 -0.79993810864E+02  0.86780143852E+02  0.00000000000E+00 0.  1.
<mgrwt>
<rscale>  0 0.38799755E+03</rscale>
<asrwt>0</asrwt>
<pdfrwt beam="2">  1        2 0.56105348E+00 0.46736696E+03</pdfrwt>
<pdfrwt beam="1">  1       -2 0.53148487E-02 0.46736696E+03</pdfrwt>
<totfact> 0.13624282E+02</totfact>
</mgrwt>
</event>
<event>
 6    1  0.8353100E-006  0.1263705E+03  0.7546771E-02  0.1250096E+00
          2   -1    0    0  501    0  0.00000000000E+00  0.00000000000E+00  0.53894433773E+03  0.53894433773E+03  0.00000000000E+00 0. -1.
         -2   -1    0    0    0  501 -0.00000000000E+00 -0.00000000000E+00 -0.36536816303E+02  0.36536816303E+02  0.00000000000E+00 0.  1.
          5    1    1    2  502    0  0.10212608981E+02  0.34521446940E+02  0.41922073303E+02  0.55457893135E+02  0.47000000000E+01 0.  1.
         -5    1    1    2    0  502 -0.10910275931E+02 -0.53107877728E+02  0.41733411992E+03  0.42086736444E+03  0.47000000000E+01 0.  1.
        -11    1    1    2    0    0 -0.29756809317E+02  0.28810883662E+02  0.51378085775E+02  0.65994260478E+02  0.00000000000E+00 0. -1.
         11    1    1    2    0    0  0.30454476266E+02 -0.10224452873E+02 -0.82267575690E+01  0.33161635986E+02  0.00000000000E+00 0.  1.
<mgrwt>
<rscale>  0 0.11585520E+03</rscale>
<asrwt>0</asrwt>
<pdfrwt beam="1">  1        2 0.82914508E-01 0.12637049E+03</pdfrwt>
<pdfrwt beam="2">  1       -2 0.56210490E-02 0.12637049E+03</pdfrwt>
<totfact> 0.88915405E+03</totfact>
</mgrwt>
</event>
<event>
 6    1  0.8353100E-006  0.1306686E+03  0.7546771E-02  0.1241181E+00
         -2   -1    0    0    0  501 -0.00000000000E+00  0.00000000000E+00  0.10284916839E+02  0.10284916839E+02  0.00000000000E+00 0.  1.
          2   -1    0    0  501    0  0.00000000000E+00 -0.00000000000E+00 -0.20178810322E+04  0.20178810322E+04  0.00000000000E+00 0. -1.
          5    1    1    2  502    0 -0.46065902525E+02 -0.69075601376E+02 -0.11895443530E+04  0.11924476357E+04  0.47000000000E+01 0. -1.
         -5    1    1    2    0  502  0.32431049966E+02  0.33233549029E+02 -0.52671459155E+03  0.52877839663E+03  0.47000000000E+01 0. -1.
        -11    1    1    2    0    0  0.39219932003E+02  0.34731646687E+02 -0.26528590895E+03  0.27040914156E+03  0.00000000000E+00 0. -1.
         11    1    1    2    0    0 -0.25585079444E+02  0.11104056596E+01 -0.26051261855E+02  0.36530775178E+02  0.00000000000E+00 0.  1.
<mgrwt>
<rscale>  0 0.12116897E+03</rscale>
<asrwt>0</asrwt>
<pdfrwt beam="2">  1        2 0.31044308E+00 0.13066862E+03</pdfrwt>
<pdfrwt beam="1">  1       -2 0.15822957E-02 0.13066862E+03</pdfrwt>
<totfact> 0.78200812E+03</totfact>
</mgrwt>
</event>
<event>
 6    1  0.8353100E-006  0.1316244E+03  0.7546771E-02  0.1238634E+00
         -3   -1    0    0    0  501 -0.00000000000E+00  0.00000000000E+00  0.37808114838E+03  0.37808114838E+03  0.00000000000E+00 0.  1.
          3   -1    0    0  501    0  0.00000000000E+00 -0.00000000000E+00 -0.39672907253E+02  0.39672907253E+02  0.00000000000E+00 0. -1.
          5    1    1    2  502    0 -0.57932275971E+02 -0.35948272509E+02  0.85476345022E+02  0.10943821295E+03  0.47000000000E+01 0. -1.
         -5    1    1    2    0  502  0.59265843387E+02 -0.52895845401E+01  0.36175071725E+02  0.69793593627E+02  0.47000000000E+01 0. -1.
        -11    1    1    2    0    0 -0.38405316834E+02  0.47799240458E+02  0.14649502668E+03  0.15880972449E+03  0.00000000000E+00 0.  1.
         11    1    1    2    0    0  0.37071749418E+02 -0.65613834086E+01  0.70261797698E+02  0.79712524568E+02  0.00000000000E+00 0. -1.
<mgrwt>
<rscale>  0 0.12274613E+03</rscale>
<asrwt>0</asrwt>
<pdfrwt beam="2">  1        3 0.61035245E-02 0.13162436E+03</pdfrwt>
<pdfrwt beam="1">  1       -3 0.58166328E-01 0.13162436E+03</pdfrwt>
<totfact> 0.11146890E+03</totfact>
</mgrwt>
</event>
<event>
 6    1  0.8353100E-006  0.1238827E+03  0.7546771E-02  0.1250578E+00
          1   -1    0    0  501    0  0.00000000000E+00  0.00000000000E+00  0.13385850678E+02  0.13385850678E+02  0.00000000000E+00 0. -1.
         -1   -1    0    0    0  501 -0.00000000000E+00 -0.00000000000E+00 -0.88954690331E+03  0.88954690331E+03  0.00000000000E+00 0.  1.
          5    1    1    2  502    0 -0.44078048072E+02  0.48997543985E+02 -0.32076897648E+03  0.32750337389E+03  0.47000000000E+01 0. -1.
         -5    1    1    2    0  502  0.53180473118E+02 -0.19015815196E+02 -0.20787724490E+03  0.21546415687E+03  0.47000000000E+01 0.  1.
        -11    1    1    2    0    0 -0.41021838951E+02 -0.40881603499E+02 -0.25499106952E+03  0.26148526213E+03  0.00000000000E+00 0.  1.
         11    1    1    2    0    0  0.31919413905E+02  0.10899874709E+02 -0.92523761730E+02  0.98479961095E+02  0.00000000000E+00 0. -1.
<mgrwt>
<rscale>  0 0.11557663E+03</rscale>
<asrwt>0</asrwt>
<pdfrwt beam="1">  1        1 0.20593611E-02 0.12388265E+03</pdfrwt>
<pdfrwt beam="2">  1       -1 0.13685340E+00 0.12388265E+03</pdfrwt>
<totfact> 0.26672153E+03</totfact>
</mgrwt>
</event>
<event>
 6    1  0.8353100E-006  0.2595988E+03  0.7546771E-02  0.1137182E+00
         -1   -1    0    0    0  501 -0.00000000000E+00  0.00000000000E+00  0.21571275202E+02  0.21571275202E+02  0.00000000000E+00 0.  1.
          1   -1    0    0  501    0  0.00000000000E+00 -0.00000000000E+00 -0.23861473754E+04  0.23861473754E+04  0.00000000000E+00 0. -1.
          5    1    1    2  502    0 -0.17242944873E+02  0.17408171950E+03 -0.13240012643E+04  0.13355160809E+04  0.47000000000E+01 0. -1.
         -5    1    1    2    0  502 -0.15092218633E+02 -0.81955527643E+02 -0.77272064780E+03  0.77721539686E+03  0.47000000000E+01 0.  1.
        -11    1    1    2    0    0  0.19195292660E+02 -0.10265817177E+03 -0.20710967282E+03  0.23195166753E+03  0.00000000000E+00 0.  1.
         11    1    1    2    0    0  0.13139870846E+02  0.10531979920E+02 -0.60744515226E+02  0.63035505368E+02  0.00000000000E+00 0. -1.
<mgrwt>
<rscale>  0 0.21563161E+03</rscale>
<asrwt>0</asrwt>
<pdfrwt beam="2">  1        1 0.36709963E+00 0.25959877E+03</pdfrwt>
<pdfrwt beam="1">  1       -1 0.33186574E-02 0.25959877E+03</pdfrwt>
<totfact> 0.61340010E+02</totfact>
</mgrwt>
</event>
<event>
 6    1  0.8353100E-006  0.1315456E+03  0.7546771E-02  0.1239140E+00
          1   -1    0    0  501    0  0.00000000000E+00  0.00000000000E+00  0.41650235598E+03  0.41650235598E+03  0.00000000000E+00 0. -1.
         -1   -1    0    0    0  501 -0.00000000000E+00 -0.00000000000E+00 -0.32235304921E+02  0.32235304921E+02  0.00000000000E+00 0.  1.
          5    1    1    2  502    0 -0.29435718969E+02  0.71499851050E+02  0.10616329426E+03  0.13142079477E+03  0.47000000000E+01 0. -1.
         -5    1    1    2    0  502 -0.34328513141E+01 -0.47034467435E+02  0.13818877576E+03  0.14608988103E+03  0.47000000000E+01 0. -1.
        -11    1    1    2    0    0  0.20057348733E+02 -0.34834614937E+02  0.14764760162E+03  0.15302144262E+03  0.00000000000E+00 0. -1.
         11    1    1    2    0    0  0.12811221550E+02  0.10369231322E+02 -0.77326205786E+01  0.18205542475E+02  0.00000000000E+00 0.  1.
<mgrwt>
<rscale>  0 0.12243086E+03</rscale>
<asrwt>0</asrwt>
<pdfrwt beam="1">  1        1 0.64077282E-01 0.13154559E+03</pdfrwt>
<pdfrwt beam="2">  1       -1 0.49592780E-02 0.13154559E+03</pdfrwt>
<totfact> 0.97107059E+03</totfact>
</mgrwt>
</event>
<event>
 6    1  0.8353100E-006  0.1331948E+03  0.7546771E-02  0.1235565E+00
          2   -1    0    0  501    0  0.00000000000E+00  0.00000000000E+00  0.12866841476E+03  0.12866841476E+03  0.00000000000E+00 0. -1.
         -2   -1    0    0    0  501 -0.00000000000E+00 -0.00000000000E+00 -0.13636707901E+03  0.13636707901E+03  0.00000000000E+00 0.  1.
          5    1    1    2  502    0 -0.35042171042E+02  0.72330240198E+01  0.51421141709E+02  0.62821128631E+02  0.47000000000E+01 0.  1.
         -5    1    1    2    0  502  0.77580277619E+02 -0.24721101608E+02  0.46411445741E+01  0.81691263689E+02  0.47000000000E+01 0.  1.
        -11    1    1    2    0    0 -0.23139416838E+02  0.28415474157E+02  0.14309443017E+02  0.39339953516E+02  0.00000000000E+00 0. -1.
         11    1    1    2    0    0 -0.19398689738E+02 -0.10927396568E+02 -0.78070393549E+02  0.81183147933E+02  0.00000000000E+00 0.  1.
<mgrwt>
<rscale>  0 0.12468343E+03</rscale>
<asrwt>0</asrwt>
<pdfrwt beam="1">  1        2 0.19795141E-01 0.13319479E+03</pdfrwt>
<pdfrwt beam="2">  1       -2 0.20979551E-01 0.13319479E+03</pdfrwt>
<totfact> 0.51765758E+03</totfact>
</mgrwt>
</event>
<event>
 6    1  0.8353100E-006  0.1487175E+03  0.7546771E-02  0.1206444E+00
          2   -1    0    0  501    0  0.00000000000E+00  0.00000000000E+00  0.11197849331E+03  0.11197849331E+03  0.00000000000E+00 0. -1.
         -2   -1    0    0    0  501 -0.00000000000E+00 -0.00000000000E+00 -0.18833954937E+03  0.18833954937E+03  0.00000000000E+00 0.  1.
          5    1    1    2  502    0  0.83203942883E+02 -0.53424468541E+02 -0.36314112061E+02  0.10544133291E+03  0.47000000000E+01 0. -1.
         -5    1    1    2    0  502 -0.21681668838E+02 -0.25072214095E+02  0.27805258753E+02  0.43519341649E+02  0.47000000000E+01 0.  1.
        -11    1    1    2    0    0 -0.47125067144E+02  0.53823844983E+02  0.63759068219E+01  0.71822214042E+02  0.00000000000E+00 0. -1.
         11    1    1    2    0    0 -0.14397206901E+02  0.24672837654E+02 -0.74228109573E+02  0.79535154084E+02  0.00000000000E+00 0.  1.
<mgrwt>
<rscale>  0 0.14524228E+03</rscale>
<asrwt>0</asrwt>
<pdfrwt beam="1">  1        2 0.17227461E-01 0.14871746E+03</pdfrwt>
<pdfrwt beam="2">  1       -2 0.28975315E-01 0.14871746E+03</pdfrwt>
<totfact> 0.34766319E+03</totfact>
</mgrwt>
</event>
<event>
 6    1  0.8353100E-006  0.1288586E+03  0.7546771E-02  0.1243408E+00
          2   -1    0    0  501    0  0.00000000000E+00  0.00000000000E+00  0.22390291157E+03  0.22390291157E+03  0.00000000000E+00 0. -1.
         -2   -1    0    0    0  501 -0.00000000000E+00 -0.00000000000E+00 -0.57243352992E+02  0.57243352992E+02  0.00000000000E+00 0.  1.
          5    1    1    2  502    0  0.48770434019E+02 -0.38012780147E+01  0.13189158645E+03  0.14074972656E+03  0.47000000000E+01 0.  1.
         -5    1    1    2    0  502 -0.17661041364E+02  0.35873293794E+00 -0.22000749527E+02  0.28603567105E+02  0.47000000000E+01 0.  1.
        -11    1    1    2    0    0  0.18680283039E+02 -0.43716912703E+01 -0.14820288152E+02  0.24242640117E+02  0.00000000000E+00 0.  1.
         11    1    1    2    0    0 -0.49789675693E+02  0.78142363470E+01  0.71589009801E+02  0.87550330780E+02  0.00000000000E+00 0. -1.
<mgrwt>
<rscale>  0 0.11981170E+03</rscale>
<asrwt>0</asrwt>
<pdfrwt beam="1">  1        2 0.34446601E-01 0.12885861E+03</pdfrwt>
<pdfrwt beam="2">  1       -2 0.88066698E-02 0.12885861E+03</pdfrwt>
<totfact> 0.11463568E+04</totfact>
</mgrwt>
</event>
<event>
 6    1  0.8353100E-006  0.1782077E+03  0.7546771E-02  0.1175493E+00
          2   -1    0    0  501    0  0.00000000000E+00  0.00000000000E+00  0.15541694081E+04  0.15541694081E+04  0.00000000000E+00 0. -1.
         -2   -1    0    0    0  501 -0.00000000000E+00 -0.00000000000E+00 -0.18443658310E+02  0.18443658310E+02  0.00000000000E+00 0.  1.
          5    1    1    2  502    0 -0.74580599464E+02 -0.47632343668E+02  0.27497113349E+03  0.28889846008E+03  0.47000000000E+01 0. -1.
         -5    1    1    2    0  502 -0.51279761935E+02  0.30571367970E+02  0.67440089130E+03  0.67705455815E+03  0.47000000000E+01 0. -1.
        -11    1    1    2    0    0  0.11067399693E+03  0.48268313329E+02  0.46777972520E+03  0.48311120353E+03  0.00000000000E+00 0. -1.
         11    1    1    2    0    0  0.15186364470E+02 -0.31207337631E+02  0.11857399978E+03  0.12354884464E+03  0.00000000000E+00 0.  1.
<mgrwt>
<rscale>  0 0.17227787E+03</rscale>
<asrwt>0</asrwt>
<pdfrwt beam="1">  1        2 0.23910288E+00 0.17820772E+03</pdfrwt>
<pdfrwt beam="2">  1       -2 0.28374871E-02 0.17820772E+03</pdfrwt>
<totfact> 0.58234205E+03</totfact>
</mgrwt>
</event>
<event>
 6    1  0.8353100E-006  0.1298351E+03  0.7546771E-02  0.1241468E+00
          1   -1    0    0  501    0  0.00000000000E+00  0.00000000000E+00  0.66208098928E+03  0.66208098928E+03  0.00000000000E+00 0. -1.
         -1   -1    0    0    0  501 -0.00000000000E+00 -0.00000000000E+00 -0.19904032515E+02  0.19904032515E+02  0.00000000000E+00 0.  1.
          5    1    1    2  502    0 -0.32938678739E+02 -0.24701249393E+02  0.25730751899E+03  0.26062301819E+03  0.47000000000E+01 0. -1.
         -5    1    1    2    0  502  0.67983236639E+02  0.26776976594E+02  0.15071093378E+03  0.16755477463E+03  0.47000000000E+01 0. -1.
        -11    1    1    2    0    0 -0.63201829366E+02 -0.14427580791E+02  0.18272236594E+03  0.19388163744E+03  0.00000000000E+00 0. -1.
         11    1    1    2    0    0  0.28157271466E+02  0.12351853590E+02  0.51436138052E+02  0.59925591539E+02  0.00000000000E+00 0.  1.
<mgrwt>
<rscale>  0 0.12099284E+03</rscale>
<asrwt>0</asrwt>
<pdfrwt beam="1">  1        1 0.10185860E+00 0.12983514E+03</pdfrwt>
<pdfrwt beam="2">  1       -1 0.30621594E-02 0.12983514E+03</pdfrwt>
<totfact> 0.10662165E+04</totfact>
</mgrwt>
</event>
<event>
 6    1  0.8353100E-006  0.1160787E+03  0.7546771E-02  0.1259824E+00
          1   -1    0    0  501    0  0.00000000000E+00  0.00000000000E+00  0.32671291101E+03  0.32671291101E+03  0.00000000000E+00 0. -1.
         -1   -1    0    0    0  501 -0.00000000000E+00 -0.00000000000E+00 -0.59683462216E+02  0.59683462216E+02  0.00000000000E+00 0.  1.
          5    1    1    2  502    0  0.35174458750E+01  0.20449873716E+02  0.27142551664E+03  0.27225809601E+03  0.47000000000E+01 0. -1.
         -5    1    1    2    0  502 -0.17996306848E+02  0.18845419530E+01 -0.41373611687E+01  0.19147488504E+02  0.47000000000E+01 0.  1.
        -11    1    1    2    0    0 -0.12327165739E+02  0.23173138169E+02  0.25175697593E+02  0.36369892728E+02  0.00000000000E+00 0. -1.
         11    1    1    2    0    0  0.26806026713E+02 -0.45507553838E+02 -0.25434404275E+02  0.58620895978E+02  0.00000000000E+00 0.  1.
<mgrwt>
<rscale>  0 0.11040386E+03</rscale>
<asrwt>0</asrwt>
<pdfrwt beam="1">  1        1 0.50263524E-01 0.11607867E+03</pdfrwt>
<pdfrwt beam="2">  1       -1 0.91820713E-02 0.11607867E+03</pdfrwt>
<totfact> 0.51953721E+03</totfact>
</mgrwt>
</event>
<event>
 6    1  0.8353100E-006  0.1836684E+03  0.7546771E-02  0.1169510E+00
          2   -1    0    0  501    0  0.00000000000E+00  0.00000000000E+00  0.16982508610E+04  0.16982508610E+04  0.00000000000E+00 0. -1.
         -2   -1    0    0    0  501 -0.00000000000E+00 -0.00000000000E+00 -0.32202986129E+02  0.32202986129E+02  0.00000000000E+00 0.  1.
          5    1    1    2  502    0  0.37229315665E+02  0.75512970079E+01  0.43342778586E+03  0.43511467406E+03  0.47000000000E+01 0. -1.
         -5    1    1    2    0  502 -0.71902987768E+02  0.12247304188E+03  0.10073672009E+04  0.10173398906E+04  0.47000000000E+01 0. -1.
        -11    1    1    2    0    0  0.48169284902E+02 -0.11685455443E+03  0.22620179074E+03  0.25911873153E+03  0.00000000000E+00 0. -1.
         11    1    1    2    0    0 -0.13495612799E+02 -0.13169784457E+02 -0.94890258134E+00  0.18880550934E+02  0.00000000000E+00 0.  1.
<mgrwt>
<rscale>  0 0.17824735E+03</rscale>
<asrwt>0</asrwt>
<pdfrwt beam="1">  1        2 0.26126929E+00 0.18366837E+03</pdfrwt>
<pdfrwt beam="2">  1       -2 0.49543069E-02 0.18366837E+03</pdfrwt>
<totfact> 0.21318636E+03</totfact>
</mgrwt>
</event>
<event>
 6    1  0.8353100E-006  0.1614424E+03  0.7546771E-02  0.1194403E+00
          2   -1    0    0  501    0  0.00000000000E+00  0.00000000000E+00  0.92630654569E+03  0.92630654569E+03  0.00000000000E+00 0. -1.
         -2   -1    0    0    0  501 -0.00000000000E+00 -0.00000000000E+00 -0.27452072190E+02  0.27452072190E+02  0.00000000000E+00 0.  1.
          5    1    1    2  502    0  0.27462993443E+02 -0.12143703882E+03  0.59853502177E+03  0.61136522039E+03  0.47000000000E+01 0.  1.
         -5    1    1    2    0  502 -0.17987467167E+02  0.19709548044E+02  0.49003208036E+02  0.55994818126E+02  0.47000000000E+01 0.  1.
        -11    1    1    2    0    0 -0.40086790560E+02  0.96485992761E+02  0.21152414977E+03  0.23592151981E+03  0.00000000000E+00 0.  1.
         11    1    1    2    0    0  0.30611264284E+02  0.52414980171E+01  0.39792093920E+02  0.50477059552E+02  0.00000000000E+00 0. -1.
<mgrwt>
<rscale>  0 0.15504878E+03</rscale>
<asrwt>0</asrwt>
<pdfrwt beam="1">  1        2 0.14250868E+00 0.16144244E+03</pdfrwt>
<pdfrwt beam="2">  1       -2 0.42233964E-02 0.16144244E+03</pdfrwt>
<totfact> 0.72205940E+03</totfact>
</mgrwt>
</event>
<event>
 6    1  0.8353100E-006  0.1140111E+03  0.7546771E-02  0.1262301E+00
          1   -1    0    0  501    0  0.00000000000E+00  0.00000000000E+00  0.44537947460E+03  0.44537947460E+03  0.00000000000E+00 0. -1.
         -1   -1    0    0    0  501 -0.00000000000E+00 -0.00000000000E+00 -0.44781521910E+02  0.44781521910E+02  0.00000000000E+00 0.  1.
          5    1    1    2  502    0 -0.61029117064E+01 -0.59724752038E+02  0.33239053738E+03  0.33780149626E+03  0.47000000000E+01 0. -1.
         -5    1    1    2    0  502  0.53201331400E+01  0.32380090067E+02  0.41663971608E+02  0.53242375788E+02  0.47000000000E+01 0.  1.
        -11    1    1    2    0    0 -0.51065009284E+01  0.53652506107E+02 -0.88593924873E+01  0.54618280809E+02  0.00000000000E+00 0.  1.
         11    1    1    2    0    0  0.58892794948E+01 -0.26307844136E+02  0.35402836192E+02  0.44498843654E+02  0.00000000000E+00 0. -1.
<mgrwt>
<rscale>  0 0.10907059E+03</rscale>
<asrwt>0</asrwt>
<pdfrwt beam="1">  1        1 0.68519916E-01 0.11401111E+03</pdfrwt>
<pdfrwt beam="2">  1       -1 0.68894652E-02 0.11401111E+03</pdfrwt>
<totfact> 0.54241711E+03</totfact>
</mgrwt>
</event>
<event>
 6    1  0.8353100E-006  0.1765860E+03  0.7546771E-02  0.1228805E+00
          2   -1    0    0  501    0  0.00000000000E+00  0.00000000000E+00  0.73694869250E+02  0.73694869250E+02  0.00000000000E+00 0. -1.
         -2   -1    0    0    0  501 -0.00000000000E+00 -0.00000000000E+00 -0.18125711522E+03  0.18125711522E+03  0.00000000000E+00 0.  1.
          5    1    1    2  502    0  0.20949620986E+02 -0.10255640735E+02  0.51647226930E+02  0.56864671246E+02  0.47000000000E+01 0. -1.
         -5    1    1    2    0  502 -0.61320140436E+02  0.14310313999E+02 -0.11416164772E+03  0.13046040212E+03  0.47000000000E+01 0.  1.
        -11    1    1    2    0    0  0.25711552350E+02  0.10157164065E+02 -0.35750903362E+02  0.45192687431E+02  0.00000000000E+00 0. -1.
         11    1    1    2    0    0  0.14658967101E+02 -0.14211837329E+02 -0.92969218166E+01  0.22434223677E+02  0.00000000000E+00 0.  1.
<mgrwt>
<rscale>  0 0.12909484E+03</rscale>
<asrwt>0</asrwt>
<pdfrwt beam="1">  1        2 0.11337672E-01 0.17658604E+03</pdfrwt>
<pdfrwt beam="2">  1       -2 0.27885710E-01 0.17658604E+03</pdfrwt>
<totfact> 0.61817947E+03</totfact>
</mgrwt>
</event>
<event>
 6    1  0.8353100E-006  0.1436095E+03  0.7546771E-02  0.1221569E+00
          2   -1    0    0  501    0  0.00000000000E+00  0.00000000000E+00  0.46898986762E+03  0.46898986762E+03  0.00000000000E+00 0. -1.
         -2   -1    0    0    0  501 -0.00000000000E+00 -0.00000000000E+00 -0.46067818895E+02  0.46067818895E+02  0.00000000000E+00 0.  1.
          5    1    1    2  502    0 -0.28964046739E+02  0.19105606032E+02  0.26398428223E+02  0.43850965759E+02  0.47000000000E+01 0. -1.
         -5    1    1    2    0  502  0.74103028919E+02  0.35312739158E+02  0.33722714427E+03  0.34710587041E+03  0.47000000000E+01 0. -1.
        -11    1    1    2    0    0  0.33667377672E+01 -0.53549163078E+02  0.93348325029E+01  0.54460874832E+02  0.00000000000E+00 0.  1.
         11    1    1    2    0    0 -0.48505719947E+02 -0.86918211168E+00  0.49961643727E+02  0.69639975510E+02  0.00000000000E+00 0. -1.
<mgrwt>
<rscale>  0 0.13404853E+03</rscale>
<asrwt>0</asrwt>
<pdfrwt beam="1">  1        2 0.72152284E-01 0.14360951E+03</pdfrwt>
<pdfrwt beam="2">  1       -2 0.70873571E-02 0.14360951E+03</pdfrwt>
<totfact> 0.73415628E+03</totfact>
</mgrwt>
</event>
<event>
 6    1  0.8353100E-006  0.3347447E+03  0.7546771E-02  0.1069057E+00
          1   -1    0    0  501    0  0.00000000000E+00  0.00000000000E+00  0.15708948128E+03  0.15708948128E+03  0.00000000000E+00 0. -1.
         -1   -1    0    0    0  501 -0.00000000000E+00 -0.00000000000E+00 -0.17832832228E+03  0.17832832228E+03  0.00000000000E+00 0.  1.
          5    1    1    2  502    0  0.12939714496E+02 -0.77555070113E+01 -0.33537442629E+02  0.37073361843E+02  0.47000000000E+01 0. -1.
         -5    1    1    2    0  502 -0.13984641738E+03  0.92059528707E+01  0.19642437398E+02  0.14159691158E+03  0.47000000000E+01 0. -1.
        -11    1    1    2    0    0  0.67676568845E+02  0.65255378931E+01 -0.49078149016E+02  0.83853236826E+02  0.00000000000E+00 0.  1.
         11    1    1    2    0    0  0.59230134039E+02 -0.79759837526E+01  0.41734313243E+02  0.72894293309E+02  0.00000000000E+00 0. -1.
<mgrwt>
<rscale>  0 0.33474470E+03</rscale>
<asrwt>0</asrwt>
<pdfrwt beam="1">  1        1 0.24167613E-01 0.33474470E+03</pdfrwt>
<pdfrwt beam="2">  1       -1 0.27435126E-01 0.33474470E+03</pdfrwt>
<totfact> 0.23841331E+03</totfact>
</mgrwt>
</event>
<event>
 6    1  0.8353100E-006  0.2475719E+03  0.7546771E-02  0.1117260E+00
          1   -1    0    0  501    0  0.00000000000E+00  0.00000000000E+00  0.60460832664E+03  0.60460832664E+03  0.00000000000E+00 0. -1.
         -1   -1    0    0    0  501 -0.00000000000E+00 -0.00000000000E+00 -0.12209746071E+03  0.12209746071E+03  0.00000000000E+00 0.  1.
          5    1    1    2  502    0 -0.13026996870E+03 -0.30752912220E+02  0.27663956919E+03  0.30735573461E+03  0.47000000000E+01 0.  1.
         -5    1    1    2    0  502 -0.37077525127E+02 -0.10213771664E+03  0.13990353734E+03  0.17720594174E+03  0.47000000000E+01 0.  1.
        -11    1    1    2    0    0  0.85786573614E+02  0.11913183122E+03  0.61927560952E+02  0.15933220713E+03  0.00000000000E+00 0. -1.
         11    1    1    2    0    0  0.81560920213E+02  0.13758797633E+02  0.40401984483E+01  0.82811903866E+02  0.00000000000E+00 0.  1.
<mgrwt>
<rscale>  0 0.24384174E+03</rscale>
<asrwt>0</asrwt>
<pdfrwt beam="1">  1        1 0.93016664E-01 0.24757193E+03</pdfrwt>
<pdfrwt beam="2">  1       -1 0.18784225E-01 0.24757193E+03</pdfrwt>
<totfact> 0.78029150E+02</totfact>
</mgrwt>
</event>
<event>
 6    1  0.8353100E-006  0.1324783E+03  0.7546771E-02  0.1235320E+00
         -2   -1    0    0    0  501 -0.00000000000E+00  0.00000000000E+00  0.16541350078E+03  0.16541350078E+03  0.00000000000E+00 0. -1.
          2   -1    0    0  501    0  0.00000000000E+00 -0.00000000000E+00 -0.11792989917E+03  0.11792989917E+03  0.00000000000E+00 0.  1.
          5    1    1    2  502    0  0.77581696247E+02  0.32439049068E+01 -0.66550691563E+02  0.10237444534E+03  0.47000000000E+01 0. -1.
         -5    1    1    2    0  502 -0.33765901065E+02 -0.58548075771E+01  0.17659530140E+02  0.38837660219E+02  0.47000000000E+01 0. -1.
        -11    1    1    2    0    0  0.65635742720E+01 -0.33757201336E+02  0.62565689729E+02  0.71393940083E+02  0.00000000000E+00 0. -1.
         11    1    1    2    0    0 -0.50379369454E+02  0.36368104007E+02  0.33809073305E+02  0.70737354300E+02  0.00000000000E+00 0.  1.
<mgrwt>
<rscale>  0 0.12483971E+03</rscale>
<asrwt>0</asrwt>
<pdfrwt beam="2">  1        2 0.18143061E-01 0.13247835E+03</pdfrwt>
<pdfrwt beam="1">  1       -2 0.25448231E-01 0.13247835E+03</pdfrwt>
<totfact> 0.40947477E+03</totfact>
</mgrwt>
</event>
<event>
 6    1  0.8353100E-006  0.1348953E+03  0.7546771E-02  0.1232369E+00
          1   -1    0    0  501    0  0.00000000000E+00  0.00000000000E+00  0.21072535381E+03  0.21072535381E+03  0.00000000000E+00 0.  1.
         -1   -1    0    0    0  501 -0.00000000000E+00 -0.00000000000E+00 -0.68901234464E+02  0.68901234464E+02  0.00000000000E+00 0. -1.
          5    1    1    2  502    0 -0.76208121691E+01  0.53916472620E+02  0.61347090905E+02  0.82162146762E+02  0.47000000000E+01 0.  1.
         -5    1    1    2    0  502 -0.42470660587E+02 -0.61780373698E+02  0.30718457714E+02  0.81155931572E+02  0.47000000000E+01 0.  1.
        -11    1    1    2    0    0  0.29079485654E+02  0.24799351552E+02  0.71883151005E+02  0.81411373417E+02  0.00000000000E+00 0.  1.
         11    1    1    2    0    0  0.21011987102E+02 -0.16935450473E+02 -0.22124580281E+02  0.34897136521E+02  0.00000000000E+00 0. -1.
<mgrwt>
<rscale>  0 0.12674371E+03</rscale>
<asrwt>0</asrwt>
<pdfrwt beam="1">  1        1 0.32419285E-01 0.13489525E+03</pdfrwt>
<pdfrwt beam="2">  1       -1 0.10600190E-01 0.13489525E+03</pdfrwt>
<totfact> 0.72458551E+03</totfact>
</mgrwt>
</event>
<event>
 6    1  0.8353100E-006  0.1353518E+03  0.7546771E-02  0.1230684E+00
         -1   -1    0    0    0  501 -0.00000000000E+00  0.00000000000E+00  0.54801991311E+02  0.54801991311E+02  0.00000000000E+00 0.  1.
          1   -1    0    0  501    0  0.00000000000E+00 -0.00000000000E+00 -0.27931138070E+03  0.27931138070E+03  0.00000000000E+00 0. -1.
          5    1    1    2  502    0 -0.75245749602E+02  0.27721374000E+02 -0.13163240140E+03  0.15420627908E+03  0.47000000000E+01 0. -1.
         -5    1    1    2    0  502  0.43848866949E+02  0.13619603148E+02 -0.23906222361E+02  0.51978978349E+02  0.47000000000E+01 0. -1.
        -11    1    1    2    0    0  0.45328227215E+02 -0.74277249791E+01  0.41608860799E+01  0.46120844028E+02  0.00000000000E+00 0.  1.
         11    1    1    2    0    0 -0.13931344562E+02 -0.33913252169E+02 -0.73131651710E+02  0.81807270556E+02  0.00000000000E+00 0. -1.
<mgrwt>
<rscale>  0 0.12784848E+03</rscale>
<asrwt>0</asrwt>
<pdfrwt beam="2">  1        1 0.42970981E-01 0.13535175E+03</pdfrwt>
<pdfrwt beam="1">  1       -1 0.84310757E-02 0.13535175E+03</pdfrwt>
<totfact> 0.72456522E+03</totfact>
</mgrwt>
</event>
<event>
 6    1  0.8353100E-006  0.1536063E+03  0.7546771E-02  0.1204513E+00
          2   -1    0    0  501    0  0.00000000000E+00  0.00000000000E+00  0.10610113333E+04  0.10610113333E+04  0.00000000000E+00 0. -1.
         -2   -1    0    0    0  501 -0.00000000000E+00 -0.00000000000E+00 -0.19195504058E+02  0.19195504058E+02  0.00000000000E+00 0.  1.
          5    1    1    2  502    0  0.30703726595E+02 -0.11364929310E+03  0.54259203138E+03  0.55523606076E+03  0.47000000000E+01 0. -1.
         -5    1    1    2    0  502 -0.23460909627E+02  0.24601833405E+02  0.11216281127E+03  0.11729556991E+03  0.47000000000E+01 0. -1.
        -11    1    1    2    0    0  0.38336921307E+02  0.17044429105E+02  0.15026388620E+03  0.15601111369E+03  0.00000000000E+00 0.  1.
         11    1    1    2    0    0 -0.45579738275E+02  0.72003030585E+02  0.23679710040E+03  0.25166409302E+03  0.00000000000E+00 0. -1.
<mgrwt>
<rscale>  0 0.14675925E+03</rscale>
<asrwt>0</asrwt>
<pdfrwt beam="1">  1        2 0.16323247E+00 0.15360628E+03</pdfrwt>
<pdfrwt beam="2">  1       -2 0.29531553E-02 0.15360628E+03</pdfrwt>
<totfact> 0.10158332E+04</totfact>
</mgrwt>
</event>
<event>
 6    1  0.8353100E-006  0.1344862E+03  0.7546771E-02  0.1232663E+00
          2   -1    0    0  501    0  0.00000000000E+00  0.00000000000E+00  0.35898232038E+03  0.35898232038E+03  0.00000000000E+00 0. -1.
         -2   -1    0    0    0  501 -0.00000000000E+00 -0.00000000000E+00 -0.40516435259E+02  0.40516435259E+02  0.00000000000E+00 0.  1.
          5    1    1    2  502    0  0.67222672859E+02  0.52802972254E+02  0.86523749161E+02  0.12171890073E+03  0.47000000000E+01 0.  1.
         -5    1    1    2    0  502 -0.24160485213E+02 -0.28077464091E+02  0.11207405316E+03  0.11813025196E+03  0.47000000000E+01 0.  1.
        -11    1    1    2    0    0 -0.56956972470E+02 -0.39385784175E+01  0.12185566266E+03  0.13456749844E+03  0.00000000000E+00 0. -1.
         11    1    1    2    0    0  0.13894784824E+02 -0.20786929745E+02 -0.19875798593E+01  0.25082104522E+02  0.00000000000E+00 0.  1.
<mgrwt>
<rscale>  0 0.12655215E+03</rscale>
<asrwt>0</asrwt>
<pdfrwt beam="1">  1        2 0.55228047E-01 0.13448617E+03</pdfrwt>
<pdfrwt beam="2">  1       -2 0.62332980E-02 0.13448617E+03</pdfrwt>
<totfact> 0.11846657E+04</totfact>
</mgrwt>
</event>
<event>
 6    1  0.8353100E-006  0.1355339E+03  0.7546771E-02  0.1231921E+00
          2   -1    0    0  501    0  0.00000000000E+00  0.00000000000E+00  0.25960203223E+03  0.25960203223E+03  0.00000000000E+00 0. -1.
         -2   -1    0    0    0  501 -0.00000000000E+00 -0.00000000000E+00 -0.56377347645E+02  0.56377347645E+02  0.00000000000E+00 0.  1.
          5    1    1    2  502    0 -0.26059207850E+02 -0.27754936493E+02  0.80559929766E+02  0.89226739812E+02  0.47000000000E+01 0. -1.
         -5    1    1    2    0  502  0.77885767064E+02  0.36311166844E+02  0.53094174937E+02  0.10112257394E+03  0.47000000000E+01 0. -1.
        -11    1    1    2    0    0 -0.44765594266E+02 -0.24202454314E+02  0.87238506204E+02  0.10099640682E+03  0.00000000000E+00 0. -1.
         11    1    1    2    0    0 -0.70609649476E+01  0.15646223963E+02 -0.17667926322E+02  0.24633659306E+02  0.00000000000E+00 0.  1.
<mgrwt>
<rscale>  0 0.12703614E+03</rscale>
<asrwt>0</asrwt>
<pdfrwt beam="1">  1        2 0.39938773E-01 0.13553391E+03</pdfrwt>
<pdfrwt beam="2">  1       -2 0.86734383E-02 0.13553391E+03</pdfrwt>
<totfact> 0.10064592E+04</totfact>
</mgrwt>
</event>
<event>
 6    1  0.8353100E-006  0.1280218E+03  0.7546771E-02  0.1245169E+00
         -3   -1    0    0    0  501 -0.00000000000E+00  0.00000000000E+00  0.10895026028E+03  0.10895026028E+03  0.00000000000E+00 0.  1.
          3   -1    0    0  501    0  0.00000000000E+00 -0.00000000000E+00 -0.21945536917E+03  0.21945536917E+03  0.00000000000E+00 0. -1.
          5    1    1    2  502    0  0.60742138839E+02 -0.10884773073E+02 -0.46927723913E+02  0.77668442673E+02  0.47000000000E+01 0. -1.
         -5    1    1    2    0  502 -0.52627726660E+02 -0.15542855991E+02 -0.12581974485E+03  0.13734611818E+03  0.47000000000E+01 0. -1.
        -11    1    1    2    0    0 -0.10075249753E+01  0.59789324768E+02  0.32088699333E+02  0.67863562297E+02  0.00000000000E+00 0.  1.
         11    1    1    2    0    0 -0.71068872043E+01 -0.33361695705E+02  0.30153660539E+02  0.45527506301E+02  0.00000000000E+00 0. -1.
<mgrwt>
<rscale>  0 0.11875259E+03</rscale>
<asrwt>0</asrwt>
<pdfrwt beam="2">  1        3 0.33762364E-01 0.12802177E+03</pdfrwt>
<pdfrwt beam="1">  1       -3 0.16761579E-01 0.12802177E+03</pdfrwt>
<totfact> 0.60441117E+02</totfact>
</mgrwt>
</event>
<event>
 6    1  0.8353100E-006  0.1571828E+03  0.7546771E-02  0.1200745E+00
          2   -1    0    0  501    0  0.00000000000E+00  0.00000000000E+00  0.15175335898E+04  0.15175335898E+04  0.00000000000E+00 0. -1.
         -2   -1    0    0    0  501 -0.00000000000E+00 -0.00000000000E+00 -0.16275518779E+02  0.16275518779E+02  0.00000000000E+00 0.  1.
          5    1    1    2  502    0 -0.41415134678E+02  0.28474223365E+02  0.10220126282E+04  0.10232584703E+04  0.47000000000E+01 0. -1.
         -5    1    1    2    0  502 -0.39633283867E+02  0.21639831643E+02  0.10143375624E+03  0.11113044771E+03  0.47000000000E+01 0. -1.
        -11    1    1    2    0    0  0.87222912310E+02 -0.16048782946E+02  0.20804644355E+03  0.22616083335E+03  0.00000000000E+00 0.  1.
         11    1    1    2    0    0 -0.61744937654E+01 -0.34065272063E+02  0.16976524300E+03  0.17325935722E+03  0.00000000000E+00 0. -1.
<mgrwt>
<rscale>  0 0.14977893E+03</rscale>
<asrwt>0</asrwt>
<pdfrwt beam="1">  1        2 0.23346659E+00 0.15718282E+03</pdfrwt>
<pdfrwt beam="2">  1       -2 0.25039272E-02 0.15718282E+03</pdfrwt>
<totfact> 0.72915375E+03</totfact>
</mgrwt>
</event>
<event>
 6    1  0.8353100E-006  0.3267828E+03  0.7546771E-02  0.1072569E+00
         -1   -1    0    0    0  501 -0.00000000000E+00  0.00000000000E+00  0.73939448254E+02  0.73939448254E+02  0.00000000000E+00 0.  1.
          1   -1    0    0  501    0  0.00000000000E+00 -0.00000000000E+00 -0.36106231524E+03  0.36106231524E+03  0.00000000000E+00 0. -1.
          5    1    1    2  502    0  0.32277490740E+02 -0.53202476449E+01 -0.99320027209E+02  0.10467425303E+03  0.47000000000E+01 0. -1.
         -5    1    1    2    0  502 -0.10923390354E+03 -0.24800851433E+02 -0.17303546654E+03  0.20618072314E+03  0.47000000000E+01 0. -1.
        -11    1    1    2    0    0  0.35181152924E+02 -0.15455175286E+02  0.29216737949E+02  0.48272080342E+02  0.00000000000E+00 0.  1.
         11    1    1    2    0    0  0.41775259873E+02  0.45576274364E+02 -0.43984111189E+02  0.75874706981E+02  0.00000000000E+00 0. -1.
<mgrwt>
<rscale>  0 0.32678279E+03</rscale>
<asrwt>0</asrwt>
<pdfrwt beam="2">  1        1 0.55548048E-01 0.32678279E+03</pdfrwt>
<pdfrwt beam="1">  1       -1 0.11375300E-01 0.32678279E+03</pdfrwt>
<totfact> 0.34494901E+03</totfact>
</mgrwt>
</event>
<event>
 6    1  0.8353100E-006  0.1865611E+03  0.7546771E-02  0.1182855E+00
         -1   -1    0    0    0  501 -0.00000000000E+00  0.00000000000E+00  0.14432917823E+03  0.14432917823E+03  0.00000000000E+00 0.  1.
          1   -1    0    0  501    0  0.00000000000E+00 -0.00000000000E+00 -0.34157430055E+03  0.34157430055E+03  0.00000000000E+00 0. -1.
          5    1    1    2  502    0 -0.10123816078E+03 -0.23897724128E+02 -0.20006619009E+03  0.22554120873E+03  0.47000000000E+01 0. -1.
         -5    1    1    2    0  502  0.42166315430E+02  0.65133200258E+02 -0.85390002645E+02  0.11547239707E+03  0.47000000000E+01 0.  1.
        -11    1    1    2    0    0  0.66269492161E+02 -0.49213513618E+02  0.33417152759E+02  0.89052353210E+02  0.00000000000E+00 0. -1.
         11    1    1    2    0    0 -0.71976468071E+01  0.79780374883E+01  0.54793917658E+02  0.55837519770E+02  0.00000000000E+00 0.  1.
<mgrwt>
<rscale>  0 0.16528612E+03</rscale>
<asrwt>0</asrwt>
<pdfrwt beam="2">  1        1 0.52549892E-01 0.18656109E+03</pdfrwt>
<pdfrwt beam="1">  1       -1 0.22204489E-01 0.18656109E+03</pdfrwt>
<totfact> 0.12538523E+03</totfact>
</mgrwt>
</event>
<event>
 6    1  0.8353100E-006  0.2639584E+03  0.7546771E-02  0.1104788E+00
          2   -1    0    0  501    0  0.00000000000E+00  0.00000000000E+00  0.78944561049E+03  0.78944561049E+03  0.00000000000E+00 0.  1.
         -2   -1    0    0    0  501 -0.00000000000E+00 -0.00000000000E+00 -0.22064228560E+02  0.22064228560E+02  0.00000000000E+00 0. -1.
          5    1    1    2  502    0  0.79839055291E+02 -0.34013274831E+02  0.44500413325E+03  0.45341145356E+03  0.47000000000E+01 0. -1.
         -5    1    1    2    0  502 -0.17601465012E+02 -0.13243579246E+02  0.95760536852E+01  0.24474369573E+02  0.47000000000E+01 0. -1.
        -11    1    1    2    0    0 -0.42103275259E+02 -0.46437724970E+01  0.22987437249E+03  0.23374447060E+03  0.00000000000E+00 0.  1.
         11    1    1    2    0    0 -0.20134315020E+02  0.51900626575E+02  0.82926822506E+02  0.99879545309E+02  0.00000000000E+00 0. -1.
<mgrwt>
<rscale>  0 0.26395839E+03</rscale>
<asrwt>0</asrwt>
<pdfrwt beam="1">  1        2 0.12145315E+00 0.26395839E+03</pdfrwt>
<pdfrwt beam="2">  1       -2 0.33944973E-02 0.26395839E+03</pdfrwt>
<totfact> 0.12628668E+04</totfact>
</mgrwt>
</event>
<event>
 6    1  0.8353100E-006  0.1423055E+03  0.7546771E-02  0.1220760E+00
         -2   -1    0    0    0  501 -0.00000000000E+00  0.00000000000E+00  0.25850708113E+03  0.25850708113E+03  0.00000000000E+00 0.  1.
          2   -1    0    0  501    0  0.00000000000E+00 -0.00000000000E+00 -0.75536169198E+02  0.75536169198E+02  0.00000000000E+00 0. -1.
          5    1    1    2  502    0 -0.20810414920E+02 -0.29761254354E+02  0.17367206402E+02  0.40527959338E+02  0.47000000000E+01 0.  1.
         -5    1    1    2    0  502  0.59979505229E+02  0.85374727761E+02  0.16326888672E+02  0.10571207349E+03  0.47000000000E+01 0.  1.
        -11    1    1    2    0    0 -0.36840453036E+02  0.54750336393E+01  0.14790378761E+02  0.40074309441E+02  0.00000000000E+00 0. -1.
         11    1    1    2    0    0 -0.23286372733E+01 -0.61088507046E+02  0.13448643809E+03  0.14772890806E+03  0.00000000000E+00 0.  1.
<mgrwt>
<rscale>  0 0.13461786E+03</rscale>
<asrwt>0</asrwt>
<pdfrwt beam="2">  1        2 0.11620949E-01 0.14230550E+03</pdfrwt>
<pdfrwt beam="1">  1       -2 0.39770320E-01 0.14230550E+03</pdfrwt>
<totfact> 0.30831848E+03</totfact>
</mgrwt>
</event>
<event>
 6    1  0.8353100E-006  0.2259945E+03  0.7546771E-02  0.1132435E+00
          2   -1    0    0  501    0  0.00000000000E+00  0.00000000000E+00  0.18483943056E+04  0.18483943056E+04  0.00000000000E+00 0. -1.
         -2   -1    0    0    0  501 -0.00000000000E+00 -0.00000000000E+00 -0.25791223799E+02  0.25791223799E+02  0.00000000000E+00 0.  1.
          5    1    1    2  502    0  0.90151437680E+01 -0.10186013868E+03  0.37912021114E+03  0.39269706539E+03  0.47000000000E+01 0. -1.
         -5    1    1    2    0  502 -0.10528485213E+03 -0.59947978284E+02  0.60649788177E+03  0.61849852932E+03  0.47000000000E+01 0. -1.
        -11    1    1    2    0    0  0.28164974096E+02  0.37280572035E+02  0.78611082857E+02  0.91448396186E+02  0.00000000000E+00 0.  1.
         11    1    1    2    0    0  0.68104734266E+02  0.12452754493E+03  0.75837390601E+03  0.77154153848E+03  0.00000000000E+00 0. -1.
<mgrwt>
<rscale>  0 0.22195283E+03</rscale>
<asrwt>0</asrwt>
<pdfrwt beam="1">  1        2 0.28436825E+00 0.22599448E+03</pdfrwt>
<pdfrwt beam="2">  1       -2 0.39678820E-02 0.22599448E+03</pdfrwt>
<totfact> 0.24859185E+03</totfact>
</mgrwt>
</event>
<event>
 6    1  0.8353100E-006  0.2337151E+03  0.7546771E-02  0.1126788E+00
          1   -1    0    0  501    0  0.00000000000E+00  0.00000000000E+00  0.26623973715E+03  0.26623973715E+03  0.00000000000E+00 0. -1.
         -1   -1    0    0    0  501 -0.00000000000E+00 -0.00000000000E+00 -0.22315210376E+03  0.22315210376E+03  0.00000000000E+00 0.  1.
          5    1    1    2  502    0 -0.10510474342E+03 -0.71148883992E+02  0.16552160696E+02  0.12808292160E+03  0.47000000000E+01 0. -1.
         -5    1    1    2    0  502 -0.11450889940E+02 -0.88266325226E+02  0.97086070287E+02  0.13179477263E+03  0.47000000000E+01 0. -1.
        -11    1    1    2    0    0  0.12663732421E+03  0.11047380192E+03 -0.48615858561E+02  0.17494277492E+03  0.00000000000E+00 0. -1.
         11    1    1    2    0    0 -0.10081690850E+02  0.48941407299E+02 -0.21934739038E+02  0.54571371757E+02  0.00000000000E+00 0.  1.
<mgrwt>
<rscale>  0 0.22978898E+03</rscale>
<asrwt>0</asrwt>
<pdfrwt beam="1">  1        1 0.40959959E-01 0.23371514E+03</pdfrwt>
<pdfrwt beam="2">  1       -1 0.34331093E-01 0.23371514E+03</pdfrwt>
<totfact> 0.82604489E+02</totfact>
</mgrwt>
</event>
<event>
 6    1  0.8353100E-006  0.1478504E+03  0.7546771E-02  0.1212993E+00
         -1   -1    0    0    0  501 -0.00000000000E+00  0.00000000000E+00  0.27809058162E+02  0.27809058162E+02  0.00000000000E+00 0.  1.
          1   -1    0    0  501    0  0.00000000000E+00 -0.00000000000E+00 -0.71520264510E+03  0.71520264510E+03  0.00000000000E+00 0. -1.
          5    1    1    2  502    0  0.47884746456E+02  0.86425973102E+01 -0.30580575690E+03  0.30968838271E+03  0.47000000000E+01 0.  1.
         -5    1    1    2    0  502 -0.45044431799E+02  0.70268324296E+02 -0.18738970214E+03  0.20519168771E+03  0.47000000000E+01 0.  1.
        -11    1    1    2    0    0 -0.26228895338E+02  0.96572794311E+01 -0.50500528850E+02  0.57719333076E+02  0.00000000000E+00 0.  1.
         11    1    1    2    0    0  0.23388580681E+02 -0.88568201037E+02 -0.14369759905E+03  0.17041229977E+03  0.00000000000E+00 0. -1.
<mgrwt>
<rscale>  0 0.14024966E+03</rscale>
<asrwt>0</asrwt>
<pdfrwt beam="2">  1        1 0.11003118E+00 0.14785035E+03</pdfrwt>
<pdfrwt beam="1">  1       -1 0.42783167E-02 0.14785035E+03</pdfrwt>
<totfact> 0.58984353E+03</totfact>
</mgrwt>
</event>
<event>
 6    1  0.8353100E-006  0.1546323E+03  0.7546771E-02  0.1209335E+00
         -1   -1    0    0    0  501 -0.00000000000E+00  0.00000000000E+00  0.26681814133E+03  0.26681814133E+03  0.00000000000E+00 0.  1.
          1   -1    0    0  501    0  0.00000000000E+00 -0.00000000000E+00 -0.68165086539E+02  0.68165086539E+02  0.00000000000E+00 0. -1.
          5    1    1    2  502    0 -0.10645399618E+03  0.25316733553E+02  0.11583246048E+03  0.15941342227E+03  0.47000000000E+01 0. -1.
         -5    1    1    2    0  502  0.40907966073E+02 -0.52343146913E+01  0.18602453942E+02  0.45486272998E+02  0.47000000000E+01 0.  1.
        -11    1    1    2    0    0  0.73222468720E+02 -0.93556277889E+00  0.12348270868E+02  0.74262271690E+02  0.00000000000E+00 0. -1.
         11    1    1    2    0    0 -0.76764386164E+01 -0.19146856083E+02  0.51869869499E+02  0.55821260910E+02  0.00000000000E+00 0.  1.
<mgrwt>
<rscale>  0 0.14301014E+03</rscale>
<asrwt>0</asrwt>
<pdfrwt beam="2">  1        1 0.10486937E-01 0.15463227E+03</pdfrwt>
<pdfrwt beam="1">  1       -1 0.41048944E-01 0.15463227E+03</pdfrwt>
<totfact> 0.34343915E+03</totfact>
</mgrwt>
</event>
<event>
 6    1  0.8353100E-006  0.2850341E+03  0.7546771E-02  0.1092971E+00
         -1   -1    0    0    0  501 -0.00000000000E+00  0.00000000000E+00  0.25258371163E+02  0.25258371163E+02  0.00000000000E+00 0.  1.
          1   -1    0    0  501    0  0.00000000000E+00 -0.00000000000E+00 -0.80413351854E+03  0.80413351854E+03  0.00000000000E+00 0. -1.
          5    1    1    2  502    0  0.14853885769E+02 -0.12569364050E+02 -0.29534816717E+03  0.29602577030E+03  0.47000000000E+01 0.  1.
         -5    1    1    2    0  502 -0.62304381908E+02 -0.65916295142E+02 -0.14803380494E+03  0.17367467108E+03  0.47000000000E+01 0.  1.
        -11    1    1    2    0    0 -0.14690755892E+02  0.54308230097E+02 -0.21209920906E+03  0.21943399155E+03  0.00000000000E+00 0. -1.
         11    1    1    2    0    0  0.62141252030E+02  0.24177429094E+02 -0.12339396621E+03  0.14025745677E+03  0.00000000000E+00 0.  1.
<mgrwt>
<rscale>  0 0.28503405E+03</rscale>
<asrwt>0</asrwt>
<pdfrwt beam="2">  1        1 0.12371284E+00 0.28503405E+03</pdfrwt>
<pdfrwt beam="1">  1       -1 0.38859035E-02 0.28503405E+03</pdfrwt>
<totfact> 0.58655775E+03</totfact>
</mgrwt>
</event>
<event>
 6    1  0.8353100E-006  0.3600293E+03  0.7546771E-02  0.1058572E+00
          1   -1    0    0  501    0  0.00000000000E+00  0.00000000000E+00  0.39433804390E+03  0.39433804390E+03  0.00000000000E+00 0. -1.
         -1   -1    0    0    0  501 -0.00000000000E+00 -0.00000000000E+00 -0.82176360854E+02  0.82176360854E+02  0.00000000000E+00 0.  1.
          5    1    1    2  502    0  0.14610704769E+01 -0.13401908520E+02 -0.16826687534E+02  0.22067471361E+02  0.47000000000E+01 0.  1.
         -5    1    1    2    0  502 -0.12820597546E+03  0.16148103719E+02  0.16454480933E+03  0.20927163610E+03  0.47000000000E+01 0.  1.
        -11    1    1    2    0    0  0.17484968296E+02 -0.57164321497E+02  0.55217641719E+02  0.81378570432E+02  0.00000000000E+00 0. -1.
         11    1    1    2    0    0  0.10925993668E+03  0.54418126298E+02  0.10922591953E+03  0.16379672686E+03  0.00000000000E+00 0.  1.
<mgrwt>
<rscale>  0 0.36002925E+03</rscale>
<asrwt>0</asrwt>
<pdfrwt beam="1">  1        1 0.60667390E-01 0.36002925E+03</pdfrwt>
<pdfrwt beam="2">  1       -1 0.12642517E-01 0.36002925E+03</pdfrwt>
<totfact> 0.26128678E+03</totfact>
</mgrwt>
</event>
<event>
 6    1  0.8353100E-006  0.2980858E+03  0.7546771E-02  0.1087885E+00
         -2   -1    0    0    0  501 -0.00000000000E+00  0.00000000000E+00  0.10468482598E+03  0.10468482598E+03  0.00000000000E+00 0.  1.
          2   -1    0    0  501    0  0.00000000000E+00 -0.00000000000E+00 -0.82473867837E+03  0.82473867837E+03  0.00000000000E+00 0. -1.
          5    1    1    2  502    0 -0.10997200049E+03  0.18614629213E+03 -0.40782722404E+03  0.46161609334E+03  0.47000000000E+01 0. -1.
         -5    1    1    2    0  502 -0.35325410701E+02  0.42147666908E+02 -0.17763158335E+02  0.57982154677E+02  0.47000000000E+01 0. -1.
        -11    1    1    2    0    0  0.55256263404E+02 -0.16220898008E+03 -0.15421402947E+03  0.23053627643E+03  0.00000000000E+00 0. -1.
         11    1    1    2    0    0  0.90041147785E+02 -0.66084978962E+02 -0.14024944055E+03  0.17928897990E+03  0.00000000000E+00 0.  1.
<mgrwt>
<rscale>  0 0.29476953E+03</rscale>
<asrwt>0</asrwt>
<pdfrwt beam="2">  1        2 0.12688287E+00 0.29808584E+03</pdfrwt>
<pdfrwt beam="1">  1       -2 0.16105359E-01 0.29808584E+03</pdfrwt>
<totfact> 0.10379019E+03</totfact>
</mgrwt>
</event>
<event>
 6    1  0.8353100E-006  0.1622823E+03  0.7546771E-02  0.1192298E+00
         -1   -1    0    0    0  501 -0.00000000000E+00  0.00000000000E+00  0.28724275532E+03  0.28724275532E+03  0.00000000000E+00 0.  1.
          1   -1    0    0  501    0  0.00000000000E+00 -0.00000000000E+00 -0.81669698504E+02  0.81669698504E+02  0.00000000000E+00 0. -1.
          5    1    1    2  502    0  0.54844138285E+02  0.82811547485E+02  0.11664523867E+03  0.15327698329E+03  0.47000000000E+01 0. -1.
         -5    1    1    2    0  502  0.38338950411E+02 -0.37790336978E+02  0.16109393339E+02  0.56387828840E+02  0.47000000000E+01 0. -1.
        -11    1    1    2    0    0 -0.49339748235E+02 -0.47184477450E+02 -0.65143835509E+01  0.68580047107E+02  0.00000000000E+00 0. -1.
         11    1    1    2    0    0 -0.43843340461E+02  0.21632669441E+01  0.79332808359E+02  0.90667594590E+02  0.00000000000E+00 0.  1.
<mgrwt>
<rscale>  0 0.15685103E+03</rscale>
<asrwt>0</asrwt>
<pdfrwt beam="2">  1        1 0.12564569E-01 0.16228229E+03</pdfrwt>
<pdfrwt beam="1">  1       -1 0.44191193E-01 0.16228229E+03</pdfrwt>
<totfact> 0.23776835E+03</totfact>
</mgrwt>
</event>
<event>
 6    1  0.8353100E-006  0.1269624E+03  0.7546771E-02  0.1247559E+00
         -1   -1    0    0    0  501 -0.00000000000E+00  0.00000000000E+00  0.25552266575E+02  0.25552266575E+02  0.00000000000E+00 0.  1.
          1   -1    0    0  501    0  0.00000000000E+00 -0.00000000000E+00 -0.80465970249E+03  0.80465970249E+03  0.00000000000E+00 0. -1.
          5    1    1    2  502    0 -0.56849404311E+02 -0.59030947339E+01 -0.27200059417E+03  0.27798042112E+03  0.47000000000E+01 0.  1.
         -5    1    1    2    0  502  0.67094837346E+02 -0.13829742128E+02 -0.41836433379E+03  0.42396200862E+03  0.47000000000E+01 0.  1.
        -11    1    1    2    0    0  0.72137574035E+01 -0.16562215884E+02 -0.86025711159E+02  0.87902037925E+02  0.00000000000E+00 0. -1.
         11    1    1    2    0    0 -0.17459190439E+02  0.36295052746E+02 -0.27167968001E+01  0.40367501403E+02  0.00000000000E+00 0.  1.
<mgrwt>
<rscale>  0 0.11733525E+03</rscale>
<asrwt>0</asrwt>
<pdfrwt beam="2">  1        1 0.12379380E+00 0.12696236E+03</pdfrwt>
<pdfrwt beam="1">  1       -1 0.39311178E-02 0.12696236E+03</pdfrwt>
<totfact> 0.55728483E+03</totfact>
</mgrwt>
</event>
<event>
 6    1  0.8353100E-006  0.1308384E+03  0.7546771E-02  0.1242853E+00
          4   -1    0    0  501    0  0.00000000000E+00  0.00000000000E+00  0.22385473942E+02  0.22385473942E+02  0.00000000000E+00 0. -1.
         -4   -1    0    0    0  501 -0.00000000000E+00 -0.00000000000E+00 -0.56007732068E+03  0.56007732068E+03  0.00000000000E+00 0.  1.
          5    1    1    2  502    0 -0.42145450033E+02 -0.16824543962E+02 -0.29658015364E+02  0.54414998974E+02  0.47000000000E+01 0.  1.
         -5    1    1    2    0  502  0.38132758074E+01  0.21716759892E+02 -0.29152030345E+03  0.29239072499E+03  0.47000000000E+01 0.  1.
        -11    1    1    2    0    0  0.19332833868E+02  0.36803320591E+02 -0.14399346586E+03  0.14987448443E+03  0.00000000000E+00 0.  1.
         11    1    1    2    0    0  0.18999340358E+02 -0.41695536521E+02 -0.72520062057E+02  0.85782586231E+02  0.00000000000E+00 0. -1.
<mgrwt>
<rscale>  0 0.12014815E+03</rscale>
<asrwt>0</asrwt>
<pdfrwt beam="1">  1        4 0.34439190E-02 0.13083844E+03</pdfrwt>
<pdfrwt beam="2">  1       -4 0.86165743E-01 0.13083844E+03</pdfrwt>
<totfact> 0.85799759E+02</totfact>
</mgrwt>
</event>
<event>
 6    1  0.8353100E-006  0.2545390E+03  0.7546771E-02  0.1110469E+00
          3   -1    0    0  501    0  0.00000000000E+00  0.00000000000E+00  0.41824053979E+03  0.41824053979E+03  0.00000000000E+00 0. -1.
         -3   -1    0    0    0  501 -0.00000000000E+00 -0.00000000000E+00 -0.38727767169E+02  0.38727767169E+02  0.00000000000E+00 0.  1.
          5    1    1    2  502    0  0.37421774920E+02 -0.93454925568E+02  0.16806885632E+03  0.19596796375E+03  0.47000000000E+01 0.  1.
         -5    1    1    2    0  502 -0.55106467251E+01  0.38681831119E+02  0.62773370248E+02  0.74089387218E+02  0.47000000000E+01 0.  1.
        -11    1    1    2    0    0  0.16371023718E+02  0.59596491709E+02  0.10388420962E+03  0.12087878743E+03  0.00000000000E+00 0.  1.
         11    1    1    2    0    0 -0.48282151913E+02 -0.48233972597E+01  0.44786336434E+02  0.66032168567E+02  0.00000000000E+00 0. -1.
<mgrwt>
<rscale>  0 0.25453897E+03</rscale>
<asrwt>0</asrwt>
<pdfrwt beam="1">  1        3 0.64344695E-01 0.25453897E+03</pdfrwt>
<pdfrwt beam="2">  1       -3 0.59581183E-02 0.25453897E+03</pdfrwt>
<totfact> 0.10332386E+03</totfact>
</mgrwt>
</event>
<event>
 6    1  0.8353100E-006  0.1273793E+03  0.7546771E-02  0.1246918E+00
          1   -1    0    0  501    0  0.00000000000E+00  0.00000000000E+00  0.25940761936E+03  0.25940761936E+03  0.00000000000E+00 0. -1.
         -1   -1    0    0    0  501 -0.00000000000E+00 -0.00000000000E+00 -0.46765722274E+02  0.46765722274E+02  0.00000000000E+00 0.  1.
          5    1    1    2  502    0  0.53672905171E+01  0.14630342137E+02 -0.24048391073E+02  0.29039108659E+02  0.47000000000E+01 0. -1.
         -5    1    1    2    0  502 -0.19094898790E+02  0.51224986141E+01  0.14566206707E+03  0.14707271309E+03  0.47000000000E+01 0. -1.
        -11    1    1    2    0    0  0.21357371129E+02  0.13212347469E+02  0.92839674729E+02  0.96176445302E+02  0.00000000000E+00 0. -1.
         11    1    1    2    0    0 -0.76297628566E+01 -0.32965188220E+02 -0.18114536367E+01  0.33885074589E+02  0.00000000000E+00 0.  1.
<mgrwt>
<rscale>  0 0.11771306E+03</rscale>
<asrwt>0</asrwt>
<pdfrwt beam="1">  1        1 0.39908864E-01 0.12737931E+03</pdfrwt>
<pdfrwt beam="2">  1       -1 0.71947267E-02 0.12737931E+03</pdfrwt>
<totfact> 0.10033081E+04</totfact>
</mgrwt>
</event>
<event>
 6    1  0.8353100E-006  0.1402701E+03  0.7546771E-02  0.1223844E+00
         -2   -1    0    0    0  501 -0.00000000000E+00  0.00000000000E+00  0.30149676995E+02  0.30149676995E+02  0.00000000000E+00 0.  1.
          2   -1    0    0  501    0  0.00000000000E+00 -0.00000000000E+00 -0.52603091189E+03  0.52603091189E+03  0.00000000000E+00 0. -1.
          5    1    1    2  502    0  0.74259499448E+02 -0.48493841302E+02 -0.16217492750E+03  0.18490246892E+03  0.47000000000E+01 0.  1.
         -5    1    1    2    0  502 -0.10684233191E+02  0.49797387501E+02 -0.10897628261E+03  0.12038211167E+03  0.47000000000E+01 0.  1.
        -11    1    1    2    0    0 -0.72704896140E+02 -0.26090322259E+02 -0.11866496892E+03  0.14159124862E+03  0.00000000000E+00 0.  1.
         11    1    1    2    0    0  0.91296298821E+01  0.24786776060E+02 -0.10606505587E+03  0.10930475967E+03  0.00000000000E+00 0. -1.
<mgrwt>
<rscale>  0 0.13246438E+03</rscale>
<asrwt>0</asrwt>
<pdfrwt beam="2">  1        2 0.80927830E-01 0.14027008E+03</pdfrwt>
<pdfrwt beam="1">  1       -2 0.46384120E-02 0.14027008E+03</pdfrwt>
<totfact> 0.12279535E+04</totfact>
</mgrwt>
</event>
<event>
 6    1  0.8990934E-006  0.1897407E+03  0.7546771E-02  0.1163156E+00
          1   -1    0    0  501    0  0.00000000000E+00  0.00000000000E+00  0.32792360498E+03  0.32792360498E+03  0.00000000000E+00 0. -1.
         -1   -1    0    0    0  501 -0.00000000000E+00 -0.00000000000E+00 -0.10112079136E+03  0.10112079136E+03  0.00000000000E+00 0.  1.
          5    1    1    2  502    0  0.31018180947E+02 -0.63928744382E+02  0.12706107500E+03  0.14565582270E+03  0.47000000000E+01 0.  1.
         -5    1    1    2    0  502  0.92339397595E+02 -0.79033007675E+01  0.21318335721E+02  0.95213381146E+02  0.47000000000E+01 0.  1.
        -11    1    1    2    0    0 -0.87500660418E+02 -0.20391944747E+01  0.28365036785E+02  0.92005973717E+02  0.00000000000E+00 0.  1.
         11    1    1    2    0    0 -0.35856918124E+02  0.73871239624E+02  0.50058366114E+02  0.96169218770E+02  0.00000000000E+00 0. -1.
<mgrwt>
<rscale>  0 0.18488599E+03</rscale>
<asrwt>0</asrwt>
<pdfrwt beam="1">  1        1 0.50449785E-01 0.18974068E+03</pdfrwt>
<pdfrwt beam="2">  1       -1 0.15557045E-01 0.18974068E+03</pdfrwt>
<totfact> 0.23399370E+03</totfact>
</mgrwt>
</event>
<event>
 6    1  0.8353100E-006  0.1437855E+03  0.7546771E-02  0.1219372E+00
         -2   -1    0    0    0  501 -0.00000000000E+00  0.00000000000E+00  0.15652295939E+02  0.15652295939E+02  0.00000000000E+00 0.  1.
          2   -1    0    0  501    0  0.00000000000E+00 -0.00000000000E+00 -0.11986462239E+04  0.11986462239E+04  0.00000000000E+00 0. -1.
          5    1    1    2  502    0  0.85481364582E+02 -0.19372460853E+02 -0.84015753336E+03  0.84473020947E+03  0.47000000000E+01 0. -1.
         -5    1    1    2    0  502 -0.17303701731E+02 -0.63911291400E+00 -0.18090970740E+02  0.25479399153E+02  0.47000000000E+01 0. -1.
        -11    1    1    2    0    0 -0.13625396670E+02 -0.11982369785E+02 -0.59712737764E+01  0.19101956198E+02  0.00000000000E+00 0.  1.
         11    1    1    2    0    0 -0.54552266181E+02  0.31993943551E+02 -0.31877415006E+03  0.32498695500E+03  0.00000000000E+00 0. -1.
<mgrwt>
<rscale>  0 0.13560259E+03</rscale>
<asrwt>0</asrwt>
<pdfrwt beam="2">  1        2 0.18440707E+00 0.14378549E+03</pdfrwt>
<pdfrwt beam="1">  1       -2 0.24080460E-02 0.14378549E+03</pdfrwt>
<totfact> 0.11404579E+04</totfact>
</mgrwt>
</event>
<event>
 6    1  0.8353100E-006  0.3595100E+03  0.7546771E-02  0.1058778E+00
         -2   -1    0    0    0  501 -0.00000000000E+00  0.00000000000E+00  0.35998827586E+02  0.35998827586E+02  0.00000000000E+00 0.  1.
          2   -1    0    0  501    0  0.00000000000E+00 -0.00000000000E+00 -0.89758094327E+03  0.89758094327E+03  0.00000000000E+00 0. -1.
          5    1    1    2  502    0 -0.17891636724E+02  0.11716045640E+02 -0.31672870509E+02  0.38505027157E+02  0.47000000000E+01 0.  1.
         -5    1    1    2    0  502  0.12920619325E+03 -0.46582658127E+02 -0.63983744597E+03  0.65442969956E+03  0.47000000000E+01 0.  1.
        -11    1    1    2    0    0 -0.49334336087E+02 -0.10255493986E+02 -0.14071731199E+03  0.14946709929E+03  0.00000000000E+00 0. -1.
         11    1    1    2    0    0 -0.61980220442E+02  0.45122106473E+02 -0.49354487216E+02  0.91177944849E+02  0.00000000000E+00 0.  1.
<mgrwt>
<rscale>  0 0.35951001E+03</rscale>
<asrwt>0</asrwt>
<pdfrwt beam="2">  1        2 0.13808937E+00 0.35951001E+03</pdfrwt>
<pdfrwt beam="1">  1       -2 0.55382814E-02 0.35951001E+03</pdfrwt>
<totfact> 0.51274872E+03</totfact>
</mgrwt>
</event>
<event>
 6    1  0.8353100E-006  0.6589094E+03  0.7546771E-02  0.9980121E-01
         -2   -1    0    0    0  501 -0.00000000000E+00  0.00000000000E+00  0.11492670241E+03  0.11492670241E+03  0.00000000000E+00 0.  1.
          2   -1    0    0  501    0  0.00000000000E+00 -0.00000000000E+00 -0.22541624426E+04  0.22541624426E+04  0.00000000000E+00 0. -1.
          5    1    1    2  502    0  0.28411037907E+03 -0.73797128723E+02 -0.14744249531E+04  0.15033681372E+04  0.47000000000E+01 0. -1.
         -5    1    1    2    0  502  0.17738742016E+02 -0.93704699016E+02  0.16166994513E+02  0.96843664210E+02  0.47000000000E+01 0.  1.
        -11    1    1    2    0    0 -0.23731260503E+03  0.10110761901E+03 -0.43091293968E+03  0.50222105164E+03  0.00000000000E+00 0.  1.
         11    1    1    2    0    0 -0.64536516054E+02  0.66394208725E+02 -0.25006484197E+03  0.26665629197E+03  0.00000000000E+00 0. -1.
<mgrwt>
<rscale>  0 0.56530545E+03</rscale>
<asrwt>0</asrwt>
<pdfrwt beam="2">  1        2 0.34679418E+00 0.65890935E+03</pdfrwt>
<pdfrwt beam="1">  1       -2 0.17681033E-01 0.65890935E+03</pdfrwt>
<totfact> 0.13259547E+02</totfact>
</mgrwt>
</event>
<event>
 6    1  0.8353100E-006  0.1382475E+03  0.7546771E-02  0.1227669E+00
         -2   -1    0    0    0  501 -0.00000000000E+00  0.00000000000E+00  0.25604069010E+03  0.25604069010E+03  0.00000000000E+00 0.  1.
          2   -1    0    0  501    0  0.00000000000E+00 -0.00000000000E+00 -0.47293158777E+03  0.47293158777E+03  0.00000000000E+00 0. -1.
          5    1    1    2  502    0 -0.43271573436E+01  0.31769877025E+02 -0.23503761869E+03  0.23726108314E+03  0.47000000000E+01 0. -1.
         -5    1    1    2    0  502  0.13025919490E+02 -0.90181868262E+02 -0.21574728413E+03  0.23424650382E+03  0.47000000000E+01 0. -1.
        -11    1    1    2    0    0 -0.44483698275E+02  0.44069873553E+02  0.18431227283E+03  0.19465859109E+03  0.00000000000E+00 0.  1.
         11    1    1    2    0    0  0.35784936128E+02  0.14342117684E+02  0.49581732321E+02  0.62806099809E+02  0.00000000000E+00 0. -1.
<mgrwt>
<rscale>  0 0.12985670E+03</rscale>
<asrwt>0</asrwt>
<pdfrwt beam="2">  1        2 0.72758706E-01 0.13824752E+03</pdfrwt>
<pdfrwt beam="1">  1       -2 0.39390875E-01 0.13824752E+03</pdfrwt>
<totfact> 0.41151887E+02</totfact>
</mgrwt>
</event>
<event>
 6    1  0.8353100E-006  0.1412563E+03  0.7546771E-02  0.1220152E+00
         -2   -1    0    0    0  501 -0.00000000000E+00  0.00000000000E+00  0.65366398767E+02  0.65366398767E+02  0.00000000000E+00 0.  1.
          2   -1    0    0  501    0  0.00000000000E+00 -0.00000000000E+00 -0.79244978317E+03  0.79244978317E+03  0.00000000000E+00 0. -1.
          5    1    1    2  502    0 -0.68325999504E+02 -0.51973797760E+02 -0.44972646418E+03  0.45787083380E+03  0.47000000000E+01 0. -1.
         -5    1    1    2    0  502 -0.60166496361E+01  0.54718787270E+02 -0.27646162492E+03  0.28192812171E+03  0.47000000000E+01 0.  1.
        -11    1    1    2    0    0  0.40113982385E+02  0.41185908741E+02  0.16252391703E+02  0.59745718656E+02  0.00000000000E+00 0.  1.
         11    1    1    2    0    0  0.34228666755E+02 -0.43930898251E+02 -0.17147687004E+02  0.58271507776E+02  0.00000000000E+00 0. -1.
<mgrwt>
<rscale>  0 0.13504832E+03</rscale>
<asrwt>0</asrwt>
<pdfrwt beam="2">  1        2 0.12191536E+00 0.14125634E+03</pdfrwt>
<pdfrwt beam="1">  1       -2 0.10056369E-01 0.14125634E+03</pdfrwt>
<totfact> 0.23292402E+03</totfact>
</mgrwt>
</event>
<event>
 6    1  0.8353100E-006  0.1274466E+03  0.7546771E-02  0.1245641E+00
          2   -1    0    0  501    0  0.00000000000E+00  0.00000000000E+00  0.87053346283E+03  0.87053346283E+03  0.00000000000E+00 0. -1.
         -2   -1    0    0    0  501 -0.00000000000E+00 -0.00000000000E+00 -0.14234420266E+02  0.14234420266E+02  0.00000000000E+00 0.  1.
          5    1    1    2  502    0  0.30539748876E+02 -0.57168698300E+02  0.18071989086E+03  0.19204870549E+03  0.47000000000E+01 0. -1.
         -5    1    1    2    0  502 -0.56695220819E+01  0.54540630664E+02  0.31622482817E+03  0.32097827937E+03  0.47000000000E+01 0. -1.
        -11    1    1    2    0    0 -0.58019724522E+02  0.10635663675E+02  0.26287371925E+03  0.26941046388E+03  0.00000000000E+00 0. -1.
         11    1    1    2    0    0  0.33149497728E+02 -0.80075960391E+01  0.96480604276E+02  0.10233043436E+03  0.00000000000E+00 0.  1.
<mgrwt>
<rscale>  0 0.11847093E+03</rscale>
<asrwt>0</asrwt>
<pdfrwt beam="1">  1        2 0.13392818E+00 0.12744659E+03</pdfrwt>
<pdfrwt beam="2">  1       -2 0.21899115E-02 0.12744659E+03</pdfrwt>
<totfact> 0.20310622E+04</totfact>
</mgrwt>
</event>
<event>
 6    1  0.8353100E-006  0.2069610E+03  0.7546771E-02  0.1148130E+00
         -2   -1    0    0    0  501 -0.00000000000E+00  0.00000000000E+00  0.96939763889E+02  0.96939763889E+02  0.00000000000E+00 0. -1.
          2   -1    0    0  501    0  0.00000000000E+00 -0.00000000000E+00 -0.40159003830E+03  0.40159003830E+03  0.00000000000E+00 0.  1.
          5    1    1    2  502    0  0.11157033219E+03  0.29698766625E+02 -0.11556765262E+03  0.16342560416E+03  0.47000000000E+01 0. -1.
         -5    1    1    2    0  502  0.61024462621E+01  0.85895919202E+02 -0.37763102798E+02  0.94146113668E+02  0.47000000000E+01 0. -1.
        -11    1    1    2    0    0 -0.39654948332E+02 -0.25990379223E+02  0.14398826636E+01  0.47435092510E+02  0.00000000000E+00 0. -1.
         11    1    1    2    0    0 -0.78017830123E+02 -0.89604306603E+02 -0.15275940166E+03  0.19352299185E+03  0.00000000000E+00 0.  1.
<mgrwt>
<rscale>  0 0.20191914E+03</rscale>
<asrwt>0</asrwt>
<pdfrwt beam="2">  1        2 0.61783082E-01 0.20696103E+03</pdfrwt>
<pdfrwt beam="1">  1       -2 0.14913810E-01 0.20696103E+03</pdfrwt>
<totfact> 0.27151963E+03</totfact>
</mgrwt>
</event>
<event>
 6    1  0.8353100E-006  0.1641136E+03  0.7546771E-02  0.1190162E+00
          2   -1    0    0  501    0  0.00000000000E+00  0.00000000000E+00  0.50932502240E+02  0.50932502240E+02  0.00000000000E+00 0. -1.
         -2   -1    0    0    0  501 -0.00000000000E+00 -0.00000000000E+00 -0.46759127049E+03  0.46759127049E+03  0.00000000000E+00 0.  1.
          5    1    1    2  502    0  0.22721310089E+02  0.41875837456E+02 -0.10813875701E+03  0.11826210070E+03  0.47000000000E+01 0. -1.
         -5    1    1    2    0  502  0.85429376637E+02 -0.71435449692E+02 -0.13476325345E+03  0.17488403685E+03  0.47000000000E+01 0.  1.
        -11    1    1    2    0    0 -0.64863798696E+02  0.39261263059E+02 -0.42701817465E+02  0.87018413989E+02  0.00000000000E+00 0. -1.
         11    1    1    2    0    0 -0.43286888030E+02 -0.97016508234E+01 -0.13105494032E+03  0.13835922118E+03  0.00000000000E+00 0.  1.
<mgrwt>
<rscale>  0 0.15870897E+03</rscale>
<asrwt>0</asrwt>
<pdfrwt beam="1">  1        2 0.78357698E-02 0.16411359E+03</pdfrwt>
<pdfrwt beam="2">  1       -2 0.71937116E-01 0.16411359E+03</pdfrwt>
<totfact> 0.15345371E+03</totfact>
</mgrwt>
</event>
<event>
 6    1  0.8353100E-006  0.1380877E+03  0.7546771E-02  0.1227536E+00
         -1   -1    0    0    0  501 -0.00000000000E+00  0.00000000000E+00  0.13056095636E+03  0.13056095636E+03  0.00000000000E+00 0.  1.
          1   -1    0    0  501    0  0.00000000000E+00 -0.00000000000E+00 -0.11634190238E+03  0.11634190238E+03  0.00000000000E+00 0. -1.
          5    1    1    2  502    0  0.90991085881E+02  0.29791132463E+02  0.17395610775E+02  0.97424773838E+02  0.47000000000E+01 0. -1.
         -5    1    1    2    0  502 -0.37965492808E+02 -0.46495120746E+01 -0.13176905220E+02  0.40727354908E+02  0.47000000000E+01 0. -1.
        -11    1    1    2    0    0 -0.13543107148E+00 -0.32375517812E+02  0.36803374609E+02  0.49017148813E+02  0.00000000000E+00 0.  1.
         11    1    1    2    0    0 -0.52890162002E+02  0.72338974241E+01 -0.26803026187E+02  0.59733581185E+02  0.00000000000E+00 0. -1.
<mgrwt>
<rscale>  0 0.12994611E+03</rscale>
<asrwt>0</asrwt>
<pdfrwt beam="2">  1        1 0.17898754E-01 0.13808770E+03</pdfrwt>
<pdfrwt beam="1">  1       -1 0.20086301E-01 0.13808770E+03</pdfrwt>
<totfact> 0.56343173E+03</totfact>
</mgrwt>
</event>
<event>
 6    1  0.8353100E-006  0.1394684E+03  0.7546771E-02  0.1225140E+00
          2   -1    0    0  501    0  0.00000000000E+00  0.00000000000E+00  0.30897450146E+04  0.30897450146E+04  0.00000000000E+00 0.  1.
         -2   -1    0    0    0  501 -0.00000000000E+00 -0.00000000000E+00 -0.75397700748E+01  0.75397700748E+01  0.00000000000E+00 0. -1.
          5    1    1    2  502    0 -0.84262372959E+01 -0.35444134043E+02  0.17995542460E+04  0.17999291271E+04  0.47000000000E+01 0.  1.
         -5    1    1    2    0  502 -0.51852363519E+02  0.49399539953E+02  0.74651274959E+03  0.74995490361E+03  0.47000000000E+01 0.  1.
        -11    1    1    2    0    0  0.66013613643E+02 -0.42545419793E+02  0.43939673343E+03  0.44636016767E+03  0.00000000000E+00 0.  1.
         11    1    1    2    0    0 -0.57350128286E+01  0.28590013884E+02  0.96741515455E+02  0.10104058629E+03  0.00000000000E+00 0. -1.
<mgrwt>
<rscale>  0 0.13157298E+03</rscale>
<asrwt>0</asrwt>
<pdfrwt beam="1">  1        2 0.47534438E+00 0.13946836E+03</pdfrwt>
<pdfrwt beam="2">  1       -2 0.11599671E-02 0.13946836E+03</pdfrwt>
<totfact> 0.32108976E+03</totfact>
</mgrwt>
</event>
<event>
 6    1  0.8353100E-006  0.1281312E+03  0.7546771E-02  0.1242982E+00
          1   -1    0    0  501    0  0.00000000000E+00  0.00000000000E+00  0.95412054540E+03  0.95412054540E+03  0.00000000000E+00 0. -1.
         -1   -1    0    0    0  501 -0.00000000000E+00 -0.00000000000E+00 -0.17378381324E+02  0.17378381324E+02  0.00000000000E+00 0.  1.
          5    1    1    2  502    0  0.13924774871E+02 -0.14804428911E+02  0.67009327395E+03  0.67041789673E+03  0.47000000000E+01 0. -1.
         -5    1    1    2    0  502 -0.40339325371E+02  0.50814455211E+01  0.73441143456E+02  0.84076000214E+02  0.47000000000E+01 0. -1.
        -11    1    1    2    0    0 -0.29551951740E+02 -0.13766548963E+02  0.36425894881E+02  0.48884369075E+02  0.00000000000E+00 0.  1.
         11    1    1    2    0    0  0.55966502240E+02  0.23489532353E+02  0.15678185179E+03  0.16812066070E+03  0.00000000000E+00 0. -1.
<mgrwt>
<rscale>  0 0.12006967E+03</rscale>
<asrwt>0</asrwt>
<pdfrwt beam="1">  1        1 0.14678773E+00 0.12813122E+03</pdfrwt>
<pdfrwt beam="2">  1       -1 0.26735979E-02 0.12813122E+03</pdfrwt>
<totfact> 0.74836086E+03</totfact>
</mgrwt>
</event>
<event>
 6    1  0.8353100E-006  0.1693137E+03  0.7546771E-02  0.1184916E+00
         -1   -1    0    0    0  501 -0.00000000000E+00  0.00000000000E+00  0.34253563921E+02  0.34253563921E+02  0.00000000000E+00 0.  1.
          1   -1    0    0  501    0  0.00000000000E+00 -0.00000000000E+00 -0.80712954214E+03  0.80712954214E+03  0.00000000000E+00 0. -1.
          5    1    1    2  502    0  0.28146268129E+02 -0.19490465859E+02 -0.41235491424E+03  0.41380038179E+03  0.47000000000E+01 0.  1.
         -5    1    1    2    0  502  0.82382180590E+02 -0.92873616430E+01 -0.12900818177E+03  0.15342190107E+03  0.47000000000E+01 0.  1.
        -11    1    1    2    0    0 -0.37780267450E+00  0.30496617418E+02 -0.88690483605E+02  0.93787996518E+02  0.00000000000E+00 0. -1.
         11    1    1    2    0    0 -0.11015064604E+03 -0.17187899157E+01 -0.14282239860E+03  0.18037282668E+03  0.00000000000E+00 0.  1.
<mgrwt>
<rscale>  0 0.16339549E+03</rscale>
<asrwt>0</asrwt>
<pdfrwt beam="2">  1        1 0.12417378E+00 0.16931366E+03</pdfrwt>
<pdfrwt beam="1">  1       -1 0.52697789E-02 0.16931366E+03</pdfrwt>
<totfact> 0.36392105E+03</totfact>
</mgrwt>
</event>
<event>
 6    1  0.8353100E-006  0.1334160E+03  0.7546771E-02  0.1235623E+00
          4   -1    0    0  501    0  0.00000000000E+00  0.00000000000E+00  0.11379484711E+03  0.11379484711E+03  0.00000000000E+00 0. -1.
         -4   -1    0    0    0  501 -0.00000000000E+00 -0.00000000000E+00 -0.12562861630E+03  0.12562861630E+03  0.00000000000E+00 0.  1.
          5    1    1    2  502    0  0.65614715914E+01  0.89235766353E+02  0.36783652917E+01  0.89675499872E+02  0.47000000000E+01 0.  1.
         -5    1    1    2    0  502 -0.25038997816E+01 -0.42774023028E+02  0.11424984848E+02  0.44592676965E+02  0.47000000000E+01 0.  1.
        -11    1    1    2    0    0 -0.71103824452E+01 -0.80120608194E+01 -0.55902441308E+02  0.56919536200E+02  0.00000000000E+00 0.  1.
         11    1    1    2    0    0  0.30528106353E+01 -0.38449682506E+02  0.28965321978E+02  0.48235750381E+02  0.00000000000E+00 0. -1.
<mgrwt>
<rscale>  0 0.12464623E+03</rscale>
<asrwt>0</asrwt>
<pdfrwt beam="1">  1        4 0.17506899E-01 0.13341601E+03</pdfrwt>
<pdfrwt beam="2">  1       -4 0.19327480E-01 0.13341601E+03</pdfrwt>
<totfact> 0.11306918E+03</totfact>
</mgrwt>
</event>
<event>
 6    1  0.8353100E-006  0.2190081E+03  0.7546771E-02  0.1134625E+00
          2   -1    0    0  501    0  0.00000000000E+00  0.00000000000E+00  0.31773739100E+02  0.31773739100E+02  0.00000000000E+00 0.  1.
         -2   -1    0    0    0  501 -0.00000000000E+00 -0.00000000000E+00 -0.37739139127E+03  0.37739139127E+03  0.00000000000E+00 0. -1.
          5    1    1    2  502    0 -0.16788437050E+01 -0.32484165161E+01  0.17515278834E+02  0.18499884288E+02  0.47000000000E+01 0.  1.
         -5    1    1    2    0  502 -0.11202077729E+01 -0.12384247583E+02 -0.21726813243E+03  0.21767442620E+03  0.47000000000E+01 0.  1.
        -11    1    1    2    0    0 -0.34275396697E+02 -0.16976717329E+02 -0.35935282702E+02  0.52481961596E+02  0.00000000000E+00 0. -1.
         11    1    1    2    0    0  0.37074448175E+02  0.32609381427E+02 -0.10992951587E+03  0.12050885828E+03  0.00000000000E+00 0.  1.
<mgrwt>
<rscale>  0 0.21900809E+03</rscale>
<asrwt>0</asrwt>
<pdfrwt beam="1">  1        2 0.48882676E-02 0.21900809E+03</pdfrwt>
<pdfrwt beam="2">  1       -2 0.58060213E-01 0.21900809E+03</pdfrwt>
<totfact> 0.45071293E+03</totfact>
</mgrwt>
</event>
<event>
 6    1  0.8353100E-006  0.2847528E+03  0.7546771E-02  0.1093121E+00
         -2   -1    0    0    0  501 -0.00000000000E+00  0.00000000000E+00  0.29655234779E+02  0.29655234779E+02  0.00000000000E+00 0.  1.
          2   -1    0    0  501    0  0.00000000000E+00 -0.00000000000E+00 -0.68355680633E+03  0.68355680633E+03  0.00000000000E+00 0. -1.
          5    1    1    2  502    0 -0.93745966421E+01  0.23308835353E+02 -0.18040565531E+02  0.31284770615E+02  0.47000000000E+01 0. -1.
         -5    1    1    2    0  502  0.10376778538E+03 -0.34409358383E+02 -0.34737710350E+03  0.36420419996E+03  0.47000000000E+01 0.  1.
        -11    1    1    2    0    0 -0.32052330546E+02 -0.17906864301E+02 -0.22647637029E+02  0.43138418440E+02  0.00000000000E+00 0.  1.
         11    1    1    2    0    0 -0.62340858191E+02  0.29007387330E+02 -0.26583626549E+03  0.27458465210E+03  0.00000000000E+00 0. -1.
<mgrwt>
<rscale>  0 0.28475279E+03</rscale>
<asrwt>0</asrwt>
<pdfrwt beam="2">  1        2 0.10516259E+00 0.28475279E+03</pdfrwt>
<pdfrwt beam="1">  1       -2 0.45623436E-02 0.28475279E+03</pdfrwt>
<totfact> 0.96975546E+03</totfact>
</mgrwt>
</event>
<event>
 6    1  0.8353100E-006  0.1330513E+03  0.7546771E-02  0.1235843E+00
          1   -1    0    0  501    0  0.00000000000E+00  0.00000000000E+00  0.34637462430E+02  0.34637462430E+02  0.00000000000E+00 0. -1.
         -1   -1    0    0    0  501 -0.00000000000E+00 -0.00000000000E+00 -0.40283005847E+03  0.40283005847E+03  0.00000000000E+00 0.  1.
          5    1    1    2  502    0 -0.31837944333E+02  0.33486489455E+02 -0.79234426146E+02  0.91843257576E+02  0.47000000000E+01 0. -1.
         -5    1    1    2    0  502  0.35334054364E+02 -0.78927177180E+02 -0.15046454983E+03  0.17360779203E+03  0.47000000000E+01 0. -1.
        -11    1    1    2    0    0  0.37745334687E+02  0.14553740233E+02 -0.25475479244E+02  0.47807130097E+02  0.00000000000E+00 0. -1.
         11    1    1    2    0    0 -0.41241444718E+02  0.30886947491E+02 -0.11301814081E+03  0.12420934120E+03  0.00000000000E+00 0.  1.
<mgrwt>
<rscale>  0 0.12450631E+03</rscale>
<asrwt>0</asrwt>
<pdfrwt beam="1">  1        1 0.53288404E-02 0.13305127E+03</pdfrwt>
<pdfrwt beam="2">  1       -1 0.61973855E-01 0.13305127E+03</pdfrwt>
<totfact> 0.39799148E+03</totfact>
</mgrwt>
</event>
<event>
 6    1  0.8353100E-006  0.1272932E+03  0.7546771E-02  0.1246115E+00
          2   -1    0    0  501    0  0.00000000000E+00  0.00000000000E+00  0.28918330490E+03  0.28918330490E+03  0.00000000000E+00 0. -1.
         -2   -1    0    0    0  501 -0.00000000000E+00 -0.00000000000E+00 -0.51288780054E+02  0.51288780054E+02  0.00000000000E+00 0.  1.
          5    1    1    2  502    0  0.51640432935E+02 -0.28322001032E-01  0.79084285645E+02  0.94568225910E+02  0.47000000000E+01 0.  1.
         -5    1    1    2    0  502 -0.74996098132E+02 -0.59274538935E+01  0.12397911619E+03  0.14509466116E+03  0.47000000000E+01 0.  1.
        -11    1    1    2    0    0 -0.22907480989E+02  0.31090332932E+02  0.18094008451E+01  0.38660514980E+02  0.00000000000E+00 0.  1.
         11    1    1    2    0    0  0.46263146186E+02 -0.25134557038E+02  0.33021722166E+02  0.62148682909E+02  0.00000000000E+00 0. -1.
<mgrwt>
<rscale>  0 0.11818910E+03</rscale>
<asrwt>0</asrwt>
<pdfrwt beam="1">  1        2 0.44489738E-01 0.12729318E+03</pdfrwt>
<pdfrwt beam="2">  1       -2 0.78905817E-02 0.12729318E+03</pdfrwt>
<totfact> 0.10341483E+04</totfact>
</mgrwt>
</event>
<event>
 6    1  0.8353100E-006  0.1526080E+03  0.7546771E-02  0.1205919E+00
         -2   -1    0    0    0  501 -0.00000000000E+00  0.00000000000E+00  0.92458480248E+03  0.92458480248E+03  0.00000000000E+00 0.  1.
          2   -1    0    0  501    0  0.00000000000E+00 -0.00000000000E+00 -0.24813751445E+02  0.24813751445E+02  0.00000000000E+00 0. -1.
          5    1    1    2  502    0  0.25956893078E+02 -0.13913060803E+02  0.27052198961E+03  0.27216092743E+03  0.47000000000E+01 0.  1.
         -5    1    1    2    0  502  0.50993059197E+02 -0.27829118040E+02  0.31555432394E+02  0.66276596252E+02  0.47000000000E+01 0.  1.
        -11    1    1    2    0    0 -0.46017204577E+02 -0.24408150153E+02  0.29652684383E+03  0.30106728488E+03  0.00000000000E+00 0.  1.
         11    1    1    2    0    0 -0.30932747698E+02  0.66150328995E+02  0.30116678520E+03  0.30989374536E+03  0.00000000000E+00 0. -1.
<mgrwt>
<rscale>  0 0.14565282E+03</rscale>
<asrwt>0</asrwt>
<pdfrwt beam="2">  1        2 0.38175009E-02 0.15260796E+03</pdfrwt>
<pdfrwt beam="1">  1       -2 0.14224379E+00 0.15260796E+03</pdfrwt>
<totfact> 0.80205767E+02</totfact>
</mgrwt>
</event>
<event>
 6    1  0.8353100E-006  0.1360266E+03  0.7546771E-02  0.1231524E+00
         -1   -1    0    0    0  501 -0.00000000000E+00  0.00000000000E+00  0.14458793269E+03  0.14458793269E+03  0.00000000000E+00 0.  1.
          1   -1    0    0  501    0  0.00000000000E+00 -0.00000000000E+00 -0.10225420327E+03  0.10225420327E+03  0.00000000000E+00 0. -1.
          5    1    1    2  502    0 -0.27044392027E+02  0.28058720859E+02 -0.58540878336E+02  0.70482731166E+02  0.47000000000E+01 0. -1.
         -5    1    1    2    0  502 -0.97131434656E+01  0.11005667980E+02  0.63810882182E+02  0.65645933374E+02  0.47000000000E+01 0. -1.
        -11    1    1    2    0    0  0.58208430442E+02 -0.52427259335E+02  0.22324755518E+02  0.81456943258E+02  0.00000000000E+00 0.  1.
         11    1    1    2    0    0 -0.21450894950E+02  0.13362870497E+02  0.14738970052E+02  0.29256528165E+02  0.00000000000E+00 0. -1.
<mgrwt>
<rscale>  0 0.12729615E+03</rscale>
<asrwt>0</asrwt>
<pdfrwt beam="2">  1        1 0.15731416E-01 0.13602662E+03</pdfrwt>
<pdfrwt beam="1">  1       -1 0.22244297E-01 0.13602662E+03</pdfrwt>
<totfact> 0.56354992E+03</totfact>
</mgrwt>
</event>
<event>
 6    1  0.8353100E-006  0.1756236E+03  0.7546771E-02  0.1178205E+00
         -1   -1    0    0    0  501 -0.00000000000E+00  0.00000000000E+00  0.29666497583E+02  0.29666497583E+02  0.00000000000E+00 0.  1.
          1   -1    0    0  501    0  0.00000000000E+00 -0.00000000000E+00 -0.92722103610E+03  0.92722103610E+03  0.00000000000E+00 0. -1.
          5    1    1    2  502    0  0.87560518813E+02 -0.68150527103E+02 -0.34628292109E+03  0.36365545540E+03  0.47000000000E+01 0. -1.
         -5    1    1    2    0  502 -0.43805268240E+02 -0.47195863602E+02 -0.19832761611E+03  0.20857201245E+03  0.47000000000E+01 0. -1.
        -11    1    1    2    0    0  0.45073646272E+01  0.90364767655E+02 -0.15583080222E+03  0.18019252617E+03  0.00000000000E+00 0.  1.
         11    1    1    2    0    0 -0.48262615200E+02  0.24981623050E+02 -0.19711319910E+03  0.20446753966E+03  0.00000000000E+00 0. -1.
<mgrwt>
<rscale>  0 0.16965823E+03</rscale>
<asrwt>0</asrwt>
<pdfrwt beam="2">  1        1 0.14264937E+00 0.17562357E+03</pdfrwt>
<pdfrwt beam="1">  1       -1 0.45640773E-02 0.17562357E+03</pdfrwt>
<totfact> 0.36254023E+03</totfact>
</mgrwt>
</event>
<event>
 6    1  0.8353100E-006  0.1363739E+03  0.7546771E-02  0.1230856E+00
         -1   -1    0    0    0  501 -0.00000000000E+00  0.00000000000E+00  0.25383110117E+02  0.25383110117E+02  0.00000000000E+00 0.  1.
          1   -1    0    0  501    0  0.00000000000E+00 -0.00000000000E+00 -0.61044108199E+03  0.61044108199E+03  0.00000000000E+00 0. -1.
          5    1    1    2  502    0 -0.27334031565E+02 -0.10986312147E+02 -0.27263021627E+03  0.27425749426E+03  0.47000000000E+01 0.  1.
         -5    1    1    2    0  502  0.75469805265E+02 -0.14635681718E+02 -0.13309016068E+03  0.15376922825E+03  0.47000000000E+01 0.  1.
        -11    1    1    2    0    0 -0.24256633174E+02 -0.33409148585E+02 -0.71084719599E+02  0.82204579086E+02  0.00000000000E+00 0.  1.
         11    1    1    2    0    0 -0.23879140525E+02  0.59031142450E+02 -0.10825287533E+03  0.12559289052E+03  0.00000000000E+00 0. -1.
<mgrwt>
<rscale>  0 0.12773516E+03</rscale>
<asrwt>0</asrwt>
<pdfrwt beam="2">  1        1 0.93914007E-01 0.13637394E+03</pdfrwt>
<pdfrwt beam="1">  1       -1 0.39050941E-02 0.13637394E+03</pdfrwt>
<totfact> 0.83894243E+03</totfact>
</mgrwt>
</event>
<event>
 6    1  0.8353100E-006  0.1251296E+03  0.7546771E-02  0.1249843E+00
         -1   -1    0    0    0  501 -0.00000000000E+00  0.00000000000E+00  0.24152221265E+02  0.24152221265E+02  0.00000000000E+00 0.  1.
          1   -1    0    0  501    0  0.00000000000E+00 -0.00000000000E+00 -0.50572699008E+03  0.50572699008E+03  0.00000000000E+00 0. -1.
          5    1    1    2  502    0  0.28635316204E+02 -0.44842096318E+02 -0.23548048520E+03  0.24146209608E+03  0.47000000000E+01 0. -1.
         -5    1    1    2    0  502 -0.26867874735E+02  0.50892921931E+02 -0.86734943940E+02  0.10419698986E+03  0.47000000000E+01 0. -1.
        -11    1    1    2    0    0 -0.34968003569E+02  0.24330578557E+02 -0.48373767473E+02  0.64457425530E+02  0.00000000000E+00 0.  1.
         11    1    1    2    0    0  0.33200562100E+02 -0.30381404170E+02 -0.11098557220E+03  0.11976269987E+03  0.00000000000E+00 0. -1.
<mgrwt>
<rscale>  0 0.11600130E+03</rscale>
<asrwt>0</asrwt>
<pdfrwt beam="2">  1        1 0.77804153E-01 0.12512962E+03</pdfrwt>
<pdfrwt beam="1">  1       -1 0.37157263E-02 0.12512962E+03</pdfrwt>
<totfact> 0.11527675E+04</totfact>
</mgrwt>
</event>
<event>
 6    1  0.8353100E-006  0.3369673E+03  0.7546771E-02  0.1068095E+00
         -2   -1    0    0    0  501 -0.00000000000E+00  0.00000000000E+00  0.77018690656E+02  0.77018690656E+02  0.00000000000E+00 0.  1.
          2   -1    0    0  501    0  0.00000000000E+00 -0.00000000000E+00 -0.36856941276E+03  0.36856941276E+03  0.00000000000E+00 0. -1.
          5    1    1    2  502    0  0.70977052328E+02 -0.45398581354E+02 -0.69566322561E+02  0.10936332283E+03  0.47000000000E+01 0. -1.
         -5    1    1    2    0  502 -0.21661844769E+01 -0.12718153686E+02 -0.20514586110E+03  0.20560485917E+03  0.47000000000E+01 0. -1.
        -11    1    1    2    0    0 -0.31020481145E+02  0.79778299796E+02 -0.64491466247E+01  0.85839611258E+02  0.00000000000E+00 0. -1.
         11    1    1    2    0    0 -0.37790386706E+02 -0.21661564756E+02 -0.10389391817E+02  0.44780310153E+02  0.00000000000E+00 0.  1.
<mgrwt>
<rscale>  0 0.33696726E+03</rscale>
<asrwt>0</asrwt>
<pdfrwt beam="2">  1        2 0.56702988E-01 0.33696726E+03</pdfrwt>
<pdfrwt beam="1">  1       -2 0.11849029E-01 0.33696726E+03</pdfrwt>
<totfact> 0.44177231E+03</totfact>
</mgrwt>
</event>
<event>
 6    1  0.8353100E-006  0.1796054E+03  0.7546771E-02  0.1173962E+00
          2   -1    0    0  501    0  0.00000000000E+00  0.00000000000E+00  0.20238411193E+04  0.20238411193E+04  0.00000000000E+00 0. -1.
         -2   -1    0    0    0  501 -0.00000000000E+00 -0.00000000000E+00 -0.17864942545E+02  0.17864942545E+02  0.00000000000E+00 0.  1.
          5    1    1    2  502    0  0.31348534583E+02  0.77833730134E+01  0.10076348461E+03  0.10591827673E+03  0.47000000000E+01 0. -1.
         -5    1    1    2    0  502 -0.25902249399E+02  0.12106952096E+03  0.14262431433E+04  0.14316145952E+04  0.47000000000E+01 0. -1.
        -11    1    1    2    0    0  0.18329275664E+02 -0.35313664517E+02  0.47123761508E+02  0.61673869237E+02  0.00000000000E+00 0.  1.
         11    1    1    2    0    0 -0.23775560848E+02 -0.93539229453E+02  0.43184578740E+03  0.44249932071E+03  0.00000000000E+00 0. -1.
<mgrwt>
<rscale>  0 0.17377987E+03</rscale>
<asrwt>0</asrwt>
<pdfrwt beam="1">  1        2 0.31135999E+00 0.17960537E+03</pdfrwt>
<pdfrwt beam="2">  1       -2 0.27484543E-02 0.17960537E+03</pdfrwt>
<totfact> 0.34849264E+03</totfact>
</mgrwt>
</event>
<event>
 6    1  0.8353100E-006  0.1690863E+03  0.7546771E-02  0.1185106E+00
         -1   -1    0    0    0  501 -0.00000000000E+00  0.00000000000E+00  0.78052143537E+03  0.78052143537E+03  0.00000000000E+00 0.  1.
          1   -1    0    0  501    0  0.00000000000E+00 -0.00000000000E+00 -0.32180671017E+02  0.32180671017E+02  0.00000000000E+00 0. -1.
          5    1    1    2  502    0  0.40815206195E+02 -0.76277682148E+02  0.35652146890E+03  0.36689755197E+03  0.47000000000E+01 0. -1.
         -5    1    1    2    0  502  0.34248465488E+02 -0.93409726496E+01  0.10686921897E+02  0.37369927187E+02  0.47000000000E+01 0. -1.
        -11    1    1    2    0    0 -0.36362142810E+02  0.97736891526E+02  0.30232338254E+03  0.31980327238E+03  0.00000000000E+00 0. -1.
         11    1    1    2    0    0 -0.38701528873E+02 -0.12118236728E+02  0.78808991005E+02  0.88631354846E+02  0.00000000000E+00 0.  1.
<mgrwt>
<rscale>  0 0.16322243E+03</rscale>
<asrwt>0</asrwt>
<pdfrwt beam="2">  1        1 0.49508731E-02 0.16908635E+03</pdfrwt>
<pdfrwt beam="1">  1       -1 0.12008021E+00 0.16908635E+03</pdfrwt>
<totfact> 0.11008828E+03</totfact>
</mgrwt>
</event>
<event>
 6    1  0.8353100E-006  0.1260391E+03  0.7546771E-02  0.1255090E+00
          1   -1    0    0  501    0  0.00000000000E+00  0.00000000000E+00  0.75689535342E+02  0.75689535342E+02  0.00000000000E+00 0. -1.
         -1   -1    0    0    0  501 -0.00000000000E+00 -0.00000000000E+00 -0.19352804172E+03  0.19352804172E+03  0.00000000000E+00 0.  1.
          5    1    1    2  502    0  0.16605349329E+02  0.31865066284E+02 -0.49489842965E+02  0.61338850921E+02  0.47000000000E+01 0. -1.
         -5    1    1    2    0  502 -0.31874112776E+02 -0.26617847560E+02  0.49391946883E+02  0.64700257271E+02  0.47000000000E+01 0. -1.
        -11    1    1    2    0    0 -0.31196429246E+01 -0.27110077478E+02 -0.61289948843E+01  0.27968787087E+02  0.00000000000E+00 0. -1.
         11    1    1    2    0    0  0.18388406372E+02  0.21862858754E+02 -0.11161161541E+03  0.11520968178E+03  0.00000000000E+00 0.  1.
<mgrwt>
<rscale>  0 0.11301268E+03</rscale>
<asrwt>0</asrwt>
<pdfrwt beam="1">  1        1 0.11644544E-01 0.12603907E+03</pdfrwt>
<pdfrwt beam="2">  1       -1 0.29773545E-01 0.12603907E+03</pdfrwt>
<totfact> 0.51299682E+03</totfact>
</mgrwt>
</event>
<event>
 6    1  0.8353100E-006  0.1199826E+03  0.7546771E-02  0.1283798E+00
         -2   -1    0    0    0  501 -0.00000000000E+00  0.00000000000E+00  0.74229879704E+01  0.74229879704E+01  0.00000000000E+00 0.  1.
          2   -1    0    0  501    0  0.00000000000E+00 -0.00000000000E+00 -0.15242032782E+04  0.15242032782E+04  0.00000000000E+00 0. -1.
          5    1    1    2  502    0  0.28943074275E+02 -0.11689791892E+02 -0.12120726624E+04  0.12124836419E+04  0.47000000000E+01 0. -1.
         -5    1    1    2    0  502 -0.31776112993E+01  0.38813527679E+02 -0.15660114175E+03  0.16143913634E+03  0.47000000000E+01 0.  1.
        -11    1    1    2    0    0 -0.10463864537E+02 -0.31392718016E+02 -0.63357236800E+02  0.71478211089E+02  0.00000000000E+00 0. -1.
         11    1    1    2    0    0 -0.15301598439E+02  0.42689822291E+01 -0.84749249236E+02  0.86225276863E+02  0.00000000000E+00 0.  1.
<mgrwt>
<rscale>  0 0.98352870E+02</rscale>
<asrwt>0</asrwt>
<pdfrwt beam="2">  1        2 0.23449292E+00 0.11998257E+03</pdfrwt>
<pdfrwt beam="1">  1       -2 0.11419976E-02 0.11998257E+03</pdfrwt>
<totfact> 0.22232834E+04</totfact>
</mgrwt>
</event>
<event>
 6    1  0.8353100E-006  0.1251461E+03  0.7546771E-02  0.1253404E+00
         -1   -1    0    0    0  501 -0.00000000000E+00  0.00000000000E+00  0.12787519352E+02  0.12787519352E+02  0.00000000000E+00 0.  1.
          1   -1    0    0  501    0  0.00000000000E+00 -0.00000000000E+00 -0.88252469631E+03  0.88252469631E+03  0.00000000000E+00 0. -1.
          5    1    1    2  502    0 -0.21229512313E+01  0.22065354730E+02 -0.55852749011E+03  0.55898697123E+03  0.47000000000E+01 0.  1.
         -5    1    1    2    0  502  0.34399807398E+01 -0.15574517243E+02 -0.37453743728E+01  0.17044555848E+02  0.47000000000E+01 0.  1.
        -11    1    1    2    0    0 -0.15217839983E+02 -0.43366838312E+02 -0.14524005956E+03  0.15233824281E+03  0.00000000000E+00 0. -1.
         11    1    1    2    0    0  0.13900810475E+02  0.36876000825E+02 -0.16222425291E+03  0.16694244578E+03  0.00000000000E+00 0.  1.
<mgrwt>
<rscale>  0 0.11396195E+03</rscale>
<asrwt>0</asrwt>
<pdfrwt beam="2">  1        1 0.13577299E+00 0.12514610E+03</pdfrwt>
<pdfrwt beam="1">  1       -1 0.19673113E-02 0.12514610E+03</pdfrwt>
<totfact> 0.13189364E+04</totfact>
</mgrwt>
</event>
<event>
 6    1  0.8353100E-006  0.2109046E+03  0.7546771E-02  0.1144654E+00
         -1   -1    0    0    0  501 -0.00000000000E+00  0.00000000000E+00  0.65985370049E+02  0.65985370049E+02  0.00000000000E+00 0.  1.
          1   -1    0    0  501    0  0.00000000000E+00 -0.00000000000E+00 -0.63911407796E+03  0.63911407796E+03  0.00000000000E+00 0. -1.
          5    1    1    2  502    0  0.81590212368E+02 -0.10397684634E+03 -0.31240587410E+03  0.33924573321E+03  0.47000000000E+01 0. -1.
         -5    1    1    2    0  502 -0.27339493753E+02 -0.57003836487E+02 -0.52885525384E+02  0.82558186075E+02  0.47000000000E+01 0. -1.
        -11    1    1    2    0    0 -0.27453988213E+02  0.11831514589E+03 -0.78826646896E+02  0.14479584067E+03  0.00000000000E+00 0.  1.
         11    1    1    2    0    0 -0.26796730402E+02  0.42665536938E+02 -0.12901066154E+03  0.13849968806E+03  0.00000000000E+00 0. -1.
<mgrwt>
<rscale>  0 0.20614732E+03</rscale>
<asrwt>0</asrwt>
<pdfrwt beam="2">  1        1 0.98325245E-01 0.21090458E+03</pdfrwt>
<pdfrwt beam="1">  1       -1 0.10151595E-01 0.21090458E+03</pdfrwt>
<totfact> 0.19056802E+03</totfact>
</mgrwt>
</event>
<event>
 6    1  0.8353100E-006  0.2402637E+03  0.7546771E-02  0.1119617E+00
          1   -1    0    0  501    0  0.00000000000E+00  0.00000000000E+00  0.37487766278E+03  0.37487766278E+03  0.00000000000E+00 0. -1.
         -1   -1    0    0    0  501 -0.00000000000E+00 -0.00000000000E+00 -0.38496993641E+02  0.38496993641E+02  0.00000000000E+00 0.  1.
          5    1    1    2  502    0  0.16485737766E+02  0.26621376615E+02  0.18171369351E+01  0.31715441495E+02  0.47000000000E+01 0. -1.
         -5    1    1    2    0  502 -0.32447363491E+02 -0.37383675433E+02  0.20297166073E+03  0.20897357643E+03  0.47000000000E+01 0. -1.
        -11    1    1    2    0    0 -0.34972662028E+00  0.36850762008E+02 -0.70389081379E+00  0.36859143120E+02  0.00000000000E+00 0.  1.
         11    1    1    2    0    0  0.16311352345E+02 -0.26088463190E+02  0.13229576229E+03  0.13582649538E+03  0.00000000000E+00 0. -1.
<mgrwt>
<rscale>  0 0.24026371E+03</rscale>
<asrwt>0</asrwt>
<pdfrwt beam="1">  1        1 0.57673484E-01 0.24026371E+03</pdfrwt>
<pdfrwt beam="2">  1       -1 0.59226147E-02 0.24026371E+03</pdfrwt>
<totfact> 0.88510810E+03</totfact>
</mgrwt>
</event>
<event>
 6    1  0.1012649E-005  0.2746926E+03  0.7546771E-02  0.1100746E+00
         -1   -1    0    0    0  501 -0.00000000000E+00  0.00000000000E+00  0.17002635579E+03  0.17002635579E+03  0.00000000000E+00 0.  1.
          1   -1    0    0  501    0  0.00000000000E+00 -0.00000000000E+00 -0.42362114476E+03  0.42362114476E+03  0.00000000000E+00 0. -1.
          5    1    1    2  502    0  0.12698585613E+03 -0.86740718247E+02 -0.25051376278E+02  0.15588143351E+03  0.47000000000E+01 0. -1.
         -5    1    1    2    0  502  0.83022987472E+02 -0.38672182581E+02 -0.13140589921E+03  0.16024342264E+03  0.47000000000E+01 0. -1.
        -11    1    1    2    0    0 -0.36443240119E+02  0.39665588548E+02 -0.59583847360E+02  0.80322497044E+02  0.00000000000E+00 0.  1.
         11    1    1    2    0    0 -0.17356560348E+03  0.85747312280E+02 -0.37553666129E+02  0.19720014735E+03  0.00000000000E+00 0. -1.
<mgrwt>
<rscale>  0 0.27093496E+03</rscale>
<asrwt>0</asrwt>
<pdfrwt beam="2">  1        1 0.65172482E-01 0.27469264E+03</pdfrwt>
<pdfrwt beam="1">  1       -1 0.26157902E-01 0.27469264E+03</pdfrwt>
<totfact> 0.72788841E+02</totfact>
</mgrwt>
</event>
<event>
 6    1  0.8353100E-006  0.2876316E+03  0.7546771E-02  0.1092714E+00
          1   -1    0    0  501    0  0.00000000000E+00  0.00000000000E+00  0.11196987245E+04  0.11196987245E+04  0.00000000000E+00 0. -1.
         -1   -1    0    0    0  501 -0.00000000000E+00 -0.00000000000E+00 -0.11221198102E+03  0.11221198102E+03  0.00000000000E+00 0.  1.
          5    1    1    2  502    0  0.36047223475E+02  0.19478468632E+02  0.62422524702E+02  0.74816272633E+02  0.47000000000E+01 0.  1.
         -5    1    1    2    0  502  0.63746261872E+01  0.23607364547E+03  0.81591147470E+03  0.84941451982E+03  0.47000000000E+01 0.  1.
        -11    1    1    2    0    0  0.28526675054E+02 -0.12302366326E+03  0.80128714322E+02  0.14956337710E+03  0.00000000000E+00 0. -1.
         11    1    1    2    0    0 -0.70948524716E+02 -0.13252845085E+03  0.49024029719E+02  0.15811653593E+03  0.00000000000E+00 0.  1.
<mgrwt>
<rscale>  0 0.28551563E+03</rscale>
<asrwt>0</asrwt>
<pdfrwt beam="1">  1        1 0.17226133E+00 0.28763161E+03</pdfrwt>
<pdfrwt beam="2">  1       -1 0.17263382E-01 0.28763161E+03</pdfrwt>
<totfact> 0.33602733E+02</totfact>
</mgrwt>
</event>
<event>
 6    1  0.8353100E-006  0.2377322E+03  0.7546771E-02  0.1124144E+00
          2   -1    0    0  501    0  0.00000000000E+00  0.00000000000E+00  0.71360313661E+03  0.71360313661E+03  0.00000000000E+00 0. -1.
         -2   -1    0    0    0  501 -0.00000000000E+00 -0.00000000000E+00 -0.76102638128E+02  0.76102638128E+02  0.00000000000E+00 0.  1.
          5    1    1    2  502    0 -0.21324258206E+03  0.15256513699E+02  0.21750420113E+03  0.30501692990E+03  0.47000000000E+01 0.  1.
         -5    1    1    2    0  502  0.11029264727E+02 -0.15644833386E+02  0.45055574244E+02  0.49178249894E+02  0.47000000000E+01 0.  1.
        -11    1    1    2    0    0  0.12780258223E+03  0.36438623212E+02  0.27775609488E+03  0.30791187300E+03  0.00000000000E+00 0. -1.
         11    1    1    2    0    0  0.74410735097E+02 -0.36050303524E+02  0.97184628217E+02  0.12759872195E+03  0.00000000000E+00 0.  1.
<mgrwt>
<rscale>  0 0.23358176E+03</rscale>
<asrwt>0</asrwt>
<pdfrwt beam="1">  1        2 0.10978509E+00 0.23773218E+03</pdfrwt>
<pdfrwt beam="2">  1       -2 0.11708099E-01 0.23773218E+03</pdfrwt>
<totfact> 0.21008264E+03</totfact>
</mgrwt>
</event>
<event>
 6    1  0.8353100E-006  0.2202739E+03  0.7546771E-02  0.1137061E+00
          2   -1    0    0  501    0  0.00000000000E+00  0.00000000000E+00  0.92992002245E+03  0.92992002245E+03  0.00000000000E+00 0.  1.
         -2   -1    0    0    0  501 -0.00000000000E+00 -0.00000000000E+00 -0.48440209358E+02  0.48440209358E+02  0.00000000000E+00 0. -1.
          5    1    1    2  502    0 -0.62457499708E+02  0.55630867858E+02  0.84892932654E+02  0.11926706479E+03  0.47000000000E+01 0. -1.
         -5    1    1    2    0  502 -0.45260328433E+02  0.90333953087E+02  0.41247407947E+03  0.42469480411E+03  0.47000000000E+01 0. -1.
        -11    1    1    2    0    0  0.71829747504E+02 -0.11126113816E+03  0.34922646140E+03  0.37349387523E+03  0.00000000000E+00 0.  1.
         11    1    1    2    0    0  0.35888080636E+02 -0.34703682783E+02  0.34886339569E+02  0.60904487675E+02  0.00000000000E+00 0. -1.
<mgrwt>
<rscale>  0 0.21578969E+03</rscale>
<asrwt>0</asrwt>
<pdfrwt beam="1">  1        2 0.14306461E+00 0.22027385E+03</pdfrwt>
<pdfrwt beam="2">  1       -2 0.74523406E-02 0.22027385E+03</pdfrwt>
<totfact> 0.30536884E+03</totfact>
</mgrwt>
</event>
<event>
 6    1  0.8353100E-006  0.1607790E+03  0.7546771E-02  0.1194998E+00
         -2   -1    0    0    0  501 -0.00000000000E+00  0.00000000000E+00  0.21780866821E+03  0.21780866821E+03  0.00000000000E+00 0.  1.
          2   -1    0    0  501    0  0.00000000000E+00 -0.00000000000E+00 -0.10196525540E+03  0.10196525540E+03  0.00000000000E+00 0. -1.
          5    1    1    2  502    0 -0.94149958083E+02 -0.31070276370E+02 -0.46723179088E+01  0.99365473054E+02  0.47000000000E+01 0. -1.
         -5    1    1    2    0  502  0.12498029180E+02 -0.28575461862E+02  0.65201702175E+02  0.72430033277E+02  0.47000000000E+01 0. -1.
        -11    1    1    2    0    0  0.64419379210E+02  0.30336508654E+02  0.79142548456E+02  0.10645986639E+03  0.00000000000E+00 0.  1.
         11    1    1    2    0    0  0.17232549694E+02  0.29309229578E+02 -0.23828519912E+02  0.41518550897E+02  0.00000000000E+00 0. -1.
<mgrwt>
<rscale>  0 0.15454369E+03</rscale>
<asrwt>0</asrwt>
<pdfrwt beam="2">  1        2 0.15686962E-01 0.16077901E+03</pdfrwt>
<pdfrwt beam="1">  1       -2 0.33509026E-01 0.16077901E+03</pdfrwt>
<totfact> 0.29902643E+03</totfact>
</mgrwt>
</event>
<event>
 6    1  0.8353100E-006  0.1922846E+03  0.7546771E-02  0.1161196E+00
         -1   -1    0    0    0  501 -0.00000000000E+00  0.00000000000E+00  0.70884836048E+02  0.70884836048E+02  0.00000000000E+00 0.  1.
          1   -1    0    0  501    0  0.00000000000E+00 -0.00000000000E+00 -0.57819920970E+03  0.57819920970E+03  0.00000000000E+00 0. -1.
          5    1    1    2  502    0 -0.43660865281E+02  0.65094019394E+02 -0.17899818264E+03  0.19546340299E+03  0.47000000000E+01 0. -1.
         -5    1    1    2    0  502  0.84953834945E+02  0.75047595666E+02 -0.22758834772E+03  0.25429872534E+03  0.47000000000E+01 0. -1.
        -11    1    1    2    0    0 -0.66290853994E+02 -0.87202259767E+02 -0.85146182194E+02  0.13873926544E+03  0.00000000000E+00 0.  1.
         11    1    1    2    0    0  0.24997884331E+02 -0.52939355294E+02 -0.15581661093E+02  0.60582651991E+02  0.00000000000E+00 0. -1.
<mgrwt>
<rscale>  0 0.18699883E+03</rscale>
<asrwt>0</asrwt>
<pdfrwt beam="2">  1        1 0.88953723E-01 0.19228459E+03</pdfrwt>
<pdfrwt beam="1">  1       -1 0.10905360E-01 0.19228459E+03</pdfrwt>
<totfact> 0.19568096E+03</totfact>
</mgrwt>
</event>
<event>
 6    1  0.8353100E-006  0.3471307E+03  0.7546771E-02  0.1064941E+00
         -1   -1    0    0    0  501 -0.00000000000E+00  0.00000000000E+00  0.82103717272E+03  0.82103717272E+03  0.00000000000E+00 0.  1.
          1   -1    0    0  501    0  0.00000000000E+00 -0.00000000000E+00 -0.14242202160E+03  0.14242202160E+03  0.00000000000E+00 0. -1.
          5    1    1    2  502    0 -0.16046642157E+02 -0.30570238991E+03  0.29710406752E+03  0.42661969347E+03  0.47000000000E+01 0.  1.
         -5    1    1    2    0  502 -0.34099736057E+02 -0.14234338046E+02  0.65547430942E+02  0.75392069091E+02  0.47000000000E+01 0.  1.
        -11    1    1    2    0    0  0.36698727648E+02  0.17703267085E+03  0.23550155576E+03  0.29689787120E+03  0.00000000000E+00 0.  1.
         11    1    1    2    0    0  0.13447650566E+02  0.14290405710E+03  0.80462096891E+02  0.16454956055E+03  0.00000000000E+00 0. -1.
<mgrwt>
<rscale>  0 0.34439188E+03</rscale>
<asrwt>0</asrwt>
<pdfrwt beam="2">  1        1 0.21911081E-01 0.34713067E+03</pdfrwt>
<pdfrwt beam="1">  1       -1 0.12631341E+00 0.34713067E+03</pdfrwt>
<totfact> 0.13217004E+02</totfact>
</mgrwt>
</event>
<event>
 6    1  0.8353100E-006  0.1297366E+03  0.7546771E-02  0.1242030E+00
         -1   -1    0    0    0  501 -0.00000000000E+00  0.00000000000E+00  0.15874021423E+03  0.15874021423E+03  0.00000000000E+00 0.  1.
          1   -1    0    0  501    0  0.00000000000E+00 -0.00000000000E+00 -0.99135302018E+02  0.99135302018E+02  0.00000000000E+00 0. -1.
          5    1    1    2  502    0  0.73071624485E+01  0.80049310928E+02 -0.14371810501E+02  0.81791966232E+02  0.47000000000E+01 0.  1.
         -5    1    1    2    0  502  0.70487618705E+01 -0.48462963656E+02 -0.70106866356E+01  0.49694905345E+02  0.47000000000E+01 0.  1.
        -11    1    1    2    0    0 -0.56151067812E+01 -0.10402650907E+02 -0.19782748995E+02  0.23045644445E+02  0.00000000000E+00 0. -1.
         11    1    1    2    0    0 -0.87408175379E+01 -0.21183696365E+02  0.10077015835E+03  0.10334300023E+03  0.00000000000E+00 0.  1.
<mgrwt>
<rscale>  0 0.12064940E+03</rscale>
<asrwt>0</asrwt>
<pdfrwt beam="2">  1        1 0.15251585E-01 0.12973660E+03</pdfrwt>
<pdfrwt beam="1">  1       -1 0.24421571E-01 0.12973660E+03</pdfrwt>
<totfact> 0.50219060E+03</totfact>
</mgrwt>
</event>
<event>
 6    1  0.8353100E-006  0.1406490E+03  0.7546771E-02  0.1222859E+00
          2   -1    0    0  501    0  0.00000000000E+00  0.00000000000E+00  0.12098281401E+03  0.12098281401E+03  0.00000000000E+00 0. -1.
         -2   -1    0    0    0  501 -0.00000000000E+00 -0.00000000000E+00 -0.15648357499E+03  0.15648357499E+03  0.00000000000E+00 0.  1.
          5    1    1    2  502    0  0.78759026178E+02 -0.61774779304E+02  0.15883897723E+02  0.10145686655E+03  0.47000000000E+01 0. -1.
         -5    1    1    2    0  502 -0.36760662959E+02  0.12861307995E+02  0.18299613858E+02  0.43286550473E+02  0.47000000000E+01 0. -1.
        -11    1    1    2    0    0  0.62914462215E+01  0.29046354088E+02  0.14956481147E+02  0.33271148307E+02  0.00000000000E+00 0. -1.
         11    1    1    2    0    0 -0.48289809441E+02  0.19867117221E+02 -0.84640753709E+02  0.99451823668E+02  0.00000000000E+00 0.  1.
<mgrwt>
<rscale>  0 0.13314709E+03</rscale>
<asrwt>0</asrwt>
<pdfrwt beam="1">  1        2 0.18612741E-01 0.14064901E+03</pdfrwt>
<pdfrwt beam="2">  1       -2 0.24074396E-01 0.14064901E+03</pdfrwt>
<totfact> 0.43967163E+03</totfact>
</mgrwt>
</event>
<event>
 6    1  0.8353100E-006  0.1460880E+03  0.7546771E-02  0.1215300E+00
          1   -1    0    0  501    0  0.00000000000E+00  0.00000000000E+00  0.61073059112E+03  0.61073059112E+03  0.00000000000E+00 0. -1.
         -1   -1    0    0    0  501 -0.00000000000E+00 -0.00000000000E+00 -0.29790084568E+02  0.29790084568E+02  0.00000000000E+00 0.  1.
          5    1    1    2  502    0  0.17529108321E+02  0.17266080897E+02  0.34628297522E+03  0.34718781101E+03  0.47000000000E+01 0. -1.
         -5    1    1    2    0  502  0.38955557453E+02  0.32989341074E+02  0.37662516312E+02  0.63611219262E+02  0.47000000000E+01 0. -1.
        -11    1    1    2    0    0  0.65745452420E+01 -0.38413425575E+02  0.25387243236E+02  0.46511590261E+02  0.00000000000E+00 0.  1.
         11    1    1    2    0    0 -0.63059211017E+02 -0.11841996397E+02  0.17160777179E+03  0.18321005515E+03  0.00000000000E+00 0. -1.
<mgrwt>
<rscale>  0 0.13854505E+03</rscale>
<asrwt>0</asrwt>
<pdfrwt beam="1">  1        1 0.93958543E-01 0.14608800E+03</pdfrwt>
<pdfrwt beam="2">  1       -1 0.45830904E-02 0.14608800E+03</pdfrwt>
<totfact> 0.66499435E+03</totfact>
</mgrwt>
</event>
<event>
 6    1  0.8353100E-006  0.1668117E+03  0.7546771E-02  0.1188294E+00
         -4   -1    0    0    0  501 -0.00000000000E+00  0.00000000000E+00  0.52471032320E+03  0.52471032320E+03  0.00000000000E+00 0.  1.
          4   -1    0    0  501    0  0.00000000000E+00 -0.00000000000E+00 -0.55115404277E+02  0.55115404277E+02  0.00000000000E+00 0. -1.
          5    1    1    2  502    0 -0.29203964383E+02  0.25343364984E+02  0.32403727077E+02  0.50668029495E+02  0.47000000000E+01 0. -1.
         -5    1    1    2    0  502  0.12368922805E+03  0.31866854274E+02  0.97347537966E+02  0.16066472757E+03  0.47000000000E+01 0. -1.
        -11    1    1    2    0    0 -0.79222636190E+02 -0.75168863231E+02  0.31847691818E+03  0.33668105307E+03  0.00000000000E+00 0.  1.
         11    1    1    2    0    0 -0.15262627473E+02  0.17958643974E+02  0.21366735701E+02  0.31811917347E+02  0.00000000000E+00 0. -1.
<mgrwt>
<rscale>  0 0.16035744E+03</rscale>
<asrwt>0</asrwt>
<pdfrwt beam="2">  1        4 0.84792933E-02 0.16681170E+03</pdfrwt>
<pdfrwt beam="1">  1       -4 0.80724662E-01 0.16681170E+03</pdfrwt>
<totfact> 0.24128080E+02</totfact>
</mgrwt>
</event>
<event>
 6    1  0.8353100E-006  0.1405703E+03  0.7546771E-02  0.1224001E+00
          1   -1    0    0  501    0  0.00000000000E+00  0.00000000000E+00  0.45431047563E+02  0.45431047563E+02  0.00000000000E+00 0. -1.
         -1   -1    0    0    0  501 -0.00000000000E+00 -0.00000000000E+00 -0.35584245706E+03  0.35584245706E+03  0.00000000000E+00 0.  1.
          5    1    1    2  502    0  0.23928854316E+02 -0.21846461534E+02 -0.57105882031E+01  0.33234902859E+02  0.47000000000E+01 0. -1.
         -5    1    1    2    0  502 -0.56477801317E+02  0.77290555108E+02 -0.13592012225E+03  0.16631278238E+03  0.47000000000E+01 0. -1.
        -11    1    1    2    0    0 -0.21693329545E+02  0.78067244262E+01 -0.62888699434E+02  0.66981594558E+02  0.00000000000E+00 0.  1.
         11    1    1    2    0    0  0.54242276546E+02 -0.63250818001E+02 -0.10589199961E+03  0.13474422482E+03  0.00000000000E+00 0. -1.
<mgrwt>
<rscale>  0 0.13235600E+03</rscale>
<asrwt>0</asrwt>
<pdfrwt beam="1">  1        1 0.69893921E-02 0.14057034E+03</pdfrwt>
<pdfrwt beam="2">  1       -1 0.54744992E-01 0.14057034E+03</pdfrwt>
<totfact> 0.34918621E+03</totfact>
</mgrwt>
</event>
<event>
 6    1  0.8353100E-006  0.2409113E+03  0.7546771E-02  0.1156742E+00
          1   -1    0    0  501    0  0.00000000000E+00  0.00000000000E+00  0.22266369253E+03  0.22266369253E+03  0.00000000000E+00 0. -1.
         -1   -1    0    0    0  501 -0.00000000000E+00 -0.00000000000E+00 -0.14686131567E+03  0.14686131567E+03  0.00000000000E+00 0.  1.
          5    1    1    2  502    0 -0.48821991407E+02  0.10068927523E+02  0.16243535846E+03  0.16997736856E+03  0.47000000000E+01 0. -1.
         -5    1    1    2    0  502  0.81599382000E+02 -0.12977816659E+01 -0.50058939326E+02  0.95854737945E+02  0.47000000000E+01 0.  1.
        -11    1    1    2    0    0 -0.22279223657E+02 -0.49201285089E+02 -0.12343949293E+02  0.55403098698E+02  0.00000000000E+00 0.  1.
         11    1    1    2    0    0 -0.10498166935E+02  0.40430139232E+02 -0.24230092977E+02  0.48289802992E+02  0.00000000000E+00 0. -1.
<mgrwt>
<rscale>  0 0.19191895E+03</rscale>
<asrwt>0</asrwt>
<pdfrwt beam="1">  1        1 0.34255953E-01 0.24091129E+03</pdfrwt>
<pdfrwt beam="2">  1       -1 0.22594049E-01 0.24091129E+03</pdfrwt>
<totfact> 0.20965395E+03</totfact>
</mgrwt>
</event>
<event>
 6    1  0.8353100E-006  0.1254780E+03  0.7546771E-02  0.1250390E+00
         -1   -1    0    0    0  501 -0.00000000000E+00  0.00000000000E+00  0.69875670937E+02  0.69875670937E+02  0.00000000000E+00 0.  1.
          1   -1    0    0  501    0  0.00000000000E+00 -0.00000000000E+00 -0.17002492230E+03  0.17002492230E+03  0.00000000000E+00 0. -1.
          5    1    1    2  502    0  0.14938617933E+02 -0.20807181482E+02 -0.99745883656E+02  0.10308943890E+03  0.47000000000E+01 0.  1.
         -5    1    1    2    0  502 -0.25729754933E+02  0.20333064477E+02  0.26303460106E+02  0.42301487132E+02  0.47000000000E+01 0.  1.
        -11    1    1    2    0    0 -0.13044582082E+02 -0.38698914010E+02 -0.26447154713E+02  0.48654075468E+02  0.00000000000E+00 0. -1.
         11    1    1    2    0    0  0.23835719082E+02  0.39173031014E+02 -0.25967309700E+00  0.45855591732E+02  0.00000000000E+00 0.  1.
<mgrwt>
<rscale>  0 0.11568497E+03</rscale>
<asrwt>0</asrwt>
<pdfrwt beam="2">  1        1 0.26157680E-01 0.12547801E+03</pdfrwt>
<pdfrwt beam="1">  1       -1 0.10750103E-01 0.12547801E+03</pdfrwt>
<totfact> 0.92119223E+03</totfact>
</mgrwt>
</event>
<event>
 6    1  0.8353100E-006  0.2643085E+03  0.7546771E-02  0.1106461E+00
          1   -1    0    0  501    0  0.00000000000E+00  0.00000000000E+00  0.89456535355E+03  0.89456535355E+03  0.00000000000E+00 0. -1.
         -1   -1    0    0    0  501 -0.00000000000E+00 -0.00000000000E+00 -0.75650080764E+02  0.75650080764E+02  0.00000000000E+00 0.  1.
          5    1    1    2  502    0 -0.12573486857E+03 -0.11308947421E+03  0.37802575830E+03  0.41415462123E+03  0.47000000000E+01 0.  1.
         -5    1    1    2    0  502 -0.85282923157E+02  0.14574999782E+02  0.10206783795E+03  0.13388629932E+03  0.47000000000E+01 0.  1.
        -11    1    1    2    0    0  0.19838328011E+03  0.10335893317E+03  0.26349589544E+03  0.34564299763E+03  0.00000000000E+00 0.  1.
         11    1    1    2    0    0  0.12634511613E+02 -0.48444587464E+01  0.75325781102E+02  0.76531516141E+02  0.00000000000E+00 0. -1.
<mgrwt>
<rscale>  0 0.26113869E+03</rscale>
<asrwt>0</asrwt>
<pdfrwt beam="1">  1        1 0.13762543E+00 0.26430851E+03</pdfrwt>
<pdfrwt beam="2">  1       -1 0.11638475E-01 0.26430851E+03</pdfrwt>
<totfact> 0.92918821E+02</totfact>
</mgrwt>
</event>
<event>
 6    1  0.8353100E-006  0.1434076E+03  0.7546771E-02  0.1219759E+00
          2   -1    0    0  501    0  0.00000000000E+00  0.00000000000E+00  0.51326417978E+03  0.51326417978E+03  0.00000000000E+00 0. -1.
         -2   -1    0    0    0  501 -0.00000000000E+00 -0.00000000000E+00 -0.34757448996E+02  0.34757448996E+02  0.00000000000E+00 0.  1.
          5    1    1    2  502    0 -0.13969116136E+02  0.23487586310E+02  0.16448040117E+02  0.32240206884E+02  0.47000000000E+01 0.  1.
         -5    1    1    2    0  502  0.79219852760E+02 -0.49623266577E+02  0.32224097860E+03  0.33555862669E+03  0.47000000000E+01 0.  1.
        -11    1    1    2    0    0 -0.84450651188E+02  0.12786674010E+02  0.84422149191E+02  0.12009375834E+03  0.00000000000E+00 0.  1.
         11    1    1    2    0    0  0.19199914564E+02  0.13349006257E+02  0.55395562872E+02  0.60129036856E+02  0.00000000000E+00 0. -1.
<mgrwt>
<rscale>  0 0.13532691E+03</rscale>
<asrwt>0</asrwt>
<pdfrwt beam="1">  1        2 0.78963714E-01 0.14340757E+03</pdfrwt>
<pdfrwt beam="2">  1       -2 0.53473002E-02 0.14340757E+03</pdfrwt>
<totfact> 0.10205553E+04</totfact>
</mgrwt>
</event>
<event>
 6    1  0.8353100E-006  0.1258932E+03  0.7546771E-02  0.1248790E+00
         -1   -1    0    0    0  501 -0.00000000000E+00  0.00000000000E+00  0.68418224254E+02  0.68418224254E+02  0.00000000000E+00 0.  1.
          1   -1    0    0  501    0  0.00000000000E+00 -0.00000000000E+00 -0.27091171407E+03  0.27091171407E+03  0.00000000000E+00 0. -1.
          5    1    1    2  502    0  0.60784029187E+02  0.23081902018E+02 -0.14997410596E+03  0.16352918658E+03  0.47000000000E+01 0. -1.
         -5    1    1    2    0  502 -0.46933536990E+02 -0.28541512140E+02 -0.61607764027E+02  0.82673946308E+02  0.47000000000E+01 0. -1.
        -11    1    1    2    0    0 -0.46271486034E+02  0.22486916479E+02  0.19559301683E+02  0.55038878212E+02  0.00000000000E+00 0.  1.
         11    1    1    2    0    0  0.32420993837E+02 -0.17027306357E+02 -0.10470921515E+02  0.38087927228E+02  0.00000000000E+00 0. -1.
<mgrwt>
<rscale>  0 0.11661404E+03</rscale>
<asrwt>0</asrwt>
<pdfrwt beam="2">  1        1 0.41678725E-01 0.12589319E+03</pdfrwt>
<pdfrwt beam="1">  1       -1 0.10525881E-01 0.12589319E+03</pdfrwt>
<totfact> 0.53446817E+03</totfact>
</mgrwt>
</event>
<event>
 6    1  0.8353100E-006  0.1443381E+03  0.7546771E-02  0.1216944E+00
         -1   -1    0    0    0  501 -0.00000000000E+00  0.00000000000E+00  0.16457704060E+02  0.16457704060E+02  0.00000000000E+00 0.  1.
          1   -1    0    0  501    0  0.00000000000E+00 -0.00000000000E+00 -0.10493838720E+04  0.10493838720E+04  0.00000000000E+00 0. -1.
          5    1    1    2  502    0 -0.81341697647E+02  0.13168494693E+02 -0.44557987029E+03  0.45315934486E+03  0.47000000000E+01 0.  1.
         -5    1    1    2    0  502  0.34112379703E+02  0.41239195570E+02 -0.14020677520E+03  0.15014777891E+03  0.47000000000E+01 0.  1.
        -11    1    1    2    0    0  0.29777908301E+02 -0.71529773609E+02 -0.41490403628E+03  0.42207652346E+03  0.00000000000E+00 0. -1.
         11    1    1    2    0    0  0.17451409642E+02  0.17122083347E+02 -0.32235486201E+02  0.40457928855E+02  0.00000000000E+00 0.  1.
<mgrwt>
<rscale>  0 0.13734685E+03</rscale>
<asrwt>0</asrwt>
<pdfrwt beam="2">  1        1 0.16144374E+00 0.14433812E+03</pdfrwt>
<pdfrwt beam="1">  1       -1 0.25319534E-02 0.14433812E+03</pdfrwt>
<totfact> 0.69381473E+03</totfact>
</mgrwt>
</event>
<event>
 6    1  0.8353100E-006  0.1293500E+03  0.7546771E-02  0.1240925E+00
          1   -1    0    0  501    0  0.00000000000E+00  0.00000000000E+00  0.94039394491E+03  0.94039394491E+03  0.00000000000E+00 0. -1.
         -1   -1    0    0    0  501 -0.00000000000E+00 -0.00000000000E+00 -0.16537077426E+02  0.16537077426E+02  0.00000000000E+00 0.  1.
          5    1    1    2  502    0  0.31134792401E+02  0.30437820407E+02  0.62807171270E+03  0.62959669830E+03  0.47000000000E+01 0. -1.
         -5    1    1    2    0  502  0.14485511768E+01 -0.39118621378E+02  0.69837018032E+02  0.80197655368E+02  0.47000000000E+01 0. -1.
        -11    1    1    2    0    0  0.13340421186E+02  0.33649292490E+02  0.39845394782E+02  0.53832120596E+02  0.00000000000E+00 0.  1.
         11    1    1    2    0    0 -0.45923764764E+02 -0.24968491519E+02  0.18610274197E+03  0.19330454808E+03  0.00000000000E+00 0. -1.
<mgrwt>
<rscale>  0 0.12132627E+03</rscale>
<asrwt>0</asrwt>
<pdfrwt beam="1">  1        1 0.14467595E+00 0.12935002E+03</pdfrwt>
<pdfrwt beam="2">  1       -1 0.25441665E-02 0.12935002E+03</pdfrwt>
<totfact> 0.82381666E+03</totfact>
</mgrwt>
</event>
<event>
 6    1  0.8353100E-006  0.1321504E+03  0.7546771E-02  0.1237170E+00
          3   -1    0    0  501    0  0.00000000000E+00  0.00000000000E+00  0.16279890245E+03  0.16279890245E+03  0.00000000000E+00 0. -1.
         -3   -1    0    0    0  501 -0.00000000000E+00 -0.00000000000E+00 -0.88449712903E+02  0.88449712903E+02  0.00000000000E+00 0.  1.
          5    1    1    2  502    0  0.21046080716E+01 -0.65756878745E+02  0.41559340319E+02  0.77959382022E+02  0.47000000000E+01 0.  1.
         -5    1    1    2    0  502  0.38806672902E+02  0.52856037747E+02  0.29064801138E+02  0.71878865136E+02  0.47000000000E+01 0.  1.
        -11    1    1    2    0    0 -0.12512161770E+02  0.22931848136E+00 -0.43278074508E+02  0.45051065606E+02  0.00000000000E+00 0.  1.
         11    1    1    2    0    0 -0.28399119203E+02  0.12671522516E+02  0.47003122600E+02  0.56359302591E+02  0.00000000000E+00 0. -1.
<mgrwt>
<rscale>  0 0.12366553E+03</rscale>
<asrwt>0</asrwt>
<pdfrwt beam="1">  1        3 0.25045985E-01 0.13215041E+03</pdfrwt>
<pdfrwt beam="2">  1       -3 0.13607648E-01 0.13215041E+03</pdfrwt>
<totfact> 0.15031805E+03</totfact>
</mgrwt>
</event>
<event>
 6    1  0.8353100E-006  0.1263390E+03  0.7546771E-02  0.1246077E+00
          2   -1    0    0  501    0  0.00000000000E+00  0.00000000000E+00  0.32043672984E+03  0.32043672984E+03  0.00000000000E+00 0. -1.
         -2   -1    0    0    0  501 -0.00000000000E+00 -0.00000000000E+00 -0.40041126863E+02  0.40041126863E+02  0.00000000000E+00 0.  1.
          5    1    1    2  502    0  0.40418219372E+02 -0.25050344096E+02  0.18196533029E+03  0.18813458912E+03  0.47000000000E+01 0. -1.
         -5    1    1    2    0  502 -0.37585765033E+02  0.69133967488E+01  0.69400178575E+01  0.39124655086E+02  0.47000000000E+01 0. -1.
        -11    1    1    2    0    0 -0.40971988301E+01  0.54518284511E+02  0.31641644065E+02  0.63168220043E+02  0.00000000000E+00 0.  1.
         11    1    1    2    0    0  0.12647444915E+01 -0.36381337164E+02  0.59848610763E+02  0.70050392452E+02  0.00000000000E+00 0. -1.
<mgrwt>
<rscale>  0 0.11821142E+03</rscale>
<asrwt>0</asrwt>
<pdfrwt beam="1">  1        2 0.49297957E-01 0.12633896E+03</pdfrwt>
<pdfrwt beam="2">  1       -2 0.61601736E-02 0.12633896E+03</pdfrwt>
<totfact> 0.13535093E+04</totfact>
</mgrwt>
</event>
<event>
 6    1  0.8353100E-006  0.1443045E+03  0.7546771E-02  0.1217363E+00
         -2   -1    0    0    0  501 -0.00000000000E+00  0.00000000000E+00  0.21638660650E+02  0.21638660650E+02  0.00000000000E+00 0.  1.
          2   -1    0    0  501    0  0.00000000000E+00 -0.00000000000E+00 -0.79122166245E+03  0.79122166245E+03  0.00000000000E+00 0. -1.
          5    1    1    2  502    0  0.10916666531E+02 -0.98197357375E+02 -0.39619985333E+03  0.40836051276E+03  0.47000000000E+01 0. -1.
         -5    1    1    2    0  502 -0.20178613787E+01  0.26643045567E+02 -0.25069725259E+02  0.36939203648E+02  0.47000000000E+01 0. -1.
        -11    1    1    2    0    0 -0.16523681632E+02  0.80969017094E+02 -0.34533484675E+03  0.35508473659E+03  0.00000000000E+00 0. -1.
         11    1    1    2    0    0  0.76248764801E+01 -0.94147052865E+01 -0.29785764653E+01  0.12475870099E+02  0.00000000000E+00 0.  1.
<mgrwt>
<rscale>  0 0.13704409E+03</rscale>
<asrwt>0</asrwt>
<pdfrwt beam="2">  1        2 0.12172639E+00 0.14430447E+03</pdfrwt>
<pdfrwt beam="1">  1       -2 0.33290252E-02 0.14430447E+03</pdfrwt>
<totfact> 0.12517561E+04</totfact>
</mgrwt>
</event>
<event>
 6    1  0.8353100E-006  0.1483146E+03  0.7546771E-02  0.1212165E+00
         -1   -1    0    0    0  501 -0.00000000000E+00  0.00000000000E+00  0.79490498680E+02  0.79490498680E+02  0.00000000000E+00 0.  1.
          1   -1    0    0  501    0  0.00000000000E+00 -0.00000000000E+00 -0.54596330987E+03  0.54596330987E+03  0.00000000000E+00 0. -1.
          5    1    1    2  502    0  0.43536144557E+02  0.22297206905E+02 -0.62061780159E+02  0.79160064901E+02  0.47000000000E+01 0.  1.
         -5    1    1    2    0  502 -0.33880912801E+02  0.56936667409E+02 -0.41943711194E+03  0.42466372722E+03  0.47000000000E+01 0.  1.
        -11    1    1    2    0    0 -0.16633899042E+02 -0.97999152762E+02  0.57565935681E+01  0.99567358652E+02  0.00000000000E+00 0.  1.
         11    1    1    2    0    0  0.69786672859E+01  0.18765278448E+02  0.92694873428E+01  0.22062657771E+02  0.00000000000E+00 0. -1.
<mgrwt>
<rscale>  0 0.14086830E+03</rscale>
<asrwt>0</asrwt>
<pdfrwt beam="2">  1        1 0.83994351E-01 0.14831463E+03</pdfrwt>
<pdfrwt beam="1">  1       -1 0.12229308E-01 0.14831463E+03</pdfrwt>
<totfact> 0.17608170E+03</totfact>
</mgrwt>
</event>
<event>
 6    1  0.8353100E-006  0.1516701E+03  0.7546771E-02  0.1207440E+00
         -2   -1    0    0    0  501 -0.00000000000E+00  0.00000000000E+00  0.15960129244E+02  0.15960129244E+02  0.00000000000E+00 0. -1.
          2   -1    0    0  501    0  0.00000000000E+00 -0.00000000000E+00 -0.13895724337E+04  0.13895724337E+04  0.00000000000E+00 0.  1.
          5    1    1    2  502    0 -0.29033458331E+02 -0.39605389307E+02 -0.22542669406E+03  0.23076137667E+03  0.47000000000E+01 0. -1.
         -5    1    1    2    0  502  0.96172795317E+02 -0.13969856910E+02 -0.77885187227E+03  0.78490553088E+03  0.47000000000E+01 0. -1.
        -11    1    1    2    0    0 -0.84249317312E+02  0.50275691866E+02 -0.35148682244E+03  0.36492270279E+03  0.00000000000E+00 0.  1.
         11    1    1    2    0    0  0.17109980326E+02  0.32995543513E+01 -0.17846915674E+02  0.24942952607E+02  0.00000000000E+00 0. -1.
<mgrwt>
<rscale>  0 0.14446852E+03</rscale>
<asrwt>0</asrwt>
<pdfrwt beam="2">  1        2 0.21378038E+00 0.15167013E+03</pdfrwt>
<pdfrwt beam="1">  1       -2 0.24554045E-02 0.15167013E+03</pdfrwt>
<totfact> 0.87537501E+03</totfact>
</mgrwt>
</event>
<event>
 6    1  0.8353100E-006  0.1400071E+03  0.7546771E-02  0.1222380E+00
         -2   -1    0    0    0  501 -0.00000000000E+00  0.00000000000E+00  0.80072008024E+02  0.80072008024E+02  0.00000000000E+00 0.  1.
          2   -1    0    0  501    0  0.00000000000E+00 -0.00000000000E+00 -0.20448619708E+03  0.20448619708E+03  0.00000000000E+00 0. -1.
          5    1    1    2  502    0 -0.16746400763E+02  0.98367011338E+02 -0.42187099917E+02  0.10843593619E+03  0.47000000000E+01 0.  1.
         -5    1    1    2    0  502  0.18285747117E+02 -0.35323722037E+02 -0.19803595390E+02  0.44681162435E+02  0.47000000000E+01 0.  1.
        -11    1    1    2    0    0 -0.21182935143E+02 -0.64578010723E+01 -0.67777988865E+02  0.71304107249E+02  0.00000000000E+00 0. -1.
         11    1    1    2    0    0  0.19643588789E+02 -0.56585488228E+02  0.53544951153E+01  0.60136999231E+02  0.00000000000E+00 0.  1.
<mgrwt>
<rscale>  0 0.13348115E+03</rscale>
<asrwt>0</asrwt>
<pdfrwt beam="2">  1        2 0.31459414E-01 0.14000714E+03</pdfrwt>
<pdfrwt beam="1">  1       -2 0.12318771E-01 0.14000714E+03</pdfrwt>
<totfact> 0.74916978E+03</totfact>
</mgrwt>
</event>
<event>
 6    1  0.8353100E-006  0.1544246E+03  0.7546771E-02  0.1204469E+00
          2   -1    0    0  501    0  0.00000000000E+00  0.00000000000E+00  0.47093648387E+02  0.47093648387E+02  0.00000000000E+00 0. -1.
         -2   -1    0    0    0  501 -0.00000000000E+00 -0.00000000000E+00 -0.44434478477E+03  0.44434478477E+03  0.00000000000E+00 0.  1.
          5    1    1    2  502    0  0.44267104680E+02 -0.82904126551E+02 -0.40428621228E+02  0.10241696232E+03  0.47000000000E+01 0.  1.
         -5    1    1    2    0  502 -0.14720759011E+02 -0.28323872102E+01 -0.11720481984E+03  0.11825304629E+03  0.47000000000E+01 0.  1.
        -11    1    1    2    0    0 -0.16067857419E+02  0.87573973812E+02 -0.24116672507E+03  0.25707735453E+03  0.00000000000E+00 0.  1.
         11    1    1    2    0    0 -0.13478488251E+02 -0.18374600510E+01  0.15490297578E+01  0.13691070015E+02  0.00000000000E+00 0. -1.
<mgrwt>
<rscale>  0 0.14679397E+03</rscale>
<asrwt>0</asrwt>
<pdfrwt beam="1">  1        2 0.72451764E-02 0.15442458E+03</pdfrwt>
<pdfrwt beam="2">  1       -2 0.68360739E-01 0.15442458E+03</pdfrwt>
<totfact> 0.18837380E+03</totfact>
</mgrwt>
</event>
<event>
 6    1  0.8353100E-006  0.2676502E+03  0.7546771E-02  0.1102632E+00
         -2   -1    0    0    0  501 -0.00000000000E+00  0.00000000000E+00  0.12068854296E+03  0.12068854296E+03  0.00000000000E+00 0.  1.
          2   -1    0    0  501    0  0.00000000000E+00 -0.00000000000E+00 -0.14839158192E+03  0.14839158192E+03  0.00000000000E+00 0. -1.
          5    1    1    2  502    0 -0.20728370761E+02 -0.17705184407E+02 -0.45091897766E+02  0.52900927718E+02  0.47000000000E+01 0.  1.
         -5    1    1    2    0  502  0.93764645523E+02  0.26609847147E+02  0.45462964362E+01  0.97686496131E+02  0.47000000000E+01 0.  1.
        -11    1    1    2    0    0 -0.67573052050E+02  0.29272415395E+02 -0.89704691954E+01  0.74185315151E+02  0.00000000000E+00 0.  1.
         11    1    1    2    0    0 -0.54632227111E+01 -0.38177078135E+02  0.21813031568E+02  0.44307385880E+02  0.00000000000E+00 0. -1.
<mgrwt>
<rscale>  0 0.26765025E+03</rscale>
<asrwt>0</asrwt>
<pdfrwt beam="2">  1        2 0.22829474E-01 0.26765025E+03</pdfrwt>
<pdfrwt beam="1">  1       -2 0.18567468E-01 0.26765025E+03</pdfrwt>
<totfact> 0.56457751E+03</totfact>
</mgrwt>
</event>
<event>
 6    1  0.8353100E-006  0.1357465E+03  0.7546771E-02  0.1231666E+00
          2   -1    0    0  501    0  0.00000000000E+00  0.00000000000E+00  0.10017840731E+04  0.10017840731E+04  0.00000000000E+00 0. -1.
         -2   -1    0    0    0  501 -0.00000000000E+00 -0.00000000000E+00 -0.14561233346E+02  0.14561233346E+02  0.00000000000E+00 0.  1.
          5    1    1    2  502    0  0.76980670781E+02  0.23567929158E+02  0.24131092384E+03  0.25442979960E+03  0.47000000000E+01 0.  1.
         -5    1    1    2    0  502 -0.35737160895E+02  0.96196818075E+01  0.36446405297E+03  0.36636841957E+03  0.47000000000E+01 0.  1.
        -11    1    1    2    0    0  0.67916136132E+01  0.17057715494E+02  0.18727867182E+02  0.26226411926E+02  0.00000000000E+00 0.  1.
         11    1    1    2    0    0 -0.48035123499E+02 -0.50245326460E+02  0.36271999571E+03  0.36932067531E+03  0.00000000000E+00 0. -1.
<mgrwt>
<rscale>  0 0.12720322E+03</rscale>
<asrwt>0</asrwt>
<pdfrwt beam="1">  1        2 0.15412057E+00 0.13574648E+03</pdfrwt>
<pdfrwt beam="2">  1       -2 0.22401905E-02 0.13574648E+03</pdfrwt>
<totfact> 0.16382262E+04</totfact>
</mgrwt>
</event>
<event>
 6    1  0.8353100E-006  0.2372631E+03  0.7546771E-02  0.1123476E+00
         -1   -1    0    0    0  501 -0.00000000000E+00  0.00000000000E+00  0.33357411398E+02  0.33357411398E+02  0.00000000000E+00 0.  1.
          1   -1    0    0  501    0  0.00000000000E+00 -0.00000000000E+00 -0.19850121208E+04  0.19850121208E+04  0.00000000000E+00 0. -1.
          5    1    1    2  502    0  0.10904817548E+03  0.35813074719E+02 -0.10365412846E+04  0.10428873408E+04  0.47000000000E+01 0. -1.
         -5    1    1    2    0  502  0.47779861839E+02  0.90969222827E+02 -0.39449969159E+03  0.40768911117E+03  0.47000000000E+01 0. -1.
        -11    1    1    2    0    0 -0.23093554286E+02 -0.37718922900E+01 -0.93470072226E+01  0.25197340435E+02  0.00000000000E+00 0.  1.
         11    1    1    2    0    0 -0.13373448303E+03 -0.12301040526E+03 -0.51126672595E+03  0.54259573977E+03  0.00000000000E+00 0. -1.
<mgrwt>
<rscale>  0 0.23455274E+03</rscale>
<asrwt>0</asrwt>
<pdfrwt beam="2">  1        1 0.30538655E+00 0.23726308E+03</pdfrwt>
<pdfrwt beam="1">  1       -1 0.51319083E-02 0.23726308E+03</pdfrwt>
<totfact> 0.58656794E+02</totfact>
</mgrwt>
</event>
<event>
 6    1  0.8353100E-006  0.1321196E+03  0.7546771E-02  0.1253531E+00
         -2   -1    0    0    0  501 -0.00000000000E+00  0.00000000000E+00  0.16941442015E+02  0.16941442015E+02  0.00000000000E+00 0. -1.
          2   -1    0    0  501    0  0.00000000000E+00 -0.00000000000E+00 -0.98050201986E+03  0.98050201986E+03  0.00000000000E+00 0.  1.
          5    1    1    2  502    0 -0.41253219940E+02 -0.72526754949E+01 -0.42407940645E+03  0.42616881917E+03  0.47000000000E+01 0. -1.
         -5    1    1    2    0  502  0.79972487057E+02  0.25354169390E+02 -0.43976912794E+03  0.44772470167E+03  0.47000000000E+01 0. -1.
        -11    1    1    2    0    0 -0.11187814247E+02  0.20764281773E+02 -0.46468388051E+02  0.52111742182E+02  0.00000000000E+00 0.  1.
         11    1    1    2    0    0 -0.27531452870E+02 -0.38865775668E+02 -0.53243655400E+02  0.71438198856E+02  0.00000000000E+00 0. -1.
<mgrwt>
<rscale>  0 0.11389007E+03</rscale>
<asrwt>0</asrwt>
<pdfrwt beam="2">  1        2 0.15084646E+00 0.13211963E+03</pdfrwt>
<pdfrwt beam="1">  1       -2 0.26063759E-02 0.13211963E+03</pdfrwt>
<totfact> 0.13503011E+04</totfact>
</mgrwt>
</event>
<event>
 6    1  0.8353100E-006  0.2237862E+03  0.7546771E-02  0.1134396E+00
         -2   -1    0    0    0  501 -0.00000000000E+00  0.00000000000E+00  0.32608349107E+02  0.32608349107E+02  0.00000000000E+00 0.  1.
          2   -1    0    0  501    0  0.00000000000E+00 -0.00000000000E+00 -0.14433771860E+04  0.14433771860E+04  0.00000000000E+00 0. -1.
          5    1    1    2  502    0 -0.13124380840E+03 -0.49242027496E+02 -0.75616452244E+03  0.76906214932E+03  0.47000000000E+01 0. -1.
         -5    1    1    2    0  502 -0.30162075748E+02 -0.42426664649E+02 -0.73075499197E+02  0.89843704674E+02  0.47000000000E+01 0. -1.
        -11    1    1    2    0    0  0.13499980629E+03  0.10966282395E+03 -0.47397144564E+03  0.50487603818E+03  0.00000000000E+00 0.  1.
         11    1    1    2    0    0  0.26406077861E+02 -0.17994131803E+02 -0.10755736963E+03  0.11220364294E+03  0.00000000000E+00 0. -1.
<mgrwt>
<rscale>  0 0.21931376E+03</rscale>
<asrwt>0</asrwt>
<pdfrwt beam="2">  1        2 0.22205807E+00 0.22378618E+03</pdfrwt>
<pdfrwt beam="1">  1       -2 0.50166681E-02 0.22378618E+03</pdfrwt>
<totfact> 0.28490914E+03</totfact>
</mgrwt>
</event>
<event>
 6    1  0.8353100E-006  0.1383323E+03  0.7546771E-02  0.1227178E+00
         -2   -1    0    0    0  501 -0.00000000000E+00  0.00000000000E+00  0.20991533046E+02  0.20991533046E+02  0.00000000000E+00 0.  1.
          2   -1    0    0  501    0  0.00000000000E+00 -0.00000000000E+00 -0.90408244862E+03  0.90408244862E+03  0.00000000000E+00 0. -1.
          5    1    1    2  502    0  0.84386540890E+02 -0.10191731065E+02 -0.45681608075E+03  0.46468051529E+03  0.47000000000E+01 0. -1.
         -5    1    1    2    0  502 -0.42036097108E+02 -0.31262134414E+02 -0.23177302083E+03  0.23766610548E+03  0.47000000000E+01 0. -1.
        -11    1    1    2    0    0  0.20703069983E+02  0.17901638896E+01 -0.86608558048E+01  0.22512934432E+02  0.00000000000E+00 0. -1.
         11    1    1    2    0    0 -0.63053513765E+02  0.39663701589E+02 -0.18584095818E+03  0.20021442646E+03  0.00000000000E+00 0.  1.
<mgrwt>
<rscale>  0 0.13018766E+03</rscale>
<asrwt>0</asrwt>
<pdfrwt beam="2">  1        2 0.13908957E+00 0.13833230E+03</pdfrwt>
<pdfrwt beam="1">  1       -2 0.32294675E-02 0.13833230E+03</pdfrwt>
<totfact> 0.11016133E+04</totfact>
</mgrwt>
</event>
<event>
 6    1  0.8353100E-006  0.1349057E+03  0.7546771E-02  0.1232276E+00
          3   -1    0    0  501    0  0.00000000000E+00  0.00000000000E+00  0.14176359591E+03  0.14176359591E+03  0.00000000000E+00 0. -1.
         -3   -1    0    0    0  501 -0.00000000000E+00 -0.00000000000E+00 -0.11859410278E+03  0.11859410278E+03  0.00000000000E+00 0.  1.
          5    1    1    2  502    0 -0.49592291739E+02 -0.31757545163E+02  0.44194110477E+02  0.73777682774E+02  0.47000000000E+01 0. -1.
         -5    1    1    2    0  502  0.70875779632E+02 -0.14288543365E+02  0.17346931892E+02  0.74501977531E+02  0.47000000000E+01 0. -1.
        -11    1    1    2    0    0 -0.54291081745E+02  0.41610100195E+02 -0.39054698122E+02  0.78766689918E+02  0.00000000000E+00 0.  1.
         11    1    1    2    0    0  0.33007593852E+02  0.44359883335E+01  0.68314888497E+00  0.33311348469E+02  0.00000000000E+00 0. -1.
<mgrwt>
<rscale>  0 0.12680457E+03</rscale>
<asrwt>0</asrwt>
<pdfrwt beam="1">  1        3 0.21809784E-01 0.13490574E+03</pdfrwt>
<pdfrwt beam="2">  1       -3 0.18245246E-01 0.13490574E+03</pdfrwt>
<totfact> 0.11676148E+03</totfact>
</mgrwt>
</event>
<event>
 6    1  0.8353100E-006  0.1366818E+03  0.7546771E-02  0.1235926E+00
          1   -1    0    0  501    0  0.00000000000E+00  0.00000000000E+00  0.75795333345E+02  0.75795333345E+02  0.00000000000E+00 0. -1.
         -1   -1    0    0    0  501 -0.00000000000E+00 -0.00000000000E+00 -0.18433116952E+03  0.18433116952E+03  0.00000000000E+00 0.  1.
          5    1    1    2  502    0 -0.27653265612E+02 -0.69396727521E+02 -0.62958441964E+02  0.97808303861E+02  0.47000000000E+01 0. -1.
         -5    1    1    2    0  502  0.30434860570E+02  0.14175252287E+02  0.27210558262E+02  0.43470944276E+02  0.47000000000E+01 0. -1.
        -11    1    1    2    0    0  0.24540799391E+02 -0.68759089764E+01 -0.26185991527E+02  0.36540869055E+02  0.00000000000E+00 0.  1.
         11    1    1    2    0    0 -0.27322394349E+02  0.62097384210E+02 -0.46601960945E+02  0.82306385674E+02  0.00000000000E+00 0. -1.
<mgrwt>
<rscale>  0 0.12445350E+03</rscale>
<asrwt>0</asrwt>
<pdfrwt beam="1">  1        1 0.11660821E-01 0.13668180E+03</pdfrwt>
<pdfrwt beam="2">  1       -1 0.28358641E-01 0.13668180E+03</pdfrwt>
<totfact> 0.55854152E+03</totfact>
</mgrwt>
</event>
<event>
 6    1  0.8353100E-006  0.1603664E+03  0.7546771E-02  0.1196029E+00
         -1   -1    0    0    0  501 -0.00000000000E+00  0.00000000000E+00  0.65188238323E+02  0.65188238323E+02  0.00000000000E+00 0.  1.
          1   -1    0    0  501    0  0.00000000000E+00 -0.00000000000E+00 -0.35847467821E+03  0.35847467821E+03  0.00000000000E+00 0. -1.
          5    1    1    2  502    0 -0.37303096112E+02 -0.39321275999E+02 -0.21093915187E+03  0.21784191405E+03  0.47000000000E+01 0. -1.
         -5    1    1    2    0  502 -0.12483456627E+02 -0.46255655147E+02 -0.12833142091E+01  0.48157649629E+02  0.47000000000E+01 0.  1.
        -11    1    1    2    0    0  0.67815266114E+02  0.25743521746E+02 -0.39271672514E+02  0.82485777514E+02  0.00000000000E+00 0.  1.
         11    1    1    2    0    0 -0.18028713375E+02  0.59833409400E+02 -0.41792301294E+02  0.75177575339E+02  0.00000000000E+00 0. -1.
<mgrwt>
<rscale>  0 0.15367422E+03</rscale>
<asrwt>0</asrwt>
<pdfrwt beam="2">  1        1 0.55149950E-01 0.16036643E+03</pdfrwt>
<pdfrwt beam="1">  1       -1 0.10028960E-01 0.16036643E+03</pdfrwt>
<totfact> 0.41181535E+03</totfact>
</mgrwt>
</event>
<event>
 6    1  0.8353100E-006  0.1367894E+03  0.7546771E-02  0.1229732E+00
          1   -1    0    0  501    0  0.00000000000E+00  0.00000000000E+00  0.64071886322E+02  0.64071886322E+02  0.00000000000E+00 0. -1.
         -1   -1    0    0    0  501 -0.00000000000E+00 -0.00000000000E+00 -0.24649300448E+03  0.24649300448E+03  0.00000000000E+00 0.  1.
          5    1    1    2  502    0 -0.85802641800E+02  0.37891438394E+02 -0.33467825661E+02  0.99699748234E+02  0.47000000000E+01 0. -1.
         -5    1    1    2    0  502  0.40843677724E+02 -0.52541605581E+01 -0.29579100841E+02  0.50919793988E+02  0.47000000000E+01 0. -1.
        -11    1    1    2    0    0  0.72706888850E+02 -0.17422405048E+02 -0.85923516706E+02  0.11389768482E+03  0.00000000000E+00 0.  1.
         11    1    1    2    0    0 -0.27747924775E+02 -0.15214872788E+02 -0.33450674946E+02  0.46047663759E+02  0.00000000000E+00 0. -1.
<mgrwt>
<rscale>  0 0.12847810E+03</rscale>
<asrwt>0</asrwt>
<pdfrwt beam="1">  1        1 0.98572133E-02 0.13678937E+03</pdfrwt>
<pdfrwt beam="2">  1       -1 0.37922001E-01 0.13678937E+03</pdfrwt>
<totfact> 0.42537899E+03</totfact>
</mgrwt>
</event>
<event>
 6    1  0.8353100E-006  0.1383855E+03  0.7546771E-02  0.1229608E+00
         -1   -1    0    0    0  501 -0.00000000000E+00  0.00000000000E+00  0.27069245027E+02  0.27069245027E+02  0.00000000000E+00 0.  1.
          1   -1    0    0  501    0  0.00000000000E+00 -0.00000000000E+00 -0.85688991959E+03  0.85688991959E+03  0.00000000000E+00 0. -1.
          5    1    1    2  502    0  0.19151576344E+02 -0.18894623896E+02 -0.42959308597E+03  0.43046033406E+03  0.47000000000E+01 0.  1.
         -5    1    1    2    0  502 -0.72380774508E+02  0.45275937190E+02 -0.29105742298E+03  0.30335688633E+03  0.47000000000E+01 0.  1.
        -11    1    1    2    0    0  0.14760293682E+02  0.29868985723E+02 -0.23983722335E+02  0.41051693202E+02  0.00000000000E+00 0.  1.
         11    1    1    2    0    0  0.38468904482E+02 -0.56250299017E+02 -0.85186443275E+02  0.10909025103E+03  0.00000000000E+00 0. -1.
<mgrwt>
<rscale>  0 0.12856018E+03</rscale>
<asrwt>0</asrwt>
<pdfrwt beam="2">  1        1 0.13182923E+00 0.13838554E+03</pdfrwt>
<pdfrwt beam="1">  1       -1 0.41644988E-02 0.13838554E+03</pdfrwt>
<totfact> 0.46684971E+03</totfact>
</mgrwt>
</event>
<event>
 6    1  0.8353100E-006  0.1827561E+03  0.7546771E-02  0.1170272E+00
          2   -1    0    0  501    0  0.00000000000E+00  0.00000000000E+00  0.38726522737E+03  0.38726522737E+03  0.00000000000E+00 0. -1.
         -2   -1    0    0    0  501 -0.00000000000E+00 -0.00000000000E+00 -0.76960677498E+02  0.76960677498E+02  0.00000000000E+00 0.  1.
          5    1    1    2  502    0 -0.68656920867E+02  0.65864060699E+02  0.15005130557E+03  0.17773387853E+03  0.47000000000E+01 0. -1.
         -5    1    1    2    0  502  0.27301488323E+02  0.60875877171E+02  0.15050650613E+02  0.68555494089E+02  0.47000000000E+01 0. -1.
        -11    1    1    2    0    0 -0.13442430081E+02 -0.22155887019E+02 -0.54975398754E+01  0.26491606232E+02  0.00000000000E+00 0.  1.
         11    1    1    2    0    0  0.54797862625E+02 -0.10458405085E+03  0.15070013357E+03  0.19144492602E+03  0.00000000000E+00 0. -1.
<mgrwt>
<rscale>  0 0.17747215E+03</rscale>
<asrwt>0</asrwt>
<pdfrwt beam="1">  1        2 0.59579265E-01 0.18275612E+03</pdfrwt>
<pdfrwt beam="2">  1       -2 0.11840104E-01 0.18275612E+03</pdfrwt>
<totfact> 0.40912323E+03</totfact>
</mgrwt>
</event>
<event>
 6    1  0.8353100E-006  0.1346071E+03  0.7546771E-02  0.1234110E+00
         -2   -1    0    0    0  501 -0.00000000000E+00  0.00000000000E+00  0.99658753823E+02  0.99658753823E+02  0.00000000000E+00 0.  1.
          2   -1    0    0  501    0  0.00000000000E+00 -0.00000000000E+00 -0.14721353641E+03  0.14721353641E+03  0.00000000000E+00 0. -1.
          5    1    1    2  502    0  0.52774329954E+02 -0.63871621853E+02 -0.11938565949E+02  0.83841119608E+02  0.47000000000E+01 0. -1.
         -5    1    1    2    0  502 -0.42018848921E+02  0.15104888748E+02 -0.41000754679E+02  0.60802082308E+02  0.47000000000E+01 0. -1.
        -11    1    1    2    0    0  0.26600319360E+02  0.16105752898E+02  0.33081358225E+02  0.45402076258E+02  0.00000000000E+00 0.  1.
         11    1    1    2    0    0 -0.37355800393E+02  0.32660980206E+02 -0.27696820182E+02  0.56827012056E+02  0.00000000000E+00 0. -1.
<mgrwt>
<rscale>  0 0.12561569E+03</rscale>
<asrwt>0</asrwt>
<pdfrwt beam="2">  1        2 0.22648236E-01 0.13460715E+03</pdfrwt>
<pdfrwt beam="1">  1       -2 0.15332116E-01 0.13460715E+03</pdfrwt>
<totfact> 0.75151896E+03</totfact>
</mgrwt>
</event>
<event>
 6    1  0.8353100E-006  0.2839583E+03  0.7546771E-02  0.1093546E+00
          1   -1    0    0  501    0  0.00000000000E+00  0.00000000000E+00  0.14530867295E+03  0.14530867295E+03  0.00000000000E+00 0. -1.
         -1   -1    0    0    0  501 -0.00000000000E+00 -0.00000000000E+00 -0.13872591272E+03  0.13872591272E+03  0.00000000000E+00 0.  1.
          5    1    1    2  502    0 -0.18577963485E+02  0.17244771665E+02 -0.20890419383E+02  0.33181659076E+02  0.47000000000E+01 0.  1.
         -5    1    1    2    0  502  0.63037292724E+02 -0.88680133087E+02  0.51984065529E+02  0.12067435248E+03  0.47000000000E+01 0.  1.
        -11    1    1    2    0    0 -0.67724087875E+02  0.36306837986E+02 -0.38283528108E+02  0.85850842089E+02  0.00000000000E+00 0. -1.
         11    1    1    2    0    0  0.23264758636E+02  0.35128523436E+02  0.13772642190E+02  0.44327732020E+02  0.00000000000E+00 0.  1.
<mgrwt>
<rscale>  0 0.28395829E+03</rscale>
<asrwt>0</asrwt>
<pdfrwt beam="1">  1        1 0.22355180E-01 0.28395829E+03</pdfrwt>
<pdfrwt beam="2">  1       -1 0.21342448E-01 0.28395829E+03</pdfrwt>
<totfact> 0.39863215E+03</totfact>
</mgrwt>
</event>
<event>
 6    1  0.8353100E-006  0.1277668E+03  0.7546771E-02  0.1246036E+00
         -1   -1    0    0    0  501 -0.00000000000E+00  0.00000000000E+00  0.60981659790E+02  0.60981659790E+02  0.00000000000E+00 0.  1.
          1   -1    0    0  501    0  0.00000000000E+00 -0.00000000000E+00 -0.23175611494E+03  0.23175611494E+03  0.00000000000E+00 0. -1.
          5    1    1    2  502    0 -0.28914848376E+02  0.34598349739E+02 -0.15711659128E+03  0.16352622884E+03  0.47000000000E+01 0. -1.
         -5    1    1    2    0  502  0.30814245223E+02 -0.82116637790E+01  0.76273051893E+01  0.33124234560E+02  0.47000000000E+01 0. -1.
        -11    1    1    2    0    0 -0.94735657973E+00 -0.43272634738E+02  0.22763073185E+02  0.48903741191E+02  0.00000000000E+00 0.  1.
         11    1    1    2    0    0 -0.95204026760E+00  0.16885948777E+02 -0.44048242237E+02  0.47183570138E+02  0.00000000000E+00 0. -1.
<mgrwt>
<rscale>  0 0.11823569E+03</rscale>
<asrwt>0</asrwt>
<pdfrwt beam="2">  1        1 0.35654787E-01 0.12776681E+03</pdfrwt>
<pdfrwt beam="1">  1       -1 0.93817937E-02 0.12776681E+03</pdfrwt>
<totfact> 0.77288763E+03</totfact>
</mgrwt>
</event>
<event>
 6    1  0.8353100E-006  0.2162491E+03  0.7546771E-02  0.1140004E+00
          1   -1    0    0  501    0  0.00000000000E+00  0.00000000000E+00  0.10276272423E+04  0.10276272423E+04  0.00000000000E+00 0. -1.
         -1   -1    0    0    0  501 -0.00000000000E+00 -0.00000000000E+00 -0.44000310663E+02  0.44000310663E+02  0.00000000000E+00 0.  1.
          5    1    1    2  502    0  0.60465803738E+02 -0.74714866005E+02  0.34264373171E+03  0.35590060622E+03  0.47000000000E+01 0. -1.
         -5    1    1    2    0  502 -0.56343631700E+02 -0.10170204643E+03  0.27949862457E+03  0.30275317045E+03  0.47000000000E+01 0. -1.
        -11    1    1    2    0    0 -0.13437927037E+02  0.74159848714E+02  0.66085047068E+02  0.10023719115E+03  0.00000000000E+00 0.  1.
         11    1    1    2    0    0  0.93157550000E+01  0.10225706372E+03  0.29539952826E+03  0.31273658511E+03  0.00000000000E+00 0. -1.
<mgrwt>
<rscale>  0 0.21198496E+03</rscale>
<asrwt>0</asrwt>
<pdfrwt beam="1">  1        1 0.15809648E+00 0.21624913E+03</pdfrwt>
<pdfrwt beam="2">  1       -1 0.67692793E-02 0.21624913E+03</pdfrwt>
<totfact> 0.16942265E+03</totfact>
</mgrwt>
</event>
<event>
 6    1  0.8353100E-006  0.1465094E+03  0.7546771E-02  0.1213549E+00
          1   -1    0    0  501    0  0.00000000000E+00  0.00000000000E+00  0.42193181241E+03  0.42193181241E+03  0.00000000000E+00 0. -1.
         -1   -1    0    0    0  501 -0.00000000000E+00 -0.00000000000E+00 -0.43873892437E+02  0.43873892437E+02  0.00000000000E+00 0.  1.
          5    1    1    2  502    0  0.33539053170E+02  0.10116224169E+03  0.14396323390E+03  0.17918194649E+03  0.47000000000E+01 0. -1.
         -5    1    1    2    0  502 -0.19197389165E+02 -0.26097835558E+02  0.10183761408E+03  0.10697021273E+03  0.47000000000E+01 0. -1.
        -11    1    1    2    0    0 -0.26862095413E+02  0.62687145082E+01  0.48882157435E+01  0.28013632480E+02  0.00000000000E+00 0. -1.
         11    1    1    2    0    0  0.12520431408E+02 -0.81333120641E+02  0.12736885625E+03  0.15163991314E+03  0.00000000000E+00 0.  1.
<mgrwt>
<rscale>  0 0.13983668E+03</rscale>
<asrwt>0</asrwt>
<pdfrwt beam="1">  1        1 0.64912584E-01 0.14650939E+03</pdfrwt>
<pdfrwt beam="2">  1       -1 0.67498299E-02 0.14650939E+03</pdfrwt>
<totfact> 0.60793410E+03</totfact>
</mgrwt>
</event>
<event>
 6    1  0.8353100E-006  0.1391874E+03  0.7546771E-02  0.1226070E+00
         -1   -1    0    0    0  501 -0.00000000000E+00  0.00000000000E+00  0.24727103967E+03  0.24727103967E+03  0.00000000000E+00 0.  1.
          1   -1    0    0  501    0  0.00000000000E+00 -0.00000000000E+00 -0.72631394842E+02  0.72631394842E+02  0.00000000000E+00 0. -1.
          5    1    1    2  502    0 -0.50386975773E+02 -0.55662331891E+02 -0.25110366335E+02  0.79308026180E+02  0.47000000000E+01 0.  1.
         -5    1    1    2    0  502  0.18672792913E+02  0.33315494614E+01  0.61539597153E+02  0.64567673295E+02  0.47000000000E+01 0.  1.
        -11    1    1    2    0    0 -0.17437263500E+02  0.19211725067E+02  0.32955807584E+00  0.25947199212E+02  0.00000000000E+00 0. -1.
         11    1    1    2    0    0  0.49151446360E+02  0.33119057363E+02  0.13788085593E+03  0.15007953582E+03  0.00000000000E+00 0.  1.
<mgrwt>
<rscale>  0 0.13093839E+03</rscale>
<asrwt>0</asrwt>
<pdfrwt beam="2">  1        1 0.11174061E-01 0.13918738E+03</pdfrwt>
<pdfrwt beam="1">  1       -1 0.38041698E-01 0.13918738E+03</pdfrwt>
<totfact> 0.35875270E+03</totfact>
</mgrwt>
</event>
<event>
 6    1  0.8353100E-006  0.3500852E+03  0.7546771E-02  0.1062580E+00
          2   -1    0    0  501    0  0.00000000000E+00  0.00000000000E+00  0.73970477006E+03  0.73970477006E+03  0.00000000000E+00 0. -1.
         -2   -1    0    0    0  501 -0.00000000000E+00 -0.00000000000E+00 -0.41421819417E+02  0.41421819417E+02  0.00000000000E+00 0.  1.
          5    1    1    2  502    0  0.40134287894E+02 -0.23338387493E+02  0.43742765109E+03  0.43990962860E+03  0.47000000000E+01 0. -1.
         -5    1    1    2    0  502 -0.21775242696E+02  0.54008743301E+02  0.13503839636E+03  0.14713451002E+03  0.47000000000E+01 0. -1.
        -11    1    1    2    0    0 -0.64210605312E+02  0.40777905708E+01  0.10472559567E+02  0.65186691237E+02  0.00000000000E+00 0.  1.
         11    1    1    2    0    0  0.45851560115E+02 -0.34748146378E+02  0.11534434363E+03  0.12889575962E+03  0.00000000000E+00 0. -1.
<mgrwt>
<rscale>  0 0.35008523E+03</rscale>
<asrwt>0</asrwt>
<pdfrwt beam="1">  1        2 0.11380072E+00 0.35008523E+03</pdfrwt>
<pdfrwt beam="2">  1       -2 0.63725882E-02 0.35008523E+03</pdfrwt>
<totfact> 0.53045046E+03</totfact>
</mgrwt>
</event>
<event>
 6    1  0.8353100E-006  0.1283458E+03  0.7546771E-02  0.1244016E+00
         -1   -1    0    0    0  501 -0.00000000000E+00  0.00000000000E+00  0.15315449361E+03  0.15315449361E+03  0.00000000000E+00 0.  1.
          1   -1    0    0  501    0  0.00000000000E+00 -0.00000000000E+00 -0.82443652067E+02  0.82443652067E+02  0.00000000000E+00 0. -1.
          5    1    1    2  502    0  0.52704345418E+02  0.38693017845E+02 -0.41995200432E+01  0.65685794693E+02  0.47000000000E+01 0.  1.
         -5    1    1    2    0  502 -0.49554148937E+02 -0.96490779835E+01  0.48296823801E+02  0.70024221324E+02  0.47000000000E+01 0.  1.
        -11    1    1    2    0    0 -0.44585976743E+02 -0.20740818948E+02 -0.13875946845E+01  0.49193661297E+02  0.00000000000E+00 0. -1.
         11    1    1    2    0    0  0.41435780262E+02 -0.83031209135E+01  0.28001132467E+02  0.50694468360E+02  0.00000000000E+00 0.  1.
<mgrwt>
<rscale>  0 0.11944483E+03</rscale>
<asrwt>0</asrwt>
<pdfrwt beam="2">  1        1 0.12683639E-01 0.12834577E+03</pdfrwt>
<pdfrwt beam="1">  1       -1 0.23562230E-01 0.12834577E+03</pdfrwt>
<totfact> 0.67594484E+03</totfact>
</mgrwt>
</event>
<event>
 6    1  0.8353100E-006  0.1287787E+03  0.7546771E-02  0.1244260E+00
          1   -1    0    0  501    0  0.00000000000E+00  0.00000000000E+00  0.73056657235E+02  0.73056657235E+02  0.00000000000E+00 0. -1.
         -1   -1    0    0    0  501 -0.00000000000E+00 -0.00000000000E+00 -0.19066013859E+03  0.19066013859E+03  0.00000000000E+00 0.  1.
          5    1    1    2  502    0 -0.43546364352E+02 -0.82342650245E+01 -0.68015512591E+02  0.81315981958E+02  0.47000000000E+01 0. -1.
         -5    1    1    2    0  502  0.21120442524E+02 -0.13124107031E+02  0.42977126493E+02  0.49874228609E+02  0.47000000000E+01 0. -1.
        -11    1    1    2    0    0  0.33950621934E+02  0.51395840084E+02 -0.51032063308E+02  0.79990303119E+02  0.00000000000E+00 0. -1.
         11    1    1    2    0    0 -0.11524700107E+02 -0.30037468029E+02 -0.41533031948E+02  0.52536282139E+02  0.00000000000E+00 0.  1.
<mgrwt>
<rscale>  0 0.11929799E+03</rscale>
<asrwt>0</asrwt>
<pdfrwt beam="1">  1        1 0.11239486E-01 0.12877869E+03</pdfrwt>
<pdfrwt beam="2">  1       -1 0.29332328E-01 0.12877869E+03</pdfrwt>
<totfact> 0.55183809E+03</totfact>
</mgrwt>
</event>
<event>
 6    1  0.8353100E-006  0.4127302E+03  0.7546771E-02  0.1039459E+00
         -2   -1    0    0    0  501 -0.00000000000E+00  0.00000000000E+00  0.14874672166E+02  0.14874672166E+02  0.00000000000E+00 0.  1.
          2   -1    0    0  501    0  0.00000000000E+00 -0.00000000000E+00 -0.28630254204E+04  0.28630254204E+04  0.00000000000E+00 0. -1.
          5    1    1    2  502    0  0.46266578769E+01 -0.10063505597E+03 -0.23499362521E+04  0.23520993388E+04  0.47000000000E+01 0. -1.
         -5    1    1    2    0  502 -0.15172655043E+02  0.27188727705E+02 -0.26321355152E+03  0.26509036210E+03  0.47000000000E+01 0. -1.
        -11    1    1    2    0    0 -0.10811303065E+02  0.37005960657E+02 -0.23756430609E+02  0.45284582293E+02  0.00000000000E+00 0.  1.
         11    1    1    2    0    0  0.21357300232E+02  0.36440367612E+02 -0.21124451403E+03  0.21542580944E+03  0.00000000000E+00 0. -1.
<mgrwt>
<rscale>  0 0.41273025E+03</rscale>
<asrwt>0</asrwt>
<pdfrwt beam="2">  1        2 0.44046550E+00 0.41273025E+03</pdfrwt>
<pdfrwt beam="1">  1       -2 0.22884108E-02 0.41273025E+03</pdfrwt>
<totfact> 0.15611363E+03</totfact>
</mgrwt>
</event>
<event>
 6    1  0.8353100E-006  0.2173112E+03  0.7546771E-02  0.1139587E+00
         -2   -1    0    0    0  501 -0.00000000000E+00  0.00000000000E+00  0.40207000029E+02  0.40207000029E+02  0.00000000000E+00 0.  1.
          2   -1    0    0  501    0  0.00000000000E+00 -0.00000000000E+00 -0.10777767969E+04  0.10777767969E+04  0.00000000000E+00 0. -1.
          5    1    1    2  502    0 -0.32417416742E+02  0.11690589674E+03 -0.38554902521E+03  0.40421283805E+03  0.47000000000E+01 0.  1.
         -5    1    1    2    0  502  0.62966285273E+02  0.58205177850E+02 -0.13658903904E+03  0.16134203233E+03  0.47000000000E+01 0.  1.
        -11    1    1    2    0    0 -0.26277721653E+02 -0.63034343899E+02 -0.93124095741E+02  0.11548135942E+03  0.00000000000E+00 0.  1.
         11    1    1    2    0    0 -0.42711468781E+01 -0.11207673069E+03 -0.42230763684E+03  0.43694756710E+03  0.00000000000E+00 0. -1.
<mgrwt>
<rscale>  0 0.21251862E+03</rscale>
<asrwt>0</asrwt>
<pdfrwt beam="2">  1        2 0.16581181E+00 0.21731119E+03</pdfrwt>
<pdfrwt beam="1">  1       -2 0.61856924E-02 0.21731119E+03</pdfrwt>
<totfact> 0.33086391E+03</totfact>
</mgrwt>
</event>
<event>
 6    1  0.8353100E-006  0.1352893E+03  0.7546771E-02  0.1232140E+00
         -2   -1    0    0    0  501 -0.00000000000E+00  0.00000000000E+00  0.26675406129E+02  0.26675406129E+02  0.00000000000E+00 0.  1.
          2   -1    0    0  501    0  0.00000000000E+00 -0.00000000000E+00 -0.63659602187E+03  0.63659602187E+03  0.00000000000E+00 0. -1.
          5    1    1    2  502    0 -0.75652884871E+02 -0.30578035484E+01 -0.31541542131E+03  0.32440975194E+03  0.47000000000E+01 0. -1.
         -5    1    1    2    0  502  0.42641745748E+02 -0.36787938572E+02 -0.15092995358E+03  0.16116330783E+03  0.47000000000E+01 0. -1.
        -11    1    1    2    0    0  0.46311211351E+02  0.59551795621E+02 -0.80659042194E+02  0.11044014554E+03  0.00000000000E+00 0.  1.
         11    1    1    2    0    0 -0.13300072228E+02 -0.19706053500E+02 -0.62916198654E+02  0.67258222686E+02  0.00000000000E+00 0. -1.
<mgrwt>
<rscale>  0 0.12689310E+03</rscale>
<asrwt>0</asrwt>
<pdfrwt beam="2">  1        2 0.97937845E-01 0.13528927E+03</pdfrwt>
<pdfrwt beam="1">  1       -2 0.41039088E-02 0.13528927E+03</pdfrwt>
<totfact> 0.11852538E+04</totfact>
</mgrwt>
</event>
<event>
 6    1  0.8353100E-006  0.3936367E+03  0.7546771E-02  0.1046006E+00
         -2   -1    0    0    0  501 -0.00000000000E+00  0.00000000000E+00  0.45092504719E+02  0.45092504719E+02  0.00000000000E+00 0.  1.
          2   -1    0    0  501    0  0.00000000000E+00 -0.00000000000E+00 -0.85906652972E+03  0.85906652972E+03  0.00000000000E+00 0. -1.
          5    1    1    2  502    0  0.19788086143E+02 -0.15536926949E+03 -0.51936876991E+03  0.54249164732E+03  0.47000000000E+01 0. -1.
         -5    1    1    2    0  502 -0.32070017351E+02  0.75281353816E+01 -0.61683888696E+02  0.70086738830E+02  0.47000000000E+01 0. -1.
        -11    1    1    2    0    0 -0.12444322770E+02  0.93687361728E+02 -0.68528067787E+02  0.11674022011E+03  0.00000000000E+00 0.  1.
         11    1    1    2    0    0  0.24726253978E+02  0.54153772377E+02 -0.16439329861E+03  0.17484042818E+03  0.00000000000E+00 0. -1.
<mgrwt>
<rscale>  0 0.39363669E+03</rscale>
<asrwt>0</asrwt>
<pdfrwt beam="2">  1        2 0.13216408E+00 0.39363669E+03</pdfrwt>
<pdfrwt beam="1">  1       -2 0.69373084E-02 0.39363669E+03</pdfrwt>
<totfact> 0.38394399E+03</totfact>
</mgrwt>
</event>
<event>
 6    1  0.8353100E-006  0.3052068E+03  0.7546771E-02  0.1082666E+00
         -1   -1    0    0    0  501 -0.00000000000E+00  0.00000000000E+00  0.19361281124E+02  0.19361281124E+02  0.00000000000E+00 0.  1.
          1   -1    0    0  501    0  0.00000000000E+00 -0.00000000000E+00 -0.12028028189E+04  0.12028028189E+04  0.00000000000E+00 0. -1.
          5    1    1    2  502    0 -0.25354527714E+02 -0.14548867513E+02 -0.21794096075E+03  0.21994288802E+03  0.47000000000E+01 0.  1.
         -5    1    1    2    0  502  0.12328437518E+03 -0.12351366143E+02 -0.41151452963E+03  0.42978819377E+03  0.47000000000E+01 0.  1.
        -11    1    1    2    0    0 -0.56971356556E+02 -0.29825377252E+02 -0.16282303259E+03  0.17506178492E+03  0.00000000000E+00 0.  1.
         11    1    1    2    0    0 -0.40958490906E+02  0.56725610907E+02 -0.39116301484E+03  0.39737123334E+03  0.00000000000E+00 0. -1.
<mgrwt>
<rscale>  0 0.30520684E+03</rscale>
<asrwt>0</asrwt>
<pdfrwt beam="2">  1        1 0.18504666E+00 0.30520684E+03</pdfrwt>
<pdfrwt beam="1">  1       -1 0.29786574E-02 0.30520684E+03</pdfrwt>
<totfact> 0.43531205E+03</totfact>
</mgrwt>
</event>
<event>
 6    1  0.8353100E-006  0.2311723E+03  0.7546771E-02  0.1125817E+00
          1   -1    0    0  501    0  0.00000000000E+00  0.00000000000E+00  0.21935496294E+03  0.21935496294E+03  0.00000000000E+00 0. -1.
         -1   -1    0    0    0  501 -0.00000000000E+00 -0.00000000000E+00 -0.60906583525E+02  0.60906583525E+02  0.00000000000E+00 0.  1.
          5    1    1    2  502    0  0.17073646877E+02 -0.53093994217E+02  0.12544452763E+03  0.13736411886E+03  0.47000000000E+01 0. -1.
         -5    1    1    2    0  502  0.11323901436E+02  0.19184688294E+02 -0.15491452993E+02  0.27538302862E+02  0.47000000000E+01 0.  1.
        -11    1    1    2    0    0  0.57065649390E+01  0.50006609142E+02  0.57672463090E+02  0.76546318266E+02  0.00000000000E+00 0.  1.
         11    1    1    2    0    0 -0.34104113252E+02 -0.16097303219E+02 -0.91771583096E+01  0.38812806473E+02  0.00000000000E+00 0. -1.
<mgrwt>
<rscale>  0 0.23117233E+03</rscale>
<asrwt>0</asrwt>
<pdfrwt beam="1">  1        1 0.33746917E-01 0.23117233E+03</pdfrwt>
<pdfrwt beam="2">  1       -1 0.93702438E-02 0.23117233E+03</pdfrwt>
<totfact> 0.86262354E+03</totfact>
</mgrwt>
</event>
<event>
 6    1  0.1095911E-005  0.1760921E+03  0.7546771E-02  0.1177714E+00
          1   -1    0    0  501    0  0.00000000000E+00  0.00000000000E+00  0.14473338738E+04  0.14473338738E+04  0.00000000000E+00 0. -1.
         -1   -1    0    0    0  501 -0.00000000000E+00 -0.00000000000E+00 -0.23269408703E+02  0.23269408703E+02  0.00000000000E+00 0.  1.
          5    1    1    2  502    0 -0.31598149147E+02 -0.18416484847E+02  0.63974249700E+02  0.73840399297E+02  0.47000000000E+01 0. -1.
         -5    1    1    2    0  502 -0.92377055366E+02  0.22108802156E+02  0.10107822806E+04  0.10152463880E+04  0.47000000000E+01 0. -1.
        -11    1    1    2    0    0  0.90098191148E+01  0.31185438387E+02  0.91572818851E+02  0.97156006300E+02  0.00000000000E+00 0.  1.
         11    1    1    2    0    0  0.11496538540E+03 -0.34877755696E+02  0.25773511595E+03  0.28436048895E+03  0.00000000000E+00 0. -1.
<mgrwt>
<rscale>  0 0.17012885E+03</rscale>
<asrwt>0</asrwt>
<pdfrwt beam="1">  1        1 0.22266668E+00 0.17609211E+03</pdfrwt>
<pdfrwt beam="2">  1       -1 0.35799102E-02 0.17609211E+03</pdfrwt>
<totfact> 0.22476537E+03</totfact>
</mgrwt>
</event>
<event>
 6    1  0.8353100E-006  0.1259086E+03  0.7546771E-02  0.1249240E+00
          2   -1    0    0  501    0  0.00000000000E+00  0.00000000000E+00  0.70707074184E+03  0.70707074184E+03  0.00000000000E+00 0. -1.
         -2   -1    0    0    0  501 -0.00000000000E+00 -0.00000000000E+00 -0.17648900275E+02  0.17648900275E+02  0.00000000000E+00 0.  1.
          5    1    1    2  502    0 -0.10173154094E+02  0.48530916908E+02  0.88828888486E+02  0.10184009225E+03  0.47000000000E+01 0. -1.
         -5    1    1    2    0  502  0.24700752348E+02 -0.44439630122E+02  0.38746383603E+03  0.39081366676E+03  0.47000000000E+01 0. -1.
        -11    1    1    2    0    0  0.36911748120E+02 -0.92917679858E+01  0.66959637855E+02  0.77022121519E+02  0.00000000000E+00 0.  1.
         11    1    1    2    0    0 -0.51439346374E+02  0.52004811995E+01  0.14616947919E+03  0.15504376159E+03  0.00000000000E+00 0. -1.
<mgrwt>
<rscale>  0 0.11635190E+03</rscale>
<asrwt>0</asrwt>
<pdfrwt beam="1">  1        2 0.10878009E+00 0.12590857E+03</pdfrwt>
<pdfrwt beam="2">  1       -2 0.27152160E-02 0.12590857E+03</pdfrwt>
<totfact> 0.19165593E+04</totfact>
</mgrwt>
</event>
<event>
 6    1  0.8353100E-006  0.1339563E+03  0.7546771E-02  0.1234265E+00
         -2   -1    0    0    0  501 -0.00000000000E+00  0.00000000000E+00  0.11421964435E+03  0.11421964435E+03  0.00000000000E+00 0.  1.
          2   -1    0    0  501    0  0.00000000000E+00 -0.00000000000E+00 -0.12331012368E+03  0.12331012368E+03  0.00000000000E+00 0. -1.
          5    1    1    2  502    0 -0.46268481554E+02  0.13306611500E+02 -0.36808561088E+02  0.60784853905E+02  0.47000000000E+01 0. -1.
         -5    1    1    2    0  502  0.27195540302E+02 -0.57540193649E+02  0.35805680352E+02  0.73175187344E+02  0.47000000000E+01 0. -1.
        -11    1    1    2    0    0 -0.18885483267E+02  0.34000809727E+02 -0.37842317553E+02  0.54265620222E+02  0.00000000000E+00 0. -1.
         11    1    1    2    0    0  0.37958424519E+02  0.10232772422E+02  0.29754718952E+02  0.49304106556E+02  0.00000000000E+00 0.  1.
<mgrwt>
<rscale>  0 0.12551583E+03</rscale>
<asrwt>0</asrwt>
<pdfrwt beam="2">  1        2 0.18970788E-01 0.13395629E+03</pdfrwt>
<pdfrwt beam="1">  1       -2 0.17572253E-01 0.13395629E+03</pdfrwt>
<totfact> 0.73226528E+03</totfact>
</mgrwt>
</event>
<event>
 6    1  0.8353100E-006  0.1353282E+03  0.7546771E-02  0.1228828E+00
          1   -1    0    0  501    0  0.00000000000E+00  0.00000000000E+00  0.59116922503E+02  0.59116922503E+02  0.00000000000E+00 0. -1.
         -1   -1    0    0    0  501 -0.00000000000E+00 -0.00000000000E+00 -0.26247312591E+03  0.26247312591E+03  0.00000000000E+00 0.  1.
          5    1    1    2  502    0 -0.13640449541E+02 -0.76828055473E+02 -0.92155803802E+02  0.12084450400E+03  0.47000000000E+01 0. -1.
         -5    1    1    2    0  502 -0.29781017494E+02  0.30338786130E+02  0.19514937916E+00  0.42772409683E+02  0.47000000000E+01 0.  1.
        -11    1    1    2    0    0  0.40196230968E+02 -0.20040272142E+02 -0.52189322906E+02  0.68855463959E+02  0.00000000000E+00 0. -1.
         11    1    1    2    0    0  0.32252360667E+01  0.66529541486E+02 -0.59206226077E+02  0.89117670774E+02  0.00000000000E+00 0.  1.
<mgrwt>
<rscale>  0 0.12907937E+03</rscale>
<asrwt>0</asrwt>
<pdfrwt beam="1">  1        1 0.90949112E-02 0.13532824E+03</pdfrwt>
<pdfrwt beam="2">  1       -1 0.40380481E-01 0.13532824E+03</pdfrwt>
<totfact> 0.42397006E+03</totfact>
</mgrwt>
</event>
<event>
 6    1  0.8353100E-006  0.1287644E+03  0.7546771E-02  0.1258136E+00
          2   -1    0    0  501    0  0.00000000000E+00  0.00000000000E+00  0.14617292663E+03  0.14617292663E+03  0.00000000000E+00 0. -1.
         -2   -1    0    0    0  501 -0.00000000000E+00 -0.00000000000E+00 -0.74580218360E+02  0.74580218360E+02  0.00000000000E+00 0.  1.
          5    1    1    2  502    0  0.46710959692E+02 -0.17979833058E+02  0.37702103807E+02  0.62838895468E+02  0.47000000000E+01 0.  1.
         -5    1    1    2    0  502 -0.64202923904E+02  0.43411736620E+02  0.36778698709E+02  0.85914824058E+02  0.47000000000E+01 0.  1.
        -11    1    1    2    0    0  0.35469260022E+02  0.47850251315E+01 -0.74098645817E+01  0.36549568604E+02  0.00000000000E+00 0.  1.
         11    1    1    2    0    0 -0.17977295810E+02 -0.30216928694E+02  0.45217703340E+01  0.35449856859E+02  0.00000000000E+00 0. -1.
<mgrwt>
<rscale>  0 0.11132476E+03</rscale>
<asrwt>0</asrwt>
<pdfrwt beam="1">  1        2 0.22488142E-01 0.12876443E+03</pdfrwt>
<pdfrwt beam="2">  1       -2 0.11473880E-01 0.12876443E+03</pdfrwt>
<totfact> 0.12043689E+04</totfact>
</mgrwt>
</event>
<event>
 6    1  0.8353100E-006  0.1360092E+03  0.7546771E-02  0.1221723E+00
          1   -1    0    0  501    0  0.00000000000E+00  0.00000000000E+00  0.28829337076E+03  0.28829337076E+03  0.00000000000E+00 0. -1.
         -1   -1    0    0    0  501 -0.00000000000E+00 -0.00000000000E+00 -0.70384249611E+02  0.70384249611E+02  0.00000000000E+00 0.  1.
          5    1    1    2  502    0  0.69163085491E+02 -0.28066018317E+02  0.85824139574E+02  0.11383807233E+03  0.47000000000E+01 0. -1.
         -5    1    1    2    0  502 -0.65624160741E+01  0.59705922648E+02  0.93491140059E+02  0.11122295525E+03  0.47000000000E+01 0.  1.
        -11    1    1    2    0    0 -0.90587894309E+02 -0.33660663435E+02  0.41959046765E+02  0.10535543870E+03  0.00000000000E+00 0.  1.
         11    1    1    2    0    0  0.27987224892E+02  0.20207591032E+01 -0.33652052460E+01  0.28261154097E+02  0.00000000000E+00 0. -1.
<mgrwt>
<rscale>  0 0.13394054E+03</rscale>
<asrwt>0</asrwt>
<pdfrwt beam="1">  1        1 0.44352826E-01 0.13600918E+03</pdfrwt>
<pdfrwt beam="2">  1       -1 0.10828346E-01 0.13600918E+03</pdfrwt>
<totfact> 0.47615683E+03</totfact>
</mgrwt>
</event>
<event>
 6    1  0.8353100E-006  0.1303688E+03  0.7546771E-02  0.1241485E+00
         -2   -1    0    0    0  501 -0.00000000000E+00  0.00000000000E+00  0.21741261512E+03  0.21741261512E+03  0.00000000000E+00 0.  1.
          2   -1    0    0  501    0  0.00000000000E+00 -0.00000000000E+00 -0.70197165644E+02  0.70197165644E+02  0.00000000000E+00 0. -1.
          5    1    1    2  502    0  0.15827447798E+02 -0.49311502979E+02 -0.37681526923E+02  0.64219310967E+02  0.47000000000E+01 0. -1.
         -5    1    1    2    0  502 -0.20511678018E+02  0.12580361631E+02  0.64332257888E+02  0.68845652287E+02  0.47000000000E+01 0. -1.
        -11    1    1    2    0    0 -0.36201295324E+02  0.37064689995E+02  0.44986142049E+02  0.68615435611E+02  0.00000000000E+00 0. -1.
         11    1    1    2    0    0  0.40885525543E+02 -0.33354864772E+00  0.75578576462E+02  0.85929381900E+02  0.00000000000E+00 0.  1.
<mgrwt>
<rscale>  0 0.12098221E+03</rscale>
<asrwt>0</asrwt>
<pdfrwt beam="2">  1        2 0.10799564E-01 0.13036880E+03</pdfrwt>
<pdfrwt beam="1">  1       -2 0.33448094E-01 0.13036880E+03</pdfrwt>
<totfact> 0.46246324E+03</totfact>
</mgrwt>
</event>
<event>
 6    1  0.8353100E-006  0.1608972E+03  0.7546771E-02  0.1195609E+00
          3   -1    0    0  501    0  0.00000000000E+00  0.00000000000E+00  0.36045614157E+03  0.36045614157E+03  0.00000000000E+00 0. -1.
         -3   -1    0    0    0  501 -0.00000000000E+00 -0.00000000000E+00 -0.82456956843E+02  0.82456956843E+02  0.00000000000E+00 0.  1.
          5    1    1    2  502    0  0.60188659227E+02 -0.98807703376E+01  0.14987618580E+03  0.16188040460E+03  0.47000000000E+01 0. -1.
         -5    1    1    2    0  502 -0.31236666703E+02 -0.87198617076E+02  0.11127459239E+03  0.14485666391E+03  0.47000000000E+01 0. -1.
        -11    1    1    2    0    0 -0.47453533866E+01  0.10718805754E+03  0.50485456181E+01  0.10741175853E+03  0.00000000000E+00 0. -1.
         11    1    1    2    0    0 -0.24206639138E+02 -0.10108670129E+02  0.11799860918E+02  0.28764271376E+02  0.00000000000E+00 0.  1.
<mgrwt>
<rscale>  0 0.15402777E+03</rscale>
<asrwt>0</asrwt>
<pdfrwt beam="1">  1        3 0.55454790E-01 0.16089717E+03</pdfrwt>
<pdfrwt beam="2">  1       -3 0.12685686E-01 0.16089717E+03</pdfrwt>
<totfact> 0.38100862E+02</totfact>
</mgrwt>
</event>
<event>
 6    1  0.8353100E-006  0.1285019E+03  0.7546771E-02  0.1245198E+00
         -1   -1    0    0    0  501 -0.00000000000E+00  0.00000000000E+00  0.19935319051E+03  0.19935319051E+03  0.00000000000E+00 0.  1.
          1   -1    0    0  501    0  0.00000000000E+00 -0.00000000000E+00 -0.61922934390E+02  0.61922934390E+02  0.00000000000E+00 0. -1.
          5    1    1    2  502    0 -0.86267747264E+01 -0.42887609588E+02  0.10301365439E+03  0.11201638848E+03  0.47000000000E+01 0.  1.
         -5    1    1    2    0  502 -0.13717711274E+02  0.23218515867E+02 -0.26035189330E+02  0.37778249895E+02  0.47000000000E+01 0.  1.
        -11    1    1    2    0    0  0.41458068000E+02  0.89305359693E+01 -0.47673004934E+01  0.42676141215E+02  0.00000000000E+00 0. -1.
         11    1    1    2    0    0 -0.19113581999E+02  0.10738557752E+02  0.65219091561E+02  0.68805345312E+02  0.00000000000E+00 0.  1.
<mgrwt>
<rscale>  0 0.11873538E+03</rscale>
<asrwt>0</asrwt>
<pdfrwt beam="2">  1        1 0.95266054E-02 0.12850194E+03</pdfrwt>
<pdfrwt beam="1">  1       -1 0.30669721E-01 0.12850194E+03</pdfrwt>
<totfact> 0.63699174E+03</totfact>
</mgrwt>
</event>
<event>
 6    1  0.8353100E-006  0.1304748E+03  0.7546771E-02  0.1240269E+00
          2   -1    0    0  501    0  0.00000000000E+00  0.00000000000E+00  0.36837261740E+03  0.36837261740E+03  0.00000000000E+00 0. -1.
         -2   -1    0    0    0  501 -0.00000000000E+00 -0.00000000000E+00 -0.39086535071E+02  0.39086535071E+02  0.00000000000E+00 0.  1.
          5    1    1    2  502    0 -0.13902392636E+02  0.31180008395E+02  0.74687496773E+01  0.35261050272E+02  0.47000000000E+01 0.  1.
         -5    1    1    2    0  502  0.46150039723E+02 -0.12238597295E+02  0.23740309248E+03  0.24220224555E+03  0.47000000000E+01 0.  1.
        -11    1    1    2    0    0 -0.64244109358E+02 -0.67500459099E+01  0.53885030556E+02  0.84121728614E+02  0.00000000000E+00 0.  1.
         11    1    1    2    0    0  0.31996462272E+02 -0.12191365190E+02  0.30529209609E+02  0.45874128029E+02  0.00000000000E+00 0. -1.
<mgrwt>
<rscale>  0 0.12173045E+03</rscale>
<asrwt>0</asrwt>
<pdfrwt beam="1">  1        2 0.56672708E-01 0.13047475E+03</pdfrwt>
<pdfrwt beam="2">  1       -2 0.60133133E-02 0.13047475E+03</pdfrwt>
<totfact> 0.12142734E+04</totfact>
</mgrwt>
</event>
<event>
 6    1  0.8353100E-006  0.1153275E+03  0.7546771E-02  0.1262920E+00
          1   -1    0    0  501    0  0.00000000000E+00  0.00000000000E+00  0.38847724610E+03  0.38847724610E+03  0.00000000000E+00 0. -1.
         -1   -1    0    0    0  501 -0.00000000000E+00 -0.00000000000E+00 -0.32780410249E+02  0.32780410249E+02  0.00000000000E+00 0.  1.
          5    1    1    2  502    0 -0.20258265523E+02  0.56052751779E+02  0.16432775221E+03  0.17486568689E+03  0.47000000000E+01 0. -1.
         -5    1    1    2    0  502  0.31349665734E+02 -0.44571992878E+02  0.11550452607E+03  0.12780003769E+03  0.47000000000E+01 0.  1.
        -11    1    1    2    0    0 -0.48723179648E+02 -0.19830612206E+02  0.43605497289E+02  0.68327452823E+02  0.00000000000E+00 0.  1.
         11    1    1    2    0    0  0.37631779437E+02  0.83498533043E+01  0.32259060283E+02  0.50264478950E+02  0.00000000000E+00 0. -1.
<mgrwt>
<rscale>  0 0.10874037E+03</rscale>
<asrwt>0</asrwt>
<pdfrwt beam="1">  1        1 0.59765727E-01 0.11532752E+03</pdfrwt>
<pdfrwt beam="2">  1       -1 0.50431403E-02 0.11532752E+03</pdfrwt>
<totfact> 0.10238281E+04</totfact>
</mgrwt>
</event>
<event>
 6    1  0.8353100E-006  0.1771289E+03  0.7546771E-02  0.1176540E+00
         -2   -1    0    0    0  501 -0.00000000000E+00  0.00000000000E+00  0.14521989764E+03  0.14521989764E+03  0.00000000000E+00 0. -1.
          2   -1    0    0  501    0  0.00000000000E+00 -0.00000000000E+00 -0.19664024950E+03  0.19664024950E+03  0.00000000000E+00 0.  1.
          5    1    1    2  502    0 -0.34313142123E+02 -0.10475028394E+03 -0.93154570187E+02  0.14439486713E+03  0.47000000000E+01 0. -1.
         -5    1    1    2    0  502  0.16418882833E+02 -0.19458282997E+02  0.33654199481E+02  0.42460565627E+02  0.47000000000E+01 0. -1.
        -11    1    1    2    0    0 -0.10824757105E+02  0.11261485281E+03 -0.17948508834E+02  0.11454880798E+03  0.00000000000E+00 0.  1.
         11    1    1    2    0    0  0.28719016396E+02  0.11593714122E+02  0.26028527683E+02  0.40455906407E+02  0.00000000000E+00 0. -1.
<mgrwt>
<rscale>  0 0.17125988E+03</rscale>
<asrwt>0</asrwt>
<pdfrwt beam="2">  1        2 0.30252346E-01 0.17712893E+03</pdfrwt>
<pdfrwt beam="1">  1       -2 0.22341523E-01 0.17712893E+03</pdfrwt>
<totfact> 0.29473963E+03</totfact>
</mgrwt>
</event>
<event>
 6    1  0.1060876E-005  0.1325454E+03  0.7546771E-02  0.1236074E+00
          1   -1    0    0  501    0  0.00000000000E+00  0.00000000000E+00  0.52231540410E+03  0.52231540410E+03  0.00000000000E+00 0. -1.
         -1   -1    0    0    0  501 -0.00000000000E+00 -0.00000000000E+00 -0.27848097678E+02  0.27848097678E+02  0.00000000000E+00 0.  1.
          5    1    1    2  502    0  0.20203225085E+00  0.29289651922E+02  0.73837991437E+01  0.30570165464E+02  0.47000000000E+01 0. -1.
         -5    1    1    2    0  502 -0.35244547724E+02 -0.25491008085E+01  0.32993734234E+03  0.33185752354E+03  0.47000000000E+01 0. -1.
        -11    1    1    2    0    0  0.18308436196E+02  0.30269690867E+02  0.26458482057E+02  0.44175833822E+02  0.00000000000E+00 0.  1.
         11    1    1    2    0    0  0.16734079277E+02 -0.57010241980E+02  0.13068768288E+03  0.14355997895E+03  0.00000000000E+00 0. -1.
<mgrwt>
<rscale>  0 0.12435953E+03</rscale>
<asrwt>0</asrwt>
<pdfrwt beam="1">  1        1 0.80356209E-01 0.13254538E+03</pdfrwt>
<pdfrwt beam="2">  1       -1 0.42843231E-02 0.13254538E+03</pdfrwt>
<totfact> 0.90063791E+03</totfact>
</mgrwt>
</event>
<event>
 6    1  0.8353100E-006  0.1396251E+03  0.7546771E-02  0.1225787E+00
         -2   -1    0    0    0  501 -0.00000000000E+00  0.00000000000E+00  0.43191040098E+02  0.43191040098E+02  0.00000000000E+00 0. -1.
          2   -1    0    0  501    0  0.00000000000E+00 -0.00000000000E+00 -0.47439806056E+03  0.47439806056E+03  0.00000000000E+00 0.  1.
          5    1    1    2  502    0 -0.40464718886E+02  0.48247621586E+02 -0.17600793919E+03  0.18699227556E+03  0.47000000000E+01 0. -1.
         -5    1    1    2    0  502 -0.15987171534E+02 -0.74409375733E+02 -0.18797652529E+03  0.20285366378E+03  0.47000000000E+01 0. -1.
        -11    1    1    2    0    0 -0.55685461733E+01  0.38319536944E+02 -0.48024653550E+02  0.61690866153E+02  0.00000000000E+00 0. -1.
         11    1    1    2    0    0  0.62020436594E+02 -0.12157782797E+02 -0.19197902436E+02  0.66052295159E+02  0.00000000000E+00 0.  1.
<mgrwt>
<rscale>  0 0.13113098E+03</rscale>
<asrwt>0</asrwt>
<pdfrwt beam="2">  1        2 0.72984315E-01 0.13962509E+03</pdfrwt>
<pdfrwt beam="1">  1       -2 0.66447756E-02 0.13962509E+03</pdfrwt>
<totfact> 0.79884604E+03</totfact>
</mgrwt>
</event>
<event>
 6    1  0.8353100E-006  0.4974541E+03  0.7546771E-02  0.1014446E+00
          1   -1    0    0  501    0  0.00000000000E+00  0.00000000000E+00  0.44306251755E+03  0.44306251755E+03  0.00000000000E+00 0. -1.
         -1   -1    0    0    0  501 -0.00000000000E+00 -0.00000000000E+00 -0.13963076117E+03  0.13963076117E+03  0.00000000000E+00 0.  1.
          5    1    1    2  502    0  0.95830160638E+01  0.16903513945E+03  0.33859508097E+03  0.37859401926E+03  0.47000000000E+01 0.  1.
         -5    1    1    2    0  502  0.73091468964E+01 -0.28822935468E+01 -0.81038776945E+01  0.12226777095E+02  0.47000000000E+01 0.  1.
        -11    1    1    2    0    0 -0.25427503994E+02 -0.11993493413E+03  0.21299358493E+02  0.12443716911E+03  0.00000000000E+00 0. -1.
         11    1    1    2    0    0  0.85353410341E+01 -0.46217911766E+02 -0.48358805389E+02  0.67435313251E+02  0.00000000000E+00 0.  1.
<mgrwt>
<rscale>  0 0.49745414E+03</rscale>
<asrwt>0</asrwt>
<pdfrwt beam="1">  1        1 0.68163463E-01 0.49745414E+03</pdfrwt>
<pdfrwt beam="2">  1       -1 0.21481656E-01 0.49745414E+03</pdfrwt>
<totfact> 0.95193920E+02</totfact>
</mgrwt>
</event>
<event>
 6    1  0.8353100E-006  0.1403016E+03  0.7546771E-02  0.1223986E+00
         -1   -1    0    0    0  501 -0.00000000000E+00  0.00000000000E+00  0.68859883693E+03  0.68859883693E+03  0.00000000000E+00 0. -1.
          1   -1    0    0  501    0  0.00000000000E+00 -0.00000000000E+00 -0.25785273625E+02  0.25785273625E+02  0.00000000000E+00 0.  1.
          5    1    1    2  502    0 -0.11148111968E+02  0.46672453305E+02  0.33564981884E+02  0.58747734482E+02  0.47000000000E+01 0. -1.
         -5    1    1    2    0  502 -0.52528554583E+02 -0.48964263485E+02  0.21443318538E+03  0.22618671300E+03  0.47000000000E+01 0. -1.
        -11    1    1    2    0    0  0.27651676640E+02 -0.41246124616E+02  0.13172173955E+03  0.14077100087E+03  0.00000000000E+00 0.  1.
         11    1    1    2    0    0  0.36024989911E+02  0.43537934796E+02  0.28309365650E+03  0.28867866221E+03  0.00000000000E+00 0. -1.
<mgrwt>
<rscale>  0 0.13236656E+03</rscale>
<asrwt>0</asrwt>
<pdfrwt beam="2">  1        1 0.39669657E-02 0.14030163E+03</pdfrwt>
<pdfrwt beam="1">  1       -1 0.10593827E+00 0.14030163E+03</pdfrwt>
<totfact> 0.19788999E+03</totfact>
</mgrwt>
</event>
<event>
 6    1  0.8353100E-006  0.4695087E+03  0.7546771E-02  0.1022059E+00
         -3   -1    0    0    0  501 -0.00000000000E+00  0.00000000000E+00  0.18802916781E+03  0.18802916781E+03  0.00000000000E+00 0.  1.
          3   -1    0    0  501    0  0.00000000000E+00 -0.00000000000E+00 -0.29309076925E+03  0.29309076925E+03  0.00000000000E+00 0. -1.
          5    1    1    2  502    0 -0.91366735791E+02 -0.89750313208E+02 -0.82359134105E+01  0.12842476163E+03  0.47000000000E+01 0. -1.
         -5    1    1    2    0  502 -0.76169517221E+02 -0.49603831836E+01 -0.98403907591E+02  0.12462672179E+03  0.47000000000E+01 0. -1.
        -11    1    1    2    0    0  0.84012271116E+02  0.77698908978E+02  0.55524121100E+02  0.12719320020E+03  0.00000000000E+00 0. -1.
         11    1    1    2    0    0  0.83523981896E+02  0.17011787414E+02 -0.53945901538E+02  0.10087525343E+03  0.00000000000E+00 0.  1.
<mgrwt>
<rscale>  0 0.46950874E+03</rscale>
<asrwt>0</asrwt>
<pdfrwt beam="2">  1        3 0.45090887E-01 0.46950874E+03</pdfrwt>
<pdfrwt beam="1">  1       -3 0.28927564E-01 0.46950874E+03</pdfrwt>
<totfact> 0.14749989E+02</totfact>
</mgrwt>
</event>
<event>
 6    1  0.8353100E-006  0.3978111E+03  0.7546771E-02  0.1044540E+00
          2   -1    0    0  501    0  0.00000000000E+00  0.00000000000E+00  0.77072091394E+03  0.77072091394E+03  0.00000000000E+00 0.  1.
         -2   -1    0    0    0  501 -0.00000000000E+00 -0.00000000000E+00 -0.51332991830E+02  0.51332991830E+02  0.00000000000E+00 0. -1.
          5    1    1    2  502    0 -0.15853437856E+03 -0.32797366557E+02  0.37214403756E+03  0.40585969389E+03  0.47000000000E+01 0.  1.
         -5    1    1    2    0  502 -0.76204874329E+01  0.21114637835E+02  0.28888429464E+01  0.23115691060E+02  0.47000000000E+01 0.  1.
        -11    1    1    2    0    0  0.65748893072E+02  0.70676225713E+01  0.23683747117E+03  0.24589602676E+03  0.00000000000E+00 0.  1.
         11    1    1    2    0    0  0.10040597292E+03  0.46151061510E+01  0.10751757044E+03  0.14718249405E+03  0.00000000000E+00 0. -1.
<mgrwt>
<rscale>  0 0.39781106E+03</rscale>
<asrwt>0</asrwt>
<pdfrwt beam="1">  1        2 0.11857244E+00 0.39781106E+03</pdfrwt>
<pdfrwt beam="2">  1       -2 0.78973839E-02 0.39781106E+03</pdfrwt>
<totfact> 0.36085088E+03</totfact>
</mgrwt>
</event>
<event>
 6    1  0.8353100E-006  0.1372155E+03  0.7546771E-02  0.1230121E+00
         -1   -1    0    0    0  501 -0.00000000000E+00  0.00000000000E+00  0.28305736867E+02  0.28305736867E+02  0.00000000000E+00 0.  1.
          1   -1    0    0  501    0  0.00000000000E+00 -0.00000000000E+00 -0.52112359029E+03  0.52112359029E+03  0.00000000000E+00 0. -1.
          5    1    1    2  502    0  0.19225255404E+02 -0.45331294342E+02 -0.17447752143E+03  0.18135333517E+03  0.47000000000E+01 0. -1.
         -5    1    1    2    0  502 -0.63622886038E+02  0.48248890485E+02 -0.13036581323E+03  0.15294823412E+03  0.47000000000E+01 0.  1.
        -11    1    1    2    0    0  0.71279058657E+02  0.86989248570E+01 -0.15621038405E+03  0.17192457527E+03  0.00000000000E+00 0. -1.
         11    1    1    2    0    0 -0.26881428024E+02 -0.11616521001E+02 -0.31764134714E+02  0.43203182601E+02  0.00000000000E+00 0.  1.
<mgrwt>
<rscale>  0 0.12822033E+03</rscale>
<asrwt>0</asrwt>
<pdfrwt beam="2">  1        1 0.80172864E-01 0.13721545E+03</pdfrwt>
<pdfrwt beam="1">  1       -1 0.43547285E-02 0.13721545E+03</pdfrwt>
<totfact> 0.88393878E+03</totfact>
</mgrwt>
</event>
<event>
 6    1  0.8353100E-006  0.4970164E+03  0.7546771E-02  0.1032670E+00
          3   -1    0    0  501    0  0.00000000000E+00  0.00000000000E+00  0.22195586613E+03  0.22195586613E+03  0.00000000000E+00 0. -1.
         -3   -1    0    0    0  501 -0.00000000000E+00 -0.00000000000E+00 -0.10475371702E+04  0.10475371702E+04  0.00000000000E+00 0.  1.
          5    1    1    2  502    0  0.23320617566E+03 -0.17888255849E+03 -0.80750263759E+02  0.30483894961E+03  0.47000000000E+01 0. -1.
         -5    1    1    2    0  502  0.39343450041E+02  0.19900728451E+03 -0.45163535066E+02  0.20787891007E+03  0.47000000000E+01 0.  1.
        -11    1    1    2    0    0 -0.27187751553E+03 -0.31285083610E+02 -0.63981695806E+03  0.69588927261E+03  0.00000000000E+00 0.  1.
         11    1    1    2    0    0 -0.67211017229E+00  0.11160357592E+02 -0.59850547136E+02  0.60885904002E+02  0.00000000000E+00 0. -1.
<mgrwt>
<rscale>  0 0.43378700E+03</rscale>
<asrwt>0</asrwt>
<pdfrwt beam="1">  1        3 0.34147056E-01 0.49701642E+03</pdfrwt>
<pdfrwt beam="2">  1       -3 0.16115956E+00 0.49701642E+03</pdfrwt>
<totfact> 0.59404223E+00</totfact>
</mgrwt>
</event>
<event>
 6    1  0.8353100E-006  0.4056331E+03  0.7546771E-02  0.1042276E+00
         -2   -1    0    0    0  501 -0.00000000000E+00  0.00000000000E+00  0.33243416304E+03  0.33243416304E+03  0.00000000000E+00 0. -1.
          2   -1    0    0  501    0  0.00000000000E+00 -0.00000000000E+00 -0.55511288765E+03  0.55511288765E+03  0.00000000000E+00 0.  1.
          5    1    1    2  502    0  0.52896873885E+02 -0.10957666054E+03 -0.18615032604E+02  0.12318170823E+03  0.47000000000E+01 0. -1.
         -5    1    1    2    0  502  0.11173531404E+03 -0.23943536293E+03 -0.24665470645E+03  0.36148956782E+03  0.47000000000E+01 0. -1.
        -11    1    1    2    0    0 -0.13086591957E+03  0.23902404878E+03 -0.17516989336E+02  0.27306634673E+03  0.00000000000E+00 0.  1.
         11    1    1    2    0    0 -0.33766268360E+02  0.10998797469E+03  0.60108003790E+02  0.12980942791E+03  0.00000000000E+00 0. -1.
<mgrwt>
<rscale>  0 0.40437351E+03</rscale>
<asrwt>0</asrwt>
<pdfrwt beam="2">  1        2 0.85401982E-01 0.40563310E+03</pdfrwt>
<pdfrwt beam="1">  1       -2 0.51143718E-01 0.40563310E+03</pdfrwt>
<totfact> 0.20234791E+02</totfact>
</mgrwt>
</event>
<event>
 6    1  0.8353100E-006  0.1258527E+03  0.7546771E-02  0.1248622E+00
          1   -1    0    0  501    0  0.00000000000E+00  0.00000000000E+00  0.16257728025E+03  0.16257728025E+03  0.00000000000E+00 0. -1.
         -1   -1    0    0    0  501 -0.00000000000E+00 -0.00000000000E+00 -0.85154343574E+02  0.85154343574E+02  0.00000000000E+00 0.  1.
          5    1    1    2  502    0 -0.29355413731E+02  0.63190548939E+02  0.50133271921E+02  0.85966393108E+02  0.47000000000E+01 0.  1.
         -5    1    1    2    0  502  0.27242798830E+02 -0.48711009663E+02  0.38563958066E+02  0.68001480956E+02  0.47000000000E+01 0.  1.
        -11    1    1    2    0    0  0.16505980977E+02 -0.11133908908E+02  0.37685961568E+02  0.42622095618E+02  0.00000000000E+00 0. -1.
         11    1    1    2    0    0 -0.14393366076E+02 -0.33456303679E+01 -0.48960254884E+02  0.51141654137E+02  0.00000000000E+00 0.  1.
<mgrwt>
<rscale>  0 0.11671189E+03</rscale>
<asrwt>0</asrwt>
<pdfrwt beam="1">  1        1 0.25011889E-01 0.12585272E+03</pdfrwt>
<pdfrwt beam="2">  1       -1 0.13100668E-01 0.12585272E+03</pdfrwt>
<totfact> 0.71883187E+03</totfact>
</mgrwt>
</event>
<event>
 6    1  0.8353100E-006  0.1335717E+03  0.7546771E-02  0.1235056E+00
          1   -1    0    0  501    0  0.00000000000E+00  0.00000000000E+00  0.34770650671E+02  0.34770650671E+02  0.00000000000E+00 0. -1.
         -1   -1    0    0    0  501 -0.00000000000E+00 -0.00000000000E+00 -0.45639683092E+03  0.45639683092E+03  0.00000000000E+00 0.  1.
          5    1    1    2  502    0  0.22790938786E+02 -0.17052845987E+02 -0.12078913649E+03  0.12418668181E+03  0.47000000000E+01 0.  1.
         -5    1    1    2    0  502 -0.31531774289E+02  0.63302756877E+02 -0.29199056231E+02  0.76656158936E+02  0.47000000000E+01 0.  1.
        -11    1    1    2    0    0 -0.45628242697E+01 -0.52990794472E+02 -0.27015079118E+03  0.27533669142E+03  0.00000000000E+00 0.  1.
         11    1    1    2    0    0  0.13303659773E+02  0.67408835814E+01 -0.14871963465E+01  0.14987949419E+02  0.00000000000E+00 0. -1.
<mgrwt>
<rscale>  0 0.12500881E+03</rscale>
<asrwt>0</asrwt>
<pdfrwt beam="1">  1        1 0.53493308E-02 0.13357166E+03</pdfrwt>
<pdfrwt beam="2">  1       -1 0.70214898E-01 0.13357166E+03</pdfrwt>
<totfact> 0.31071285E+03</totfact>
</mgrwt>
</event>
<event>
 6    1  0.8353100E-006  0.1452940E+03  0.7546771E-02  0.1216148E+00
          2   -1    0    0  501    0  0.00000000000E+00  0.00000000000E+00  0.12880252491E+04  0.12880252491E+04  0.00000000000E+00 0. -1.
         -2   -1    0    0    0  501 -0.00000000000E+00 -0.00000000000E+00 -0.16012707928E+02  0.16012707928E+02  0.00000000000E+00 0.  1.
          5    1    1    2  502    0  0.18665834332E+02  0.37517844376E+02  0.40701750706E+03  0.40919597147E+03  0.47000000000E+01 0.  1.
         -5    1    1    2    0  502 -0.92612308336E+02 -0.33381274274E+02  0.54386340098E+03  0.55272130233E+03  0.47000000000E+01 0.  1.
        -11    1    1    2    0    0  0.27747172831E+02 -0.29922868285E+02  0.44108388457E+02  0.60090212005E+02  0.00000000000E+00 0.  1.
         11    1    1    2    0    0  0.46199301173E+02  0.25786298183E+02  0.27702324468E+03  0.28203047122E+03  0.00000000000E+00 0. -1.
<mgrwt>
<rscale>  0 0.13792553E+03</rscale>
<asrwt>0</asrwt>
<pdfrwt beam="1">  1        2 0.19815765E+00 0.14529398E+03</pdfrwt>
<pdfrwt beam="2">  1       -2 0.24634945E-02 0.14529398E+03</pdfrwt>
<totfact> 0.98589108E+03</totfact>
</mgrwt>
</event>
<event>
 6    1  0.8353100E-006  0.1270103E+03  0.7546771E-02  0.1246954E+00
          1   -1    0    0  501    0  0.00000000000E+00  0.00000000000E+00  0.88818016874E+03  0.88818016874E+03  0.00000000000E+00 0. -1.
         -1   -1    0    0    0  501 -0.00000000000E+00 -0.00000000000E+00 -0.17548953578E+02  0.17548953578E+02  0.00000000000E+00 0.  1.
          5    1    1    2  502    0 -0.38685229249E+02 -0.20581366597E+01  0.86434693790E+02  0.94835801147E+02  0.47000000000E+01 0.  1.
         -5    1    1    2    0  502  0.61195311912E+02  0.14749712882E+01  0.61036237864E+03  0.61344222629E+03  0.47000000000E+01 0.  1.
        -11    1    1    2    0    0 -0.79361382493E+01 -0.27420415279E+02  0.16077190672E+03  0.16328645827E+03  0.00000000000E+00 0. -1.
         11    1    1    2    0    0 -0.14573944414E+02  0.28003580651E+02  0.13062236016E+02  0.34164636611E+02  0.00000000000E+00 0.  1.
<mgrwt>
<rscale>  0 0.11769162E+03</rscale>
<asrwt>0</asrwt>
<pdfrwt beam="1">  1        1 0.13664307E+00 0.12701025E+03</pdfrwt>
<pdfrwt beam="2">  1       -1 0.26998397E-02 0.12701025E+03</pdfrwt>
<totfact> 0.82745402E+03</totfact>
</mgrwt>
</event>
<event>
 6    1  0.8353100E-006  0.2441481E+03  0.7546771E-02  0.1119831E+00
         -2   -1    0    0    0  501 -0.00000000000E+00  0.00000000000E+00  0.48621920519E+02  0.48621920519E+02  0.00000000000E+00 0.  1.
          2   -1    0    0  501    0  0.00000000000E+00 -0.00000000000E+00 -0.13643925091E+04  0.13643925091E+04  0.00000000000E+00 0. -1.
          5    1    1    2  502    0 -0.53575905027E+02  0.20734076097E+01 -0.39124915462E+03  0.39493375092E+03  0.47000000000E+01 0.  1.
         -5    1    1    2    0  502 -0.97516997998E+02 -0.14752861940E+03 -0.56897008742E+03  0.59583832439E+03  0.47000000000E+01 0.  1.
        -11    1    1    2    0    0  0.17229324011E+02  0.57707285422E+02 -0.54204759561E+02  0.81025529036E+02  0.00000000000E+00 0.  1.
         11    1    1    2    0    0  0.13386357902E+03  0.87747926364E+02 -0.30134658700E+03  0.34121682529E+03  0.00000000000E+00 0. -1.
<mgrwt>
<rscale>  0 0.23994214E+03</rscale>
<asrwt>0</asrwt>
<pdfrwt beam="2">  1        2 0.20990655E+00 0.24414814E+03</pdfrwt>
<pdfrwt beam="1">  1       -2 0.74802952E-02 0.24414814E+03</pdfrwt>
<totfact> 0.17001667E+03</totfact>
</mgrwt>
</event>
<event>
 6    1  0.8353100E-006  0.1285047E+03  0.7546771E-02  0.1245234E+00
         -2   -1    0    0    0  501 -0.00000000000E+00  0.00000000000E+00  0.17494105682E+03  0.17494105682E+03  0.00000000000E+00 0.  1.
          2   -1    0    0  501    0  0.00000000000E+00 -0.00000000000E+00 -0.74000616179E+02  0.74000616179E+02  0.00000000000E+00 0. -1.
          5    1    1    2  502    0 -0.58970643268E+02  0.38735451791E+01  0.14355593172E+02  0.60997657127E+02  0.47000000000E+01 0. -1.
         -5    1    1    2    0  502  0.60267451377E+02 -0.33722411384E+02  0.16888616118E+02  0.71250839149E+02  0.47000000000E+01 0. -1.
        -11    1    1    2    0    0 -0.28352173702E+02  0.22336702358E+02  0.79210282285E+02  0.87046210977E+02  0.00000000000E+00 0.  1.
         11    1    1    2    0    0  0.27055365592E+02  0.75121638472E+01 -0.95140509307E+01  0.29646965749E+02  0.00000000000E+00 0. -1.
<mgrwt>
<rscale>  0 0.11871366E+03</rscale>
<asrwt>0</asrwt>
<pdfrwt beam="2">  1        2 0.11384710E-01 0.12850472E+03</pdfrwt>
<pdfrwt beam="1">  1       -2 0.26914009E-01 0.12850472E+03</pdfrwt>
<totfact> 0.64040389E+03</totfact>
</mgrwt>
</event>
<event>
 6    1  0.8353100E-006  0.1431022E+03  0.7546771E-02  0.1217972E+00
          2   -1    0    0  501    0  0.00000000000E+00  0.00000000000E+00  0.44034067260E+03  0.44034067260E+03  0.00000000000E+00 0. -1.
         -2   -1    0    0    0  501 -0.00000000000E+00 -0.00000000000E+00 -0.39825974960E+02  0.39825974960E+02  0.00000000000E+00 0.  1.
          5    1    1    2  502    0 -0.39471559530E+02 -0.44579698578E+02  0.17375252876E+02  0.62204042871E+02  0.47000000000E+01 0.  1.
         -5    1    1    2    0  502 -0.27838924152E+02  0.26598757294E+02  0.16561487724E+03  0.17009667001E+03  0.47000000000E+01 0.  1.
        -11    1    1    2    0    0 -0.22307908387E+02 -0.92725395198E+01  0.58694706155E+02  0.63471972526E+02  0.00000000000E+00 0. -1.
         11    1    1    2    0    0  0.89618392069E+02  0.27253480803E+02  0.15882986137E+03  0.18439396215E+03  0.00000000000E+00 0.  1.
<mgrwt>
<rscale>  0 0.13660490E+03</rscale>
<asrwt>0</asrwt>
<pdfrwt beam="1">  1        2 0.67744716E-01 0.14310218E+03</pdfrwt>
<pdfrwt beam="2">  1       -2 0.61270734E-02 0.14310218E+03</pdfrwt>
<totfact> 0.98163629E+03</totfact>
</mgrwt>
</event>
<event>
 6    1  0.8353100E-006  0.1251614E+03  0.7546771E-02  0.1255386E+00
          2   -1    0    0  501    0  0.00000000000E+00  0.00000000000E+00  0.81579962223E+02  0.81579962223E+02  0.00000000000E+00 0. -1.
         -2   -1    0    0    0  501 -0.00000000000E+00 -0.00000000000E+00 -0.13430972935E+03  0.13430972935E+03  0.00000000000E+00 0.  1.
          5    1    1    2  502    0 -0.40038133103E+02  0.35079712352E+02  0.21495936036E+02  0.57600378359E+02  0.47000000000E+01 0.  1.
         -5    1    1    2    0  502  0.37737652599E+02 -0.40822873396E+02 -0.40622876966E+02  0.69014096741E+02  0.47000000000E+01 0.  1.
        -11    1    1    2    0    0  0.35827880789E+02  0.22791146495E+02 -0.28912217535E+02  0.51371098130E+02  0.00000000000E+00 0.  1.
         11    1    1    2    0    0 -0.33527400284E+02 -0.17047985451E+02 -0.46906086623E+01  0.37904118343E+02  0.00000000000E+00 0. -1.
<mgrwt>
<rscale>  0 0.11284756E+03</rscale>
<asrwt>0</asrwt>
<pdfrwt beam="1">  1        2 0.12550764E-01 0.12516144E+03</pdfrwt>
<pdfrwt beam="2">  1       -2 0.20663035E-01 0.12516144E+03</pdfrwt>
<totfact> 0.89779440E+03</totfact>
</mgrwt>
</event>
<event>
 6    1  0.8353100E-006  0.2773325E+03  0.7546771E-02  0.1097155E+00
         -1   -1    0    0    0  501 -0.00000000000E+00  0.00000000000E+00  0.39019269677E+02  0.39019269677E+02  0.00000000000E+00 0.  1.
          1   -1    0    0  501    0  0.00000000000E+00 -0.00000000000E+00 -0.49279075142E+03  0.49279075142E+03  0.00000000000E+00 0. -1.
          5    1    1    2  502    0 -0.36251204000E+01  0.45655069451E+01 -0.24772755537E+03  0.24784070900E+03  0.47000000000E+01 0. -1.
         -5    1    1    2    0  502  0.67516032354E+02 -0.40545348737E+02 -0.90108031221E+02  0.11976596854E+03  0.47000000000E+01 0. -1.
        -11    1    1    2    0    0  0.15449043782E+02  0.27609678709E+02 -0.56361647817E+02  0.64634376742E+02  0.00000000000E+00 0. -1.
         11    1    1    2    0    0 -0.79339955737E+02  0.83701630828E+01 -0.59574247333E+02  0.99568966810E+02  0.00000000000E+00 0.  1.
<mgrwt>
<rscale>  0 0.27733255E+03</rscale>
<asrwt>0</asrwt>
<pdfrwt beam="2">  1        1 0.75813962E-01 0.27733255E+03</pdfrwt>
<pdfrwt beam="1">  1       -1 0.60029646E-02 0.27733255E+03</pdfrwt>
<totfact> 0.61202248E+03</totfact>
</mgrwt>
</event>
<event>
 6    1  0.8353100E-006  0.1417198E+03  0.7546771E-02  0.1224315E+00
          2   -1    0    0  501    0  0.00000000000E+00  0.00000000000E+00  0.18641851974E+03  0.18641851974E+03  0.00000000000E+00 0. -1.
         -2   -1    0    0    0  501 -0.00000000000E+00 -0.00000000000E+00 -0.83243262167E+02  0.83243262167E+02  0.00000000000E+00 0.  1.
          5    1    1    2  502    0 -0.19570737165E+02  0.66592156591E+02  0.37486583063E+02  0.79024445474E+02  0.47000000000E+01 0.  1.
         -5    1    1    2    0  502  0.68471650941E+02 -0.21173938055E+02  0.27919822929E+02  0.77060425302E+02  0.47000000000E+01 0.  1.
        -11    1    1    2    0    0 -0.25906907107E+02 -0.47052450336E+02  0.60706040666E+02  0.81057536922E+02  0.00000000000E+00 0. -1.
         11    1    1    2    0    0 -0.22994006669E+02  0.16342317996E+01 -0.22937189082E+02  0.32519374213E+02  0.00000000000E+00 0.  1.
<mgrwt>
<rscale>  0 0.13213976E+03</rscale>
<asrwt>0</asrwt>
<pdfrwt beam="1">  1        2 0.28679772E-01 0.14171975E+03</pdfrwt>
<pdfrwt beam="2">  1       -2 0.12806656E-01 0.14171975E+03</pdfrwt>
<totfact> 0.77880988E+03</totfact>
</mgrwt>
</event>
<event>
 6    1  0.8353100E-006  0.2729771E+03  0.7546771E-02  0.1099588E+00
          1   -1    0    0  501    0  0.00000000000E+00  0.00000000000E+00  0.80801126757E+03  0.80801126757E+03  0.00000000000E+00 0. -1.
         -1   -1    0    0    0  501 -0.00000000000E+00 -0.00000000000E+00 -0.23055520658E+02  0.23055520658E+02  0.00000000000E+00 0.  1.
          5    1    1    2  502    0  0.88535121528E+01  0.16820223100E+02  0.31091210321E+03  0.31152805733E+03  0.47000000000E+01 0.  1.
         -5    1    1    2    0  502  0.39703275960E+02 -0.80088766583E+02  0.17592864478E+03  0.19739184053E+03  0.47000000000E+01 0.  1.
        -11    1    1    2    0    0 -0.37038136684E+02 -0.17174366560E+02  0.10022165017E+03  0.10821812047E+03  0.00000000000E+00 0. -1.
         11    1    1    2    0    0 -0.11518651428E+02  0.80442910042E+02  0.19789334874E+03  0.21392876988E+03  0.00000000000E+00 0.  1.
<mgrwt>
<rscale>  0 0.27297707E+03</rscale>
<asrwt>0</asrwt>
<pdfrwt beam="1">  1        1 0.12430940E+00 0.27297707E+03</pdfrwt>
<pdfrwt beam="2">  1       -1 0.35470038E-02 0.27297707E+03</pdfrwt>
<totfact> 0.66599029E+03</totfact>
</mgrwt>
</event>
<event>
 6    1  0.8353100E-006  0.1395927E+03  0.7546771E-02  0.1225066E+00
         -2   -1    0    0    0  501 -0.00000000000E+00  0.00000000000E+00  0.38354019353E+03  0.38354019353E+03  0.00000000000E+00 0. -1.
          2   -1    0    0  501    0  0.00000000000E+00 -0.00000000000E+00 -0.43806416509E+02  0.43806416509E+02  0.00000000000E+00 0.  1.
          5    1    1    2  502    0 -0.62891008889E+02  0.72148736473E+01  0.14855716593E+02  0.65192911550E+02  0.47000000000E+01 0. -1.
         -5    1    1    2    0  502  0.24789536778E+02  0.41862993310E+02  0.11712100429E+03  0.12691119331E+03  0.47000000000E+01 0. -1.
        -11    1    1    2    0    0  0.64792594184E+02 -0.26560386352E+02  0.10085486754E+03  0.12278126360E+03  0.00000000000E+00 0. -1.
         11    1    1    2    0    0 -0.26691122072E+02 -0.22517480605E+02  0.10690218859E+03  0.11246124157E+03  0.00000000000E+00 0.  1.
<mgrwt>
<rscale>  0 0.13162409E+03</rscale>
<asrwt>0</asrwt>
<pdfrwt beam="2">  1        2 0.67394490E-02 0.13959274E+03</pdfrwt>
<pdfrwt beam="1">  1       -2 0.59006181E-01 0.13959274E+03</pdfrwt>
<totfact> 0.27899603E+03</totfact>
</mgrwt>
</event>
<event>
 6    1  0.8353100E-006  0.1453863E+03  0.7546771E-02  0.1215693E+00
          2   -1    0    0  501    0  0.00000000000E+00  0.00000000000E+00  0.32490540152E+03  0.32490540152E+03  0.00000000000E+00 0. -1.
         -2   -1    0    0    0  501 -0.00000000000E+00 -0.00000000000E+00 -0.67296228945E+02  0.67296228945E+02  0.00000000000E+00 0.  1.
          5    1    1    2  502    0  0.33623609060E+02  0.59526403809E+02  0.78099054446E+02  0.10390135775E+03  0.47000000000E+01 0. -1.
         -5    1    1    2    0  502 -0.72398701219E+02  0.37844472610E+01  0.14866202651E+03  0.16546414145E+03  0.47000000000E+01 0. -1.
        -11    1    1    2    0    0 -0.83599892394E+01  0.99821009825E+01 -0.18553089072E+02  0.22666029079E+02  0.00000000000E+00 0.  1.
         11    1    1    2    0    0  0.47135081398E+02 -0.73292952052E+02  0.49401180691E+02  0.10017010219E+03  0.00000000000E+00 0. -1.
<mgrwt>
<rscale>  0 0.13825720E+03</rscale>
<asrwt>0</asrwt>
<pdfrwt beam="1">  1        2 0.49985446E-01 0.14538633E+03</pdfrwt>
<pdfrwt beam="2">  1       -2 0.10353266E-01 0.14538633E+03</pdfrwt>
<totfact> 0.60400302E+03</totfact>
</mgrwt>
</event>
<event>
 6    1  0.8353100E-006  0.1247841E+03  0.7546771E-02  0.1270770E+00
          2   -1    0    0  501    0  0.00000000000E+00  0.00000000000E+00  0.32254598460E+03  0.32254598460E+03  0.00000000000E+00 0.  1.
         -2   -1    0    0    0  501 -0.00000000000E+00 -0.00000000000E+00 -0.27121092789E+02  0.27121092789E+02  0.00000000000E+00 0. -1.
          5    1    1    2  502    0 -0.29112667533E+02 -0.52652675249E+02  0.85838051799E+02  0.10492908443E+03  0.47000000000E+01 0.  1.
         -5    1    1    2    0  502  0.56564809021E+02  0.28027679183E+02  0.12350669995E+03  0.13878444925E+03  0.47000000000E+01 0. -1.
        -11    1    1    2    0    0  0.14480634321E+02  0.47980011068E+01  0.24457462149E+02  0.28824937809E+02  0.00000000000E+00 0. -1.
         11    1    1    2    0    0 -0.41932775809E+02  0.19826994959E+02  0.61622677906E+02  0.77128605902E+02  0.00000000000E+00 0.  1.
<mgrwt>
<rscale>  0 0.10467080E+03</rscale>
<asrwt>0</asrwt>
<pdfrwt beam="1">  1        2 0.49622457E-01 0.12478406E+03</pdfrwt>
<pdfrwt beam="2">  1       -2 0.41724760E-02 0.12478406E+03</pdfrwt>
<totfact> 0.24084360E+04</totfact>
</mgrwt>
</event>
<event>
 6    1  0.8353100E-006  0.1563518E+03  0.7546771E-02  0.1202075E+00
          1   -1    0    0  501    0  0.00000000000E+00  0.00000000000E+00  0.19786695148E+03  0.19786695148E+03  0.00000000000E+00 0. -1.
         -1   -1    0    0    0  501 -0.00000000000E+00 -0.00000000000E+00 -0.10741428965E+03  0.10741428965E+03  0.00000000000E+00 0.  1.
          5    1    1    2  502    0 -0.29826246698E+02 -0.34252669919E+02  0.13182624121E+02  0.47526013586E+02  0.47000000000E+01 0.  1.
         -5    1    1    2    0  502 -0.33419189127E+02  0.10367876766E+03  0.70098504004E+02  0.12962260347E+03  0.47000000000E+01 0.  1.
        -11    1    1    2    0    0 -0.68957192008E+01 -0.26561510737E+02 -0.27561962770E+02  0.38893785978E+02  0.00000000000E+00 0.  1.
         11    1    1    2    0    0  0.70141155026E+02 -0.42864587009E+02  0.34733496473E+02  0.89238838098E+02  0.00000000000E+00 0. -1.
<mgrwt>
<rscale>  0 0.14870370E+03</rscale>
<asrwt>0</asrwt>
<pdfrwt beam="1">  1        1 0.30441069E-01 0.15635180E+03</pdfrwt>
<pdfrwt beam="2">  1       -1 0.16525275E-01 0.15635180E+03</pdfrwt>
<totfact> 0.39615179E+03</totfact>
</mgrwt>
</event>
<event>
 6    1  0.8353100E-006  0.1371025E+03  0.7546771E-02  0.1224958E+00
         -1   -1    0    0    0  501 -0.00000000000E+00  0.00000000000E+00  0.27386521341E+02  0.27386521341E+02  0.00000000000E+00 0.  1.
          1   -1    0    0  501    0  0.00000000000E+00 -0.00000000000E+00 -0.80286494663E+03  0.80286494663E+03  0.00000000000E+00 0. -1.
          5    1    1    2  502    0 -0.22593617342E+02  0.36541871465E+02 -0.78192923998E+02  0.89342057722E+02  0.47000000000E+01 0. -1.
         -5    1    1    2    0  502  0.63657847317E+02  0.20036741684E+01 -0.54651506743E+03  0.55023371867E+03  0.47000000000E+01 0. -1.
        -11    1    1    2    0    0 -0.34604810070E+02 -0.15563188436E+01  0.67339525543E+00  0.34646334142E+02  0.00000000000E+00 0.  1.
         11    1    1    2    0    0 -0.64594199056E+01 -0.36989226790E+02 -0.15144382911E+03  0.15602935743E+03  0.00000000000E+00 0. -1.
<mgrwt>
<rscale>  0 0.13169767E+03</rscale>
<asrwt>0</asrwt>
<pdfrwt beam="2">  1        1 0.12351769E+00 0.13710251E+03</pdfrwt>
<pdfrwt beam="1">  1       -1 0.42133109E-02 0.13710251E+03</pdfrwt>
<totfact> 0.50687187E+03</totfact>
</mgrwt>
</event>
<event>
 6    1  0.8353100E-006  0.3724359E+03  0.7546771E-02  0.1053765E+00
          2   -1    0    0  501    0  0.00000000000E+00  0.00000000000E+00  0.65844374441E+03  0.65844374441E+03  0.00000000000E+00 0. -1.
         -2   -1    0    0    0  501 -0.00000000000E+00 -0.00000000000E+00 -0.52665289507E+02  0.52665289507E+02  0.00000000000E+00 0.  1.
          5    1    1    2  502    0 -0.50262625162E+02 -0.35490900954E+02  0.12694693449E+03  0.14115080487E+03  0.47000000000E+01 0. -1.
         -5    1    1    2    0  502 -0.57089517185E+02  0.98770405113E+02  0.28450785387E+03  0.30656420993E+03  0.47000000000E+01 0. -1.
        -11    1    1    2    0    0  0.52489756568E+02  0.25731683679E+02  0.12484818349E+03  0.13785631291E+03  0.00000000000E+00 0. -1.
         11    1    1    2    0    0  0.54862385779E+02 -0.89011187837E+02  0.69475483062E+02  0.12553770621E+03  0.00000000000E+00 0.  1.
<mgrwt>
<rscale>  0 0.37243593E+03</rscale>
<asrwt>0</asrwt>
<pdfrwt beam="1">  1        2 0.10129903E+00 0.37243593E+03</pdfrwt>
<pdfrwt beam="2">  1       -2 0.81023527E-02 0.37243593E+03</pdfrwt>
<totfact> 0.42082020E+03</totfact>
</mgrwt>
</event>
<event>
 6    1  0.8353100E-006  0.5146729E+03  0.7546771E-02  0.1010018E+00
         -2   -1    0    0    0  501 -0.00000000000E+00  0.00000000000E+00  0.10719298996E+04  0.10719298996E+04  0.00000000000E+00 0. -1.
          2   -1    0    0  501    0  0.00000000000E+00 -0.00000000000E+00 -0.61778333896E+02  0.61778333896E+02  0.00000000000E+00 0.  1.
          5    1    1    2  502    0  0.13150656344E+02 -0.10370607857E+02  0.14905175322E+02  0.22907280960E+02  0.47000000000E+01 0. -1.
         -5    1    1    2    0  502 -0.13854722882E+03  0.17995191900E+03  0.28552095583E+03  0.36485933452E+03  0.47000000000E+01 0. -1.
        -11    1    1    2    0    0  0.13388840661E+03 -0.13094148426E+03  0.53619211576E+03  0.56795577533E+03  0.00000000000E+00 0.  1.
         11    1    1    2    0    0 -0.84918341336E+01 -0.38639826886E+02  0.17353331884E+03  0.17798584274E+03  0.00000000000E+00 0. -1.
<mgrwt>
<rscale>  0 0.51467288E+03</rscale>
<asrwt>0</asrwt>
<pdfrwt beam="2">  1        2 0.95043598E-02 0.51467288E+03</pdfrwt>
<pdfrwt beam="1">  1       -2 0.16491228E+00 0.51467288E+03</pdfrwt>
<totfact> 0.16780413E+02</totfact>
</mgrwt>
</event>
<event>
 6    1  0.8353100E-006  0.1405065E+03  0.7546771E-02  0.1223566E+00
          2   -1    0    0  501    0  0.00000000000E+00  0.00000000000E+00  0.30246549840E+03  0.30246549840E+03  0.00000000000E+00 0. -1.
         -2   -1    0    0    0  501 -0.00000000000E+00 -0.00000000000E+00 -0.76131059546E+02  0.76131059546E+02  0.00000000000E+00 0.  1.
          5    1    1    2  502    0  0.39128657349E+01 -0.13099883784E+02 -0.14237508876E+02  0.20290740066E+02  0.47000000000E+01 0.  1.
         -5    1    1    2    0  502  0.32728256291E+02 -0.39510814185E+02  0.24122228443E+03  0.24666277324E+03  0.47000000000E+01 0.  1.
        -11    1    1    2    0    0 -0.47912345338E+02  0.31134544131E+02  0.36116402279E+02  0.67596946585E+02  0.00000000000E+00 0. -1.
         11    1    1    2    0    0  0.11271223312E+02  0.21476153839E+02 -0.36766738979E+02  0.44046098054E+02  0.00000000000E+00 0.  1.
<mgrwt>
<rscale>  0 0.13265649E+03</rscale>
<asrwt>0</asrwt>
<pdfrwt beam="1">  1        2 0.46533153E-01 0.14050655E+03</pdfrwt>
<pdfrwt beam="2">  1       -2 0.11712471E-01 0.14050655E+03</pdfrwt>
<totfact> 0.53478856E+03</totfact>
</mgrwt>
</event>
<event>
 6    1  0.8353100E-006  0.1758715E+03  0.7546771E-02  0.1177555E+00
          1   -1    0    0  501    0  0.00000000000E+00  0.00000000000E+00  0.27887528385E+03  0.27887528385E+03  0.00000000000E+00 0. -1.
         -1   -1    0    0    0  501 -0.00000000000E+00 -0.00000000000E+00 -0.14881106158E+03  0.14881106158E+03  0.00000000000E+00 0.  1.
          5    1    1    2  502    0  0.11855336801E+03 -0.71730409093E+02  0.17760644404E+03  0.22531376260E+03  0.47000000000E+01 0. -1.
         -5    1    1    2    0  502 -0.28883111811E+02 -0.13499013123E+02  0.15121637751E+02  0.35597913302E+02  0.47000000000E+01 0. -1.
        -11    1    1    2    0    0 -0.58877725759E+02  0.84075230191E+02 -0.66647323643E+01  0.10285742355E+03  0.00000000000E+00 0. -1.
         11    1    1    2    0    0 -0.30792530440E+02  0.11541920242E+01 -0.55999127155E+02  0.63917245969E+02  0.00000000000E+00 0.  1.
<mgrwt>
<rscale>  0 0.17028128E+03</rscale>
<asrwt>0</asrwt>
<pdfrwt beam="1">  1        1 0.42903890E-01 0.17587151E+03</pdfrwt>
<pdfrwt beam="2">  1       -1 0.22894010E-01 0.17587151E+03</pdfrwt>
<totfact> 0.15352177E+03</totfact>
</mgrwt>
</event>
<event>
 6    1  0.8353100E-006  0.2732151E+03  0.7546771E-02  0.1099454E+00
         -2   -1    0    0    0  501 -0.00000000000E+00  0.00000000000E+00  0.30612935390E+03  0.30612935390E+03  0.00000000000E+00 0. -1.
          2   -1    0    0  501    0  0.00000000000E+00 -0.00000000000E+00 -0.60959917323E+02  0.60959917323E+02  0.00000000000E+00 0.  1.
          5    1    1    2  502    0  0.21034893341E+02  0.25118630436E+02  0.31323457428E+01  0.33246261785E+02  0.47000000000E+01 0. -1.
         -5    1    1    2    0  502 -0.42191777531E+02 -0.99391078084E+02  0.90684708707E+02  0.14108344654E+03  0.47000000000E+01 0. -1.
        -11    1    1    2    0    0 -0.28579090275E+02  0.50414636288E+02  0.46572918579E+02  0.74346732934E+02  0.00000000000E+00 0.  1.
         11    1    1    2    0    0  0.49735974464E+02  0.23857811360E+02  0.10477946355E+03  0.11841282996E+03  0.00000000000E+00 0. -1.
<mgrwt>
<rscale>  0 0.27321508E+03</rscale>
<asrwt>0</asrwt>
<pdfrwt beam="2">  1        2 0.93784490E-02 0.27321508E+03</pdfrwt>
<pdfrwt beam="1">  1       -2 0.47096823E-01 0.27321508E+03</pdfrwt>
<totfact> 0.29945756E+03</totfact>
</mgrwt>
</event>
<event>
 6    1  0.8353100E-006  0.2564203E+03  0.7546771E-02  0.1111602E+00
         -2   -1    0    0    0  501 -0.00000000000E+00  0.00000000000E+00  0.24472224941E+03  0.24472224941E+03  0.00000000000E+00 0. -1.
          2   -1    0    0  501    0  0.00000000000E+00 -0.00000000000E+00 -0.61413705285E+03  0.61413705285E+03  0.00000000000E+00 0.  1.
          5    1    1    2  502    0 -0.40637916380E+02  0.88104204028E+02 -0.11666632089E+03  0.15181209256E+03  0.47000000000E+01 0.  1.
         -5    1    1    2    0  502  0.46999572782E+02  0.13569335228E+03 -0.39919498031E+03  0.42426450240E+03  0.47000000000E+01 0.  1.
        -11    1    1    2    0    0  0.36978891535E+02 -0.10525239338E+03  0.94826036765E+02  0.14641544310E+03  0.00000000000E+00 0.  1.
         11    1    1    2    0    0 -0.43340547937E+02 -0.11854516293E+03  0.51620460998E+02  0.13636726419E+03  0.00000000000E+00 0. -1.
<mgrwt>
<rscale>  0 0.25271257E+03</rscale>
<asrwt>0</asrwt>
<pdfrwt beam="2">  1        2 0.94482623E-01 0.25642028E+03</pdfrwt>
<pdfrwt beam="1">  1       -2 0.37649577E-01 0.25642028E+03</pdfrwt>
<totfact> 0.33130767E+02</totfact>
</mgrwt>
</event>
<event>
 6    1  0.8353100E-006  0.1711114E+03  0.7546771E-02  0.1183262E+00
         -2   -1    0    0    0  501 -0.00000000000E+00  0.00000000000E+00  0.17295549608E+02  0.17295549608E+02  0.00000000000E+00 0.  1.
          2   -1    0    0  501    0  0.00000000000E+00 -0.00000000000E+00 -0.16173993399E+04  0.16173993399E+04  0.00000000000E+00 0. -1.
          5    1    1    2  502    0  0.40757766216E+01  0.85306006695E+02 -0.47106797917E+03  0.47877015125E+03  0.47000000000E+01 0.  1.
         -5    1    1    2    0  502  0.83071055485E+02 -0.74675396193E+01 -0.62993804311E+03  0.63545306087E+03  0.47000000000E+01 0.  1.
        -11    1    1    2    0    0  0.32833611784E+01 -0.44465927587E+02 -0.23819547401E+03  0.24233258761E+03  0.00000000000E+00 0. -1.
         11    1    1    2    0    0 -0.90430193285E+02 -0.33372539488E+02 -0.26090229402E+03  0.27813908980E+03  0.00000000000E+00 0.  1.
<mgrwt>
<rscale>  0 0.16490992E+03</rscale>
<asrwt>0</asrwt>
<pdfrwt beam="2">  1        2 0.24883076E+00 0.17111138E+03</pdfrwt>
<pdfrwt beam="1">  1       -2 0.26608528E-02 0.17111138E+03</pdfrwt>
<totfact> 0.59283775E+03</totfact>
</mgrwt>
</event>
<event>
 6    1  0.8353100E-006  0.1322876E+03  0.7546771E-02  0.1237269E+00
          1   -1    0    0  501    0  0.00000000000E+00  0.00000000000E+00  0.83347930030E+02  0.83347930030E+02  0.00000000000E+00 0. -1.
         -1   -1    0    0    0  501 -0.00000000000E+00 -0.00000000000E+00 -0.16502322519E+03  0.16502322519E+03  0.00000000000E+00 0.  1.
          5    1    1    2  502    0 -0.82611713930E+01  0.26053665633E+02  0.28535001241E+02  0.39791666735E+02  0.47000000000E+01 0. -1.
         -5    1    1    2    0  502 -0.27937170595E+02 -0.49884534539E+02 -0.88465557312E+02  0.10543811985E+03  0.47000000000E+01 0. -1.
        -11    1    1    2    0    0  0.24315915307E+02  0.48514571729E+02  0.15932379886E+02  0.56557653205E+02  0.00000000000E+00 0. -1.
         11    1    1    2    0    0  0.11882426681E+02 -0.24683702823E+02 -0.37677118973E+02  0.46583715427E+02  0.00000000000E+00 0.  1.
<mgrwt>
<rscale>  0 0.12360314E+03</rscale>
<asrwt>0</asrwt>
<pdfrwt beam="1">  1        1 0.12822759E-01 0.13228764E+03</pdfrwt>
<pdfrwt beam="2">  1       -1 0.25388188E-01 0.13228764E+03</pdfrwt>
<totfact> 0.59105091E+03</totfact>
</mgrwt>
</event>
<event>
 6    1  0.8353100E-006  0.1334019E+03  0.7546771E-02  0.1236067E+00
          2   -1    0    0  501    0  0.00000000000E+00  0.00000000000E+00  0.31731701176E+04  0.31731701176E+04  0.00000000000E+00 0. -1.
         -2   -1    0    0    0  501 -0.00000000000E+00 -0.00000000000E+00 -0.93351241451E+01  0.93351241451E+01  0.00000000000E+00 0.  1.
          5    1    1    2  502    0 -0.63750259789E+02 -0.34439319750E+01  0.67432395447E+03  0.67735577200E+03  0.47000000000E+01 0. -1.
         -5    1    1    2    0  502  0.18337297601E+02 -0.70638145248E+01  0.21707102413E+04  0.21708042739E+04  0.47000000000E+01 0. -1.
        -11    1    1    2    0    0 -0.17480857975E+02  0.24467320311E+02  0.53877616317E+02  0.61701115863E+02  0.00000000000E+00 0.  1.
         11    1    1    2    0    0  0.62893820163E+02 -0.13959573811E+02  0.26492318141E+03  0.27264408001E+03  0.00000000000E+00 0. -1.
<mgrwt>
<rscale>  0 0.12436397E+03</rscale>
<asrwt>0</asrwt>
<pdfrwt beam="1">  1        2 0.48817916E+00 0.13340192E+03</pdfrwt>
<pdfrwt beam="2">  1       -2 0.14361755E-02 0.13340192E+03</pdfrwt>
<totfact> 0.21092871E+03</totfact>
</mgrwt>
</event>
<event>
 6    1  0.8353100E-006  0.2642634E+03  0.7546771E-02  0.1107114E+00
         -2   -1    0    0    0  501 -0.00000000000E+00  0.00000000000E+00  0.46256781106E+02  0.46256781106E+02  0.00000000000E+00 0.  1.
          2   -1    0    0  501    0  0.00000000000E+00 -0.00000000000E+00 -0.14790618508E+04  0.14790618508E+04  0.00000000000E+00 0. -1.
          5    1    1    2  502    0  0.30725188935E+02  0.17991075767E+03 -0.52381302225E+03  0.55471983040E+03  0.47000000000E+01 0. -1.
         -5    1    1    2    0  502 -0.30751161240E+02  0.52921105895E+02 -0.58708900680E+02  0.84941758787E+02  0.47000000000E+01 0. -1.
        -11    1    1    2    0    0 -0.12373307342E+02 -0.11723239684E+03 -0.28278698170E+03  0.30637397185E+03  0.00000000000E+00 0.  1.
         11    1    1    2    0    0  0.12399279647E+02 -0.11559946672E+03 -0.56749616506E+03  0.57928307088E+03  0.00000000000E+00 0. -1.
<mgrwt>
<rscale>  0 0.26004889E+03</rscale>
<asrwt>0</asrwt>
<pdfrwt beam="2">  1        2 0.22754794E+00 0.26426343E+03</pdfrwt>
<pdfrwt beam="1">  1       -2 0.71164291E-02 0.26426343E+03</pdfrwt>
<totfact> 0.15917391E+03</totfact>
</mgrwt>
</event>
<event>
 6    1  0.8353100E-006  0.1880478E+03  0.7546771E-02  0.1165965E+00
         -1   -1    0    0    0  501 -0.00000000000E+00  0.00000000000E+00  0.26071381382E+02  0.26071381382E+02  0.00000000000E+00 0.  1.
          1   -1    0    0  501    0  0.00000000000E+00 -0.00000000000E+00 -0.12143937337E+04  0.12143937337E+04  0.00000000000E+00 0. -1.
          5    1    1    2  502    0 -0.68993151113E+02  0.21740153349E+02 -0.23457701453E+03  0.24552220860E+03  0.47000000000E+01 0.  1.
         -5    1    1    2    0  502 -0.44052163493E+02 -0.10518171995E+03 -0.48032064761E+03  0.49369403666E+03  0.47000000000E+01 0.  1.
        -11    1    1    2    0    0  0.79716490279E+02  0.85466648723E+01 -0.19039521227E+03  0.20658678844E+03  0.00000000000E+00 0.  1.
         11    1    1    2    0    0  0.33328824328E+02  0.74894901733E+02 -0.28302947790E+03  0.29466208137E+03  0.00000000000E+00 0. -1.
<mgrwt>
<rscale>  0 0.18191204E+03</rscale>
<asrwt>0</asrwt>
<pdfrwt beam="2">  1        1 0.18682979E+00 0.18804784E+03</pdfrwt>
<pdfrwt beam="1">  1       -1 0.40109820E-02 0.18804784E+03</pdfrwt>
<totfact> 0.27274297E+03</totfact>
</mgrwt>
</event>
<event>
 6    1  0.8353100E-006  0.1307433E+03  0.7546771E-02  0.1239545E+00
          2   -1    0    0  501    0  0.00000000000E+00  0.00000000000E+00  0.16692482134E+03  0.16692482134E+03  0.00000000000E+00 0.  1.
         -2   -1    0    0    0  501 -0.00000000000E+00 -0.00000000000E+00 -0.10463255216E+03  0.10463255216E+03  0.00000000000E+00 0. -1.
          5    1    1    2  502    0 -0.61281271892E+02 -0.44889298120E+02  0.88453487297E+02  0.11668998580E+03  0.47000000000E+01 0.  1.
         -5    1    1    2    0  502  0.45296261316E+02  0.10065618077E+02  0.11916134981E+02  0.48136807428E+02  0.47000000000E+01 0.  1.
        -11    1    1    2    0    0  0.40137760268E+02  0.45973037084E+02 -0.92476445859E+00  0.61036178840E+02  0.00000000000E+00 0.  1.
         11    1    1    2    0    0 -0.24152749692E+02 -0.11149357040E+02 -0.37152588638E+02  0.45694401436E+02  0.00000000000E+00 0. -1.
<mgrwt>
<rscale>  0 0.12217891E+03</rscale>
<asrwt>0</asrwt>
<pdfrwt beam="1">  1        2 0.25680742E-01 0.13074330E+03</pdfrwt>
<pdfrwt beam="2">  1       -2 0.16097316E-01 0.13074330E+03</pdfrwt>
<totfact> 0.60248015E+03</totfact>
</mgrwt>
</event>
<event>
 6    1  0.8353100E-006  0.1281719E+03  0.7546771E-02  0.1245715E+00
          3   -1    0    0  501    0  0.00000000000E+00  0.00000000000E+00  0.21697743118E+02  0.21697743118E+02  0.00000000000E+00 0. -1.
         -3   -1    0    0    0  501 -0.00000000000E+00 -0.00000000000E+00 -0.56696819099E+03  0.56696819099E+03  0.00000000000E+00 0.  1.
          5    1    1    2  502    0  0.44850166863E+02  0.27306526242E+01 -0.44437265177E+02  0.63369980810E+02  0.47000000000E+01 0.  1.
         -5    1    1    2    0  502 -0.53124919883E+02 -0.29834731641E+02 -0.25737484169E+03  0.26453027702E+03  0.47000000000E+01 0.  1.
        -11    1    1    2    0    0 -0.17938816681E+02  0.52752097672E+02 -0.16512662611E+03  0.17427388675E+03  0.00000000000E+00 0.  1.
         11    1    1    2    0    0  0.26213569701E+02 -0.25648018655E+02 -0.78331714898E+02  0.86491789531E+02  0.00000000000E+00 0. -1.
<mgrwt>
<rscale>  0 0.11842715E+03</rscale>
<asrwt>0</asrwt>
<pdfrwt beam="1">  1        3 0.33381144E-02 0.12817188E+03</pdfrwt>
<pdfrwt beam="2">  1       -3 0.87225874E-01 0.12817188E+03</pdfrwt>
<totfact> 0.12129186E+03</totfact>
</mgrwt>
</event>
<event>
 6    1  0.8353100E-006  0.1332298E+03  0.7546771E-02  0.1235570E+00
         -2   -1    0    0    0  501 -0.00000000000E+00  0.00000000000E+00  0.18930812356E+02  0.18930812356E+02  0.00000000000E+00 0.  1.
          2   -1    0    0  501    0  0.00000000000E+00 -0.00000000000E+00 -0.79815896155E+03  0.79815896155E+03  0.00000000000E+00 0. -1.
          5    1    1    2  502    0  0.47442975197E+02  0.10513380524E+02 -0.13386031633E+03  0.14248523205E+03  0.47000000000E+01 0.  1.
         -5    1    1    2    0  502 -0.72587452770E+02  0.28100747576E+02 -0.41965527317E+03  0.42683864471E+03  0.47000000000E+01 0.  1.
        -11    1    1    2    0    0  0.59500300750E+02 -0.18454465340E+02 -0.13369770867E+03  0.14749891655E+03  0.00000000000E+00 0.  1.
         11    1    1    2    0    0 -0.34355823178E+02 -0.20159662760E+02 -0.92014851028E+02  0.10026698060E+03  0.00000000000E+00 0. -1.
<mgrwt>
<rscale>  0 0.12468027E+03</rscale>
<asrwt>0</asrwt>
<pdfrwt beam="2">  1        2 0.12279370E+00 0.13322976E+03</pdfrwt>
<pdfrwt beam="1">  1       -2 0.29124325E-02 0.13322976E+03</pdfrwt>
<totfact> 0.14995701E+04</totfact>
</mgrwt>
</event>
<event>
 6    1  0.8353100E-006  0.1287950E+03  0.7546771E-02  0.1243186E+00
          2   -1    0    0  501    0  0.00000000000E+00  0.00000000000E+00  0.51568722601E+02  0.51568722601E+02  0.00000000000E+00 0. -1.
         -2   -1    0    0    0  501 -0.00000000000E+00 -0.00000000000E+00 -0.27232755899E+03  0.27232755899E+03  0.00000000000E+00 0.  1.
          5    1    1    2  502    0  0.45829080600E+02  0.61091438534E+01  0.17699507062E+02  0.49729154603E+02  0.47000000000E+01 0.  1.
         -5    1    1    2    0  502 -0.22413134631E+02 -0.26498614846E+02 -0.93201771828E+02  0.99564981116E+02  0.47000000000E+01 0.  1.
        -11    1    1    2    0    0  0.54810705145E+01 -0.31775481319E+02 -0.26590186801E+02  0.41794274502E+02  0.00000000000E+00 0. -1.
         11    1    1    2    0    0 -0.28897016484E+02  0.52164952311E+02 -0.11866638482E+03  0.13280787137E+03  0.00000000000E+00 0.  1.
<mgrwt>
<rscale>  0 0.11994629E+03</rscale>
<asrwt>0</asrwt>
<pdfrwt beam="1">  1        2 0.79336497E-02 0.12879498E+03</pdfrwt>
<pdfrwt beam="2">  1       -2 0.41896547E-01 0.12879498E+03</pdfrwt>
<totfact> 0.44405659E+03</totfact>
</mgrwt>
</event>
<event>
 6    1  0.8353100E-006  0.1253875E+03  0.7546771E-02  0.1250752E+00
         -2   -1    0    0    0  501 -0.00000000000E+00  0.00000000000E+00  0.13600366458E+03  0.13600366458E+03  0.00000000000E+00 0.  1.
          2   -1    0    0  501    0  0.00000000000E+00 -0.00000000000E+00 -0.99654911719E+02  0.99654911719E+02  0.00000000000E+00 0. -1.
          5    1    1    2  502    0 -0.10898037615E+02 -0.57573298063E+02 -0.22487460800E+02  0.62938285383E+02  0.47000000000E+01 0. -1.
         -5    1    1    2    0  502  0.38936103583E+01  0.64298281455E+02 -0.79343222101E+00  0.64592172393E+02  0.47000000000E+01 0. -1.
        -11    1    1    2    0    0 -0.40913402553E+02  0.45810931258E+00  0.34640659540E+02  0.53610555546E+02  0.00000000000E+00 0.  1.
         11    1    1    2    0    0  0.47917829810E+02 -0.71830927048E+01  0.24988986340E+02  0.54517562976E+02  0.00000000000E+00 0. -1.
<mgrwt>
<rscale>  0 0.11547606E+03</rscale>
<asrwt>0</asrwt>
<pdfrwt beam="2">  1        2 0.15331525E-01 0.12538747E+03</pdfrwt>
<pdfrwt beam="1">  1       -2 0.20923641E-01 0.12538747E+03</pdfrwt>
<totfact> 0.69428869E+03</totfact>
</mgrwt>
</event>
<event>
 6    1  0.8353100E-006  0.1297989E+03  0.7546771E-02  0.1243232E+00
         -3   -1    0    0    0  501 -0.00000000000E+00  0.00000000000E+00  0.12201383182E+03  0.12201383182E+03  0.00000000000E+00 0.  1.
          3   -1    0    0  501    0  0.00000000000E+00 -0.00000000000E+00 -0.10731318021E+03  0.10731318021E+03  0.00000000000E+00 0. -1.
          5    1    1    2  502    0  0.42847582453E+02 -0.43803955115E+02 -0.60392892096E+01  0.61751638196E+02  0.47000000000E+01 0.  1.
         -5    1    1    2    0  502 -0.16096838121E+02  0.66249633471E+02 -0.78400543922E+01  0.68787197830E+02  0.47000000000E+01 0.  1.
        -11    1    1    2    0    0 -0.22102202108E+01 -0.45438755149E+02  0.42627346938E+02  0.62343052939E+02  0.00000000000E+00 0.  1.
         11    1    1    2    0    0 -0.24540524121E+02  0.22993076793E+02 -0.14047351728E+02  0.36445123064E+02  0.00000000000E+00 0. -1.
<mgrwt>
<rscale>  0 0.11991798E+03</rscale>
<asrwt>0</asrwt>
<pdfrwt beam="2">  1        3 0.16509720E-01 0.12979889E+03</pdfrwt>
<pdfrwt beam="1">  1       -3 0.18771359E-01 0.12979889E+03</pdfrwt>
<totfact> 0.17969805E+03</totfact>
</mgrwt>
</event>
<event>
 6    1  0.8353100E-006  0.1594598E+03  0.7546771E-02  0.1201847E+00
         -2   -1    0    0    0  501 -0.00000000000E+00  0.00000000000E+00  0.91122826006E+02  0.91122826006E+02  0.00000000000E+00 0.  1.
          2   -1    0    0  501    0  0.00000000000E+00 -0.00000000000E+00 -0.27875919274E+03  0.27875919274E+03  0.00000000000E+00 0. -1.
          5    1    1    2  502    0 -0.36020387365E+02 -0.13326006297E+02 -0.18131550852E+03  0.18539809702E+03  0.47000000000E+01 0. -1.
         -5    1    1    2    0  502 -0.36688133541E+02  0.50425979045E+02 -0.94679532342E+01  0.63249748172E+02  0.47000000000E+01 0.  1.
        -11    1    1    2    0    0  0.56842148148E+01  0.15388110106E+02 -0.26433936436E+02  0.31110403825E+02  0.00000000000E+00 0. -1.
         11    1    1    2    0    0  0.67024306091E+02 -0.52488082854E+02  0.29581031451E+02  0.90123769730E+02  0.00000000000E+00 0.  1.
<mgrwt>
<rscale>  0 0.14888743E+03</rscale>
<asrwt>0</asrwt>
<pdfrwt beam="2">  1        2 0.42886029E-01 0.15945978E+03</pdfrwt>
<pdfrwt beam="1">  1       -2 0.14018896E-01 0.15945978E+03</pdfrwt>
<totfact> 0.43969207E+03</totfact>
</mgrwt>
</event>
<event>
 6    1  0.8353100E-006  0.1331144E+03  0.7546771E-02  0.1235364E+00
          1   -1    0    0  501    0  0.00000000000E+00  0.00000000000E+00  0.58864119370E+03  0.58864119370E+03  0.00000000000E+00 0. -1.
         -1   -1    0    0    0  501 -0.00000000000E+00 -0.00000000000E+00 -0.23729708430E+02  0.23729708430E+02  0.00000000000E+00 0.  1.
          5    1    1    2  502    0  0.51362992891E+02  0.60663698066E+02  0.19790561566E+03  0.21332361335E+03  0.47000000000E+01 0.  1.
         -5    1    1    2    0  502 -0.51132732420E+02 -0.14913786934E+02  0.13777771233E+03  0.14778959835E+03  0.47000000000E+01 0.  1.
        -11    1    1    2    0    0 -0.37650374569E+02 -0.48977923121E+02  0.10887991690E+03  0.12518475931E+03  0.00000000000E+00 0.  1.
         11    1    1    2    0    0  0.37420114098E+02  0.32280119881E+01  0.12034824038E+03  0.12607293113E+03  0.00000000000E+00 0. -1.
<mgrwt>
<rscale>  0 0.12481151E+03</rscale>
<asrwt>0</asrwt>
<pdfrwt beam="1">  1        1 0.90560173E-01 0.13311444E+03</pdfrwt>
<pdfrwt beam="2">  1       -1 0.36507248E-02 0.13311444E+03</pdfrwt>
<totfact> 0.97142986E+03</totfact>
</mgrwt>
</event>
<event>
 6    1  0.8353100E-006  0.1540864E+03  0.7546771E-02  0.1204887E+00
          2   -1    0    0  501    0  0.00000000000E+00  0.00000000000E+00  0.62306638683E+02  0.62306638683E+02  0.00000000000E+00 0. -1.
         -2   -1    0    0    0  501 -0.00000000000E+00 -0.00000000000E+00 -0.32091623508E+03  0.32091623508E+03  0.00000000000E+00 0.  1.
          5    1    1    2  502    0  0.30125980558E+00  0.57985861330E+02 -0.13953509505E+03  0.15117732509E+03  0.47000000000E+01 0. -1.
         -5    1    1    2    0  502  0.40959623078E+01  0.31917704948E+02  0.24829867782E+02  0.40916123111E+02  0.47000000000E+01 0. -1.
        -11    1    1    2    0    0  0.13733823432E+01 -0.55431767913E+02 -0.14817429413E+02  0.57394453456E+02  0.00000000000E+00 0. -1.
         11    1    1    2    0    0 -0.57706044566E+01 -0.34471798365E+02 -0.12908693972E+03  0.13373497210E+03  0.00000000000E+00 0.  1.
<mgrwt>
<rscale>  0 0.14646396E+03</rscale>
<asrwt>0</asrwt>
<pdfrwt beam="1">  1        2 0.95856367E-02 0.15408635E+03</pdfrwt>
<pdfrwt beam="2">  1       -2 0.49371728E-01 0.15408635E+03</pdfrwt>
<totfact> 0.25796066E+03</totfact>
</mgrwt>
</event>
<event>
 6    1  0.8353100E-006  0.1301183E+03  0.7546771E-02  0.1240791E+00
         -2   -1    0    0    0  501 -0.00000000000E+00  0.00000000000E+00  0.16704343872E+03  0.16704343872E+03  0.00000000000E+00 0. -1.
          2   -1    0    0  501    0  0.00000000000E+00 -0.00000000000E+00 -0.80308647133E+02  0.80308647133E+02  0.00000000000E+00 0.  1.
          5    1    1    2  502    0  0.95423541026E+01 -0.36308843615E+02  0.45834364910E+02  0.59432883601E+02  0.47000000000E+01 0.  1.
         -5    1    1    2    0  502 -0.31580672823E+02  0.64891294557E+02 -0.15982485145E+02  0.74065841227E+02  0.47000000000E+01 0.  1.
        -11    1    1    2    0    0  0.56989791184E+01  0.28833268278E+02  0.43790061281E+02  0.52739029092E+02  0.00000000000E+00 0.  1.
         11    1    1    2    0    0  0.16339339602E+02 -0.57415719221E+02  0.13092850540E+02  0.61114331932E+02  0.00000000000E+00 0. -1.
<mgrwt>
<rscale>  0 0.12140896E+03</rscale>
<asrwt>0</asrwt>
<pdfrwt beam="2">  1        2 0.12355177E-01 0.13011831E+03</pdfrwt>
<pdfrwt beam="1">  1       -2 0.25698991E-01 0.13011831E+03</pdfrwt>
<totfact> 0.63013065E+03</totfact>
</mgrwt>
</event>
<event>
 6    1  0.8353100E-006  0.1406485E+03  0.7546771E-02  0.1225032E+00
          1   -1    0    0  501    0  0.00000000000E+00  0.00000000000E+00  0.81661920939E+02  0.81661920939E+02  0.00000000000E+00 0. -1.
         -1   -1    0    0    0  501 -0.00000000000E+00 -0.00000000000E+00 -0.19524062036E+03  0.19524062036E+03  0.00000000000E+00 0.  1.
          5    1    1    2  502    0  0.15107311487E+02 -0.34439597739E+02 -0.47722361129E+02  0.60941205309E+02  0.47000000000E+01 0. -1.
         -5    1    1    2    0  502 -0.79406244825E+02  0.29652729410E+02  0.78367719644E+01  0.85253393325E+02  0.47000000000E+01 0. -1.
        -11    1    1    2    0    0  0.70196913608E+02  0.17680307836E+02 -0.85662459276E+02  0.11215282830E+03  0.00000000000E+00 0.  1.
         11    1    1    2    0    0 -0.58979802708E+01 -0.12893439507E+02  0.11969349016E+02  0.18555114375E+02  0.00000000000E+00 0. -1.
<mgrwt>
<rscale>  0 0.13164677E+03</rscale>
<asrwt>0</asrwt>
<pdfrwt beam="1">  1        1 0.12563373E-01 0.14064850E+03</pdfrwt>
<pdfrwt beam="2">  1       -1 0.30037018E-01 0.14064850E+03</pdfrwt>
<totfact> 0.46082491E+03</totfact>
</mgrwt>
</event>
<event>
 6    1  0.8353100E-006  0.1406603E+03  0.7546771E-02  0.1228921E+00
          2   -1    0    0  501    0  0.00000000000E+00  0.00000000000E+00  0.53649147211E+02  0.53649147211E+02  0.00000000000E+00 0. -1.
         -2   -1    0    0    0  501 -0.00000000000E+00 -0.00000000000E+00 -0.27499578089E+03  0.27499578089E+03  0.00000000000E+00 0.  1.
          5    1    1    2  502    0  0.52283887311E+01  0.65177769118E+02 -0.13328072812E+03  0.14853053600E+03  0.47000000000E+01 0. -1.
         -5    1    1    2    0  502  0.47943270063E+02 -0.28665914547E+02 -0.20023180586E+02  0.59525705052E+02  0.47000000000E+01 0. -1.
        -11    1    1    2    0    0 -0.76740757735E+00 -0.27409340540E+02  0.72886075113E+01  0.28372251632E+02  0.00000000000E+00 0. -1.
         11    1    1    2    0    0 -0.52404251217E+02 -0.91025140315E+01 -0.75331332482E+02  0.92216435416E+02  0.00000000000E+00 0.  1.
<mgrwt>
<rscale>  0 0.12901724E+03</rscale>
<asrwt>0</asrwt>
<pdfrwt beam="1">  1        2 0.82537151E-02 0.14066027E+03</pdfrwt>
<pdfrwt beam="2">  1       -2 0.42307043E-01 0.14066027E+03</pdfrwt>
<totfact> 0.41732162E+03</totfact>
</mgrwt>
</event>
<event>
 6    1  0.8353100E-006  0.3894343E+03  0.7546771E-02  0.1047501E+00
         -1   -1    0    0    0  501 -0.00000000000E+00  0.00000000000E+00  0.54489561095E+03  0.54489561095E+03  0.00000000000E+00 0.  1.
          1   -1    0    0  501    0  0.00000000000E+00 -0.00000000000E+00 -0.69581697030E+02  0.69581697030E+02  0.00000000000E+00 0. -1.
          5    1    1    2  502    0  0.37218104452E+01  0.85980527702E+01 -0.17410250846E+02  0.20322037766E+02  0.47000000000E+01 0. -1.
         -5    1    1    2    0  502 -0.14070630647E+03  0.52778921507E+02  0.17453675710E+03  0.23036720429E+03  0.47000000000E+01 0. -1.
        -11    1    1    2    0    0  0.12012099273E+03 -0.44808011592E+02  0.31479965296E+03  0.33990532844E+03  0.00000000000E+00 0.  1.
         11    1    1    2    0    0  0.16863503288E+02 -0.16568962686E+02  0.33877547071E+01  0.23882737481E+02  0.00000000000E+00 0. -1.
<mgrwt>
<rscale>  0 0.38943426E+03</rscale>
<asrwt>0</asrwt>
<pdfrwt beam="2">  1        1 0.10704877E-01 0.38943426E+03</pdfrwt>
<pdfrwt beam="1">  1       -1 0.83830091E-01 0.38943426E+03</pdfrwt>
<totfact> 0.86781177E+02</totfact>
</mgrwt>
</event>
<event>
 6    1  0.8353100E-006  0.1477314E+03  0.7546771E-02  0.1212907E+00
         -1   -1    0    0    0  501 -0.00000000000E+00  0.00000000000E+00  0.53114119316E+02  0.53114119316E+02  0.00000000000E+00 0. -1.
          1   -1    0    0  501    0  0.00000000000E+00 -0.00000000000E+00 -0.34654946421E+03  0.34654946421E+03  0.00000000000E+00 0.  1.
          5    1    1    2  502    0 -0.71929981948E+02 -0.50715514714E+02 -0.17394772454E+03  0.19500227334E+03  0.47000000000E+01 0.  1.
         -5    1    1    2    0  502  0.38577320135E+02 -0.20608817126E+02 -0.18774756288E+02  0.47827967193E+02  0.47000000000E+01 0.  1.
        -11    1    1    2    0    0  0.17153438237E+02  0.70394716346E+02 -0.11452830684E+03  0.13552265346E+03  0.00000000000E+00 0.  1.
         11    1    1    2    0    0  0.16199223575E+02  0.92961549329E+00  0.13815442773E+02  0.21310689534E+02  0.00000000000E+00 0. -1.
<mgrwt>
<rscale>  0 0.14031423E+03</rscale>
<asrwt>0</asrwt>
<pdfrwt beam="2">  1        1 0.53315303E-01 0.14773142E+03</pdfrwt>
<pdfrwt beam="1">  1       -1 0.81714028E-02 0.14773142E+03</pdfrwt>
<totfact> 0.58436721E+03</totfact>
</mgrwt>
</event>
<event>
 6    1  0.8353100E-006  0.3599585E+03  0.7546771E-02  0.1058600E+00
          2   -1    0    0  501    0  0.00000000000E+00  0.00000000000E+00  0.35762237266E+03  0.35762237266E+03  0.00000000000E+00 0. -1.
         -2   -1    0    0    0  501 -0.00000000000E+00 -0.00000000000E+00 -0.90577481666E+02  0.90577481666E+02  0.00000000000E+00 0.  1.
          5    1    1    2  502    0 -0.12338317548E+02  0.25861251328E+02 -0.11430287830E+01  0.29059162323E+02  0.47000000000E+01 0. -1.
         -5    1    1    2    0  502  0.72528455064E+02 -0.11696233040E+03  0.71385004473E+02  0.15510793787E+03  0.47000000000E+01 0.  1.
        -11    1    1    2    0    0  0.43920742134E+02  0.42497627970E+02  0.67460668588E+02  0.91027588010E+02  0.00000000000E+00 0.  1.
         11    1    1    2    0    0 -0.10411087965E+03  0.48603451100E+02  0.12934224672E+03  0.17300516613E+03  0.00000000000E+00 0. -1.
<mgrwt>
<rscale>  0 0.35995852E+03</rscale>
<asrwt>0</asrwt>
<pdfrwt beam="1">  1        2 0.55018826E-01 0.35995852E+03</pdfrwt>
<pdfrwt beam="2">  1       -2 0.13934997E-01 0.35995852E+03</pdfrwt>
<totfact> 0.35066442E+03</totfact>
</mgrwt>
</event>
<event>
 6    1  0.8353100E-006  0.1323449E+03  0.7546771E-02  0.1237628E+00
         -3   -1    0    0    0  501 -0.00000000000E+00  0.00000000000E+00  0.38481129423E+03  0.38481129423E+03  0.00000000000E+00 0.  1.
          3   -1    0    0  501    0  0.00000000000E+00 -0.00000000000E+00 -0.35390330333E+02  0.35390330333E+02  0.00000000000E+00 0. -1.
          5    1    1    2  502    0  0.74555091608E+01  0.47954579309E+02  0.17084888346E+02  0.51664394929E+02  0.47000000000E+01 0. -1.
         -5    1    1    2    0  502 -0.28578844947E+02 -0.99238031398E+01  0.20188290393E+03  0.20419115834E+03  0.47000000000E+01 0. -1.
        -11    1    1    2    0    0  0.72427457948E+01 -0.22439751547E+02  0.13958413082E+03  0.14156175117E+03  0.00000000000E+00 0.  1.
         11    1    1    2    0    0  0.13880589991E+02 -0.15591024623E+02 -0.91309592035E+01  0.22784320119E+02  0.00000000000E+00 0. -1.
<mgrwt>
<rscale>  0 0.12337716E+03</rscale>
<asrwt>0</asrwt>
<pdfrwt beam="2">  1        3 0.54446665E-02 0.13234489E+03</pdfrwt>
<pdfrwt beam="1">  1       -3 0.59201735E-01 0.13234489E+03</pdfrwt>
<totfact> 0.12908398E+03</totfact>
</mgrwt>
</event>
<event>
 6    1  0.8353100E-006  0.1288938E+03  0.7546771E-02  0.1244577E+00
         -1   -1    0    0    0  501 -0.00000000000E+00  0.00000000000E+00  0.23583960168E+02  0.23583960168E+02  0.00000000000E+00 0.  1.
          1   -1    0    0  501    0  0.00000000000E+00 -0.00000000000E+00 -0.79730044281E+03  0.79730044281E+03  0.00000000000E+00 0. -1.
          5    1    1    2  502    0  0.47627047786E+01  0.69737813308E+02 -0.57596959727E+03  0.58021471279E+03  0.47000000000E+01 0. -1.
         -5    1    1    2    0  502 -0.16486265422E+01 -0.38440399389E+02 -0.88128957449E+02  0.96276608871E+02  0.47000000000E+01 0. -1.
        -11    1    1    2    0    0 -0.36585012098E+02  0.11454901207E+02 -0.57664922386E+02  0.69245369128E+02  0.00000000000E+00 0. -1.
         11    1    1    2    0    0  0.33470933862E+02 -0.42752315127E+02 -0.51953005533E+02  0.75147712182E+02  0.00000000000E+00 0.  1.
<mgrwt>
<rscale>  0 0.11910755E+03</rscale>
<asrwt>0</asrwt>
<pdfrwt beam="2">  1        1 0.12266158E+00 0.12889382E+03</pdfrwt>
<pdfrwt beam="1">  1       -1 0.36283024E-02 0.12889382E+03</pdfrwt>
<totfact> 0.63584931E+03</totfact>
</mgrwt>
</event>
<event>
 6    1  0.8353100E-006  0.1326287E+03  0.7546771E-02  0.1237882E+00
         -2   -1    0    0    0  501 -0.00000000000E+00  0.00000000000E+00  0.18320711378E+03  0.18320711378E+03  0.00000000000E+00 0.  1.
          2   -1    0    0  501    0  0.00000000000E+00 -0.00000000000E+00 -0.78133485551E+02  0.78133485551E+02  0.00000000000E+00 0. -1.
          5    1    1    2  502    0  0.12125159987E+02  0.69809781238E+02  0.59580062270E+02  0.92694654006E+02  0.47000000000E+01 0. -1.
         -5    1    1    2    0  502 -0.80843926680E+01 -0.25651005826E+02 -0.32732228153E+02  0.42624174649E+02  0.47000000000E+01 0. -1.
        -11    1    1    2    0    0 -0.43138122248E+02 -0.39649506389E+02  0.54778124879E+02  0.80209874163E+02  0.00000000000E+00 0.  1.
         11    1    1    2    0    0  0.39097354929E+02 -0.45092690231E+01  0.23447669230E+02  0.45811896510E+02  0.00000000000E+00 0. -1.
<mgrwt>
<rscale>  0 0.12321731E+03</rscale>
<asrwt>0</asrwt>
<pdfrwt beam="2">  1        2 0.12020536E-01 0.13262873E+03</pdfrwt>
<pdfrwt beam="1">  1       -2 0.28185710E-01 0.13262873E+03</pdfrwt>
<totfact> 0.55403787E+03</totfact>
</mgrwt>
</event>
<event>
 6    1  0.8353100E-006  0.2134975E+03  0.7546771E-02  0.1150783E+00
          2   -1    0    0  501    0  0.00000000000E+00  0.00000000000E+00  0.19085687332E+03  0.19085687332E+03  0.00000000000E+00 0. -1.
         -2   -1    0    0    0  501 -0.00000000000E+00 -0.00000000000E+00 -0.18448768338E+03  0.18448768338E+03  0.00000000000E+00 0.  1.
          5    1    1    2  502    0  0.98375587830E+02 -0.63304392512E+02  0.64520679951E+02  0.13367950678E+03  0.47000000000E+01 0. -1.
         -5    1    1    2    0  502  0.21956894370E+01 -0.22167486726E+02 -0.76874833161E+02  0.80175111433E+02  0.47000000000E+01 0.  1.
        -11    1    1    2    0    0 -0.62008807374E+02 -0.48419225007E+01  0.75686171584E+01  0.62656367363E+02  0.00000000000E+00 0. -1.
         11    1    1    2    0    0 -0.38562469893E+02  0.90313801739E+02  0.11154725996E+02  0.98833571122E+02  0.00000000000E+00 0.  1.
<mgrwt>
<rscale>  0 0.19876789E+03</rscale>
<asrwt>0</asrwt>
<pdfrwt beam="1">  1        2 0.29362596E-01 0.21349748E+03</pdfrwt>
<pdfrwt beam="2">  1       -2 0.28382721E-01 0.21349748E+03</pdfrwt>
<totfact> 0.20117001E+03</totfact>
</mgrwt>
</event>
<event>
 6    1  0.8353100E-006  0.3131435E+03  0.7546771E-02  0.1078849E+00
          2   -1    0    0  501    0  0.00000000000E+00  0.00000000000E+00  0.77916899790E+03  0.77916899790E+03  0.00000000000E+00 0. -1.
         -2   -1    0    0    0  501 -0.00000000000E+00 -0.00000000000E+00 -0.31462645161E+02  0.31462645161E+02  0.00000000000E+00 0.  1.
          5    1    1    2  502    0 -0.87455492247E+02  0.69590537100E+02  0.32481826853E+03  0.34354083243E+03  0.47000000000E+01 0. -1.
         -5    1    1    2    0  502  0.29599481365E+02  0.98711769297E+00  0.24860693679E+03  0.25040887109E+03  0.47000000000E+01 0. -1.
        -11    1    1    2    0    0  0.14755850010E+02 -0.40151837052E+02  0.15454118337E+03  0.16035236975E+03  0.00000000000E+00 0. -1.
         11    1    1    2    0    0  0.43100160872E+02 -0.30425817741E+02  0.19739964056E+02  0.56329569796E+02  0.00000000000E+00 0.  1.
<mgrwt>
<rscale>  0 0.31314353E+03</rscale>
<asrwt>0</asrwt>
<pdfrwt beam="1">  1        2 0.11987214E+00 0.31314353E+03</pdfrwt>
<pdfrwt beam="2">  1       -2 0.48404075E-02 0.31314353E+03</pdfrwt>
<totfact> 0.75614802E+03</totfact>
</mgrwt>
</event>
<event>
 6    1  0.8353100E-006  0.1300395E+03  0.7546771E-02  0.1239309E+00
          2   -1    0    0  501    0  0.00000000000E+00  0.00000000000E+00  0.63485013589E+02  0.63485013589E+02  0.00000000000E+00 0. -1.
         -2   -1    0    0    0  501 -0.00000000000E+00 -0.00000000000E+00 -0.29846672461E+03  0.29846672461E+03  0.00000000000E+00 0.  1.
          5    1    1    2  502    0 -0.26798047653E+02 -0.37440209905E+02 -0.46366329916E+02  0.65512069313E+02  0.47000000000E+01 0. -1.
         -5    1    1    2    0  502  0.49489281248E+01  0.65861806279E+02  0.15795773161E+02  0.68072504476E+02  0.47000000000E+01 0. -1.
        -11    1    1    2    0    0  0.49809758905E+02  0.10874693893E+02 -0.79221734236E+02  0.94209098418E+02  0.00000000000E+00 0. -1.
         11    1    1    2    0    0 -0.27960639377E+02 -0.39296290266E+02 -0.12518942003E+03  0.13415806599E+03  0.00000000000E+00 0.  1.
<mgrwt>
<rscale>  0 0.12232537E+03</rscale>
<asrwt>0</asrwt>
<pdfrwt beam="1">  1        2 0.97669250E-02 0.13003953E+03</pdfrwt>
<pdfrwt beam="2">  1       -2 0.45917959E-01 0.13003953E+03</pdfrwt>
<totfact> 0.28775612E+03</totfact>
</mgrwt>
</event>
<event>
 6    1  0.8353100E-006  0.2925020E+03  0.7546771E-02  0.1089050E+00
          2   -1    0    0  501    0  0.00000000000E+00  0.00000000000E+00  0.26467026749E+04  0.26467026749E+04  0.00000000000E+00 0. -1.
         -2   -1    0    0    0  501 -0.00000000000E+00 -0.00000000000E+00 -0.80815098565E+01  0.80815098565E+01  0.00000000000E+00 0.  1.
          5    1    1    2  502    0  0.47682551019E+01 -0.31879031160E+02  0.65650622858E+03  0.65731387255E+03  0.47000000000E+01 0. -1.
         -5    1    1    2    0  502  0.58385060134E+01  0.10214007814E+03  0.13890134321E+04  0.13927839346E+04  0.47000000000E+01 0.  1.
        -11    1    1    2    0    0  0.41329734530E+02 -0.23629959146E+02  0.26503457764E+03  0.26927652937E+03  0.00000000000E+00 0.  1.
         11    1    1    2    0    0 -0.51936495645E+02 -0.46631087836E+02  0.32806692671E+03  0.33540984829E+03  0.00000000000E+00 0. -1.
<mgrwt>
<rscale>  0 0.29250199E+03</rscale>
<asrwt>0</asrwt>
<pdfrwt beam="1">  1        2 0.40718433E+00 0.29250199E+03</pdfrwt>
<pdfrwt beam="2">  1       -2 0.12433113E-02 0.29250199E+03</pdfrwt>
<totfact> 0.51613860E+03</totfact>
</mgrwt>
</event>
<event>
 6    1  0.8353100E-006  0.1368457E+03  0.7546771E-02  0.1231351E+00
         -2   -1    0    0    0  501 -0.00000000000E+00  0.00000000000E+00  0.26977520732E+02  0.26977520732E+02  0.00000000000E+00 0.  1.
          2   -1    0    0  501    0  0.00000000000E+00 -0.00000000000E+00 -0.57458918894E+03  0.57458918894E+03  0.00000000000E+00 0. -1.
          5    1    1    2  502    0  0.65101583670E+02 -0.57641993182E+02 -0.26838433388E+03  0.28215785696E+03  0.47000000000E+01 0. -1.
         -5    1    1    2    0  502 -0.10281775899E+02  0.47810475213E+02 -0.12223507722E+03  0.13173860694E+03  0.47000000000E+01 0. -1.
        -11    1    1    2    0    0 -0.29484581270E+02  0.14215711431E+00 -0.11736039073E+01  0.29508271509E+02  0.00000000000E+00 0.  1.
         11    1    1    2    0    0 -0.25335226501E+02  0.96893608543E+01 -0.15581865320E+03  0.15816197426E+03  0.00000000000E+00 0. -1.
<mgrwt>
<rscale>  0 0.12740929E+03</rscale>
<asrwt>0</asrwt>
<pdfrwt beam="2">  1        2 0.88398333E-01 0.13684575E+03</pdfrwt>
<pdfrwt beam="1">  1       -2 0.41503880E-02 0.13684575E+03</pdfrwt>
<totfact> 0.13111141E+04</totfact>
</mgrwt>
</event>
<event>
 6    1  0.8353100E-006  0.1293228E+03  0.7546771E-02  0.1243435E+00
          1   -1    0    0  501    0  0.00000000000E+00  0.00000000000E+00  0.20837181107E+02  0.20837181107E+02  0.00000000000E+00 0. -1.
         -1   -1    0    0    0  501 -0.00000000000E+00 -0.00000000000E+00 -0.62012112130E+03  0.62012112130E+03  0.00000000000E+00 0.  1.
          5    1    1    2  502    0  0.14331587390E+02 -0.53158440036E+02 -0.13966243697E+03  0.15019620650E+03  0.47000000000E+01 0.  1.
         -5    1    1    2    0  502 -0.47355704384E+02  0.56166122390E+02 -0.15477520220E+03  0.17139034179E+03  0.47000000000E+01 0.  1.
        -11    1    1    2    0    0 -0.20385751319E+02  0.22797432163E+02 -0.15917811920E+03  0.16208940558E+03  0.00000000000E+00 0. -1.
         11    1    1    2    0    0  0.53409868313E+02 -0.25805114517E+02 -0.14566818182E+03  0.15728234854E+03  0.00000000000E+00 0.  1.
<mgrwt>
<rscale>  0 0.11979524E+03</rscale>
<asrwt>0</asrwt>
<pdfrwt beam="1">  1        1 0.32057204E-02 0.12932279E+03</pdfrwt>
<pdfrwt beam="2">  1       -1 0.95403242E-01 0.12932279E+03</pdfrwt>
<totfact> 0.33296478E+03</totfact>
</mgrwt>
</event>
<event>
 6    1  0.8353100E-006  0.1298397E+03  0.7546771E-02  0.1241369E+00
         -1   -1    0    0    0  501 -0.00000000000E+00  0.00000000000E+00  0.32411558769E+02  0.32411558769E+02  0.00000000000E+00 0.  1.
          1   -1    0    0  501    0  0.00000000000E+00 -0.00000000000E+00 -0.41114864247E+03  0.41114864247E+03  0.00000000000E+00 0. -1.
          5    1    1    2  502    0 -0.59179103276E+02 -0.28073253417E+01 -0.63568999794E+02  0.87023876464E+02  0.47000000000E+01 0.  1.
         -5    1    1    2    0  502  0.44003229542E+02  0.34457552400E+02 -0.18639316980E+03  0.19464868578E+03  0.47000000000E+01 0.  1.
        -11    1    1    2    0    0  0.41985770554E+02 -0.31760983983E+02 -0.32317591045E+02  0.61773713855E+02  0.00000000000E+00 0.  1.
         11    1    1    2    0    0 -0.26809896820E+02  0.11075692442E+00 -0.96457323070E+02  0.10011392515E+03  0.00000000000E+00 0. -1.
<mgrwt>
<rscale>  0 0.12105385E+03</rscale>
<asrwt>0</asrwt>
<pdfrwt beam="2">  1        1 0.63253640E-01 0.12983969E+03</pdfrwt>
<pdfrwt beam="1">  1       -1 0.49863934E-02 0.12983969E+03</pdfrwt>
<totfact> 0.97821541E+03</totfact>
</mgrwt>
</event>
<event>
 6    1  0.8353100E-006  0.1530857E+03  0.7546771E-02  0.1205137E+00
          2   -1    0    0  501    0  0.00000000000E+00  0.00000000000E+00  0.68668057370E+03  0.68668057370E+03  0.00000000000E+00 0. -1.
         -2   -1    0    0    0  501 -0.00000000000E+00 -0.00000000000E+00 -0.30720058783E+02  0.30720058783E+02  0.00000000000E+00 0.  1.
          5    1    1    2  502    0  0.42108024438E+02 -0.60926683942E+02  0.17895681513E+03  0.19373378182E+03  0.47000000000E+01 0.  1.
         -5    1    1    2    0  502  0.46268431876E+02  0.60708363139E+02  0.26896418219E+03  0.27962491742E+03  0.47000000000E+01 0.  1.
        -11    1    1    2    0    0 -0.54836922435E+02 -0.19898319817E+02  0.19385048575E+03  0.20243774851E+03  0.00000000000E+00 0. -1.
         11    1    1    2    0    0 -0.33539533879E+02  0.20116640620E+02  0.14189031851E+02  0.41604184736E+02  0.00000000000E+00 0.  1.
<mgrwt>
<rscale>  0 0.14626639E+03</rscale>
<asrwt>0</asrwt>
<pdfrwt beam="1">  1        2 0.10564315E+00 0.15308572E+03</pdfrwt>
<pdfrwt beam="2">  1       -2 0.47261634E-02 0.15308572E+03</pdfrwt>
<totfact> 0.88528349E+03</totfact>
</mgrwt>
</event>
<event>
 6    1  0.8353100E-006  0.1487110E+03  0.7546771E-02  0.1211656E+00
         -1   -1    0    0    0  501 -0.00000000000E+00  0.00000000000E+00  0.40505731616E+03  0.40505731616E+03  0.00000000000E+00 0.  1.
          1   -1    0    0  501    0  0.00000000000E+00 -0.00000000000E+00 -0.46751881771E+02  0.46751881771E+02  0.00000000000E+00 0. -1.
          5    1    1    2  502    0  0.44557925629E+02 -0.30273344327E+02  0.12749847021E+02  0.55556572178E+02  0.47000000000E+01 0.  1.
         -5    1    1    2    0  502 -0.52584254780E+02 -0.49887718941E+02  0.13945359162E+03  0.15723639072E+03  0.47000000000E+01 0.  1.
        -11    1    1    2    0    0 -0.94703190766E+01  0.87512941851E+02  0.10913431029E+03  0.14020877154E+03  0.00000000000E+00 0. -1.
         11    1    1    2    0    0  0.17496648227E+02 -0.73518785829E+01  0.96967685453E+02  0.98807463483E+02  0.00000000000E+00 0.  1.
<mgrwt>
<rscale>  0 0.14125040E+03</rscale>
<asrwt>0</asrwt>
<pdfrwt beam="2">  1        1 0.71925975E-02 0.14871099E+03</pdfrwt>
<pdfrwt beam="1">  1       -1 0.62316508E-01 0.14871099E+03</pdfrwt>
<totfact> 0.26373930E+03</totfact>
</mgrwt>
</event>
<event>
 6    1  0.8353100E-006  0.1400502E+03  0.7546771E-02  0.1225551E+00
          2   -1    0    0  501    0  0.00000000000E+00  0.00000000000E+00  0.76845021575E+03  0.76845021575E+03  0.00000000000E+00 0. -1.
         -2   -1    0    0    0  501 -0.00000000000E+00 -0.00000000000E+00 -0.20550746735E+02  0.20550746735E+02  0.00000000000E+00 0.  1.
          5    1    1    2  502    0  0.71898994963E+02 -0.13345041271E+02  0.13550246763E+03  0.15404727955E+03  0.47000000000E+01 0.  1.
         -5    1    1    2    0  502 -0.20323194639E+02 -0.22903462567E+02  0.34670526989E+03  0.34808653379E+03  0.47000000000E+01 0.  1.
        -11    1    1    2    0    0 -0.75744691465E+02  0.31850950579E+02  0.18294242228E+03  0.20054842609E+03  0.00000000000E+00 0. -1.
         11    1    1    2    0    0  0.24168891141E+02  0.43975532582E+01  0.82749309227E+02  0.86318723063E+02  0.00000000000E+00 0.  1.
<mgrwt>
<rscale>  0 0.13129227E+03</rscale>
<asrwt>0</asrwt>
<pdfrwt beam="1">  1        2 0.11822309E+00 0.14005022E+03</pdfrwt>
<pdfrwt beam="2">  1       -2 0.31616539E-02 0.14005022E+03</pdfrwt>
<totfact> 0.13975362E+04</totfact>
</mgrwt>
</event>
<event>
 6    1  0.8353100E-006  0.2528477E+03  0.7546771E-02  0.1111518E+00
         -1   -1    0    0    0  501 -0.00000000000E+00  0.00000000000E+00  0.21448662304E+03  0.21448662304E+03  0.00000000000E+00 0.  1.
          1   -1    0    0  501    0  0.00000000000E+00 -0.00000000000E+00 -0.74517407438E+02  0.74517407438E+02  0.00000000000E+00 0. -1.
          5    1    1    2  502    0  0.20406689932E+02  0.76105131386E+02  0.81151913414E+02  0.11320842313E+03  0.47000000000E+01 0. -1.
         -5    1    1    2    0  502 -0.18960842980E+01 -0.19394641353E+02 -0.28609662348E+02  0.34933508678E+02  0.47000000000E+01 0. -1.
        -11    1    1    2    0    0 -0.26290921197E+02 -0.34464224681E+02  0.10358386037E+03  0.11228807349E+03  0.00000000000E+00 0.  1.
         11    1    1    2    0    0  0.77803155634E+01 -0.22246265352E+02 -0.16156895825E+02  0.28574025181E+02  0.00000000000E+00 0. -1.
<mgrwt>
<rscale>  0 0.25284768E+03</rscale>
<asrwt>0</asrwt>
<pdfrwt beam="2">  1        1 0.11464217E-01 0.25284768E+03</pdfrwt>
<pdfrwt beam="1">  1       -1 0.32997942E-01 0.25284768E+03</pdfrwt>
<totfact> 0.45779887E+03</totfact>
</mgrwt>
</event>
<event>
 6    1  0.8353100E-006  0.2248754E+03  0.7546771E-02  0.1132534E+00
         -1   -1    0    0    0  501 -0.00000000000E+00  0.00000000000E+00  0.27958226136E+02  0.27958226136E+02  0.00000000000E+00 0.  1.
          1   -1    0    0  501    0  0.00000000000E+00 -0.00000000000E+00 -0.17817176170E+04  0.17817176170E+04  0.00000000000E+00 0. -1.
          5    1    1    2  502    0 -0.10235680759E+03 -0.99734041142E+02 -0.76445456167E+03  0.77771245450E+03  0.47000000000E+01 0.  1.
         -5    1    1    2    0  502 -0.72246962278E+02  0.32967750930E+02 -0.31223711193E+03  0.32221204234E+03  0.47000000000E+01 0.  1.
        -11    1    1    2    0    0  0.11265822018E+03  0.69377360350E+02 -0.57746502392E+03  0.59242800960E+03  0.00000000000E+00 0. -1.
         11    1    1    2    0    0  0.61945549685E+02 -0.26110701376E+01 -0.99602693308E+02  0.11732333667E+03  0.00000000000E+00 0.  1.
<mgrwt>
<rscale>  0 0.22181974E+03</rscale>
<asrwt>0</asrwt>
<pdfrwt beam="2">  1        1 0.27411050E+00 0.22487538E+03</pdfrwt>
<pdfrwt beam="1">  1       -1 0.43012640E-02 0.22487538E+03</pdfrwt>
<totfact> 0.10354936E+03</totfact>
</mgrwt>
</event>
<event>
 6    1  0.8353100E-006  0.1338030E+03  0.7546771E-02  0.1235996E+00
          2   -1    0    0  501    0  0.00000000000E+00  0.00000000000E+00  0.19097963826E+03  0.19097963826E+03  0.00000000000E+00 0.  1.
         -2   -1    0    0    0  501 -0.00000000000E+00 -0.00000000000E+00 -0.20834378022E+03  0.20834378022E+03  0.00000000000E+00 0. -1.
          5    1    1    2  502    0 -0.59505454695E+02 -0.52181297184E+02  0.14035193866E+03  0.16119721958E+03  0.47000000000E+01 0.  1.
         -5    1    1    2    0  502  0.14355990137E+02  0.36681846213E+02  0.11733299534E+02  0.41369223009E+02  0.47000000000E+01 0.  1.
        -11    1    1    2    0    0  0.86423172683E+01 -0.26416927834E+02 -0.11726562221E+03  0.12051460441E+03  0.00000000000E+00 0. -1.
         11    1    1    2    0    0  0.36507147289E+02  0.41916378806E+02 -0.52183757952E+02  0.76242371484E+02  0.00000000000E+00 0.  1.
<mgrwt>
<rscale>  0 0.12440865E+03</rscale>
<asrwt>0</asrwt>
<pdfrwt beam="1">  1        2 0.29381483E-01 0.13380300E+03</pdfrwt>
<pdfrwt beam="2">  1       -2 0.32052889E-01 0.13380300E+03</pdfrwt>
<totfact> 0.15879332E+03</totfact>
</mgrwt>
</event>
<event>
 6    1  0.8353100E-006  0.3148368E+03  0.7546771E-02  0.1082544E+00
          2   -1    0    0  501    0  0.00000000000E+00  0.00000000000E+00  0.73293072863E+03  0.73293072863E+03  0.00000000000E+00 0.  1.
         -2   -1    0    0    0  501 -0.00000000000E+00 -0.00000000000E+00 -0.12041854559E+03  0.12041854559E+03  0.00000000000E+00 0. -1.
          5    1    1    2  502    0  0.52059852964E+00  0.71828267512E+01  0.11116783162E+03  0.11149995879E+03  0.47000000000E+01 0.  1.
         -5    1    1    2    0  502  0.26299952308E+03 -0.19612076788E+02  0.19861137792E+03  0.33018472426E+03  0.47000000000E+01 0. -1.
        -11    1    1    2    0    0 -0.17686468974E+03 -0.26564350028E+02  0.23335190383E+03  0.29400662270E+03  0.00000000000E+00 0.  1.
         11    1    1    2    0    0 -0.86655431869E+02  0.38993600065E+02  0.69381069668E+02  0.11765796848E+03  0.00000000000E+00 0. -1.
<mgrwt>
<rscale>  0 0.30545753E+03</rscale>
<asrwt>0</asrwt>
<pdfrwt beam="1">  1        2 0.11275857E+00 0.31483678E+03</pdfrwt>
<pdfrwt beam="2">  1       -2 0.18525931E-01 0.31483678E+03</pdfrwt>
<totfact> 0.95152381E+02</totfact>
</mgrwt>
</event>
<event>
 6    1  0.8353100E-006  0.1617231E+03  0.7546771E-02  0.1193661E+00
          2   -1    0    0  501    0  0.00000000000E+00  0.00000000000E+00  0.74034176899E+03  0.74034176899E+03  0.00000000000E+00 0. -1.
         -2   -1    0    0    0  501 -0.00000000000E+00 -0.00000000000E+00 -0.36239306070E+02  0.36239306070E+02  0.00000000000E+00 0.  1.
          5    1    1    2  502    0 -0.98536333582E+02 -0.82901730563E+01  0.38296411932E+03  0.39555245252E+03  0.47000000000E+01 0. -1.
         -5    1    1    2    0  502  0.18611352473E+02 -0.56069017912E+02  0.14559748632E+03  0.15719680414E+03  0.47000000000E+01 0. -1.
        -11    1    1    2    0    0  0.46037238114E+02  0.19491530520E+00  0.16301317073E+02  0.48838491208E+02  0.00000000000E+00 0.  1.
         11    1    1    2    0    0  0.33887742995E+02  0.64164275663E+02  0.15923954021E+03  0.17499332720E+03  0.00000000000E+00 0. -1.
<mgrwt>
<rscale>  0 0.15568064E+03</rscale>
<asrwt>0</asrwt>
<pdfrwt beam="1">  1        2 0.11389872E+00 0.16172313E+03</pdfrwt>
<pdfrwt beam="2">  1       -2 0.55752784E-02 0.16172313E+03</pdfrwt>
<totfact> 0.63210097E+03</totfact>
</mgrwt>
</event>
<event>
 6    1  0.8353100E-006  0.1636025E+03  0.7546771E-02  0.1191930E+00
         -1   -1    0    0    0  501 -0.00000000000E+00  0.00000000000E+00  0.48076885098E+02  0.48076885098E+02  0.00000000000E+00 0.  1.
          1   -1    0    0  501    0  0.00000000000E+00 -0.00000000000E+00 -0.74326246215E+03  0.74326246215E+03  0.00000000000E+00 0. -1.
          5    1    1    2  502    0 -0.25608504706E+02  0.86863556456E+02 -0.27012873890E+03  0.28494332512E+03  0.47000000000E+01 0.  1.
         -5    1    1    2    0  502  0.67761170776E+02  0.99139431921E+01 -0.33155181000E+03  0.33858315855E+03  0.47000000000E+01 0.  1.
        -11    1    1    2    0    0  0.21444544133E+01  0.17014841836E+02 -0.13527354000E+02  0.21842454846E+02  0.00000000000E+00 0.  1.
         11    1    1    2    0    0 -0.44297120484E+02 -0.11379234148E+03 -0.79977674155E+02  0.14597040874E+03  0.00000000000E+00 0. -1.
<mgrwt>
<rscale>  0 0.15716941E+03</rscale>
<asrwt>0</asrwt>
<pdfrwt beam="2">  1        1 0.11434806E+00 0.16360255E+03</pdfrwt>
<pdfrwt beam="1">  1       -1 0.73964443E-02 0.16360255E+03</pdfrwt>
<totfact> 0.24739413E+03</totfact>
</mgrwt>
</event>
<event>
 6    1  0.8353100E-006  0.1250383E+03  0.7546771E-02  0.1250647E+00
          1   -1    0    0  501    0  0.00000000000E+00  0.00000000000E+00  0.36093881606E+03  0.36093881606E+03  0.00000000000E+00 0.  1.
         -1   -1    0    0    0  501 -0.00000000000E+00 -0.00000000000E+00 -0.33185167914E+02  0.33185167914E+02  0.00000000000E+00 0. -1.
          5    1    1    2  502    0  0.32137474849E+02 -0.44723218157E+02  0.48658164868E+02  0.73638920011E+02  0.47000000000E+01 0.  1.
         -5    1    1    2    0  502 -0.29883013664E+02  0.43970543198E+02  0.17075552447E+03  0.17890204669E+03  0.47000000000E+01 0.  1.
        -11    1    1    2    0    0  0.22150478275E+02  0.56150197592E+00  0.11432645016E+03  0.11645383711E+03  0.00000000000E+00 0.  1.
         11    1    1    2    0    0 -0.24404939460E+02  0.19117298291E+00 -0.59864913411E+01  0.25129180164E+02  0.00000000000E+00 0. -1.
<mgrwt>
<rscale>  0 0.11553688E+03</rscale>
<asrwt>0</asrwt>
<pdfrwt beam="1">  1        1 0.55529046E-01 0.12503829E+03</pdfrwt>
<pdfrwt beam="2">  1       -1 0.51054107E-02 0.12503829E+03</pdfrwt>
<totfact> 0.11090757E+04</totfact>
</mgrwt>
</event>
<event>
 6    1  0.8353100E-006  0.1815269E+03  0.7546771E-02  0.1196526E+00
          2   -1    0    0  501    0  0.00000000000E+00  0.00000000000E+00  0.40207592783E+03  0.40207592783E+03  0.00000000000E+00 0. -1.
         -2   -1    0    0    0  501 -0.00000000000E+00 -0.00000000000E+00 -0.76309814690E+02  0.76309814690E+02  0.00000000000E+00 0.  1.
          5    1    1    2  502    0  0.73531898273E+02 -0.82243796265E+01  0.26572522921E+03  0.27587418858E+03  0.47000000000E+01 0. -1.
         -5    1    1    2    0  502 -0.77637849563E+02  0.20473841745E+02  0.73926164818E+02  0.10924276509E+03  0.47000000000E+01 0.  1.
        -11    1    1    2    0    0 -0.14325881094E+02  0.36731756700E+02 -0.13279094761E+01  0.39448905726E+02  0.00000000000E+00 0. -1.
         11    1    1    2    0    0  0.18431832384E+02 -0.48981218819E+02 -0.12557371418E+02  0.53819883119E+02  0.00000000000E+00 0.  1.
<mgrwt>
<rscale>  0 0.15325796E+03</rscale>
<asrwt>0</asrwt>
<pdfrwt beam="1">  1        2 0.61857834E-01 0.18152685E+03</pdfrwt>
<pdfrwt beam="2">  1       -2 0.11739972E-01 0.18152685E+03</pdfrwt>
<totfact> 0.39816626E+03</totfact>
</mgrwt>
</event>
<event>
 6    1  0.8353100E-006  0.1324499E+03  0.7546771E-02  0.1235524E+00
          1   -1    0    0  501    0  0.00000000000E+00  0.00000000000E+00  0.34133788894E+03  0.34133788894E+03  0.00000000000E+00 0. -1.
         -1   -1    0    0    0  501 -0.00000000000E+00 -0.00000000000E+00 -0.40998569845E+02  0.40998569845E+02  0.00000000000E+00 0.  1.
          5    1    1    2  502    0  0.75887543699E+01 -0.74422169225E+02  0.11352527872E+03  0.13603796298E+03  0.47000000000E+01 0.  1.
         -5    1    1    2    0  502 -0.36979709032E+02  0.41949966803E+02  0.58444774498E+02  0.81025799971E+02  0.47000000000E+01 0.  1.
        -11    1    1    2    0    0 -0.12077302479E+02  0.49705538844E+02  0.99524804867E+02  0.11190035125E+03  0.00000000000E+00 0.  1.
         11    1    1    2    0    0  0.41468257141E+02 -0.17233336421E+02  0.28844461015E+02  0.53372344578E+02  0.00000000000E+00 0. -1.
<mgrwt>
<rscale>  0 0.12470945E+03</rscale>
<asrwt>0</asrwt>
<pdfrwt beam="1">  1        1 0.52513520E-01 0.13244991E+03</pdfrwt>
<pdfrwt beam="2">  1       -1 0.63074725E-02 0.13244991E+03</pdfrwt>
<totfact> 0.87251952E+03</totfact>
</mgrwt>
</event>
<event>
 6    1  0.8353100E-006  0.1256302E+03  0.7546771E-02  0.1261732E+00
         -2   -1    0    0    0  501 -0.00000000000E+00  0.00000000000E+00  0.95154585532E+01  0.95154585532E+01  0.00000000000E+00 0.  1.
          2   -1    0    0  501    0  0.00000000000E+00 -0.00000000000E+00 -0.13272451530E+04  0.13272451530E+04  0.00000000000E+00 0. -1.
          5    1    1    2  502    0  0.33699354766E+02 -0.17313166688E+02 -0.97131428836E+03  0.97206426177E+03  0.47000000000E+01 0. -1.
         -5    1    1    2    0  502 -0.29578309315E+02  0.29100601978E+02 -0.13372609051E+03  0.14009453487E+03  0.47000000000E+01 0. -1.
        -11    1    1    2    0    0 -0.18179007067E+01 -0.41514313553E+02 -0.13994958503E+03  0.14598845620E+03  0.00000000000E+00 0. -1.
         11    1    1    2    0    0 -0.23031447435E+01  0.29726878263E+02 -0.72739730506E+02  0.78613358668E+02  0.00000000000E+00 0.  1.
<mgrwt>
<rscale>  0 0.10937480E+03</rscale>
<asrwt>0</asrwt>
<pdfrwt beam="2">  1        2 0.20419155E+00 0.12563021E+03</pdfrwt>
<pdfrwt beam="1">  1       -2 0.14639168E-02 0.12563021E+03</pdfrwt>
<totfact> 0.19812628E+04</totfact>
</mgrwt>
</event>
<event>
 6    1  0.8353100E-006  0.1523398E+03  0.7546771E-02  0.1206902E+00
          1   -1    0    0  501    0  0.00000000000E+00  0.00000000000E+00  0.23911809140E+02  0.23911809140E+02  0.00000000000E+00 0. -1.
         -1   -1    0    0    0  501 -0.00000000000E+00 -0.00000000000E+00 -0.81238360668E+03  0.81238360668E+03  0.00000000000E+00 0.  1.
          5    1    1    2  502    0  0.30749347825E+02  0.77732539391E+02 -0.14688344626E+03  0.16907012408E+03  0.47000000000E+01 0. -1.
         -5    1    1    2    0  502 -0.56873569307E+02  0.53311228453E+01 -0.23944726825E+03  0.24621151076E+03  0.47000000000E+01 0. -1.
        -11    1    1    2    0    0  0.30080038420E+02  0.57076780012E+01 -0.16402076328E+03  0.16685381952E+03  0.00000000000E+00 0.  1.
         11    1    1    2    0    0 -0.39558169376E+01 -0.88771340238E+02 -0.23812031974E+03  0.25415996146E+03  0.00000000000E+00 0. -1.
<mgrwt>
<rscale>  0 0.14488535E+03</rscale>
<asrwt>0</asrwt>
<pdfrwt beam="1">  1        1 0.36787395E-02 0.15233980E+03</pdfrwt>
<pdfrwt beam="2">  1       -1 0.12498210E+00 0.15233980E+03</pdfrwt>
<totfact> 0.15024629E+03</totfact>
</mgrwt>
</event>
<event>
 6    1  0.8353100E-006  0.3486125E+03  0.7546771E-02  0.1063186E+00
          1   -1    0    0  501    0  0.00000000000E+00  0.00000000000E+00  0.40927424521E+02  0.40927424521E+02  0.00000000000E+00 0. -1.
         -1   -1    0    0    0  501 -0.00000000000E+00 -0.00000000000E+00 -0.74235477635E+03  0.74235477635E+03  0.00000000000E+00 0.  1.
          5    1    1    2  502    0 -0.65418412874E+02 -0.94659740282E+02 -0.13774573332E+03  0.17954390054E+03  0.47000000000E+01 0.  1.
         -5    1    1    2    0  502 -0.45552646227E+02  0.34813935840E+02 -0.12051970139E+03  0.13354453238E+03  0.47000000000E+01 0.  1.
        -11    1    1    2    0    0  0.52866838303E+02  0.26407083694E+02 -0.72572689874E+02  0.93589700165E+02  0.00000000000E+00 0. -1.
         11    1    1    2    0    0  0.58104220798E+02  0.33438720749E+02 -0.37058922725E+03  0.37660406778E+03  0.00000000000E+00 0.  1.
<mgrwt>
<rscale>  0 0.34861250E+03</rscale>
<asrwt>0</asrwt>
<pdfrwt beam="1">  1        1 0.62965265E-02 0.34861250E+03</pdfrwt>
<pdfrwt beam="2">  1       -1 0.11420843E+00 0.34861250E+03</pdfrwt>
<totfact> 0.90092720E+02</totfact>
</mgrwt>
</event>
<event>
 6    1  0.8353100E-006  0.1320552E+03  0.7546771E-02  0.1234989E+00
          1   -1    0    0  501    0  0.00000000000E+00  0.00000000000E+00  0.64049436871E+02  0.64049436871E+02  0.00000000000E+00 0. -1.
         -1   -1    0    0    0  501 -0.00000000000E+00 -0.00000000000E+00 -0.23102888276E+03  0.23102888276E+03  0.00000000000E+00 0.  1.
          5    1    1    2  502    0  0.64461193512E+01  0.63485587238E+02  0.10691894338E+02  0.64872018977E+02  0.47000000000E+01 0.  1.
         -5    1    1    2    0  502 -0.24416102846E+02 -0.24997313449E+02 -0.73160858597E+02  0.81213379369E+02  0.47000000000E+01 0.  1.
        -11    1    1    2    0    0 -0.12558503902E+02 -0.61845935595E+02 -0.42671568862E+02  0.76180696762E+02  0.00000000000E+00 0.  1.
         11    1    1    2    0    0  0.30528487397E+02  0.23357661806E+02 -0.61838912766E+02  0.72812224522E+02  0.00000000000E+00 0. -1.
<mgrwt>
<rscale>  0 0.12505128E+03</rscale>
<asrwt>0</asrwt>
<pdfrwt beam="1">  1        1 0.98537596E-02 0.13205519E+03</pdfrwt>
<pdfrwt beam="2">  1       -1 0.35542905E-01 0.13205519E+03</pdfrwt>
<totfact> 0.47494900E+03</totfact>
</mgrwt>
</event>
<event>
 6    1  0.8353100E-006  0.1483035E+03  0.7546771E-02  0.1210722E+00
         -1   -1    0    0    0  501 -0.00000000000E+00  0.00000000000E+00  0.68179458677E+02  0.68179458677E+02  0.00000000000E+00 0.  1.
          1   -1    0    0  501    0  0.00000000000E+00 -0.00000000000E+00 -0.28218595181E+03  0.28218595181E+03  0.00000000000E+00 0. -1.
          5    1    1    2  502    0  0.79261358962E+02 -0.36634999386E+02 -0.83406839319E+02  0.12084401950E+03  0.47000000000E+01 0. -1.
         -5    1    1    2    0  502 -0.48097696222E+02 -0.36829204731E+02 -0.64329456809E+02  0.88488121894E+02  0.47000000000E+01 0. -1.
        -11    1    1    2    0    0 -0.50728431536E+02  0.40612022619E+02 -0.77541283724E+02  0.10116996011E+03  0.00000000000E+00 0. -1.
         11    1    1    2    0    0  0.19564768796E+02  0.32852181497E+02  0.11271086717E+02  0.39863308981E+02  0.00000000000E+00 0.  1.
<mgrwt>
<rscale>  0 0.14195487E+03</rscale>
<asrwt>0</asrwt>
<pdfrwt beam="2">  1        1 0.43413224E-01 0.14830351E+03</pdfrwt>
<pdfrwt beam="1">  1       -1 0.10489147E-01 0.14830351E+03</pdfrwt>
<totfact> 0.51590158E+03</totfact>
</mgrwt>
</event>
<event>
 6    1  0.8353100E-006  0.1408280E+03  0.7546771E-02  0.1223018E+00
          2   -1    0    0  501    0  0.00000000000E+00  0.00000000000E+00  0.10498297433E+04  0.10498297433E+04  0.00000000000E+00 0.  1.
         -2   -1    0    0    0  501 -0.00000000000E+00 -0.00000000000E+00 -0.16030368804E+02  0.16030368804E+02  0.00000000000E+00 0. -1.
          5    1    1    2  502    0 -0.44553192763E+02  0.14678290014E+02  0.17955418567E+03  0.18564006780E+03  0.47000000000E+01 0.  1.
         -5    1    1    2    0  502  0.83464674163E+02  0.37229637453E+02  0.51058944507E+03  0.51872542752E+03  0.47000000000E+01 0.  1.
        -11    1    1    2    0    0 -0.47379918129E+02  0.97260187647E+01  0.18087442480E+03  0.18722983103E+03  0.00000000000E+00 0.  1.
         11    1    1    2    0    0  0.84684367289E+01 -0.61633946232E+02  0.16278131894E+03  0.17426478573E+03  0.00000000000E+00 0. -1.
<mgrwt>
<rscale>  0 0.13303713E+03</rscale>
<asrwt>0</asrwt>
<pdfrwt beam="1">  1        2 0.16151221E+00 0.14082798E+03</pdfrwt>
<pdfrwt beam="2">  1       -2 0.24662114E-02 0.14082798E+03</pdfrwt>
<totfact> 0.13368948E+04</totfact>
</mgrwt>
</event>
<event>
 6    1  0.8353100E-006  0.1575127E+03  0.7546771E-02  0.1200513E+00
          3   -1    0    0  501    0  0.00000000000E+00  0.00000000000E+00  0.78299460923E+02  0.78299460923E+02  0.00000000000E+00 0. -1.
         -3   -1    0    0    0  501 -0.00000000000E+00 -0.00000000000E+00 -0.30909014147E+03  0.30909014147E+03  0.00000000000E+00 0.  1.
          5    1    1    2  502    0  0.68930275409E+02 -0.79663235738E+02 -0.29340119957E+02  0.10945568343E+03  0.47000000000E+01 0.  1.
         -5    1    1    2    0  502  0.21146313489E+02  0.47058968062E+02 -0.21080587627E+02  0.55930262148E+02  0.47000000000E+01 0.  1.
        -11    1    1    2    0    0 -0.83598536243E+02 -0.11755332069E+02 -0.11216813943E+03  0.14038730212E+03  0.00000000000E+00 0. -1.
         11    1    1    2    0    0 -0.64780526547E+01  0.44359599745E+02 -0.68201833532E+02  0.81616354690E+02  0.00000000000E+00 0.  1.
<mgrwt>
<rscale>  0 0.14996712E+03</rscale>
<asrwt>0</asrwt>
<pdfrwt beam="1">  1        3 0.12046071E-01 0.15751274E+03</pdfrwt>
<pdfrwt beam="2">  1       -3 0.47552329E-01 0.15751274E+03</pdfrwt>
<totfact> 0.56442971E+02</totfact>
</mgrwt>
</event>
<event>
 6    1  0.8353100E-006  0.1258896E+03  0.7546771E-02  0.1248890E+00
          2   -1    0    0  501    0  0.00000000000E+00  0.00000000000E+00  0.40700070153E+03  0.40700070153E+03  0.00000000000E+00 0. -1.
         -2   -1    0    0    0  501 -0.00000000000E+00 -0.00000000000E+00 -0.36519917462E+02  0.36519917462E+02  0.00000000000E+00 0.  1.
          5    1    1    2  502    0 -0.32286979303E+02  0.43975453694E+02  0.78635520055E+02  0.95822359470E+02  0.47000000000E+01 0.  1.
         -5    1    1    2    0  502  0.22377124332E+02 -0.55168158868E+02  0.22701307163E+03  0.23473663143E+03  0.47000000000E+01 0.  1.
        -11    1    1    2    0    0  0.34730364838E+02 -0.34362982384E+00 -0.75797450615E+01  0.35549526838E+02  0.00000000000E+00 0.  1.
         11    1    1    2    0    0 -0.24820509867E+02  0.11536334998E+02  0.72411937444E+02  0.77412101248E+02  0.00000000000E+00 0. -1.
<mgrwt>
<rscale>  0 0.11655563E+03</rscale>
<asrwt>0</asrwt>
<pdfrwt beam="1">  1        2 0.62615490E-01 0.12588957E+03</pdfrwt>
<pdfrwt beam="2">  1       -2 0.56184491E-02 0.12588957E+03</pdfrwt>
<totfact> 0.12066010E+04</totfact>
</mgrwt>
</event>
<event>
 6    1  0.8353100E-006  0.2676754E+03  0.7546771E-02  0.1140785E+00
         -2   -1    0    0    0  501 -0.00000000000E+00  0.00000000000E+00  0.67125802594E+02  0.67125802594E+02  0.00000000000E+00 0.  1.
          2   -1    0    0  501    0  0.00000000000E+00 -0.00000000000E+00 -0.59898545409E+03  0.59898545409E+03  0.00000000000E+00 0. -1.
          5    1    1    2  502    0 -0.86135739747E+02 -0.10911227863E+03 -0.20425525633E+03  0.24711769412E+03  0.47000000000E+01 0. -1.
         -5    1    1    2    0  502  0.39749866294E+02  0.11748890568E+03 -0.27784517007E+03  0.30430859889E+03  0.47000000000E+01 0.  1.
        -11    1    1    2    0    0  0.56513741307E+02  0.25891247091E+02 -0.13170921390E+02  0.63542370137E+02  0.00000000000E+00 0. -1.
         11    1    1    2    0    0 -0.10127867854E+02 -0.34267874140E+02 -0.36588303716E+02  0.51142593541E+02  0.00000000000E+00 0.  1.
<mgrwt>
<rscale>  0 0.21098948E+03</rscale>
<asrwt>0</asrwt>
<pdfrwt beam="2">  1        2 0.92151613E-01 0.26767543E+03</pdfrwt>
<pdfrwt beam="1">  1       -2 0.10327046E-01 0.26767543E+03</pdfrwt>
<totfact> 0.31748065E+03</totfact>
</mgrwt>
</event>
<event>
 6    1  0.8353100E-006  0.1798672E+03  0.7546771E-02  0.1173331E+00
          2   -1    0    0  501    0  0.00000000000E+00  0.00000000000E+00  0.16917726431E+03  0.16917726431E+03  0.00000000000E+00 0. -1.
         -2   -1    0    0    0  501 -0.00000000000E+00 -0.00000000000E+00 -0.18356228540E+03  0.18356228540E+03  0.00000000000E+00 0.  1.
          5    1    1    2  502    0  0.13118132747E+01 -0.44793130894E+02  0.20038813746E+00  0.45058579481E+02  0.47000000000E+01 0.  1.
         -5    1    1    2    0  502  0.12781565649E+03  0.37665799652E+02  0.40612949569E+02  0.13938097496E+03  0.47000000000E+01 0.  1.
        -11    1    1    2    0    0  0.74727368448E+00  0.19874588996E+02 -0.29052042286E+02  0.35207653525E+02  0.00000000000E+00 0.  1.
         11    1    1    2    0    0 -0.12987474345E+03 -0.12747257753E+02 -0.26146316511E+02  0.13309234175E+03  0.00000000000E+00 0. -1.
<mgrwt>
<rscale>  0 0.17440420E+03</rscale>
<asrwt>0</asrwt>
<pdfrwt beam="1">  1        2 0.26027272E-01 0.17986723E+03</pdfrwt>
<pdfrwt beam="2">  1       -2 0.28240351E-01 0.17986723E+03</pdfrwt>
<totfact> 0.23044793E+03</totfact>
</mgrwt>
</event>
<event>
 6    1  0.8353100E-006  0.1288628E+03  0.7546771E-02  0.1243103E+00
         -1   -1    0    0    0  501 -0.00000000000E+00  0.00000000000E+00  0.50354905049E+03  0.50354905049E+03  0.00000000000E+00 0.  1.
          1   -1    0    0  501    0  0.00000000000E+00 -0.00000000000E+00 -0.26542597477E+02  0.26542597477E+02  0.00000000000E+00 0. -1.
          5    1    1    2  502    0  0.52448092024E+02 -0.46798973142E+02  0.16886492770E+03  0.18297103610E+03  0.47000000000E+01 0. -1.
         -5    1    1    2    0  502 -0.46360347557E+02  0.16045131912E+02  0.45112746408E+02  0.66813007507E+02  0.47000000000E+01 0. -1.
        -11    1    1    2    0    0  0.38057999417E+02  0.26772353281E+02  0.85639187231E+02  0.97464047778E+02  0.00000000000E+00 0. -1.
         11    1    1    2    0    0 -0.44145743885E+02  0.39814879492E+01  0.17738959167E+03  0.18284355658E+03  0.00000000000E+00 0.  1.
<mgrwt>
<rscale>  0 0.11999650E+03</rscale>
<asrwt>0</asrwt>
<pdfrwt beam="2">  1        1 0.40834769E-02 0.12886281E+03</pdfrwt>
<pdfrwt beam="1">  1       -1 0.77469078E-01 0.12886281E+03</pdfrwt>
<totfact> 0.36856609E+03</totfact>
</mgrwt>
</event>
<event>
 6    1  0.8353100E-006  0.1568050E+03  0.7546771E-02  0.1200623E+00
          1   -1    0    0  501    0  0.00000000000E+00  0.00000000000E+00  0.78899612413E+03  0.78899612413E+03  0.00000000000E+00 0. -1.
         -1   -1    0    0    0  501 -0.00000000000E+00 -0.00000000000E+00 -0.31102180478E+02  0.31102180478E+02  0.00000000000E+00 0.  1.
          5    1    1    2  502    0 -0.11559201924E+02 -0.38333975351E+02  0.41945687923E+02  0.58177655080E+02  0.47000000000E+01 0.  1.
         -5    1    1    2    0  502 -0.72103199649E+02 -0.59799409770E+01  0.52763154326E+03  0.53258967934E+03  0.47000000000E+01 0.  1.
        -11    1    1    2    0    0  0.11267660853E+02  0.11449703912E+02 -0.76925808835E+01  0.17810999450E+02  0.00000000000E+00 0.  1.
         11    1    1    2    0    0  0.72394740721E+02  0.32864212415E+02  0.19600929335E+03  0.21151997074E+03  0.00000000000E+00 0. -1.
<mgrwt>
<rscale>  0 0.14987808E+03</rscale>
<asrwt>0</asrwt>
<pdfrwt beam="1">  1        1 0.12138400E+00 0.15680504E+03</pdfrwt>
<pdfrwt beam="2">  1       -1 0.47849514E-02 0.15680504E+03</pdfrwt>
<totfact> 0.43362589E+03</totfact>
</mgrwt>
</event>
<event>
 6    1  0.8353100E-006  0.1675102E+03  0.7546771E-02  0.1186776E+00
         -2   -1    0    0    0  501 -0.00000000000E+00  0.00000000000E+00  0.19843958380E+02  0.19843958380E+02  0.00000000000E+00 0.  1.
          2   -1    0    0  501    0  0.00000000000E+00 -0.00000000000E+00 -0.12819833881E+04  0.12819833881E+04  0.00000000000E+00 0. -1.
          5    1    1    2  502    0 -0.71175610655E+01  0.42746433726E+02 -0.34597260701E+03  0.34870768858E+03  0.47000000000E+01 0.  1.
         -5    1    1    2    0  502 -0.97380202538E+02 -0.38252819417E+01 -0.20259130484E+03  0.22486187632E+03  0.47000000000E+01 0.  1.
        -11    1    1    2    0    0 -0.14150548608E+02 -0.21053889337E+02 -0.13727619284E+03  0.13960034886E+03  0.00000000000E+00 0.  1.
         11    1    1    2    0    0  0.11864831221E+03 -0.17867262447E+02 -0.57629932502E+03  0.58865743271E+03  0.00000000000E+00 0. -1.
<mgrwt>
<rscale>  0 0.16171285E+03</rscale>
<asrwt>0</asrwt>
<pdfrwt beam="2">  1        2 0.19722831E+00 0.16751024E+03</pdfrwt>
<pdfrwt beam="1">  1       -2 0.30529152E-02 0.16751024E+03</pdfrwt>
<totfact> 0.72885212E+03</totfact>
</mgrwt>
</event>
<event>
 6    1  0.8353100E-006  0.1459068E+03  0.7546771E-02  0.1217755E+00
         -2   -1    0    0    0  501 -0.00000000000E+00  0.00000000000E+00  0.20031828936E+02  0.20031828936E+02  0.00000000000E+00 0. -1.
          2   -1    0    0  501    0  0.00000000000E+00 -0.00000000000E+00 -0.11491067584E+04  0.11491067584E+04  0.00000000000E+00 0.  1.
          5    1    1    2  502    0  0.10941828705E+03 -0.20591232840E+01 -0.63506742999E+03  0.64444497994E+03  0.47000000000E+01 0. -1.
         -5    1    1    2    0  502 -0.34326138021E+02 -0.28741432360E+01 -0.28643532150E+03  0.28853739421E+03  0.47000000000E+01 0. -1.
        -11    1    1    2    0    0 -0.57102703169E+02 -0.12730557217E+02 -0.20204615439E+03  0.21034598713E+03  0.00000000000E+00 0.  1.
         11    1    1    2    0    0 -0.17989445857E+02  0.17663823737E+02 -0.55260235356E+01  0.25810226024E+02  0.00000000000E+00 0. -1.
<mgrwt>
<rscale>  0 0.13676082E+03</rscale>
<asrwt>0</asrwt>
<pdfrwt beam="2">  1        2 0.17678571E+00 0.14590678E+03</pdfrwt>
<pdfrwt beam="1">  1       -2 0.30818189E-02 0.14590678E+03</pdfrwt>
<totfact> 0.84699781E+03</totfact>
</mgrwt>
</event>
<event>
 6    1  0.8353100E-006  0.2193833E+03  0.7546771E-02  0.1137670E+00
          1   -1    0    0  501    0  0.00000000000E+00  0.00000000000E+00  0.70101932312E+03  0.70101932312E+03  0.00000000000E+00 0. -1.
         -1   -1    0    0    0  501 -0.00000000000E+00 -0.00000000000E+00 -0.65348348585E+02  0.65348348585E+02  0.00000000000E+00 0.  1.
          5    1    1    2  502    0  0.24710004223E+02  0.49630394914E+00 -0.14869442741E+01  0.25201817981E+02  0.47000000000E+01 0. -1.
         -5    1    1    2    0  502  0.14326009418E+03  0.64998014160E+02  0.39739831814E+03  0.42742918676E+03  0.47000000000E+01 0. -1.
        -11    1    1    2    0    0 -0.25711707982E+01 -0.21242880059E+02  0.67708741056E+02  0.71009467593E+02  0.00000000000E+00 0. -1.
         11    1    1    2    0    0 -0.16539892761E+03 -0.44251438049E+02  0.17205085962E+03  0.24272719938E+03  0.00000000000E+00 0.  1.
<mgrwt>
<rscale>  0 0.21499535E+03</rscale>
<asrwt>0</asrwt>
<pdfrwt beam="1">  1        1 0.10784912E+00 0.21938325E+03</pdfrwt>
<pdfrwt beam="2">  1       -1 0.10053593E-01 0.21938325E+03</pdfrwt>
<totfact> 0.16955768E+03</totfact>
</mgrwt>
</event>
<event>
 6    1  0.8353100E-006  0.2573402E+03  0.7546771E-02  0.1108752E+00
          1   -1    0    0  501    0  0.00000000000E+00  0.00000000000E+00  0.14143576058E+03  0.14143576058E+03  0.00000000000E+00 0. -1.
         -1   -1    0    0    0  501 -0.00000000000E+00 -0.00000000000E+00 -0.11705661313E+03  0.11705661313E+03  0.00000000000E+00 0.  1.
          5    1    1    2  502    0 -0.67670805247E+02  0.23030491091E+02 -0.48960792930E+02  0.86769756523E+02  0.47000000000E+01 0.  1.
         -5    1    1    2    0  502  0.59545990351E+01  0.69109187893E+01  0.54995340937E+02  0.55944575903E+02  0.47000000000E+01 0.  1.
        -11    1    1    2    0    0  0.24668723791E+02  0.20189998969E+02  0.38760024650E+02  0.50184873246E+02  0.00000000000E+00 0. -1.
         11    1    1    2    0    0  0.37047482421E+02 -0.50131408850E+02 -0.20415425206E+02  0.65593168038E+02  0.00000000000E+00 0.  1.
<mgrwt>
<rscale>  0 0.25734017E+03</rscale>
<asrwt>0</asrwt>
<pdfrwt beam="1">  1        1 0.21759348E-01 0.25734017E+03</pdfrwt>
<pdfrwt beam="2">  1       -1 0.18008710E-01 0.25734017E+03</pdfrwt>
<totfact> 0.54186488E+03</totfact>
</mgrwt>
</event>
<event>
 6    1  0.8353100E-006  0.1542438E+03  0.7546771E-02  0.1202735E+00
          2   -1    0    0  501    0  0.00000000000E+00  0.00000000000E+00  0.25222797918E+03  0.25222797918E+03  0.00000000000E+00 0.  1.
         -2   -1    0    0    0  501 -0.00000000000E+00 -0.00000000000E+00 -0.13204934444E+03  0.13204934444E+03  0.00000000000E+00 0. -1.
          5    1    1    2  502    0 -0.21680035667E+02 -0.10011629746E+03  0.80719092031E+02  0.13050271561E+03  0.47000000000E+01 0.  1.
         -5    1    1    2    0  502  0.35560221483E+02  0.10823823689E+02  0.10172328889E+03  0.10840388375E+03  0.47000000000E+01 0.  1.
        -11    1    1    2    0    0  0.24800035083E+02  0.25908064983E+02  0.14394730214E+02  0.38645540871E+02  0.00000000000E+00 0.  1.
         11    1    1    2    0    0 -0.38680220899E+02  0.63384408791E+02 -0.76658476383E+02  0.10672518338E+03  0.00000000000E+00 0. -1.
<mgrwt>
<rscale>  0 0.14817429E+03</rscale>
<asrwt>0</asrwt>
<pdfrwt beam="1">  1        2 0.38804304E-01 0.15424377E+03</pdfrwt>
<pdfrwt beam="2">  1       -2 0.20315284E-01 0.15424377E+03</pdfrwt>
<totfact> 0.26360619E+03</totfact>
</mgrwt>
</event>
<event>
 6    1  0.8353100E-006  0.1712013E+03  0.7546771E-02  0.1183464E+00
         -1   -1    0    0    0  501 -0.00000000000E+00  0.00000000000E+00  0.71258671919E+02  0.71258671919E+02  0.00000000000E+00 0.  1.
          1   -1    0    0  501    0  0.00000000000E+00 -0.00000000000E+00 -0.37192772449E+03  0.37192772449E+03  0.00000000000E+00 0. -1.
          5    1    1    2  502    0  0.19918456961E+01 -0.62200391634E+02 -0.14234303982E+03  0.15542357335E+03  0.47000000000E+01 0.  1.
         -5    1    1    2    0  502 -0.92528723474E+02 -0.11878147191E+02 -0.66691946243E+02  0.11477177677E+03  0.47000000000E+01 0.  1.
        -11    1    1    2    0    0  0.56725838039E+02 -0.18171225519E+01 -0.12217932902E+02  0.58055150676E+02  0.00000000000E+00 0.  1.
         11    1    1    2    0    0  0.33811039739E+02  0.75895661376E+02 -0.79416133611E+02  0.11493589562E+03  0.00000000000E+00 0. -1.
<mgrwt>
<rscale>  0 0.16472466E+03</rscale>
<asrwt>0</asrwt>
<pdfrwt beam="2">  1        1 0.57219651E-01 0.17120135E+03</pdfrwt>
<pdfrwt beam="1">  1       -1 0.10962872E-01 0.17120135E+03</pdfrwt>
<totfact> 0.34379980E+03</totfact>
</mgrwt>
</event>
<event>
 6    1  0.8353100E-006  0.1662824E+03  0.7546771E-02  0.1188965E+00
          3   -1    0    0  501    0  0.00000000000E+00  0.00000000000E+00  0.17698999362E+03  0.17698999362E+03  0.00000000000E+00 0. -1.
         -3   -1    0    0    0  501 -0.00000000000E+00 -0.00000000000E+00 -0.13414338782E+03  0.13414338782E+03  0.00000000000E+00 0.  1.
          5    1    1    2  502    0  0.56720710618E+02 -0.69431994403E+02 -0.34483822836E+02  0.96173098614E+02  0.47000000000E+01 0.  1.
         -5    1    1    2    0  502  0.34509817371E+02  0.85838423378E+01  0.63057974290E+02  0.72546591690E+02  0.47000000000E+01 0.  1.
        -11    1    1    2    0    0 -0.68428496776E+02  0.81288341412E+02 -0.47537961730E+01  0.10636189260E+03  0.00000000000E+00 0.  1.
         11    1    1    2    0    0 -0.22802031212E+02 -0.20440189346E+02  0.19026250519E+02  0.36051798523E+02  0.00000000000E+00 0. -1.
<mgrwt>
<rscale>  0 0.15976246E+03</rscale>
<asrwt>0</asrwt>
<pdfrwt beam="1">  1        3 0.27229230E-01 0.16628245E+03</pdfrwt>
<pdfrwt beam="2">  1       -3 0.20637444E-01 0.16628245E+03</pdfrwt>
<totfact> 0.64970868E+02</totfact>
</mgrwt>
</event>
<event>
 6    1  0.8353100E-006  0.1316047E+03  0.7546771E-02  0.1240521E+00
          3   -1    0    0  501    0  0.00000000000E+00  0.00000000000E+00  0.49797195206E+03  0.49797195206E+03  0.00000000000E+00 0. -1.
         -3   -1    0    0    0  501 -0.00000000000E+00 -0.00000000000E+00 -0.28272558117E+02  0.28272558117E+02  0.00000000000E+00 0.  1.
          5    1    1    2  502    0  0.39152443655E+02 -0.71114840253E+02  0.15542244353E+03  0.17540940768E+03  0.47000000000E+01 0. -1.
         -5    1    1    2    0  502 -0.15141801461E+02  0.37641324362E+02  0.18754846837E+03  0.19194442279E+03  0.47000000000E+01 0. -1.
        -11    1    1    2    0    0 -0.65690150754E+01 -0.22125734130E+02  0.45451491966E+01  0.23523572243E+02  0.00000000000E+00 0.  1.
         11    1    1    2    0    0 -0.17441627118E+02  0.55599250021E+02  0.12218333284E+03  0.13536710747E+03  0.00000000000E+00 0. -1.
<mgrwt>
<rscale>  0 0.12157524E+03</rscale>
<asrwt>0</asrwt>
<pdfrwt beam="1">  1        3 0.76611063E-01 0.13160467E+03</pdfrwt>
<pdfrwt beam="2">  1       -3 0.43496247E-02 0.13160467E+03</pdfrwt>
<totfact> 0.10707827E+03</totfact>
</mgrwt>
</event>
<event>
 6    1  0.8353100E-006  0.1257045E+03  0.7546771E-02  0.1251030E+00
          3   -1    0    0  501    0  0.00000000000E+00  0.00000000000E+00  0.88086176649E+02  0.88086176649E+02  0.00000000000E+00 0. -1.
         -3   -1    0    0    0  501 -0.00000000000E+00 -0.00000000000E+00 -0.16504388862E+03  0.16504388862E+03  0.00000000000E+00 0.  1.
          5    1    1    2  502    0 -0.35616660705E+02  0.45899564616E+02  0.38107794668E+02  0.69639145358E+02  0.47000000000E+01 0. -1.
         -5    1    1    2    0  502  0.22337336555E+02 -0.45630727804E+02 -0.24870415648E+02  0.56760439558E+02  0.47000000000E+01 0. -1.
        -11    1    1    2    0    0  0.26159953692E+02 -0.37520206923E+02 -0.29728828763E+02  0.54551923562E+02  0.00000000000E+00 0. -1.
         11    1    1    2    0    0 -0.12880629542E+02  0.37251370111E+02 -0.60466262226E+02  0.72178556789E+02  0.00000000000E+00 0.  1.
<mgrwt>
<rscale>  0 0.11531644E+03</rscale>
<asrwt>0</asrwt>
<pdfrwt beam="1">  1        3 0.13551719E-01 0.12570452E+03</pdfrwt>
<pdfrwt beam="2">  1       -3 0.25391368E-01 0.12570452E+03</pdfrwt>
<totfact> 0.14638746E+03</totfact>
</mgrwt>
</event>
<event>
 6    1  0.8353100E-006  0.1269116E+03  0.7546771E-02  0.1246293E+00
         -1   -1    0    0    0  501 -0.00000000000E+00  0.00000000000E+00  0.33112479704E+02  0.33112479704E+02  0.00000000000E+00 0.  1.
          1   -1    0    0  501    0  0.00000000000E+00 -0.00000000000E+00 -0.41406217676E+03  0.41406217676E+03  0.00000000000E+00 0. -1.
          5    1    1    2  502    0 -0.38158439832E+02  0.49319849337E+02 -0.25186423155E+03  0.25951145486E+03  0.47000000000E+01 0. -1.
         -5    1    1    2    0  502  0.22987376342E+02 -0.33428117836E+02 -0.33575058776E+02  0.52869964110E+02  0.47000000000E+01 0. -1.
        -11    1    1    2    0    0 -0.19557526640E+02  0.23855068115E+02 -0.68308310052E+01  0.31594641560E+02  0.00000000000E+00 0.  1.
         11    1    1    2    0    0  0.34728590130E+02 -0.39746799616E+02 -0.88679575722E+02  0.10319859593E+03  0.00000000000E+00 0. -1.
<mgrwt>
<rscale>  0 0.11808345E+03</rscale>
<asrwt>0</asrwt>
<pdfrwt beam="2">  1        1 0.63701874E-01 0.12691163E+03</pdfrwt>
<pdfrwt beam="1">  1       -1 0.50942276E-02 0.12691163E+03</pdfrwt>
<totfact> 0.93778284E+03</totfact>
</mgrwt>
</event>
<event>
 6    1  0.8353100E-006  0.1568055E+03  0.7546771E-02  0.1200762E+00
          2   -1    0    0  501    0  0.00000000000E+00  0.00000000000E+00  0.24815139726E+03  0.24815139726E+03  0.00000000000E+00 0. -1.
         -2   -1    0    0    0  501 -0.00000000000E+00 -0.00000000000E+00 -0.21102232737E+03  0.21102232737E+03  0.00000000000E+00 0.  1.
          5    1    1    2  502    0 -0.76502019999E+02  0.54060630026E+02  0.98916692562E+02  0.13631475654E+03  0.47000000000E+01 0. -1.
         -5    1    1    2    0  502  0.48547719579E+02  0.36392233241E+02  0.98741013986E+02  0.11598773021E+03  0.47000000000E+01 0. -1.
        -11    1    1    2    0    0  0.48144887942E+02 -0.92519378671E+02 -0.15311842119E+03  0.18526472025E+03  0.00000000000E+00 0.  1.
         11    1    1    2    0    0 -0.20190587522E+02  0.20665154038E+01 -0.74102154695E+01  0.21606517621E+02  0.00000000000E+00 0. -1.
<mgrwt>
<rscale>  0 0.14976522E+03</rscale>
<asrwt>0</asrwt>
<pdfrwt beam="1">  1        2 0.38177138E-01 0.15680554E+03</pdfrwt>
<pdfrwt beam="2">  1       -2 0.32464973E-01 0.15680554E+03</pdfrwt>
<totfact> 0.11757659E+03</totfact>
</mgrwt>
</event>
<event>
 6    1  0.8353100E-006  0.3400576E+03  0.7546771E-02  0.1066771E+00
          1   -1    0    0  501    0  0.00000000000E+00  0.00000000000E+00  0.51597549949E+02  0.51597549949E+02  0.00000000000E+00 0. -1.
         -1   -1    0    0    0  501 -0.00000000000E+00 -0.00000000000E+00 -0.56029401954E+03  0.56029401954E+03  0.00000000000E+00 0.  1.
          5    1    1    2  502    0  0.21497100515E+02 -0.23487030048E+02 -0.22248081209E+02  0.39125861377E+02  0.47000000000E+01 0.  1.
         -5    1    1    2    0  502  0.37907884300E+02  0.13896522627E+03 -0.21515558603E+03  0.25896400909E+03  0.47000000000E+01 0.  1.
        -11    1    1    2    0    0 -0.20072183366E+02 -0.41683320822E+02 -0.22724153278E+02  0.51543951363E+02  0.00000000000E+00 0. -1.
         11    1    1    2    0    0 -0.39332801448E+02 -0.73794875397E+02 -0.24856864908E+03  0.26225774766E+03  0.00000000000E+00 0.  1.
<mgrwt>
<rscale>  0 0.34005763E+03</rscale>
<asrwt>0</asrwt>
<pdfrwt beam="1">  1        1 0.79380849E-02 0.34005763E+03</pdfrwt>
<pdfrwt beam="2">  1       -1 0.86199077E-01 0.34005763E+03</pdfrwt>
<totfact> 0.12284576E+03</totfact>
</mgrwt>
</event>
<event>
 6    1  0.8353100E-006  0.1332611E+03  0.7546771E-02  0.1236158E+00
         -1   -1    0    0    0  501 -0.00000000000E+00  0.00000000000E+00  0.26925415781E+02  0.26925415781E+02  0.00000000000E+00 0.  1.
          1   -1    0    0  501    0  0.00000000000E+00 -0.00000000000E+00 -0.51521253435E+03  0.51521253435E+03  0.00000000000E+00 0. -1.
          5    1    1    2  502    0 -0.20276275128E+02  0.43514301976E+01 -0.26604628028E+03  0.26689468996E+03  0.47000000000E+01 0.  1.
         -5    1    1    2    0  502  0.18343640673E+02 -0.50503587807E+02 -0.40769945269E+02  0.67611980978E+02  0.47000000000E+01 0.  1.
        -11    1    1    2    0    0  0.20043609654E+02 -0.11598946974E+02 -0.89936028789E+01  0.24842841054E+02  0.00000000000E+00 0.  1.
         11    1    1    2    0    0 -0.18110975199E+02  0.57751104584E+02 -0.17247729014E+03  0.18278843814E+03  0.00000000000E+00 0. -1.
<mgrwt>
<rscale>  0 0.12430568E+03</rscale>
<asrwt>0</asrwt>
<pdfrwt beam="2">  1        1 0.79263462E-01 0.13326108E+03</pdfrwt>
<pdfrwt beam="1">  1       -1 0.41423719E-02 0.13326108E+03</pdfrwt>
<totfact> 0.96387759E+03</totfact>
</mgrwt>
</event>
<event>
 6    1  0.8353100E-006  0.1445781E+03  0.7546771E-02  0.1217985E+00
          1   -1    0    0  501    0  0.00000000000E+00  0.00000000000E+00  0.84246805302E+02  0.84246805302E+02  0.00000000000E+00 0. -1.
         -1   -1    0    0    0  501 -0.00000000000E+00 -0.00000000000E+00 -0.22319855217E+03  0.22319855217E+03  0.00000000000E+00 0.  1.
          5    1    1    2  502    0 -0.43811763473E+02 -0.43248364791E+02 -0.21817343286E+02  0.65482655290E+02  0.47000000000E+01 0. -1.
         -5    1    1    2    0  502 -0.19439293816E+02  0.78999884850E+02 -0.57034119855E+01  0.81691412393E+02  0.47000000000E+01 0. -1.
        -11    1    1    2    0    0  0.23895469932E+02 -0.10073478723E+02 -0.11025634429E+03  0.11326486619E+03  0.00000000000E+00 0.  1.
         11    1    1    2    0    0  0.39355587358E+02 -0.25678041336E+02 -0.11746473036E+01  0.47006423597E+02  0.00000000000E+00 0. -1.
<mgrwt>
<rscale>  0 0.13659529E+03</rscale>
<asrwt>0</asrwt>
<pdfrwt beam="1">  1        1 0.12961047E-01 0.14457806E+03</pdfrwt>
<pdfrwt beam="2">  1       -1 0.34338238E-01 0.14457806E+03</pdfrwt>
<totfact> 0.35306182E+03</totfact>
</mgrwt>
</event>
<event>
 6    1  0.8353100E-006  0.1351244E+03  0.7546771E-02  0.1232251E+00
          2   -1    0    0  501    0  0.00000000000E+00  0.00000000000E+00  0.43182657972E+03  0.43182657972E+03  0.00000000000E+00 0. -1.
         -2   -1    0    0    0  501 -0.00000000000E+00 -0.00000000000E+00 -0.34179424662E+02  0.34179424662E+02  0.00000000000E+00 0.  1.
          5    1    1    2  502    0 -0.39751907546E+02  0.75379639599E+02  0.13020251095E+03  0.15568265182E+03  0.47000000000E+01 0.  1.
         -5    1    1    2    0  502  0.37635347174E+02 -0.24119629162E+02  0.12934914184E+03  0.13693599367E+03  0.47000000000E+01 0.  1.
        -11    1    1    2    0    0  0.31515130287E+02 -0.61027745508E+02  0.67532268775E+02  0.96323395314E+02  0.00000000000E+00 0.  1.
         11    1    1    2    0    0 -0.29398569915E+02  0.97677350704E+01  0.70563233495E+02  0.77063963580E+02  0.00000000000E+00 0. -1.
<mgrwt>
<rscale>  0 0.12682036E+03</rscale>
<asrwt>0</asrwt>
<pdfrwt beam="1">  1        2 0.66434854E-01 0.13512443E+03</pdfrwt>
<pdfrwt beam="2">  1       -2 0.52583733E-02 0.13512443E+03</pdfrwt>
<totfact> 0.12581470E+04</totfact>
</mgrwt>
</event>
<event>
 6    1  0.8353100E-006  0.1298536E+03  0.7546771E-02  0.1242313E+00
         -2   -1    0    0    0  501 -0.00000000000E+00  0.00000000000E+00  0.11538659635E+03  0.11538659635E+03  0.00000000000E+00 0.  1.
          2   -1    0    0  501    0  0.00000000000E+00 -0.00000000000E+00 -0.11106579858E+03  0.11106579858E+03  0.00000000000E+00 0. -1.
          5    1    1    2  502    0  0.35008312516E+02  0.34821430292E+02  0.51889914895E+01  0.49871129779E+02  0.47000000000E+01 0. -1.
         -5    1    1    2    0  502 -0.70076229798E+02 -0.37341059428E+02 -0.88505391400E+01  0.80034084895E+02  0.47000000000E+01 0. -1.
        -11    1    1    2    0    0  0.11487950537E+02  0.59075505660E+01  0.48146706772E+02  0.49849548987E+02  0.00000000000E+00 0.  1.
         11    1    1    2    0    0  0.23579966746E+02 -0.33879214306E+01 -0.40164361357E+02  0.46697631273E+02  0.00000000000E+00 0. -1.
<mgrwt>
<rscale>  0 0.12047669E+03</rscale>
<asrwt>0</asrwt>
<pdfrwt beam="2">  1        2 0.17087046E-01 0.12985360E+03</pdfrwt>
<pdfrwt beam="1">  1       -2 0.17751784E-01 0.12985360E+03</pdfrwt>
<totfact> 0.80959341E+03</totfact>
</mgrwt>
</event>
<event>
 6    1  0.8353100E-006  0.1890026E+03  0.7546771E-02  0.1164318E+00
         -1   -1    0    0    0  501 -0.00000000000E+00  0.00000000000E+00  0.15462095821E+03  0.15462095821E+03  0.00000000000E+00 0.  1.
          1   -1    0    0  501    0  0.00000000000E+00 -0.00000000000E+00 -0.28923368346E+03  0.28923368346E+03  0.00000000000E+00 0. -1.
          5    1    1    2  502    0 -0.12806512806E+03  0.76906445296E+01 -0.14567399089E+03  0.19417215212E+03  0.47000000000E+01 0. -1.
         -5    1    1    2    0  502 -0.45387575585E+01 -0.58465245908E+02 -0.42856601756E+02  0.72784363797E+02  0.47000000000E+01 0.  1.
        -11    1    1    2    0    0 -0.21577252479E+01 -0.11717209466E+02 -0.96403463072E+01  0.15325960095E+02  0.00000000000E+00 0. -1.
         11    1    1    2    0    0  0.13476161087E+03  0.62491810844E+02  0.63558213709E+02  0.16157216566E+03  0.00000000000E+00 0.  1.
<mgrwt>
<rscale>  0 0.18364900E+03</rscale>
<asrwt>0</asrwt>
<pdfrwt beam="2">  1        1 0.44497489E-01 0.18900264E+03</pdfrwt>
<pdfrwt beam="1">  1       -1 0.23787840E-01 0.18900264E+03</pdfrwt>
<totfact> 0.13796936E+03</totfact>
</mgrwt>
</event>
<event>
 6    1  0.8353100E-006  0.1328037E+03  0.7546771E-02  0.1237416E+00
         -2   -1    0    0    0  501 -0.00000000000E+00  0.00000000000E+00  0.11548111875E+03  0.11548111875E+03  0.00000000000E+00 0.  1.
          2   -1    0    0  501    0  0.00000000000E+00 -0.00000000000E+00 -0.12674556706E+03  0.12674556706E+03  0.00000000000E+00 0. -1.
          5    1    1    2  502    0  0.14785009034E+02 -0.24539379428E+02 -0.56719105721E+02  0.63717537528E+02  0.47000000000E+01 0. -1.
         -5    1    1    2    0  502 -0.46099686555E+02  0.56650714686E+02  0.16533766798E+02  0.75032926236E+02  0.47000000000E+01 0. -1.
        -11    1    1    2    0    0 -0.28509892729E+02 -0.15113093967E+02  0.25609618077E+02  0.41195535325E+02  0.00000000000E+00 0.  1.
         11    1    1    2    0    0  0.59824570250E+02 -0.16998241291E+02  0.33112725327E+01  0.62280686720E+02  0.00000000000E+00 0. -1.
<mgrwt>
<rscale>  0 0.12351006E+03</rscale>
<asrwt>0</asrwt>
<pdfrwt beam="2">  1        2 0.19499318E-01 0.13280373E+03</pdfrwt>
<pdfrwt beam="1">  1       -2 0.17766326E-01 0.13280373E+03</pdfrwt>
<totfact> 0.69649054E+03</totfact>
</mgrwt>
</event>
<event>
 6    1  0.8353100E-006  0.1201345E+03  0.7546771E-02  0.1256952E+00
         -3   -1    0    0    0  501 -0.00000000000E+00  0.00000000000E+00  0.59301027770E+03  0.59301027770E+03  0.00000000000E+00 0.  1.
          3   -1    0    0  501    0  0.00000000000E+00 -0.00000000000E+00 -0.25940701527E+02  0.25940701527E+02  0.00000000000E+00 0. -1.
          5    1    1    2  502    0 -0.24888278282E+02 -0.29503486540E+02  0.73289091118E+01  0.39568737946E+02  0.47000000000E+01 0. -1.
         -5    1    1    2    0  502  0.21859886311E+02  0.49242626170E+02  0.14287698498E+03  0.15276980624E+03  0.47000000000E+01 0.  1.
        -11    1    1    2    0    0  0.42709739900E+02  0.46713737387E+01  0.23370379229E+03  0.23762029826E+03  0.00000000000E+00 0. -1.
         11    1    1    2    0    0 -0.39681347928E+02 -0.24410513369E+02  0.18315988979E+03  0.18899213678E+03  0.00000000000E+00 0.  1.
<mgrwt>
<rscale>  0 0.11197695E+03</rscale>
<asrwt>0</asrwt>
<pdfrwt beam="2">  1        3 0.39908776E-02 0.12013453E+03</pdfrwt>
<pdfrwt beam="1">  1       -3 0.91232340E-01 0.12013453E+03</pdfrwt>
<totfact> 0.82302811E+02</totfact>
</mgrwt>
</event>
<event>
 6    1  0.8353100E-006  0.1364101E+03  0.7546771E-02  0.1233125E+00
         -1   -1    0    0    0  501 -0.00000000000E+00  0.00000000000E+00  0.43534969452E+02  0.43534969452E+02  0.00000000000E+00 0.  1.
          1   -1    0    0  501    0  0.00000000000E+00 -0.00000000000E+00 -0.32137498473E+03  0.32137498473E+03  0.00000000000E+00 0. -1.
          5    1    1    2  502    0  0.41186831398E+02 -0.42705982085E+02 -0.25102157585E+02  0.64593841052E+02  0.47000000000E+01 0. -1.
         -5    1    1    2    0  502  0.11999613386E+02  0.55125107916E+02 -0.13101674282E+03  0.14272436773E+03  0.47000000000E+01 0. -1.
        -11    1    1    2    0    0 -0.41037370265E+02 -0.36438792341E+02 -0.31148015045E+02  0.63103487913E+02  0.00000000000E+00 0.  1.
         11    1    1    2    0    0 -0.12149074519E+02  0.24019666511E+02 -0.90573099826E+02  0.94488257487E+02  0.00000000000E+00 0. -1.
<mgrwt>
<rscale>  0 0.12625214E+03</rscale>
<asrwt>0</asrwt>
<pdfrwt beam="2">  1        1 0.49442303E-01 0.13641015E+03</pdfrwt>
<pdfrwt beam="1">  1       -1 0.66976879E-02 0.13641015E+03</pdfrwt>
<totfact> 0.86147011E+03</totfact>
</mgrwt>
</event>
<event>
 6    1  0.8353100E-006  0.1382884E+03  0.7546771E-02  0.1226415E+00
          1   -1    0    0  501    0  0.00000000000E+00  0.00000000000E+00  0.36650320797E+02  0.36650320797E+02  0.00000000000E+00 0. -1.
         -1   -1    0    0    0  501 -0.00000000000E+00 -0.00000000000E+00 -0.42533557575E+03  0.42533557575E+03  0.00000000000E+00 0.  1.
          5    1    1    2  502    0  0.29275556792E+02 -0.92326741058E+02 -0.14570727790E+03  0.17502567290E+03  0.47000000000E+01 0.  1.
         -5    1    1    2    0  502 -0.22884282415E+02  0.33518234442E+02 -0.49106418699E+02  0.63880300400E+02  0.47000000000E+01 0.  1.
        -11    1    1    2    0    0 -0.25889002263E+02  0.17995342018E+02 -0.90470519726E+01  0.32801248785E+02  0.00000000000E+00 0. -1.
         11    1    1    2    0    0  0.19497727885E+02  0.40813164599E+02 -0.18482450638E+03  0.19027867446E+03  0.00000000000E+00 0.  1.
<mgrwt>
<rscale>  0 0.13070387E+03</rscale>
<asrwt>0</asrwt>
<pdfrwt beam="1">  1        1 0.56385109E-02 0.13828842E+03</pdfrwt>
<pdfrwt beam="2">  1       -1 0.65436242E-01 0.13828842E+03</pdfrwt>
<totfact> 0.33262965E+03</totfact>
</mgrwt>
</event>
<event>
 6    1  0.8353100E-006  0.3296588E+03  0.7546771E-02  0.1071288E+00
          1   -1    0    0  501    0  0.00000000000E+00  0.00000000000E+00  0.31138412532E+03  0.31138412532E+03  0.00000000000E+00 0. -1.
         -1   -1    0    0    0  501 -0.00000000000E+00 -0.00000000000E+00 -0.87251477322E+02  0.87251477322E+02  0.00000000000E+00 0.  1.
          5    1    1    2  502    0  0.58809860138E+01  0.15103778116E+02 -0.30131381833E+02  0.34535493062E+02  0.47000000000E+01 0.  1.
         -5    1    1    2    0  502 -0.90067152396E+02  0.68297297549E+02  0.10122020701E+03  0.15180327105E+03  0.47000000000E+01 0.  1.
        -11    1    1    2    0    0  0.11173262305E+02 -0.53906806369E+02  0.10889463699E+03  0.12201978335E+03  0.00000000000E+00 0. -1.
         11    1    1    2    0    0  0.73012904077E+02 -0.29494269295E+02  0.44149185827E+02  0.90277055182E+02  0.00000000000E+00 0.  1.
<mgrwt>
<rscale>  0 0.32965876E+03</rscale>
<asrwt>0</asrwt>
<pdfrwt beam="1">  1        1 0.47905249E-01 0.32965876E+03</pdfrwt>
<pdfrwt beam="2">  1       -1 0.13423304E-01 0.32965876E+03</pdfrwt>
<totfact> 0.32103379E+03</totfact>
</mgrwt>
</event>
<event>
 6    1  0.8353100E-006  0.1320013E+03  0.7546771E-02  0.1239021E+00
         -1   -1    0    0    0  501 -0.00000000000E+00  0.00000000000E+00  0.43574240112E+02  0.43574240112E+02  0.00000000000E+00 0.  1.
          1   -1    0    0  501    0  0.00000000000E+00 -0.00000000000E+00 -0.30798204530E+03  0.30798204530E+03  0.00000000000E+00 0. -1.
          5    1    1    2  502    0 -0.52576536372E+02 -0.40977432974E+02 -0.16873899222E+03  0.18148933766E+03  0.47000000000E+01 0.  1.
         -5    1    1    2    0  502  0.10759340006E+02  0.33842865092E+02 -0.41950531540E+01  0.36066485634E+02  0.47000000000E+01 0.  1.
        -11    1    1    2    0    0  0.77892450049E+01  0.43390422138E+02 -0.24027628478E+02  0.50206852135E+02  0.00000000000E+00 0. -1.
         11    1    1    2    0    0  0.34027951361E+02 -0.36255854255E+02 -0.67446131343E+02  0.83793609988E+02  0.00000000000E+00 0.  1.
<mgrwt>
<rscale>  0 0.12250493E+03</rscale>
<asrwt>0</asrwt>
<pdfrwt beam="2">  1        1 0.47381854E-01 0.13200133E+03</pdfrwt>
<pdfrwt beam="1">  1       -1 0.67037292E-02 0.13200133E+03</pdfrwt>
<totfact> 0.90481102E+03</totfact>
</mgrwt>
</event>
<event>
 6    1  0.8353100E-006  0.3925055E+03  0.7546771E-02  0.1047257E+00
          1   -1    0    0  501    0  0.00000000000E+00  0.00000000000E+00  0.65574760738E+03  0.65574760738E+03  0.00000000000E+00 0. -1.
         -1   -1    0    0    0  501 -0.00000000000E+00 -0.00000000000E+00 -0.24632831331E+03  0.24632831331E+03  0.00000000000E+00 0.  1.
          5    1    1    2  502    0 -0.91033187599E+02  0.28661623502E+03  0.31784922821E+03  0.43759128110E+03  0.47000000000E+01 0. -1.
         -5    1    1    2    0  502 -0.30244587185E+02  0.65138024850E+02  0.77541424529E+01  0.72387250676E+02  0.47000000000E+01 0. -1.
        -11    1    1    2    0    0  0.94821959888E+02 -0.30818446449E+03  0.10166506572E+03  0.33808971268E+03  0.00000000000E+00 0.  1.
         11    1    1    2    0    0  0.26455814896E+02 -0.43569795376E+02 -0.17849142310E+02  0.54007676233E+02  0.00000000000E+00 0. -1.
<mgrwt>
<rscale>  0 0.39011594E+03</rscale>
<asrwt>0</asrwt>
<pdfrwt beam="1">  1        1 0.10088425E+00 0.39250547E+03</pdfrwt>
<pdfrwt beam="2">  1       -1 0.37896664E-01 0.39250547E+03</pdfrwt>
<totfact> 0.20993664E+02</totfact>
</mgrwt>
</event>
<event>
 6    1  0.8353100E-006  0.1563542E+03  0.7546771E-02  0.1201160E+00
          2   -1    0    0  501    0  0.00000000000E+00  0.00000000000E+00  0.18958517675E+03  0.18958517675E+03  0.00000000000E+00 0.  1.
         -2   -1    0    0    0  501 -0.00000000000E+00 -0.00000000000E+00 -0.14570639885E+03  0.14570639885E+03  0.00000000000E+00 0. -1.
          5    1    1    2  502    0  0.51292541589E+02 -0.92205628271E+02  0.65859415666E+02  0.12446829050E+03  0.47000000000E+01 0. -1.
         -5    1    1    2    0  502 -0.49984471147E+02 -0.17084293028E+01  0.42015443140E+02  0.65488575712E+02  0.47000000000E+01 0. -1.
        -11    1    1    2    0    0  0.18433189630E+02 -0.22362153524E+01  0.11201076629E+02  0.21685185189E+02  0.00000000000E+00 0.  1.
         11    1    1    2    0    0 -0.19741260072E+02  0.96150272926E+02 -0.75197157543E+02  0.12364952420E+03  0.00000000000E+00 0. -1.
<mgrwt>
<rscale>  0 0.14944223E+03</rscale>
<asrwt>0</asrwt>
<pdfrwt beam="1">  1        2 0.29166950E-01 0.15635417E+03</pdfrwt>
<pdfrwt beam="2">  1       -2 0.22416369E-01 0.15635417E+03</pdfrwt>
<totfact> 0.30324867E+03</totfact>
</mgrwt>
</event>
<event>
 6    1  0.8353100E-006  0.1292576E+03  0.7546771E-02  0.1242409E+00
          2   -1    0    0  501    0  0.00000000000E+00  0.00000000000E+00  0.11785706814E+03  0.11785706814E+03  0.00000000000E+00 0. -1.
         -2   -1    0    0    0  501 -0.00000000000E+00 -0.00000000000E+00 -0.10934324034E+03  0.10934324034E+03  0.00000000000E+00 0.  1.
          5    1    1    2  502    0  0.25770032508E+02 -0.87446041720E-01  0.66843622160E+02  0.71793189410E+02  0.47000000000E+01 0. -1.
         -5    1    1    2    0  502  0.22995026356E+01  0.17131029850E+02 -0.55156032608E+02  0.57991704830E+02  0.47000000000E+01 0. -1.
        -11    1    1    2    0    0 -0.40085721687E+02  0.20124738710E+02 -0.26324374639E+02  0.52008104094E+02  0.00000000000E+00 0.  1.
         11    1    1    2    0    0  0.12016186543E+02 -0.37168322519E+02  0.23150612887E+02  0.45407310149E+02  0.00000000000E+00 0. -1.
<mgrwt>
<rscale>  0 0.12041796E+03</rscale>
<asrwt>0</asrwt>
<pdfrwt beam="1">  1        2 0.18131857E-01 0.12925757E+03</pdfrwt>
<pdfrwt beam="2">  1       -2 0.16822037E-01 0.12925757E+03</pdfrwt>
<totfact> 0.82660877E+03</totfact>
</mgrwt>
</event>
<event>
 6    1  0.8353100E-006  0.1498367E+03  0.7546771E-02  0.1208776E+00
         -1   -1    0    0    0  501 -0.00000000000E+00  0.00000000000E+00  0.56456549906E+02  0.56456549906E+02  0.00000000000E+00 0.  1.
          1   -1    0    0  501    0  0.00000000000E+00 -0.00000000000E+00 -0.33668469390E+03  0.33668469390E+03  0.00000000000E+00 0. -1.
          5    1    1    2  502    0 -0.23947414635E+02  0.11794666464E+02  0.14056977865E+01  0.27141459264E+02  0.47000000000E+01 0.  1.
         -5    1    1    2    0  502  0.10446584981E+03  0.67319519774E+01 -0.15800197924E+03  0.18959205785E+03  0.47000000000E+01 0.  1.
        -11    1    1    2    0    0 -0.55991022450E+01  0.32190128013E+02 -0.50148868617E+02  0.59853682519E+02  0.00000000000E+00 0. -1.
         11    1    1    2    0    0 -0.74919332932E+02 -0.50716746454E+02 -0.73482993915E+02  0.11655404417E+03  0.00000000000E+00 0.  1.
<mgrwt>
<rscale>  0 0.14343835E+03</rscale>
<asrwt>0</asrwt>
<pdfrwt beam="2">  1        1 0.51797644E-01 0.14983665E+03</pdfrwt>
<pdfrwt beam="1">  1       -1 0.86856232E-02 0.14983665E+03</pdfrwt>
<totfact> 0.55275335E+03</totfact>
</mgrwt>
</event>
<event>
 6    1  0.8353100E-006  0.1996843E+03  0.7546771E-02  0.1165828E+00
         -2   -1    0    0    0  501 -0.00000000000E+00  0.00000000000E+00  0.62905121206E+02  0.62905121206E+02  0.00000000000E+00 0.  1.
          2   -1    0    0  501    0  0.00000000000E+00 -0.00000000000E+00 -0.55701792622E+03  0.55701792622E+03  0.00000000000E+00 0. -1.
          5    1    1    2  502    0  0.90160150519E+02 -0.72184653463E+02 -0.16797488105E+03  0.20390470226E+03  0.47000000000E+01 0. -1.
         -5    1    1    2    0  502 -0.63449150644E+02 -0.27696918183E+02 -0.24785490824E+03  0.25738504139E+03  0.47000000000E+01 0.  1.
        -11    1    1    2    0    0 -0.21129709572E+02  0.11754303104E+03 -0.68742334226E+02  0.13779817592E+03  0.00000000000E+00 0.  1.
         11    1    1    2    0    0 -0.55812903019E+01 -0.17661459395E+02 -0.95406814988E+01  0.20835127858E+02  0.00000000000E+00 0. -1.
<mgrwt>
<rscale>  0 0.18205630E+03</rscale>
<asrwt>0</asrwt>
<pdfrwt beam="2">  1        2 0.85695065E-01 0.19968429E+03</pdfrwt>
<pdfrwt beam="1">  1       -2 0.96777111E-02 0.19968429E+03</pdfrwt>
<totfact> 0.37931041E+03</totfact>
</mgrwt>
</event>
<event>
 6    1  0.8353100E-006  0.3553831E+03  0.7546771E-02  0.1099051E+00
          2   -1    0    0  501    0  0.00000000000E+00  0.00000000000E+00  0.19693238760E+04  0.19693238760E+04  0.00000000000E+00 0. -1.
         -2   -1    0    0    0  501 -0.00000000000E+00 -0.00000000000E+00 -0.37592774681E+02  0.37592774681E+02  0.00000000000E+00 0.  1.
          5    1    1    2  502    0  0.62960595252E+01 -0.13406774628E+03  0.81522298719E+03  0.82621087490E+03  0.47000000000E+01 0. -1.
         -5    1    1    2    0  502 -0.35845433336E+02  0.21346934958E+03  0.93711478475E+03  0.96180053447E+03  0.47000000000E+01 0.  1.
        -11    1    1    2    0    0  0.57538687088E+02 -0.78648773705E+02  0.13902895981E+03  0.16978039281E+03  0.00000000000E+00 0. -1.
         11    1    1    2    0    0 -0.27989313277E+02 -0.75282959157E+00  0.40364369571E+02  0.49124848509E+02  0.00000000000E+00 0.  1.
<mgrwt>
<rscale>  0 0.27393004E+03</rscale>
<asrwt>0</asrwt>
<pdfrwt beam="1">  1        2 0.30297282E+00 0.35538308E+03</pdfrwt>
<pdfrwt beam="2">  1       -2 0.57835053E-02 0.35538308E+03</pdfrwt>
<totfact> 0.11983682E+03</totfact>
</mgrwt>
</event>
<event>
 6    1  0.8353100E-006  0.1987774E+03  0.7546771E-02  0.1155468E+00
          1   -1    0    0  501    0  0.00000000000E+00  0.00000000000E+00  0.13247204143E+03  0.13247204143E+03  0.00000000000E+00 0. -1.
         -1   -1    0    0    0  501 -0.00000000000E+00 -0.00000000000E+00 -0.29618390110E+03  0.29618390110E+03  0.00000000000E+00 0.  1.
          5    1    1    2  502    0 -0.52244363749E+02 -0.24902791847E+02 -0.44377786510E+02  0.73082833285E+02  0.47000000000E+01 0.  1.
         -5    1    1    2    0  502 -0.89837967121E+02  0.85716578457E+02  0.24618738747E+02  0.12667424543E+03  0.47000000000E+01 0.  1.
        -11    1    1    2    0    0  0.53134531196E+02  0.12159904534E+02 -0.81335140293E+02  0.97910912212E+02  0.00000000000E+00 0.  1.
         11    1    1    2    0    0  0.88947799675E+02 -0.72973691143E+02 -0.62617671616E+02  0.13098795160E+03  0.00000000000E+00 0. -1.
<mgrwt>
<rscale>  0 0.19335715E+03</rscale>
<asrwt>0</asrwt>
<pdfrwt beam="1">  1        1 0.20380314E-01 0.19877744E+03</pdfrwt>
<pdfrwt beam="2">  1       -1 0.45566754E-01 0.19877744E+03</pdfrwt>
<totfact> 0.12077247E+03</totfact>
</mgrwt>
</event>
<event>
 6    1  0.8353100E-006  0.3154093E+03  0.7546771E-02  0.1077782E+00
          2   -1    0    0  501    0  0.00000000000E+00  0.00000000000E+00  0.34231956253E+03  0.34231956253E+03  0.00000000000E+00 0. -1.
         -2   -1    0    0    0  501 -0.00000000000E+00 -0.00000000000E+00 -0.72653617786E+02  0.72653617786E+02  0.00000000000E+00 0.  1.
          5    1    1    2  502    0 -0.66092938513E+02  0.73899458490E+02  0.20600508065E+03  0.22866917094E+03  0.47000000000E+01 0. -1.
         -5    1    1    2    0  502 -0.89584772556E+01  0.37581373338E+01 -0.18383118774E+02  0.21316823563E+02  0.47000000000E+01 0. -1.
        -11    1    1    2    0    0  0.42900690418E+02 -0.43442423364E+02  0.97945665448E+02  0.11541692582E+03  0.00000000000E+00 0. -1.
         11    1    1    2    0    0  0.32150725350E+02 -0.34215172460E+02 -0.15901682573E+02  0.49570259992E+02  0.00000000000E+00 0.  1.
<mgrwt>
<rscale>  0 0.31540929E+03</rscale>
<asrwt>0</asrwt>
<pdfrwt beam="1">  1        2 0.52664547E-01 0.31540929E+03</pdfrwt>
<pdfrwt beam="2">  1       -2 0.11177480E-01 0.31540929E+03</pdfrwt>
<totfact> 0.52512104E+03</totfact>
</mgrwt>
</event>
<event>
 6    1  0.8353100E-006  0.1332580E+03  0.7546771E-02  0.1238414E+00
         -1   -1    0    0    0  501 -0.00000000000E+00  0.00000000000E+00  0.25944345803E+02  0.25944345803E+02  0.00000000000E+00 0.  1.
          1   -1    0    0  501    0  0.00000000000E+00 -0.00000000000E+00 -0.65386442794E+03  0.65386442794E+03  0.00000000000E+00 0. -1.
          5    1    1    2  502    0  0.32137887516E+02 -0.60189338542E+02 -0.19673133123E+03  0.20828083679E+03  0.47000000000E+01 0. -1.
         -5    1    1    2    0  502  0.13974444942E+02  0.57317956877E+02 -0.31532200630E+03  0.32082813304E+03  0.47000000000E+01 0. -1.
        -11    1    1    2    0    0 -0.32600000811E+02 -0.21071886572E+02 -0.83257938964E+01  0.39700167514E+02  0.00000000000E+00 0.  1.
         11    1    1    2    0    0 -0.13512331647E+02  0.23943268237E+02 -0.10754095072E+03  0.11099963640E+03  0.00000000000E+00 0. -1.
<mgrwt>
<rscale>  0 0.12288376E+03</rscale>
<asrwt>0</asrwt>
<pdfrwt beam="2">  1        1 0.10059451E+00 0.13325795E+03</pdfrwt>
<pdfrwt beam="1">  1       -1 0.39914384E-02 0.13325795E+03</pdfrwt>
<totfact> 0.73785051E+03</totfact>
</mgrwt>
</event>
<event>
 6    1  0.8353100E-006  0.1786792E+03  0.7546771E-02  0.1175211E+00
         -4   -1    0    0    0  501 -0.00000000000E+00  0.00000000000E+00  0.47614715153E+02  0.47614715153E+02  0.00000000000E+00 0.  1.
          4   -1    0    0  501    0  0.00000000000E+00 -0.00000000000E+00 -0.60627538478E+03  0.60627538478E+03  0.00000000000E+00 0. -1.
          5    1    1    2  502    0 -0.12603696788E+02 -0.23141125963E+02 -0.24662736515E+03  0.24807561775E+03  0.47000000000E+01 0. -1.
         -5    1    1    2    0  502 -0.63851408169E+01 -0.10313072944E+03 -0.11111663638E+03  0.15180814951E+03  0.47000000000E+01 0. -1.
        -11    1    1    2    0    0  0.17359245012E+02  0.29963248065E+02 -0.12962579087E+03  0.13417147715E+03  0.00000000000E+00 0. -1.
         11    1    1    2    0    0  0.16295925927E+01  0.96308607342E+02 -0.71290877231E+02  0.11983485552E+03  0.00000000000E+00 0.  1.
<mgrwt>
<rscale>  0 0.17255358E+03</rscale>
<asrwt>0</asrwt>
<pdfrwt beam="2">  1        4 0.93273139E-01 0.17867920E+03</pdfrwt>
<pdfrwt beam="1">  1       -4 0.73253406E-02 0.17867920E+03</pdfrwt>
<totfact> 0.22456367E+02</totfact>
</mgrwt>
</event>
<event>
 6    1  0.8353100E-006  0.1407280E+03  0.7546771E-02  0.1224823E+00
         -2   -1    0    0    0  501 -0.00000000000E+00  0.00000000000E+00  0.47110755729E+02  0.47110755729E+02  0.00000000000E+00 0.  1.
          2   -1    0    0  501    0  0.00000000000E+00 -0.00000000000E+00 -0.38167342054E+03  0.38167342054E+03  0.00000000000E+00 0. -1.
          5    1    1    2  502    0  0.56516891918E+02 -0.73503757143E+02 -0.13769482842E+03  0.16606901324E+03  0.47000000000E+01 0. -1.
         -5    1    1    2    0  502 -0.39966614261E+02  0.11002911076E+02 -0.12750196389E+03  0.13415377410E+03  0.47000000000E+01 0. -1.
        -11    1    1    2    0    0  0.55947797779E+01 -0.10626966289E+02  0.11976554969E+02  0.16960891551E+02  0.00000000000E+00 0.  1.
         11    1    1    2    0    0 -0.22145057435E+02  0.73127812356E+02 -0.81342427466E+02  0.11160049738E+03  0.00000000000E+00 0. -1.
<mgrwt>
<rscale>  0 0.13179071E+03</rscale>
<asrwt>0</asrwt>
<pdfrwt beam="2">  1        2 0.58718988E-01 0.14072805E+03</pdfrwt>
<pdfrwt beam="1">  1       -2 0.72478086E-02 0.14072805E+03</pdfrwt>
<totfact> 0.88438932E+03</totfact>
</mgrwt>
</event>
<event>
 6    1  0.8353100E-006  0.2658289E+03  0.7546771E-02  0.1103691E+00
          1   -1    0    0  501    0  0.00000000000E+00  0.00000000000E+00  0.24490914444E+03  0.24490914444E+03  0.00000000000E+00 0. -1.
         -1   -1    0    0    0  501 -0.00000000000E+00 -0.00000000000E+00 -0.72133888172E+02  0.72133888172E+02  0.00000000000E+00 0.  1.
          5    1    1    2  502    0  0.16844359417E+02  0.87175144237E+02  0.15509489789E+03  0.17877291621E+03  0.47000000000E+01 0. -1.
         -5    1    1    2    0  502 -0.21275847581E+01 -0.13618420662E+02 -0.16757952307E+02  0.22201508141E+02  0.47000000000E+01 0. -1.
        -11    1    1    2    0    0  0.31702942724E+02 -0.25451749951E+02 -0.45967146675E+00  0.40658079772E+02  0.00000000000E+00 0.  1.
         11    1    1    2    0    0 -0.46419717383E+02 -0.48104973625E+02  0.34897982150E+02  0.75410528492E+02  0.00000000000E+00 0. -1.
<mgrwt>
<rscale>  0 0.26582888E+03</rscale>
<asrwt>0</asrwt>
<pdfrwt beam="1">  1        1 0.37678330E-01 0.26582888E+03</pdfrwt>
<pdfrwt beam="2">  1       -1 0.11097521E-01 0.26582888E+03</pdfrwt>
<totfact> 0.58196051E+03</totfact>
</mgrwt>
</event>
<event>
 6    1  0.8353100E-006  0.1462562E+03  0.7546771E-02  0.1215026E+00
          2   -1    0    0  501    0  0.00000000000E+00  0.00000000000E+00  0.78976545088E+03  0.78976545088E+03  0.00000000000E+00 0. -1.
         -2   -1    0    0    0  501 -0.00000000000E+00 -0.00000000000E+00 -0.24918634228E+02  0.24918634228E+02  0.00000000000E+00 0.  1.
          5    1    1    2  502    0  0.13675518861E+02 -0.60749231930E+02  0.25539747363E+03  0.26292099294E+03  0.47000000000E+01 0. -1.
         -5    1    1    2    0  502  0.62089798941E+02  0.55612717949E+02  0.29713821775E+03  0.30864401498E+03  0.47000000000E+01 0. -1.
        -11    1    1    2    0    0 -0.29703767985E+02 -0.83641665829E+01  0.61780168614E+01  0.31471272733E+02  0.00000000000E+00 0.  1.
         11    1    1    2    0    0 -0.46061549817E+02  0.13500680564E+02  0.20613310841E+03  0.21164780446E+03  0.00000000000E+00 0. -1.
<mgrwt>
<rscale>  0 0.13874624E+03</rscale>
<asrwt>0</asrwt>
<pdfrwt beam="1">  1        2 0.12150236E+00 0.14625617E+03</pdfrwt>
<pdfrwt beam="2">  1       -2 0.38336366E-02 0.14625617E+03</pdfrwt>
<totfact> 0.10187141E+04</totfact>
</mgrwt>
</event>
<event>
 6    1  0.8353100E-006  0.1297354E+03  0.7546771E-02  0.1240625E+00
         -4   -1    0    0    0  501 -0.00000000000E+00  0.00000000000E+00  0.19077548780E+02  0.19077548780E+02  0.00000000000E+00 0.  1.
          4   -1    0    0  501    0  0.00000000000E+00 -0.00000000000E+00 -0.71681060811E+03  0.71681060811E+03  0.00000000000E+00 0. -1.
          5    1    1    2  502    0  0.22833709645E+02 -0.17700489290E+02 -0.16363860104E+02  0.33534333671E+02  0.47000000000E+01 0. -1.
         -5    1    1    2    0  502 -0.17669740814E+02 -0.16672843566E+02 -0.44600412619E+03  0.44669002007E+03  0.47000000000E+01 0. -1.
        -11    1    1    2    0    0 -0.49273123893E+02  0.14847411914E+02 -0.12816694339E+03  0.13811246054E+03  0.00000000000E+00 0. -1.
         11    1    1    2    0    0  0.44109155062E+02  0.19525920942E+02 -0.10719812965E+03  0.11755134261E+03  0.00000000000E+00 0.  1.
<mgrwt>
<rscale>  0 0.12151108E+03</rscale>
<asrwt>0</asrwt>
<pdfrwt beam="2">  1        4 0.11027855E+00 0.12973540E+03</pdfrwt>
<pdfrwt beam="1">  1       -4 0.29350077E-02 0.12973540E+03</pdfrwt>
<totfact> 0.62448162E+02</totfact>
</mgrwt>
</event>
<event>
 6    1  0.8353100E-006  0.1685962E+03  0.7546771E-02  0.1185071E+00
         -1   -1    0    0    0  501 -0.00000000000E+00  0.00000000000E+00  0.10212329933E+03  0.10212329933E+03  0.00000000000E+00 0.  1.
          1   -1    0    0  501    0  0.00000000000E+00 -0.00000000000E+00 -0.42436935863E+03  0.42436935863E+03  0.00000000000E+00 0. -1.
          5    1    1    2  502    0  0.20141240754E+02 -0.55288362959E+02 -0.38837941120E+02  0.70660797677E+02  0.47000000000E+01 0.  1.
         -5    1    1    2    0  502  0.67024066348E+02 -0.16843820784E+02 -0.29888219780E+03  0.30680384276E+03  0.47000000000E+01 0.  1.
        -11    1    1    2    0    0 -0.65690106375E+00  0.49769801077E+02  0.30566419003E+02  0.58410363712E+02  0.00000000000E+00 0.  1.
         11    1    1    2    0    0 -0.86508406039E+02  0.22362382666E+02 -0.15092339377E+02  0.90617653809E+02  0.00000000000E+00 0. -1.
<mgrwt>
<rscale>  0 0.16325416E+03</rscale>
<asrwt>0</asrwt>
<pdfrwt beam="2">  1        1 0.65287593E-01 0.16859615E+03</pdfrwt>
<pdfrwt beam="1">  1       -1 0.15711277E-01 0.16859615E+03</pdfrwt>
<totfact> 0.16571264E+03</totfact>
</mgrwt>
</event>
<event>
 6    1  0.8353100E-006  0.2500642E+03  0.7546771E-02  0.1113264E+00
         -2   -1    0    0    0  501 -0.00000000000E+00  0.00000000000E+00  0.30350595032E+03  0.30350595032E+03  0.00000000000E+00 0.  1.
          2   -1    0    0  501    0  0.00000000000E+00 -0.00000000000E+00 -0.51508125031E+02  0.51508125031E+02  0.00000000000E+00 0. -1.
          5    1    1    2  502    0 -0.12038791851E+02  0.21577438516E+02 -0.23910237448E+02  0.34703138432E+02  0.47000000000E+01 0. -1.
         -5    1    1    2    0  502 -0.50016475229E+02 -0.17624610443E+01  0.10581873412E+03  0.11715139161E+03  0.47000000000E+01 0.  1.
        -11    1    1    2    0    0  0.41753870892E+02  0.33511317468E+02  0.72718278834E+02  0.90301396498E+02  0.00000000000E+00 0.  1.
         11    1    1    2    0    0  0.20301396188E+02 -0.53326294940E+02  0.97371049777E+02  0.11285814881E+03  0.00000000000E+00 0. -1.
<mgrwt>
<rscale>  0 0.25006417E+03</rscale>
<asrwt>0</asrwt>
<pdfrwt beam="2">  1        2 0.79243271E-02 0.25006417E+03</pdfrwt>
<pdfrwt beam="1">  1       -2 0.46693222E-01 0.25006417E+03</pdfrwt>
<totfact> 0.37550229E+03</totfact>
</mgrwt>
</event>
<event>
 6    1  0.8353100E-006  0.2025819E+03  0.7546771E-02  0.1151528E+00
         -2   -1    0    0    0  501 -0.00000000000E+00  0.00000000000E+00  0.18274680036E+02  0.18274680036E+02  0.00000000000E+00 0.  1.
          2   -1    0    0  501    0  0.00000000000E+00 -0.00000000000E+00 -0.23625718702E+04  0.23625718702E+04  0.00000000000E+00 0. -1.
          5    1    1    2  502    0  0.20882590008E+02 -0.23816806532E+02 -0.12108369469E+03  0.12524645288E+03  0.47000000000E+01 0.  1.
         -5    1    1    2    0  502  0.11091068259E+03  0.11350530959E+03 -0.15316251298E+04  0.15398318944E+04  0.47000000000E+01 0.  1.
        -11    1    1    2    0    0 -0.13970566972E+03 -0.58498398228E+02 -0.54243784555E+03  0.56318607319E+03  0.00000000000E+00 0.  1.
         11    1    1    2    0    0  0.79123971226E+01 -0.31190104835E+02 -0.14915052017E+03  0.15258212980E+03  0.00000000000E+00 0. -1.
<mgrwt>
<rscale>  0 0.19789405E+03</rscale>
<asrwt>0</asrwt>
<pdfrwt beam="2">  1        2 0.36347235E+00 0.20258194E+03</pdfrwt>
<pdfrwt beam="1">  1       -2 0.28114911E-02 0.20258194E+03</pdfrwt>
<totfact> 0.22347139E+03</totfact>
</mgrwt>
</event>
<event>
 6    1  0.8353100E-006  0.2127252E+03  0.7546771E-02  0.1143026E+00
          2   -1    0    0  501    0  0.00000000000E+00  0.00000000000E+00  0.29511380385E+03  0.29511380385E+03  0.00000000000E+00 0. -1.
         -2   -1    0    0    0  501 -0.00000000000E+00 -0.00000000000E+00 -0.14994316502E+03  0.14994316502E+03  0.00000000000E+00 0.  1.
          5    1    1    2  502    0  0.10602627202E+03  0.17456160580E+02  0.27160438810E+02  0.11093271536E+03  0.47000000000E+01 0. -1.
         -5    1    1    2    0  502  0.30659215654E+02  0.87149646990E+02  0.10305488371E+03  0.13848266148E+03  0.47000000000E+01 0. -1.
        -11    1    1    2    0    0 -0.53092015926E+02 -0.42125567372E+02 -0.38960335523E+02  0.78174377680E+02  0.00000000000E+00 0.  1.
         11    1    1    2    0    0 -0.83593471750E+02 -0.62480240198E+02  0.53915651838E+02  0.11746721435E+03  0.00000000000E+00 0. -1.
<mgrwt>
<rscale>  0 0.20816673E+03</rscale>
<asrwt>0</asrwt>
<pdfrwt beam="1">  1        2 0.45402124E-01 0.21272517E+03</pdfrwt>
<pdfrwt beam="2">  1       -2 0.23068179E-01 0.21272517E+03</pdfrwt>
<totfact> 0.18098872E+03</totfact>
</mgrwt>
</event>
<event>
 6    1  0.8353100E-006  0.1580937E+03  0.7546771E-02  0.1193656E+00
          1   -1    0    0  501    0  0.00000000000E+00  0.00000000000E+00  0.10955533390E+04  0.10955533390E+04  0.00000000000E+00 0. -1.
         -1   -1    0    0    0  501 -0.00000000000E+00 -0.00000000000E+00 -0.25392723629E+02  0.25392723629E+02  0.00000000000E+00 0.  1.
          5    1    1    2  502    0  0.36871077789E+02 -0.58506396333E+02  0.56032646472E+03  0.56459747772E+03  0.47000000000E+01 0. -1.
         -5    1    1    2    0  502 -0.48575369769E+02 -0.51842313045E+02  0.20869132248E+03  0.22050249443E+03  0.47000000000E+01 0.  1.
        -11    1    1    2    0    0  0.11866010779E+02 -0.15363574298E+02  0.19973261588E+02  0.27852698352E+02  0.00000000000E+00 0. -1.
         11    1    1    2    0    0 -0.16171879838E+00  0.12571228368E+03  0.28116956660E+03  0.30799339214E+03  0.00000000000E+00 0.  1.
<mgrwt>
<rscale>  0 0.15568567E+03</rscale>
<asrwt>0</asrwt>
<pdfrwt beam="1">  1        1 0.16854663E+00 0.15809367E+03</pdfrwt>
<pdfrwt beam="2">  1       -1 0.39065737E-02 0.15809367E+03</pdfrwt>
<totfact> 0.34219742E+03</totfact>
</mgrwt>
</event>
<event>
 6    1  0.8353100E-006  0.3039720E+03  0.7546771E-02  0.1126392E+00
         -2   -1    0    0    0  501 -0.00000000000E+00  0.00000000000E+00  0.21349658971E+03  0.21349658971E+03  0.00000000000E+00 0.  1.
          2   -1    0    0  501    0  0.00000000000E+00 -0.00000000000E+00 -0.24222169917E+03  0.24222169917E+03  0.00000000000E+00 0. -1.
          5    1    1    2  502    0 -0.73897119107E+02  0.66003561424E+02 -0.16112107911E+03  0.18920715226E+03  0.47000000000E+01 0. -1.
         -5    1    1    2    0  502  0.74946430842E+02 -0.10189190141E+03  0.47660263407E+02  0.13524983466E+03  0.47000000000E+01 0.  1.
        -11    1    1    2    0    0 -0.20948404413E+02 -0.17304251100E+02  0.66136601792E+02  0.71500509440E+02  0.00000000000E+00 0.  1.
         11    1    1    2    0    0  0.19899092677E+02  0.53192591084E+02  0.18599104449E+02  0.59760792514E+02  0.00000000000E+00 0. -1.
<mgrwt>
<rscale>  0 0.23035235E+03</rscale>
<asrwt>0</asrwt>
<pdfrwt beam="2">  1        2 0.37264877E-01 0.30397200E+03</pdfrwt>
<pdfrwt beam="1">  1       -2 0.32845629E-01 0.30397200E+03</pdfrwt>
<totfact> 0.11967463E+03</totfact>
</mgrwt>
</event>
<event>
 6    1  0.8353100E-006  0.1257651E+03  0.7546771E-02  0.1248720E+00
         -1   -1    0    0    0  501 -0.00000000000E+00  0.00000000000E+00  0.36187564897E+02  0.36187564897E+02  0.00000000000E+00 0.  1.
          1   -1    0    0  501    0  0.00000000000E+00 -0.00000000000E+00 -0.33486372099E+03  0.33486372099E+03  0.00000000000E+00 0. -1.
          5    1    1    2  502    0 -0.78540742822E+01  0.22102464810E+02 -0.20234756184E+03  0.20375679428E+03  0.47000000000E+01 0. -1.
         -5    1    1    2    0  502  0.18074781733E+02 -0.12756054502E+02  0.11055866062E+02  0.25174130284E+02  0.47000000000E+01 0. -1.
        -11    1    1    2    0    0 -0.44592498398E+02 -0.20668442134E+02 -0.88666493839E+02  0.10137762348E+03  0.00000000000E+00 0. -1.
         11    1    1    2    0    0  0.34371790946E+02  0.11322031826E+02 -0.18717966476E+02  0.40742737838E+02  0.00000000000E+00 0.  1.
<mgrwt>
<rscale>  0 0.11665470E+03</rscale>
<asrwt>0</asrwt>
<pdfrwt beam="2">  1        1 0.51517498E-01 0.12576508E+03</pdfrwt>
<pdfrwt beam="1">  1       -1 0.55673174E-02 0.12576508E+03</pdfrwt>
<totfact> 0.10715188E+04</totfact>
</mgrwt>
</event>
<event>
 6    1  0.8353100E-006  0.1304876E+03  0.7546771E-02  0.1241512E+00
         -4   -1    0    0    0  501 -0.00000000000E+00  0.00000000000E+00  0.17491132863E+03  0.17491132863E+03  0.00000000000E+00 0.  1.
          4   -1    0    0  501    0  0.00000000000E+00 -0.00000000000E+00 -0.75924869697E+02  0.75924869697E+02  0.00000000000E+00 0. -1.
          5    1    1    2  502    0  0.12201044142E+02 -0.49315927854E+02 -0.29905591765E+02  0.59138486936E+02  0.47000000000E+01 0.  1.
         -5    1    1    2    0  502  0.21505620179E+02  0.33020427911E+02  0.64711847996E+02  0.75911485493E+02  0.47000000000E+01 0.  1.
        -11    1    1    2    0    0  0.14464678225E+02  0.34753465258E+02  0.49431053885E+02  0.62132594922E+02  0.00000000000E+00 0.  1.
         11    1    1    2    0    0 -0.48171342547E+02 -0.18457965315E+02  0.14749148819E+02  0.53653630979E+02  0.00000000000E+00 0. -1.
<mgrwt>
<rscale>  0 0.12096604E+03</rscale>
<asrwt>0</asrwt>
<pdfrwt beam="2">  1        4 0.11680749E-01 0.13048762E+03</pdfrwt>
<pdfrwt beam="1">  1       -4 0.26909435E-01 0.13048762E+03</pdfrwt>
<totfact> 0.12423252E+03</totfact>
</mgrwt>
</event>
<event>
 6    1  0.8353100E-006  0.1784318E+03  0.7546771E-02  0.1174946E+00
         -2   -1    0    0    0  501 -0.00000000000E+00  0.00000000000E+00  0.29453376091E+02  0.29453376091E+02  0.00000000000E+00 0.  1.
          2   -1    0    0  501    0  0.00000000000E+00 -0.00000000000E+00 -0.98433293655E+03  0.98433293655E+03  0.00000000000E+00 0. -1.
          5    1    1    2  502    0 -0.53504314437E+02 -0.33230377561E+02 -0.27770051787E+03  0.28479227041E+03  0.47000000000E+01 0. -1.
         -5    1    1    2    0  502 -0.57505172552E+02  0.95612144342E+02 -0.31666802229E+03  0.33578155601E+03  0.47000000000E+01 0. -1.
        -11    1    1    2    0    0  0.31570632076E+02 -0.28616587773E+02 -0.24679890687E+03  0.25045022327E+03  0.00000000000E+00 0. -1.
         11    1    1    2    0    0  0.79438854913E+02 -0.33765179008E+02 -0.11371211343E+03  0.14276226296E+03  0.00000000000E+00 0.  1.
<mgrwt>
<rscale>  0 0.17281309E+03</rscale>
<asrwt>0</asrwt>
<pdfrwt beam="2">  1        2 0.15143583E+00 0.17843181E+03</pdfrwt>
<pdfrwt beam="1">  1       -2 0.45312889E-02 0.17843181E+03</pdfrwt>
<totfact> 0.60074068E+03</totfact>
</mgrwt>
</event>
<event>
 6    1  0.8353100E-006  0.1887480E+03  0.7546771E-02  0.1164480E+00
         -2   -1    0    0    0  501 -0.00000000000E+00  0.00000000000E+00  0.19054150314E+02  0.19054150314E+02  0.00000000000E+00 0.  1.
          2   -1    0    0  501    0  0.00000000000E+00 -0.00000000000E+00 -0.28828630531E+04  0.28828630531E+04  0.00000000000E+00 0. -1.
          5    1    1    2  502    0  0.56400060598E+02  0.47540388473E+02 -0.59825004778E+03  0.60279869363E+03  0.47000000000E+01 0.  1.
         -5    1    1    2    0  502 -0.39646750952E+02  0.92915312407E+02 -0.18191214804E+04  0.18219303419E+04  0.47000000000E+01 0.  1.
        -11    1    1    2    0    0 -0.22949189498E+01 -0.82994557571E+02 -0.37640403680E+03  0.38545215288E+03  0.00000000000E+00 0. -1.
         11    1    1    2    0    0 -0.14458390695E+02 -0.57461143309E+02 -0.70033337798E+02  0.91736015038E+02  0.00000000000E+00 0.  1.
<mgrwt>
<rscale>  0 0.18347662E+03</rscale>
<asrwt>0</asrwt>
<pdfrwt beam="2">  1        2 0.44351742E+00 0.18874795E+03</pdfrwt>
<pdfrwt beam="1">  1       -2 0.29314076E-02 0.18874795E+03</pdfrwt>
<totfact> 0.10873828E+03</totfact>
</mgrwt>
</event>
<event>
 6    1  0.8353100E-006  0.1286276E+03  0.7546771E-02  0.1245101E+00
          2   -1    0    0  501    0  0.00000000000E+00  0.00000000000E+00  0.25222477588E+03  0.25222477588E+03  0.00000000000E+00 0. -1.
         -2   -1    0    0    0  501 -0.00000000000E+00 -0.00000000000E+00 -0.55996498175E+02  0.55996498175E+02  0.00000000000E+00 0.  1.
          5    1    1    2  502    0  0.22476093344E+02  0.30598566534E+02 -0.29372387213E+01  0.38368794837E+02  0.47000000000E+01 0.  1.
         -5    1    1    2    0  502  0.78183206459E+01 -0.29179627508E+02  0.16869192381E+03  0.17143987855E+03  0.47000000000E+01 0.  1.
        -11    1    1    2    0    0 -0.13433138803E+02 -0.36695757870E+02  0.42276916631E+02  0.57570526692E+02  0.00000000000E+00 0. -1.
         11    1    1    2    0    0 -0.16861275186E+02  0.35276818844E+02 -0.11803324015E+02  0.40842073973E+02  0.00000000000E+00 0.  1.
<mgrwt>
<rscale>  0 0.11879314E+03</rscale>
<asrwt>0</asrwt>
<pdfrwt beam="1">  1        2 0.38803811E-01 0.12862762E+03</pdfrwt>
<pdfrwt beam="2">  1       -2 0.86148460E-02 0.12862762E+03</pdfrwt>
<totfact> 0.10445134E+04</totfact>
</mgrwt>
</event>
<event>
 6    1  0.8353100E-006  0.1383882E+03  0.7546771E-02  0.1226565E+00
          1   -1    0    0  501    0  0.00000000000E+00  0.00000000000E+00  0.46021778386E+03  0.46021778386E+03  0.00000000000E+00 0. -1.
         -1   -1    0    0    0  501 -0.00000000000E+00 -0.00000000000E+00 -0.42981551713E+02  0.42981551713E+02  0.00000000000E+00 0.  1.
          5    1    1    2  502    0 -0.45202938112E+01  0.28193773634E+02  0.41960901188E+01  0.29240709639E+02  0.47000000000E+01 0. -1.
         -5    1    1    2    0  502 -0.22459176939E+02  0.24707418400E+02  0.34098477054E+03  0.34264788762E+03  0.47000000000E+01 0. -1.
        -11    1    1    2    0    0  0.31479039972E+01 -0.38967146277E+02 -0.13540988342E+02  0.41372770681E+02  0.00000000000E+00 0.  1.
         11    1    1    2    0    0  0.23831566753E+02 -0.13934045758E+02  0.85596359836E+02  0.89937967635E+02  0.00000000000E+00 0. -1.
<mgrwt>
<rscale>  0 0.13060210E+03</rscale>
<asrwt>0</asrwt>
<pdfrwt beam="1">  1        1 0.70802733E-01 0.13838823E+03</pdfrwt>
<pdfrwt beam="2">  1       -1 0.66125467E-02 0.13838823E+03</pdfrwt>
<totfact> 0.55924837E+03</totfact>
</mgrwt>
</event>
<event>
 6    1  0.8353100E-006  0.1637676E+03  0.7546771E-02  0.1192952E+00
          4   -1    0    0  501    0  0.00000000000E+00  0.00000000000E+00  0.36720046958E+02  0.36720046958E+02  0.00000000000E+00 0. -1.
         -4   -1    0    0    0  501 -0.00000000000E+00 -0.00000000000E+00 -0.61457444268E+03  0.61457444268E+03  0.00000000000E+00 0.  1.
          5    1    1    2  502    0 -0.33326674400E+02  0.40356189041E+02 -0.42770419524E+02  0.67754616128E+02  0.47000000000E+01 0.  1.
         -5    1    1    2    0  502 -0.72222662721E+02 -0.47847195178E+02 -0.29718342289E+03  0.30958931496E+03  0.47000000000E+01 0.  1.
        -11    1    1    2    0    0  0.22655145429E+02  0.40590232957E+02 -0.86415088362E+02  0.98124360495E+02  0.00000000000E+00 0.  1.
         11    1    1    2    0    0  0.82894191692E+02 -0.33099226820E+02 -0.15148546495E+03  0.17582619806E+03  0.00000000000E+00 0. -1.
<mgrwt>
<rscale>  0 0.15628853E+03</rscale>
<asrwt>0</asrwt>
<pdfrwt beam="1">  1        4 0.56492372E-02 0.16376760E+03</pdfrwt>
<pdfrwt beam="2">  1       -4 0.94549927E-01 0.16376760E+03</pdfrwt>
<totfact> 0.32867382E+02</totfact>
</mgrwt>
</event>
<event>
 6    1  0.8353100E-006  0.1805891E+03  0.7546771E-02  0.1188171E+00
          2   -1    0    0  501    0  0.00000000000E+00  0.00000000000E+00  0.15504361005E+03  0.15504361005E+03  0.00000000000E+00 0. -1.
         -2   -1    0    0    0  501 -0.00000000000E+00 -0.00000000000E+00 -0.21876870231E+03  0.21876870231E+03  0.00000000000E+00 0.  1.
          5    1    1    2  502    0  0.27878527705E+02 -0.72577037508E+02  0.12188841607E+03  0.14464962721E+03  0.47000000000E+01 0. -1.
         -5    1    1    2    0  502  0.87886056805E+01  0.15735691598E+02 -0.47224899967E+02  0.50765468153E+02  0.47000000000E+01 0.  1.
        -11    1    1    2    0    0 -0.25816908744E+02  0.81576252357E+02 -0.10593581673E+03  0.13617486916E+03  0.00000000000E+00 0.  1.
         11    1    1    2    0    0 -0.10850224641E+02 -0.24734906447E+02 -0.32452791633E+02  0.42222347832E+02  0.00000000000E+00 0. -1.
<mgrwt>
<rscale>  0 0.16046619E+03</rscale>
<asrwt>0</asrwt>
<pdfrwt beam="1">  1        2 0.23852863E-01 0.18058909E+03</pdfrwt>
<pdfrwt beam="2">  1       -2 0.33656723E-01 0.18058909E+03</pdfrwt>
<totfact> 0.18463588E+03</totfact>
</mgrwt>
</event>
<event>
 6    1  0.8353100E-006  0.2250084E+03  0.7546771E-02  0.1157403E+00
         -3   -1    0    0    0  501 -0.00000000000E+00  0.00000000000E+00  0.12054472680E+03  0.12054472680E+03  0.00000000000E+00 0.  1.
          3   -1    0    0  501    0  0.00000000000E+00 -0.00000000000E+00 -0.24310383671E+03  0.24310383671E+03  0.00000000000E+00 0. -1.
          5    1    1    2  502    0  0.31172641644E+02  0.64385458888E+02  0.25071690972E+02  0.75946695724E+02  0.47000000000E+01 0. -1.
         -5    1    1    2    0  502  0.10913890427E+02 -0.12533434584E+03 -0.10140622971E+03  0.16165743000E+03  0.47000000000E+01 0.  1.
        -11    1    1    2    0    0 -0.42534007289E+02 -0.35300883962E+01  0.59580004814E+01  0.43094095534E+02  0.00000000000E+00 0.  1.
         11    1    1    2    0    0  0.44747521799E+00  0.64478975346E+02 -0.52182571661E+02  0.82950342259E+02  0.00000000000E+00 0. -1.
<mgrwt>
<rscale>  0 0.19117837E+03</rscale>
<asrwt>0</asrwt>
<pdfrwt beam="2">  1        3 0.37400590E-01 0.22500835E+03</pdfrwt>
<pdfrwt beam="1">  1       -3 0.18545343E-01 0.22500835E+03</pdfrwt>
<totfact> 0.44909465E+02</totfact>
</mgrwt>
</event>
<event>
 6    1  0.8353100E-006  0.4318087E+03  0.7546771E-02  0.1033290E+00
         -2   -1    0    0    0  501 -0.00000000000E+00  0.00000000000E+00  0.46023224797E+02  0.46023224797E+02  0.00000000000E+00 0. -1.
          2   -1    0    0  501    0  0.00000000000E+00 -0.00000000000E+00 -0.10128514834E+04  0.10128514834E+04  0.00000000000E+00 0.  1.
          5    1    1    2  502    0 -0.10090580725E+03  0.23805618571E+02 -0.77180367759E+03  0.77875008581E+03  0.47000000000E+01 0. -1.
         -5    1    1    2    0  502  0.34578165750E+02 -0.45582297999E+01 -0.15155089777E+03  0.15558339121E+03  0.47000000000E+01 0. -1.
        -11    1    1    2    0    0  0.17732047466E+02 -0.25798420984E+02 -0.64106772177E+02  0.71341868994E+02  0.00000000000E+00 0.  1.
         11    1    1    2    0    0  0.48595594030E+02  0.65510322123E+01  0.20633088902E+02  0.53199362212E+02  0.00000000000E+00 0. -1.
<mgrwt>
<rscale>  0 0.43180871E+03</rscale>
<asrwt>0</asrwt>
<pdfrwt beam="2">  1        2 0.15582330E+00 0.43180871E+03</pdfrwt>
<pdfrwt beam="1">  1       -2 0.70804965E-02 0.43180871E+03</pdfrwt>
<totfact> 0.29607658E+03</totfact>
</mgrwt>
</event>
<event>
 6    1  0.9820548E-006  0.1852495E+03  0.7546771E-02  0.1167968E+00
          1   -1    0    0  501    0  0.00000000000E+00  0.00000000000E+00  0.48812007828E+03  0.48812007828E+03  0.00000000000E+00 0. -1.
         -1   -1    0    0    0  501 -0.00000000000E+00 -0.00000000000E+00 -0.64442197169E+02  0.64442197169E+02  0.00000000000E+00 0.  1.
          5    1    1    2  502    0 -0.11331255126E+02 -0.95331203996E+02  0.76063483482E+02  0.12257315904E+03  0.47000000000E+01 0.  1.
         -5    1    1    2    0  502  0.56585127454E+02 -0.33682031949E+02  0.19395389050E+03  0.20488181365E+03  0.47000000000E+01 0.  1.
        -11    1    1    2    0    0 -0.44137283270E+02  0.27781359489E+02  0.94269855992E+02  0.10773443952E+03  0.00000000000E+00 0. -1.
         11    1    1    2    0    0 -0.11165890581E+01  0.10123187646E+03  0.59390651134E+02  0.11737286323E+03  0.00000000000E+00 0.  1.
<mgrwt>
<rscale>  0 0.17983005E+03</rscale>
<asrwt>0</asrwt>
<pdfrwt beam="1">  1        1 0.75095394E-01 0.18524950E+03</pdfrwt>
<pdfrwt beam="2">  1       -1 0.99141845E-02 0.18524950E+03</pdfrwt>
<totfact> 0.28396478E+03</totfact>
</mgrwt>
</event>
<event>
 6    1  0.8353100E-006  0.2382876E+03  0.7546771E-02  0.1120939E+00
         -1   -1    0    0    0  501 -0.00000000000E+00  0.00000000000E+00  0.31368623012E+03  0.31368623012E+03  0.00000000000E+00 0.  1.
          1   -1    0    0  501    0  0.00000000000E+00 -0.00000000000E+00 -0.45253022642E+02  0.45253022642E+02  0.00000000000E+00 0. -1.
          5    1    1    2  502    0  0.35155676379E+02 -0.24513493900E+02  0.18498163965E+01  0.43154892951E+02  0.47000000000E+01 0.  1.
         -5    1    1    2    0  502  0.11428573456E+01  0.58013969948E+01  0.18588659181E+03  0.18603998856E+03  0.47000000000E+01 0.  1.
        -11    1    1    2    0    0 -0.35594041000E+02  0.53603627665E+02  0.65053803947E+02  0.91500175200E+02  0.00000000000E+00 0.  1.
         11    1    1    2    0    0 -0.70449272512E+00 -0.34891530760E+02  0.15642995328E+02  0.38244196051E+02  0.00000000000E+00 0. -1.
<mgrwt>
<rscale>  0 0.23828764E+03</rscale>
<asrwt>0</asrwt>
<pdfrwt beam="2">  1        1 0.69620037E-02 0.23828764E+03</pdfrwt>
<pdfrwt beam="1">  1       -1 0.48259419E-01 0.23828764E+03</pdfrwt>
<totfact> 0.45626085E+03</totfact>
</mgrwt>
</event>
<event>
 6    1  0.8353100E-006  0.1629682E+03  0.7546771E-02  0.1192778E+00
         -2   -1    0    0    0  501 -0.00000000000E+00  0.00000000000E+00  0.18733132647E+02  0.18733132647E+02  0.00000000000E+00 0.  1.
          2   -1    0    0  501    0  0.00000000000E+00 -0.00000000000E+00 -0.12975149594E+04  0.12975149594E+04  0.00000000000E+00 0. -1.
          5    1    1    2  502    0 -0.11970283492E+02  0.32065361766E+02 -0.12680188415E+03  0.13142405767E+03  0.47000000000E+01 0.  1.
         -5    1    1    2    0  502  0.11482340967E+03 -0.50873175626E+02 -0.72987485164E+03  0.74061588186E+03  0.47000000000E+01 0.  1.
        -11    1    1    2    0    0 -0.20958941057E+02  0.34064966941E+02 -0.56444097741E+02  0.69178286714E+02  0.00000000000E+00 0.  1.
         11    1    1    2    0    0 -0.81894185116E+02 -0.15257153081E+02 -0.36566099321E+03  0.37502986579E+03  0.00000000000E+00 0. -1.
<mgrwt>
<rscale>  0 0.15643828E+03</rscale>
<asrwt>0</asrwt>
<pdfrwt beam="2">  1        2 0.19961777E+00 0.16296818E+03</pdfrwt>
<pdfrwt beam="1">  1       -2 0.28820191E-02 0.16296818E+03</pdfrwt>
<totfact> 0.77745888E+03</totfact>
</mgrwt>
</event>
<event>
 6    1  0.8353100E-006  0.1417548E+03  0.7546771E-02  0.1244624E+00
          2   -1    0    0  501    0  0.00000000000E+00  0.00000000000E+00  0.30930393287E+03  0.30930393287E+03  0.00000000000E+00 0. -1.
         -2   -1    0    0    0  501 -0.00000000000E+00 -0.00000000000E+00 -0.41452784339E+02  0.41452784339E+02  0.00000000000E+00 0.  1.
          5    1    1    2  502    0 -0.39849714008E+02 -0.67119243973E+01  0.37654572326E+02  0.55434704407E+02  0.47000000000E+01 0. -1.
         -5    1    1    2    0  502  0.66776182086E+02  0.67906120009E+02  0.19360746487E+03  0.21581529158E+03  0.47000000000E+01 0. -1.
        -11    1    1    2    0    0 -0.26536763607E+02 -0.35272367295E+02  0.18316307858E+02  0.47789401031E+02  0.00000000000E+00 0. -1.
         11    1    1    2    0    0 -0.38970447132E+00 -0.25921828317E+02  0.18272803477E+02  0.31717320185E+02  0.00000000000E+00 0.  1.
<mgrwt>
<rscale>  0 0.11907893E+03</rscale>
<asrwt>0</asrwt>
<pdfrwt beam="1">  1        2 0.47585219E-01 0.14175483E+03</pdfrwt>
<pdfrwt beam="2">  1       -2 0.63773517E-02 0.14175483E+03</pdfrwt>
<totfact> 0.13457186E+04</totfact>
</mgrwt>
</event>
<event>
 6    1  0.8353100E-006  0.4116855E+03  0.7546771E-02  0.1040557E+00
         -2   -1    0    0    0  501 -0.00000000000E+00  0.00000000000E+00  0.37730405160E+02  0.37730405160E+02  0.00000000000E+00 0.  1.
          2   -1    0    0  501    0  0.00000000000E+00 -0.00000000000E+00 -0.43997741438E+04  0.43997741438E+04  0.00000000000E+00 0. -1.
          5    1    1    2  502    0  0.11131005387E+03  0.25735817123E+03 -0.15702434674E+04  0.15950892744E+04  0.47000000000E+01 0. -1.
         -5    1    1    2    0  502 -0.27204422837E+02  0.12576936497E+03 -0.56607219048E+03  0.58053236656E+03  0.47000000000E+01 0. -1.
        -11    1    1    2    0    0 -0.11495112840E+02 -0.24078073281E+03 -0.14451361464E+04  0.14651027201E+04  0.00000000000E+00 0. -1.
         11    1    1    2    0    0 -0.72610518193E+02 -0.14234680339E+03 -0.78059193438E+03  0.79678018788E+03  0.00000000000E+00 0.  1.
<mgrwt>
<rscale>  0 0.40944620E+03</rscale>
<asrwt>0</asrwt>
<pdfrwt beam="2">  1        2 0.67688834E+00 0.41168548E+03</pdfrwt>
<pdfrwt beam="1">  1       -2 0.58046777E-02 0.41168548E+03</pdfrwt>
<totfact> 0.30747764E+01</totfact>
</mgrwt>
</event>
<event>
 6    1  0.8353100E-006  0.1293573E+03  0.7546771E-02  0.1243082E+00
         -1   -1    0    0    0  501 -0.00000000000E+00  0.00000000000E+00  0.17361191253E+03  0.17361191253E+03  0.00000000000E+00 0.  1.
          1   -1    0    0  501    0  0.00000000000E+00 -0.00000000000E+00 -0.73094345747E+02  0.73094345747E+02  0.00000000000E+00 0. -1.
          5    1    1    2  502    0 -0.30512315649E+02  0.26692088955E+02  0.62191085112E+02  0.74386087990E+02  0.47000000000E+01 0.  1.
         -5    1    1    2    0  502  0.35510937174E+02 -0.58865743677E+02 -0.54329889449E+00  0.68909996455E+02  0.47000000000E+01 0.  1.
        -11    1    1    2    0    0  0.10698731954E+02 -0.26984886413E+02 -0.31052261540E+01  0.29193995780E+02  0.00000000000E+00 0. -1.
         11    1    1    2    0    0 -0.15697353479E+02  0.59158541135E+02  0.41975006715E+02  0.74216178049E+02  0.00000000000E+00 0.  1.
<mgrwt>
<rscale>  0 0.12000938E+03</rscale>
<asrwt>0</asrwt>
<pdfrwt beam="2">  1        1 0.11245284E-01 0.12935733E+03</pdfrwt>
<pdfrwt beam="1">  1       -1 0.26709525E-01 0.12935733E+03</pdfrwt>
<totfact> 0.64462732E+03</totfact>
</mgrwt>
</event>
<event>
 6    1  0.8353100E-006  0.1332041E+03  0.7546771E-02  0.1243491E+00
          2   -1    0    0  501    0  0.00000000000E+00  0.00000000000E+00  0.33855652898E+03  0.33855652898E+03  0.00000000000E+00 0. -1.
         -2   -1    0    0    0  501 -0.00000000000E+00 -0.00000000000E+00 -0.36875983979E+02  0.36875983979E+02  0.00000000000E+00 0.  1.
          5    1    1    2  502    0  0.12261696508E+02  0.55115498321E+02  0.69583684314E+02  0.89733196082E+02  0.47000000000E+01 0. -1.
         -5    1    1    2    0  502  0.32277785241E+02 -0.66715784210E+02  0.14305755157E+03  0.16118437996E+03  0.47000000000E+01 0. -1.
        -11    1    1    2    0    0 -0.28550155020E+02  0.12850409810E+02 -0.26618863872E+01  0.31421808081E+02  0.00000000000E+00 0.  1.
         11    1    1    2    0    0 -0.15989326728E+02 -0.12501239209E+01  0.91701195508E+02  0.93093128837E+02  0.00000000000E+00 0. -1.
<mgrwt>
<rscale>  0 0.11976171E+03</rscale>
<asrwt>0</asrwt>
<pdfrwt beam="1">  1        2 0.52085618E-01 0.13320411E+03</pdfrwt>
<pdfrwt beam="2">  1       -2 0.56732285E-02 0.13320411E+03</pdfrwt>
<totfact> 0.14528542E+04</totfact>
</mgrwt>
</event>
<event>
 6    1  0.8353100E-006  0.1937267E+03  0.7546771E-02  0.1160116E+00
         -2   -1    0    0    0  501 -0.00000000000E+00  0.00000000000E+00  0.26535574826E+02  0.26535574826E+02  0.00000000000E+00 0.  1.
          2   -1    0    0  501    0  0.00000000000E+00 -0.00000000000E+00 -0.13378409843E+04  0.13378409843E+04  0.00000000000E+00 0. -1.
          5    1    1    2  502    0  0.10856352226E+03  0.10018646234E+03 -0.61143811879E+03  0.62904851062E+03  0.47000000000E+01 0.  1.
         -5    1    1    2    0  502 -0.34622568740E+02  0.28022995724E+02 -0.24089144238E+03  0.24501997381E+03  0.47000000000E+01 0.  1.
        -11    1    1    2    0    0 -0.74884410047E+02 -0.76817338654E+02 -0.20704462338E+03  0.23318673731E+03  0.00000000000E+00 0.  1.
         11    1    1    2    0    0  0.94345652547E+00 -0.51392119409E+02 -0.25193122488E+03  0.25712133734E+03  0.00000000000E+00 0. -1.
<mgrwt>
<rscale>  0 0.18817656E+03</rscale>
<asrwt>0</asrwt>
<pdfrwt beam="2">  1        2 0.20582168E+00 0.19372670E+03</pdfrwt>
<pdfrwt beam="1">  1       -2 0.40823962E-02 0.19372670E+03</pdfrwt>
<totfact> 0.44262421E+03</totfact>
</mgrwt>
</event>
<event>
 6    1  0.8353100E-006  0.3253808E+03  0.7546771E-02  0.1074383E+00
         -2   -1    0    0    0  501 -0.00000000000E+00  0.00000000000E+00  0.12444972303E+03  0.12444972303E+03  0.00000000000E+00 0.  1.
          2   -1    0    0  501    0  0.00000000000E+00 -0.00000000000E+00 -0.82500181596E+03  0.82500181596E+03  0.00000000000E+00 0. -1.
          5    1    1    2  502    0  0.78270059064E+02  0.21615812137E+03 -0.20790684792E+03  0.30999658545E+03  0.47000000000E+01 0.  1.
         -5    1    1    2    0  502 -0.24905523097E+02  0.79474554918E+02 -0.16515567512E+03  0.18502696286E+03  0.47000000000E+01 0.  1.
        -11    1    1    2    0    0 -0.61167604851E+01 -0.19771235370E+03 -0.25912995883E+03  0.32599988517E+03  0.00000000000E+00 0. -1.
         11    1    1    2    0    0 -0.47247775482E+02 -0.97920322585E+02 -0.68359611059E+02  0.12842810552E+03  0.00000000000E+00 0.  1.
<mgrwt>
<rscale>  0 0.32276631E+03</rscale>
<asrwt>0</asrwt>
<pdfrwt beam="2">  1        2 0.12692335E+00 0.32538080E+03</pdfrwt>
<pdfrwt beam="1">  1       -2 0.19146112E-01 0.32538080E+03</pdfrwt>
<totfact> 0.77341471E+02</totfact>
</mgrwt>
</event>
<event>
 6    1  0.8353100E-006  0.2224873E+03  0.7546771E-02  0.1135382E+00
          2   -1    0    0  501    0  0.00000000000E+00  0.00000000000E+00  0.98310814277E+03  0.98310814277E+03  0.00000000000E+00 0. -1.
         -2   -1    0    0    0  501 -0.00000000000E+00 -0.00000000000E+00 -0.53196249993E+02  0.53196249993E+02  0.00000000000E+00 0.  1.
          5    1    1    2  502    0  0.92119767131E+02 -0.10144641326E+02  0.14701813978E+03  0.17385450431E+03  0.47000000000E+01 0.  1.
         -5    1    1    2    0  502  0.77333340635E+02 -0.61690626976E+02  0.51834639519E+03  0.52772270600E+03  0.47000000000E+01 0.  1.
        -11    1    1    2    0    0 -0.18552780240E+02 -0.20247535222E+02  0.46725883274E+02  0.54198491722E+02  0.00000000000E+00 0.  1.
         11    1    1    2    0    0 -0.15090032753E+03  0.92082803523E+02  0.21782147454E+03  0.28052869073E+03  0.00000000000E+00 0. -1.
<mgrwt>
<rscale>  0 0.21800113E+03</rscale>
<asrwt>0</asrwt>
<pdfrwt beam="1">  1        2 0.15124739E+00 0.22248734E+03</pdfrwt>
<pdfrwt beam="2">  1       -2 0.81840392E-02 0.22248734E+03</pdfrwt>
<totfact> 0.24450712E+03</totfact>
</mgrwt>
</event>
<event>
 6    1  0.8353100E-006  0.1220517E+03  0.7546771E-02  0.1247764E+00
          4   -1    0    0  501    0  0.00000000000E+00  0.00000000000E+00  0.50715602495E+03  0.50715602495E+03  0.00000000000E+00 0. -1.
         -4   -1    0    0    0  501 -0.00000000000E+00 -0.00000000000E+00 -0.34797184382E+02  0.34797184382E+02  0.00000000000E+00 0.  1.
          5    1    1    2  502    0 -0.21079316262E+02 -0.18108683020E+02  0.37788362341E+03  0.37893321947E+03  0.47000000000E+01 0. -1.
         -5    1    1    2    0  502  0.92210562345E+01 -0.26524189116E+02  0.14414602308E+02  0.31912869599E+02  0.47000000000E+01 0.  1.
        -11    1    1    2    0    0  0.33596142677E+02  0.56056899902E+02  0.23507960340E+02  0.69452869118E+02  0.00000000000E+00 0.  1.
         11    1    1    2    0    0 -0.21737882649E+02 -0.11424027766E+02  0.56552654503E+02  0.61654251141E+02  0.00000000000E+00 0. -1.
<mgrwt>
<rscale>  0 0.11721468E+03</rscale>
<asrwt>0</asrwt>
<pdfrwt beam="1">  1        4 0.78023999E-01 0.12205167E+03</pdfrwt>
<pdfrwt beam="2">  1       -4 0.53534133E-02 0.12205167E+03</pdfrwt>
<totfact> 0.52206849E+02</totfact>
</mgrwt>
</event>
<event>
 6    1  0.8353100E-006  0.3092649E+03  0.7546771E-02  0.1080699E+00
         -2   -1    0    0    0  501 -0.00000000000E+00  0.00000000000E+00  0.28541879040E+03  0.28541879040E+03  0.00000000000E+00 0.  1.
          2   -1    0    0  501    0  0.00000000000E+00 -0.00000000000E+00 -0.83775821272E+02  0.83775821272E+02  0.00000000000E+00 0. -1.
          5    1    1    2  502    0  0.10923761783E+02 -0.31911179075E+01  0.67467786879E+02  0.68582097309E+02  0.47000000000E+01 0.  1.
         -5    1    1    2    0  502 -0.54883304077E+02 -0.91864190257E+02 -0.20185822201E+01  0.10713249363E+03  0.47000000000E+01 0.  1.
        -11    1    1    2    0    0 -0.12661585494E+01  0.76638938975E+02  0.11931429362E+03  0.14181336604E+03  0.00000000000E+00 0.  1.
         11    1    1    2    0    0  0.45225700843E+02  0.18416369190E+02  0.16879470848E+02  0.51666654691E+02  0.00000000000E+00 0. -1.
<mgrwt>
<rscale>  0 0.30926489E+03</rscale>
<asrwt>0</asrwt>
<pdfrwt beam="2">  1        2 0.12888588E-01 0.30926489E+03</pdfrwt>
<pdfrwt beam="1">  1       -2 0.43910583E-01 0.30926489E+03</pdfrwt>
<totfact> 0.23296986E+03</totfact>
</mgrwt>
</event>
<event>
 6    1  0.8353100E-006  0.1296448E+03  0.7546771E-02  0.1243253E+00
         -1   -1    0    0    0  501 -0.00000000000E+00  0.00000000000E+00  0.10677731050E+03  0.10677731050E+03  0.00000000000E+00 0.  1.
          1   -1    0    0  501    0  0.00000000000E+00 -0.00000000000E+00 -0.12029791648E+03  0.12029791648E+03  0.00000000000E+00 0. -1.
          5    1    1    2  502    0  0.45270244101E+02  0.12958205079E+02 -0.21286331819E+02  0.51889382364E+02  0.47000000000E+01 0. -1.
         -5    1    1    2    0  502 -0.71356380564E+02 -0.35417951662E+02 -0.19757921592E+01  0.79825798473E+02  0.47000000000E+01 0. -1.
        -11    1    1    2    0    0  0.15133432255E+02 -0.18895380239E+02  0.37302756327E+02  0.44469672765E+02  0.00000000000E+00 0.  1.
         11    1    1    2    0    0  0.10952704208E+02  0.41355126822E+02 -0.27561238329E+02  0.50890373374E+02  0.00000000000E+00 0. -1.
<mgrwt>
<rscale>  0 0.11990529E+03</rscale>
<asrwt>0</asrwt>
<pdfrwt beam="2">  1        1 0.18507372E-01 0.12964475E+03</pdfrwt>
<pdfrwt beam="1">  1       -1 0.16427279E-01 0.12964475E+03</pdfrwt>
<totfact> 0.74016912E+03</totfact>
</mgrwt>
</event>
<event>
 6    1  0.8353100E-006  0.1609370E+03  0.7546771E-02  0.1195026E+00
          1   -1    0    0  501    0  0.00000000000E+00  0.00000000000E+00  0.43617223801E+03  0.43617223801E+03  0.00000000000E+00 0. -1.
         -1   -1    0    0    0  501 -0.00000000000E+00 -0.00000000000E+00 -0.11942619817E+03  0.11942619817E+03  0.00000000000E+00 0.  1.
          5    1    1    2  502    0 -0.31074286277E+02 -0.84526409640E+02  0.26959639491E+03  0.28427914335E+03  0.47000000000E+01 0.  1.
         -5    1    1    2    0  502 -0.55904904605E+02  0.32460152243E+02  0.10453899712E+03  0.12300208032E+03  0.47000000000E+01 0.  1.
        -11    1    1    2    0    0  0.43182726151E+02 -0.22328721468E+02 -0.32480522849E+02  0.58466263817E+02  0.00000000000E+00 0. -1.
         11    1    1    2    0    0  0.43796464731E+02  0.74394978865E+02 -0.24908829338E+02  0.89850948700E+02  0.00000000000E+00 0.  1.
<mgrwt>
<rscale>  0 0.15452010E+03</rscale>
<asrwt>0</asrwt>
<pdfrwt beam="1">  1        1 0.67103420E-01 0.16093696E+03</pdfrwt>
<pdfrwt beam="2">  1       -1 0.18373261E-01 0.16093696E+03</pdfrwt>
<totfact> 0.12463470E+03</totfact>
</mgrwt>
</event>
<event>
 6    1  0.8353100E-006  0.1202231E+03  0.7546771E-02  0.1255266E+00
         -2   -1    0    0    0  501 -0.00000000000E+00  0.00000000000E+00  0.23246189596E+02  0.23246189596E+02  0.00000000000E+00 0.  1.
          2   -1    0    0  501    0  0.00000000000E+00 -0.00000000000E+00 -0.11101998757E+04  0.11101998757E+04  0.00000000000E+00 0. -1.
          5    1    1    2  502    0  0.11587239934E+02  0.11041403897E+02 -0.84421632291E+03  0.84438111454E+03  0.47000000000E+01 0. -1.
         -5    1    1    2    0  502 -0.12118111230E+01 -0.46481902010E+02 -0.15090395787E+03  0.15797509361E+03  0.47000000000E+01 0.  1.
        -11    1    1    2    0    0 -0.15651814795E+02  0.60125609248E+02 -0.41304387190E+02  0.74606438026E+02  0.00000000000E+00 0.  1.
         11    1    1    2    0    0  0.52763859845E+01 -0.24685111136E+02 -0.50529018083E+02  0.56483419065E+02  0.00000000000E+00 0. -1.
<mgrwt>
<rscale>  0 0.11291438E+03</rscale>
<asrwt>0</asrwt>
<pdfrwt beam="2">  1        2 0.17079997E+00 0.12022310E+03</pdfrwt>
<pdfrwt beam="1">  1       -2 0.35763372E-02 0.12022310E+03</pdfrwt>
<totfact> 0.70918208E+03</totfact>
</mgrwt>
</event>
<event>
 6    1  0.8353100E-006  0.1262708E+03  0.7546771E-02  0.1248341E+00
         -1   -1    0    0    0  501 -0.00000000000E+00  0.00000000000E+00  0.33800778706E+02  0.33800778706E+02  0.00000000000E+00 0.  1.
          1   -1    0    0  501    0  0.00000000000E+00 -0.00000000000E+00 -0.37838599601E+03  0.37838599601E+03  0.00000000000E+00 0. -1.
          5    1    1    2  502    0 -0.53495660288E+02  0.39309253082E+02 -0.14250359496E+03  0.15727799472E+03  0.47000000000E+01 0. -1.
         -5    1    1    2    0  502  0.36966268003E+02 -0.46129650059E+02 -0.10567348172E+03  0.12117518031E+03  0.47000000000E+01 0. -1.
        -11    1    1    2    0    0 -0.30208153872E+02  0.75988725817E+01 -0.77107755476E+02  0.83161778356E+02  0.00000000000E+00 0. -1.
         11    1    1    2    0    0  0.46737546157E+02 -0.77847560468E+00 -0.19300385142E+02  0.50571821320E+02  0.00000000000E+00 0.  1.
<mgrwt>
<rscale>  0 0.11687650E+03</rscale>
<asrwt>0</asrwt>
<pdfrwt beam="2">  1        1 0.58213226E-01 0.12627078E+03</pdfrwt>
<pdfrwt beam="1">  1       -1 0.52001201E-02 0.12627078E+03</pdfrwt>
<totfact> 0.10183398E+04</totfact>
</mgrwt>
</event>
<event>
 6    1  0.8353100E-006  0.1322428E+03  0.7546771E-02  0.1237432E+00
          1   -1    0    0  501    0  0.00000000000E+00  0.00000000000E+00  0.36997371404E+02  0.36997371404E+02  0.00000000000E+00 0. -1.
         -1   -1    0    0    0  501 -0.00000000000E+00 -0.00000000000E+00 -0.37862472903E+03  0.37862472903E+03  0.00000000000E+00 0.  1.
          5    1    1    2  502    0  0.32590587982E+02 -0.16513344050E+02 -0.13585466578E+03  0.14076014056E+03  0.47000000000E+01 0.  1.
         -5    1    1    2    0  502 -0.19061907495E+02  0.57281159425E+02 -0.20293259097E+02  0.63862304274E+02  0.47000000000E+01 0.  1.
        -11    1    1    2    0    0 -0.50284746234E+02 -0.16129411951E+02 -0.72745556142E+02  0.89892322097E+02  0.00000000000E+00 0.  1.
         11    1    1    2    0    0  0.36756065747E+02 -0.24638403424E+02 -0.11273387661E+03  0.12110733350E+03  0.00000000000E+00 0. -1.
<mgrwt>
<rscale>  0 0.12350008E+03</rscale>
<asrwt>0</asrwt>
<pdfrwt beam="1">  1        1 0.56919032E-02 0.13224285E+03</pdfrwt>
<pdfrwt beam="2">  1       -1 0.58249960E-01 0.13224285E+03</pdfrwt>
<totfact> 0.40912552E+03</totfact>
</mgrwt>
</event>
<event>
 6    1  0.8353100E-006  0.2093597E+03  0.7546771E-02  0.1146038E+00
         -1   -1    0    0    0  501 -0.00000000000E+00  0.00000000000E+00  0.12672979939E+03  0.12672979939E+03  0.00000000000E+00 0.  1.
          1   -1    0    0  501    0  0.00000000000E+00 -0.00000000000E+00 -0.34295393608E+03  0.34295393608E+03  0.00000000000E+00 0. -1.
          5    1    1    2  502    0 -0.53959488331E+02  0.73546880565E+02 -0.60281173461E+02  0.10943801851E+03  0.47000000000E+01 0.  1.
         -5    1    1    2    0  502  0.68060934966E+02  0.93810895993E+02 -0.11921587962E+03  0.16633487616E+03  0.47000000000E+01 0.  1.
        -11    1    1    2    0    0 -0.15697187211E+02 -0.50748105882E+02 -0.54313265262E+02  0.75971723163E+02  0.00000000000E+00 0.  1.
         11    1    1    2    0    0  0.15957405768E+01 -0.11660967068E+03  0.17586181651E+02  0.11793911763E+03  0.00000000000E+00 0. -1.
<mgrwt>
<rscale>  0 0.20445002E+03</rscale>
<asrwt>0</asrwt>
<pdfrwt beam="2">  1        1 0.52762144E-01 0.20935973E+03</pdfrwt>
<pdfrwt beam="1">  1       -1 0.19496892E-01 0.20935973E+03</pdfrwt>
<totfact> 0.15445162E+03</totfact>
</mgrwt>
</event>
<event>
 6    1  0.8353100E-006  0.1523313E+03  0.7546771E-02  0.1202293E+00
          1   -1    0    0  501    0  0.00000000000E+00  0.00000000000E+00  0.39703627672E+03  0.39703627672E+03  0.00000000000E+00 0. -1.
         -1   -1    0    0    0  501 -0.00000000000E+00 -0.00000000000E+00 -0.61040371990E+02  0.61040371990E+02  0.00000000000E+00 0.  1.
          5    1    1    2  502    0  0.35435482812E+02 -0.41478735447E+01  0.33733632695E+02  0.49324702450E+02  0.47000000000E+01 0.  1.
         -5    1    1    2    0  502 -0.75278368169E+02  0.81547771752E+02  0.22487180347E+03  0.25081126328E+03  0.47000000000E+01 0.  1.
        -11    1    1    2    0    0  0.23201262723E+02 -0.58781056084E+01 -0.23243536641E+02  0.33363343853E+02  0.00000000000E+00 0.  1.
         11    1    1    2    0    0  0.16641622634E+02 -0.71521792599E+02  0.10063400521E+03  0.12457733913E+03  0.00000000000E+00 0. -1.
<mgrwt>
<rscale>  0 0.14852862E+03</rscale>
<asrwt>0</asrwt>
<pdfrwt beam="1">  1        1 0.61082502E-01 0.15233130E+03</pdfrwt>
<pdfrwt beam="2">  1       -1 0.93908267E-02 0.15233130E+03</pdfrwt>
<totfact> 0.39937889E+03</totfact>
</mgrwt>
</event>
<event>
 6    1  0.8353100E-006  0.1262329E+03  0.7546771E-02  0.1247958E+00
          2   -1    0    0  501    0  0.00000000000E+00  0.00000000000E+00  0.89026174766E+03  0.89026174766E+03  0.00000000000E+00 0. -1.
         -2   -1    0    0    0  501 -0.00000000000E+00 -0.00000000000E+00 -0.13585580109E+02  0.13585580109E+02  0.00000000000E+00 0.  1.
          5    1    1    2  502    0 -0.34408726566E+02  0.62539257181E+02  0.26675561607E+03  0.27618067973E+03  0.47000000000E+01 0.  1.
         -5    1    1    2    0  502  0.29775352085E+02 -0.45583587295E+02  0.21599644327E+03  0.22280257747E+03  0.47000000000E+01 0.  1.
        -11    1    1    2    0    0  0.24794701204E+02  0.29937652250E+02  0.11739343581E+03  0.12366187368E+03  0.00000000000E+00 0.  1.
         11    1    1    2    0    0 -0.20161326723E+02 -0.46893322137E+02  0.27653067240E+03  0.28120219688E+03  0.00000000000E+00 0. -1.
<mgrwt>
<rscale>  0 0.11710092E+03</rscale>
<asrwt>0</asrwt>
<pdfrwt beam="1">  1        2 0.13696330E+00 0.12623288E+03</pdfrwt>
<pdfrwt beam="2">  1       -2 0.20900899E-02 0.12623288E+03</pdfrwt>
<totfact> 0.21098866E+04</totfact>
</mgrwt>
</event>
<event>
 6    1  0.8353100E-006  0.1365333E+03  0.7546771E-02  0.1229801E+00
          2   -1    0    0  501    0  0.00000000000E+00  0.00000000000E+00  0.86355935527E+02  0.86355935527E+02  0.00000000000E+00 0. -1.
         -2   -1    0    0    0  501 -0.00000000000E+00 -0.00000000000E+00 -0.17157121786E+03  0.17157121786E+03  0.00000000000E+00 0.  1.
          5    1    1    2  502    0 -0.68260080809E+02  0.10692287656E+02  0.10835477324E+02  0.70094658970E+02  0.47000000000E+01 0. -1.
         -5    1    1    2    0  502  0.32512402951E+02  0.31004041025E+02 -0.59822310324E+02  0.74960694487E+02  0.47000000000E+01 0. -1.
        -11    1    1    2    0    0  0.17873984879E+02  0.94212443598E+01 -0.52560476761E+02  0.56310237950E+02  0.00000000000E+00 0.  1.
         11    1    1    2    0    0  0.17873692979E+02 -0.51117573040E+02  0.16332027423E+02  0.56561561983E+02  0.00000000000E+00 0. -1.
<mgrwt>
<rscale>  0 0.12843195E+03</rscale>
<asrwt>0</asrwt>
<pdfrwt beam="1">  1        2 0.13285529E-01 0.13653331E+03</pdfrwt>
<pdfrwt beam="2">  1       -2 0.26395572E-01 0.13653331E+03</pdfrwt>
<totfact> 0.55327003E+03</totfact>
</mgrwt>
</event>
<event>
 6    1  0.8353100E-006  0.1258389E+03  0.7546771E-02  0.1248165E+00
         -2   -1    0    0    0  501 -0.00000000000E+00  0.00000000000E+00  0.22355997078E+03  0.22355997078E+03  0.00000000000E+00 0. -1.
          2   -1    0    0  501    0  0.00000000000E+00 -0.00000000000E+00 -0.57230099467E+02  0.57230099467E+02  0.00000000000E+00 0.  1.
          5    1    1    2  502    0 -0.15153087494E+02 -0.59288874208E+02  0.21916366667E+02  0.65170574597E+02  0.47000000000E+01 0. -1.
         -5    1    1    2    0  502  0.29318379354E+02  0.56195476626E+02  0.39765391104E+02  0.74972496896E+02  0.47000000000E+01 0. -1.
        -11    1    1    2    0    0  0.19405600297E+02 -0.36344101221E+02  0.56545581725E+02  0.69963374912E+02  0.00000000000E+00 0. -1.
         11    1    1    2    0    0 -0.33570892158E+02  0.39437498803E+02  0.48102531815E+02  0.70683623839E+02  0.00000000000E+00 0.  1.
<mgrwt>
<rscale>  0 0.11697918E+03</rscale>
<asrwt>0</asrwt>
<pdfrwt beam="2">  1        2 0.88046308E-02 0.12583895E+03</pdfrwt>
<pdfrwt beam="1">  1       -2 0.34393841E-01 0.12583895E+03</pdfrwt>
<totfact> 0.56318021E+03</totfact>
</mgrwt>
</event>
<event>
 6    1  0.8353100E-006  0.3478658E+03  0.7546771E-02  0.1098940E+00
          2   -1    0    0  501    0  0.00000000000E+00  0.00000000000E+00  0.50117092520E+03  0.50117092520E+03  0.00000000000E+00 0. -1.
         -2   -1    0    0    0  501 -0.00000000000E+00 -0.00000000000E+00 -0.11589760551E+03  0.11589760551E+03  0.00000000000E+00 0.  1.
          5    1    1    2  502    0 -0.10164049633E+02  0.17010779977E+03  0.30697088991E+03  0.35113129838E+03  0.47000000000E+01 0. -1.
         -5    1    1    2    0  502  0.22113788863E+02 -0.87587855730E+02 -0.28092701797E+02  0.94720335850E+02  0.47000000000E+01 0.  1.
        -11    1    1    2    0    0  0.64954047221E+01 -0.42644320883E+02  0.11811519934E+03  0.12574549178E+03  0.00000000000E+00 0.  1.
         11    1    1    2    0    0 -0.18445143952E+02 -0.39875623160E+02 -0.11720067763E+02  0.45471404709E+02  0.00000000000E+00 0. -1.
<mgrwt>
<rscale>  0 0.27412820E+03</rscale>
<asrwt>0</asrwt>
<pdfrwt beam="1">  1        2 0.77103218E-01 0.34786583E+03</pdfrwt>
<pdfrwt beam="2">  1       -2 0.17830401E-01 0.34786583E+03</pdfrwt>
<totfact> 0.15926652E+03</totfact>
</mgrwt>
</event>
<event>
 6    1  0.8353100E-006  0.1376306E+03  0.7546771E-02  0.1228396E+00
         -1   -1    0    0    0  501 -0.00000000000E+00  0.00000000000E+00  0.15842309386E+02  0.15842309386E+02  0.00000000000E+00 0.  1.
          1   -1    0    0  501    0  0.00000000000E+00 -0.00000000000E+00 -0.95049039764E+03  0.95049039764E+03  0.00000000000E+00 0. -1.
          5    1    1    2  502    0  0.50816934726E+02  0.11592437289E+02 -0.25772644410E+03  0.26298622672E+03  0.47000000000E+01 0. -1.
         -5    1    1    2    0  502 -0.68959737271E+02  0.43072980978E+02 -0.24140743314E+03  0.25477512796E+03  0.47000000000E+01 0. -1.
        -11    1    1    2    0    0 -0.33641308873E+02 -0.77480964277E+01 -0.98088297024E+02  0.10398598307E+03  0.00000000000E+00 0.  1.
         11    1    1    2    0    0  0.51784111419E+02 -0.46917321839E+02 -0.33742591399E+03  0.34458536927E+03  0.00000000000E+00 0. -1.
<mgrwt>
<rscale>  0 0.12936868E+03</rscale>
<asrwt>0</asrwt>
<pdfrwt beam="2">  1        1 0.14622928E+00 0.13763064E+03</pdfrwt>
<pdfrwt beam="1">  1       -1 0.24372786E-02 0.13763064E+03</pdfrwt>
<totfact> 0.86445316E+03</totfact>
</mgrwt>
</event>
<event>
 6    1  0.8353100E-006  0.2823509E+03  0.7546771E-02  0.1094412E+00
          2   -1    0    0  501    0  0.00000000000E+00  0.00000000000E+00  0.11980951983E+03  0.11980951983E+03  0.00000000000E+00 0.  1.
         -2   -1    0    0    0  501 -0.00000000000E+00 -0.00000000000E+00 -0.16635157082E+03  0.16635157082E+03  0.00000000000E+00 0. -1.
          5    1    1    2  502    0  0.10754615174E+00  0.27181738784E+02 -0.37656889141E+02  0.46679650698E+02  0.47000000000E+01 0. -1.
         -5    1    1    2    0  502 -0.47616500507E+02 -0.10150815942E+03 -0.58215668423E+01  0.11237089565E+03  0.47000000000E+01 0. -1.
        -11    1    1    2    0    0  0.68637326992E+02  0.24431755760E+02 -0.30633007539E+00  0.72856620730E+02  0.00000000000E+00 0.  1.
         11    1    1    2    0    0 -0.21128372637E+02  0.49894664878E+02 -0.27572649302E+01  0.54253923576E+02  0.00000000000E+00 0. -1.
<mgrwt>
<rscale>  0 0.28235086E+03</rscale>
<asrwt>0</asrwt>
<pdfrwt beam="1">  1        2 0.18432234E-01 0.28235086E+03</pdfrwt>
<pdfrwt beam="2">  1       -2 0.25592549E-01 0.28235086E+03</pdfrwt>
<totfact> 0.41436041E+03</totfact>
</mgrwt>
</event>
<event>
 6    1  0.8353100E-006  0.2618965E+03  0.7546771E-02  0.1108318E+00
         -2   -1    0    0    0  501 -0.00000000000E+00  0.00000000000E+00  0.38271219420E+02  0.38271219420E+02  0.00000000000E+00 0.  1.
          2   -1    0    0  501    0  0.00000000000E+00 -0.00000000000E+00 -0.18697044860E+04  0.18697044860E+04  0.00000000000E+00 0. -1.
          5    1    1    2  502    0  0.23431682411E+03  0.30591549706E+02 -0.10673475380E+04  0.10932031256E+04  0.47000000000E+01 0. -1.
         -5    1    1    2    0  502 -0.43171325682E+01 -0.22369139642E+02 -0.16782441996E+03  0.16942886996E+03  0.47000000000E+01 0. -1.
        -11    1    1    2    0    0 -0.68726293627E+02  0.34106453858E+02 -0.14121050333E+03  0.16070768458E+03  0.00000000000E+00 0.  1.
         11    1    1    2    0    0 -0.16127339791E+03 -0.42328863923E+02 -0.45505080529E+03  0.48463602527E+03  0.00000000000E+00 0. -1.
<mgrwt>
<rscale>  0 0.25805422E+03</rscale>
<asrwt>0</asrwt>
<pdfrwt beam="2">  1        2 0.28764682E+00 0.26189653E+03</pdfrwt>
<pdfrwt beam="1">  1       -2 0.58878804E-02 0.26189653E+03</pdfrwt>
<totfact> 0.13266613E+03</totfact>
</mgrwt>
</event>
<event>
 6    1  0.8353100E-006  0.3612137E+03  0.7546771E-02  0.1058104E+00
          1   -1    0    0  501    0  0.00000000000E+00  0.00000000000E+00  0.10738708762E+04  0.10738708762E+04  0.00000000000E+00 0. -1.
         -1   -1    0    0    0  501 -0.00000000000E+00 -0.00000000000E+00 -0.30375001244E+02  0.30375001244E+02  0.00000000000E+00 0.  1.
          5    1    1    2  502    0  0.93953165115E+01 -0.12984523131E+01  0.16119613414E+01  0.10707304522E+02  0.47000000000E+01 0. -1.
         -5    1    1    2    0  502  0.61474276537E+02  0.44864414421E+02  0.90972007398E+03  0.91290996563E+03  0.47000000000E+01 0. -1.
        -11    1    1    2    0    0 -0.76228183334E+02 -0.26245605134E+01  0.58282916130E+02  0.95992304718E+02  0.00000000000E+00 0.  1.
         11    1    1    2    0    0  0.53585902858E+01 -0.40941401595E+02  0.73880923508E+02  0.84636302570E+02  0.00000000000E+00 0. -1.
<mgrwt>
<rscale>  0 0.36121367E+03</rscale>
<asrwt>0</asrwt>
<pdfrwt beam="1">  1        1 0.16521087E+00 0.36121367E+03</pdfrwt>
<pdfrwt beam="2">  1       -1 0.46730779E-02 0.36121367E+03</pdfrwt>
<totfact> 0.27523943E+03</totfact>
</mgrwt>
</event>
<event>
 6    1  0.8353100E-006  0.1404730E+03  0.7546771E-02  0.1222449E+00
         -2   -1    0    0    0  501 -0.00000000000E+00  0.00000000000E+00  0.31508954777E+02  0.31508954777E+02  0.00000000000E+00 0.  1.
          2   -1    0    0  501    0  0.00000000000E+00 -0.00000000000E+00 -0.55309009587E+03  0.55309009587E+03  0.00000000000E+00 0. -1.
          5    1    1    2  502    0  0.68138131477E+02  0.22228588669E+02 -0.26060580433E+03  0.27032275222E+03  0.47000000000E+01 0.  1.
         -5    1    1    2    0  502 -0.15072396863E+02 -0.58176111460E+02 -0.10115848041E+03  0.11775723014E+03  0.47000000000E+01 0.  1.
        -11    1    1    2    0    0 -0.36783195144E+02  0.62510958063E+02 -0.67476752891E+02  0.99064299845E+02  0.00000000000E+00 0.  1.
         11    1    1    2    0    0 -0.16282539470E+02 -0.26563435273E+02 -0.92340103462E+02  0.97454768444E+02  0.00000000000E+00 0. -1.
<mgrwt>
<rscale>  0 0.13343314E+03</rscale>
<asrwt>0</asrwt>
<pdfrwt beam="2">  1        2 0.85090771E-01 0.14047304E+03</pdfrwt>
<pdfrwt beam="1">  1       -2 0.48475323E-02 0.14047304E+03</pdfrwt>
<totfact> 0.10870626E+04</totfact>
</mgrwt>
</event>
<event>
 6    1  0.8353100E-006  0.1264781E+03  0.7546771E-02  0.1267529E+00
          1   -1    0    0  501    0  0.00000000000E+00  0.00000000000E+00  0.39592602618E+03  0.39592602618E+03  0.00000000000E+00 0. -1.
         -1   -1    0    0    0  501 -0.00000000000E+00 -0.00000000000E+00 -0.22845402934E+02  0.22845402934E+02  0.00000000000E+00 0.  1.
          5    1    1    2  502    0  0.20041704967E+02  0.62216363656E+02  0.21700054627E+03  0.22668011145E+03  0.47000000000E+01 0. -1.
         -5    1    1    2    0  502 -0.14130957187E+02 -0.43848584353E+02  0.46619095557E+02  0.65710062938E+02  0.47000000000E+01 0. -1.
        -11    1    1    2    0    0 -0.68238328497E+01 -0.40237580269E+02  0.78340877129E+02  0.88334141701E+02  0.00000000000E+00 0. -1.
         11    1    1    2    0    0  0.91308506949E+00  0.21869800967E+02  0.31120104284E+02  0.38047113022E+02  0.00000000000E+00 0.  1.
<mgrwt>
<rscale>  0 0.10632613E+03</rscale>
<asrwt>0</asrwt>
<pdfrwt beam="1">  1        1 0.60911691E-01 0.12647806E+03</pdfrwt>
<pdfrwt beam="2">  1       -1 0.35146777E-02 0.12647806E+03</pdfrwt>
<totfact> 0.17107089E+04</totfact>
</mgrwt>
</event>
<event>
 6    1  0.8353100E-006  0.1397299E+03  0.7546771E-02  0.1224152E+00
          4   -1    0    0  501    0  0.00000000000E+00  0.00000000000E+00  0.13886091199E+03  0.13886091199E+03  0.00000000000E+00 0. -1.
         -4   -1    0    0    0  501 -0.00000000000E+00 -0.00000000000E+00 -0.18705512595E+03  0.18705512595E+03  0.00000000000E+00 0.  1.
          5    1    1    2  502    0 -0.70498614508E+00 -0.39530241738E+02  0.34307911783E+02  0.52557205293E+02  0.47000000000E+01 0. -1.
         -5    1    1    2    0  502 -0.32897482381E+02  0.92159445329E+02  0.41305062520E+02  0.10631935807E+03  0.47000000000E+01 0. -1.
        -11    1    1    2    0    0  0.14865650697E+02  0.26180084639E+02 -0.44082325607E+02  0.53381980417E+02  0.00000000000E+00 0.  1.
         11    1    1    2    0    0  0.18736817828E+02 -0.78809288230E+02 -0.79724862660E+02  0.11365749417E+03  0.00000000000E+00 0. -1.
<mgrwt>
<rscale>  0 0.13225162E+03</rscale>
<asrwt>0</asrwt>
<pdfrwt beam="1">  1        4 0.21363217E-01 0.13972988E+03</pdfrwt>
<pdfrwt beam="2">  1       -4 0.28777711E-01 0.13972988E+03</pdfrwt>
<totfact> 0.38474486E+02</totfact>
</mgrwt>
</event>
<event>
 6    1  0.8353100E-006  0.1364801E+03  0.7546771E-02  0.1229837E+00
          1   -1    0    0  501    0  0.00000000000E+00  0.00000000000E+00  0.87581257917E+03  0.87581257917E+03  0.00000000000E+00 0. -1.
         -1   -1    0    0    0  501 -0.00000000000E+00 -0.00000000000E+00 -0.17292589130E+02  0.17292589130E+02  0.00000000000E+00 0.  1.
          5    1    1    2  502    0  0.12355051615E+00 -0.54127097906E+02  0.12356035926E+03  0.13497781437E+03  0.47000000000E+01 0.  1.
         -5    1    1    2    0  502 -0.53391187481E+02  0.41312641855E+02  0.42219232957E+03  0.42758134480E+03  0.47000000000E+01 0.  1.
        -11    1    1    2    0    0 -0.16503402133E+02 -0.20781232680E+02  0.50002653538E+02  0.56608190878E+02  0.00000000000E+00 0.  1.
         11    1    1    2    0    0  0.69771039098E+02  0.33595688731E+02  0.26276464768E+03  0.27393781825E+03  0.00000000000E+00 0. -1.
<mgrwt>
<rscale>  0 0.12840806E+03</rscale>
<asrwt>0</asrwt>
<pdfrwt beam="1">  1        1 0.13474036E+00 0.13648007E+03</pdfrwt>
<pdfrwt beam="2">  1       -1 0.26603990E-02 0.13648007E+03</pdfrwt>
<totfact> 0.86771947E+03</totfact>
</mgrwt>
</event>
<event>
 6    1  0.8353100E-006  0.1253696E+03  0.7546771E-02  0.1250150E+00
          4   -1    0    0  501    0  0.00000000000E+00  0.00000000000E+00  0.18332496441E+03  0.18332496441E+03  0.00000000000E+00 0. -1.
         -4   -1    0    0    0  501 -0.00000000000E+00 -0.00000000000E+00 -0.76755943292E+02  0.76755943292E+02  0.00000000000E+00 0.  1.
          5    1    1    2  502    0  0.61008909608E+02 -0.21616549381E+02  0.37686233090E+02  0.75044682844E+02  0.47000000000E+01 0. -1.
         -5    1    1    2    0  502 -0.53368677413E+02  0.15887098103E+02  0.74968245413E+02  0.93503708136E+02  0.47000000000E+01 0. -1.
        -11    1    1    2    0    0 -0.27799698652E+02 -0.24833913556E+02 -0.29959076097E+02  0.47823558507E+02  0.00000000000E+00 0.  1.
         11    1    1    2    0    0  0.20159466457E+02  0.30563364835E+02  0.23873618715E+02  0.43708958217E+02  0.00000000000E+00 0. -1.
<mgrwt>
<rscale>  0 0.11582371E+03</rscale>
<asrwt>0</asrwt>
<pdfrwt beam="1">  1        4 0.28203841E-01 0.12536957E+03</pdfrwt>
<pdfrwt beam="2">  1       -4 0.11808607E-01 0.12536957E+03</pdfrwt>
<totfact> 0.11072436E+03</totfact>
</mgrwt>
</event>
<event>
 6    1  0.8353100E-006  0.1345458E+03  0.7546771E-02  0.1235425E+00
          4   -1    0    0  501    0  0.00000000000E+00  0.00000000000E+00  0.34964483089E+02  0.34964483089E+02  0.00000000000E+00 0. -1.
         -4   -1    0    0    0  501 -0.00000000000E+00 -0.00000000000E+00 -0.39206414121E+03  0.39206414121E+03  0.00000000000E+00 0.  1.
          5    1    1    2  502    0 -0.85853445952E+01 -0.40887925761E+02 -0.85523585779E+02  0.95299025910E+02  0.47000000000E+01 0. -1.
         -5    1    1    2    0  502  0.35425475385E+02  0.82732189605E+02 -0.11330373469E+03  0.14477363640E+03  0.47000000000E+01 0. -1.
        -11    1    1    2    0    0  0.20958415529E+02  0.47434635000E+01 -0.85714961335E+02  0.88367472659E+02  0.00000000000E+00 0.  1.
         11    1    1    2    0    0 -0.47798546319E+02 -0.46587727344E+02 -0.72557376314E+02  0.98588489322E+02  0.00000000000E+00 0. -1.
<mgrwt>
<rscale>  0 0.12477289E+03</rscale>
<asrwt>0</asrwt>
<pdfrwt beam="1">  1        4 0.53791515E-02 0.13454583E+03</pdfrwt>
<pdfrwt beam="2">  1       -4 0.60317558E-01 0.13454583E+03</pdfrwt>
<totfact> 0.91882811E+02</totfact>
</mgrwt>
</event>
<event>
 6    1  0.8353100E-006  0.1544709E+03  0.7546771E-02  0.1196361E+00
         -2   -1    0    0    0  501 -0.00000000000E+00  0.00000000000E+00  0.51248906689E+02  0.51248906689E+02  0.00000000000E+00 0.  1.
          2   -1    0    0  501    0  0.00000000000E+00 -0.00000000000E+00 -0.48047206863E+03  0.48047206863E+03  0.00000000000E+00 0. -1.
          5    1    1    2  502    0 -0.48010161218E+02 -0.91941452922E+02 -0.12956957893E+03  0.16603786354E+03  0.47000000000E+01 0. -1.
         -5    1    1    2    0  502  0.30399576601E+02 -0.49901496335E+01 -0.15160074907E+03  0.15477051712E+03  0.47000000000E+01 0.  1.
        -11    1    1    2    0    0 -0.11155959829E+02  0.10590661175E+03 -0.70508433828E+02  0.12771885175E+03  0.00000000000E+00 0.  1.
         11    1    1    2    0    0  0.28766544445E+02 -0.89750091963E+01 -0.77544400114E+02  0.83193742904E+02  0.00000000000E+00 0. -1.
<mgrwt>
<rscale>  0 0.15339571E+03</rscale>
<asrwt>0</asrwt>
<pdfrwt beam="2">  1        2 0.73918779E-01 0.15447092E+03</pdfrwt>
<pdfrwt beam="1">  1       -2 0.78844473E-02 0.15447092E+03</pdfrwt>
<totfact> 0.60928025E+03</totfact>
</mgrwt>
</event>
<event>
 6    1  0.8353100E-006  0.1296358E+03  0.7546771E-02  0.1240531E+00
          1   -1    0    0  501    0  0.00000000000E+00  0.00000000000E+00  0.32079740175E+03  0.32079740175E+03  0.00000000000E+00 0. -1.
         -1   -1    0    0    0  501 -0.00000000000E+00 -0.00000000000E+00 -0.49310927109E+02  0.49310927109E+02  0.00000000000E+00 0.  1.
          5    1    1    2  502    0 -0.42183062179E+02  0.23421965858E+01  0.15215537173E+03  0.15798178302E+03  0.47000000000E+01 0.  1.
         -5    1    1    2    0  502  0.64957390251E+02 -0.28073562466E+02  0.72673312131E+02  0.10154352640E+03  0.47000000000E+01 0.  1.
        -11    1    1    2    0    0  0.18876911465E+02 -0.26585005402E+02  0.89444319413E+01  0.33809808657E+02  0.00000000000E+00 0.  1.
         11    1    1    2    0    0 -0.41651239537E+02  0.52316371282E+02  0.37713358838E+02  0.76773210783E+02  0.00000000000E+00 0. -1.
<mgrwt>
<rscale>  0 0.12156918E+03</rscale>
<asrwt>0</asrwt>
<pdfrwt beam="1">  1        1 0.49353445E-01 0.12963583E+03</pdfrwt>
<pdfrwt beam="2">  1       -1 0.75862967E-02 0.12963583E+03</pdfrwt>
<totfact> 0.71374513E+03</totfact>
</mgrwt>
</event>
<event>
 6    1  0.8353100E-006  0.1610866E+03  0.7546771E-02  0.1195182E+00
          2   -1    0    0  501    0  0.00000000000E+00  0.00000000000E+00  0.18362797929E+03  0.18362797929E+03  0.00000000000E+00 0. -1.
         -2   -1    0    0    0  501 -0.00000000000E+00 -0.00000000000E+00 -0.12043762805E+03  0.12043762805E+03  0.00000000000E+00 0.  1.
          5    1    1    2  502    0 -0.23095566168E+02 -0.61108928073E+02 -0.10667797613E+01  0.65505223349E+02  0.47000000000E+01 0. -1.
         -5    1    1    2    0  502  0.89800948521E+02 -0.15533360016E+02  0.43404760634E+02  0.10105225814E+03  0.47000000000E+01 0. -1.
        -11    1    1    2    0    0 -0.37287560071E+02  0.20320133772E+02  0.51675159541E+02  0.66884916731E+02  0.00000000000E+00 0. -1.
         11    1    1    2    0    0 -0.29417822282E+02  0.56322154317E+02 -0.30822789172E+02  0.70623209125E+02  0.00000000000E+00 0.  1.
<mgrwt>
<rscale>  0 0.15438805E+03</rscale>
<asrwt>0</asrwt>
<pdfrwt beam="1">  1        2 0.28250458E-01 0.16108659E+03</pdfrwt>
<pdfrwt beam="2">  1       -2 0.18528866E-01 0.16108659E+03</pdfrwt>
<totfact> 0.43496287E+03</totfact>
</mgrwt>
</event>
<event>
 6    1  0.8353100E-006  0.1425320E+03  0.7546771E-02  0.1218306E+00
          1   -1    0    0  501    0  0.00000000000E+00  0.00000000000E+00  0.20634582775E+03  0.20634582775E+03  0.00000000000E+00 0. -1.
         -1   -1    0    0    0  501 -0.00000000000E+00 -0.00000000000E+00 -0.10139798150E+03  0.10139798150E+03  0.00000000000E+00 0.  1.
          5    1    1    2  502    0 -0.52161634423E+02 -0.14873197507E+02  0.63234381977E+02  0.83442945620E+02  0.47000000000E+01 0. -1.
         -5    1    1    2    0  502  0.68554836384E+02 -0.51624153536E+02  0.58130424123E+02  0.10375960210E+03  0.47000000000E+01 0. -1.
        -11    1    1    2    0    0  0.12478833102E+01  0.35075001830E+02  0.40239913320E+02  0.53395351765E+02  0.00000000000E+00 0. -1.
         11    1    1    2    0    0 -0.17641085271E+02  0.31422349212E+02 -0.56656873171E+02  0.67145909757E+02  0.00000000000E+00 0.  1.
<mgrwt>
<rscale>  0 0.13636467E+03</rscale>
<asrwt>0</asrwt>
<pdfrwt beam="1">  1        1 0.31745512E-01 0.14253202E+03</pdfrwt>
<pdfrwt beam="2">  1       -1 0.15599690E-01 0.14253202E+03</pdfrwt>
<totfact> 0.40978785E+03</totfact>
</mgrwt>
</event>
<event>
 6    1  0.8353100E-006  0.2876481E+03  0.7546771E-02  0.1091584E+00
         -1   -1    0    0    0  501 -0.00000000000E+00  0.00000000000E+00  0.11991784661E+02  0.11991784661E+02  0.00000000000E+00 0.  1.
          1   -1    0    0  501    0  0.00000000000E+00 -0.00000000000E+00 -0.17249610088E+04  0.17249610088E+04  0.00000000000E+00 0. -1.
          5    1    1    2  502    0 -0.61745687793E+02 -0.19655098527E+02 -0.13025080773E+04  0.13041273843E+04  0.47000000000E+01 0. -1.
         -5    1    1    2    0  502  0.28370549983E+02 -0.11406375637E+02 -0.12396376002E+03  0.12776579084E+03  0.47000000000E+01 0.  1.
        -11    1    1    2    0    0  0.50028763007E+02 -0.11531428244E+02 -0.20771070146E+03  0.21396164718E+03  0.00000000000E+00 0.  1.
         11    1    1    2    0    0 -0.16653625197E+02  0.42592902408E+02 -0.78786685359E+02  0.91097971204E+02  0.00000000000E+00 0. -1.
<mgrwt>
<rscale>  0 0.28764813E+03</rscale>
<asrwt>0</asrwt>
<pdfrwt beam="2">  1        1 0.26537847E+00 0.28764813E+03</pdfrwt>
<pdfrwt beam="1">  1       -1 0.18448910E-02 0.28764813E+03</pdfrwt>
<totfact> 0.39299340E+03</totfact>
</mgrwt>
</event>
<event>
 6    1  0.8353100E-006  0.2047727E+03  0.7546771E-02  0.1150330E+00
         -2   -1    0    0    0  501 -0.00000000000E+00  0.00000000000E+00  0.10106721110E+04  0.10106721110E+04  0.00000000000E+00 0.  1.
          2   -1    0    0  501    0  0.00000000000E+00 -0.00000000000E+00 -0.38933885292E+02  0.38933885292E+02  0.00000000000E+00 0. -1.
          5    1    1    2  502    0  0.10460558089E+03 -0.34937750100E+02  0.28984299312E+03  0.31015161549E+03  0.47000000000E+01 0.  1.
         -5    1    1    2    0  502  0.38129915552E+01 -0.85698590862E+02  0.11515943802E+03  0.14367523637E+03  0.47000000000E+01 0.  1.
        -11    1    1    2    0    0 -0.82323828452E+02  0.11497180091E+03  0.53915435539E+03  0.55738958249E+03  0.00000000000E+00 0.  1.
         11    1    1    2    0    0 -0.26094743991E+02  0.56645400553E+01  0.27581439160E+02  0.38389561917E+02  0.00000000000E+00 0. -1.
<mgrwt>
<rscale>  0 0.19930107E+03</rscale>
<asrwt>0</asrwt>
<pdfrwt beam="2">  1        2 0.59898293E-02 0.20477266E+03</pdfrwt>
<pdfrwt beam="1">  1       -2 0.15548800E+00 0.20477266E+03</pdfrwt>
<totfact> 0.35573409E+02</totfact>
</mgrwt>
</event>
<event>
 6    1  0.8353100E-006  0.1342931E+03  0.7546771E-02  0.1233729E+00
         -2   -1    0    0    0  501 -0.00000000000E+00  0.00000000000E+00  0.13188295982E+02  0.13188295982E+02  0.00000000000E+00 0.  1.
          2   -1    0    0  501    0  0.00000000000E+00 -0.00000000000E+00 -0.11473842338E+04  0.11473842338E+04  0.00000000000E+00 0. -1.
          5    1    1    2  502    0 -0.22677692027E+01 -0.50704541460E+02 -0.23546106288E+03  0.24091512080E+03  0.47000000000E+01 0.  1.
         -5    1    1    2    0  502 -0.43396847563E+02  0.68417555625E+02 -0.54670883172E+03  0.55269963359E+03  0.47000000000E+01 0.  1.
        -11    1    1    2    0    0  0.49902554892E+00 -0.48761932809E+02 -0.16065037831E+03  0.16788841285E+03  0.00000000000E+00 0.  1.
         11    1    1    2    0    0  0.45165591217E+02  0.31048918643E+02 -0.19137566492E+03  0.19906936254E+03  0.00000000000E+00 0. -1.
<mgrwt>
<rscale>  0 0.12586179E+03</rscale>
<asrwt>0</asrwt>
<pdfrwt beam="2">  1        2 0.17652073E+00 0.13429309E+03</pdfrwt>
<pdfrwt beam="1">  1       -2 0.20289677E-02 0.13429309E+03</pdfrwt>
<totfact> 0.15573511E+04</totfact>
</mgrwt>
</event>
<event>
 6    1  0.8353100E-006  0.1372017E+03  0.7546771E-02  0.1222390E+00
         -1   -1    0    0    0  501 -0.00000000000E+00  0.00000000000E+00  0.50410053938E+02  0.50410053938E+02  0.00000000000E+00 0.  1.
          1   -1    0    0  501    0  0.00000000000E+00 -0.00000000000E+00 -0.13609015063E+04  0.13609015063E+04  0.00000000000E+00 0. -1.
          5    1    1    2  502    0  0.68180839221E+02  0.14060805149E+01 -0.10374766582E+04  0.10397261708E+04  0.47000000000E+01 0. -1.
         -5    1    1    2    0  502 -0.49421224614E+01 -0.49177360125E+02 -0.23896291395E+03  0.24406597789E+03  0.47000000000E+01 0.  1.
        -11    1    1    2    0    0 -0.93018012340E+01  0.59329478781E+02  0.44980685354E+01  0.60222447469E+02  0.00000000000E+00 0.  1.
         11    1    1    2    0    0 -0.53936915525E+02 -0.11558199171E+02 -0.38549948698E+02  0.67296964041E+02  0.00000000000E+00 0. -1.
<mgrwt>
<rscale>  0 0.13347431E+03</rscale>
<asrwt>0</asrwt>
<pdfrwt beam="2">  1        1 0.20936941E+00 0.13720168E+03</pdfrwt>
<pdfrwt beam="1">  1       -1 0.77553949E-02 0.13720168E+03</pdfrwt>
<totfact> 0.81203028E+02</totfact>
</mgrwt>
</event>
<event>
 6    1  0.8353100E-006  0.1525360E+03  0.7546771E-02  0.1209868E+00
          1   -1    0    0  501    0  0.00000000000E+00  0.00000000000E+00  0.70076217743E+03  0.70076217743E+03  0.00000000000E+00 0. -1.
         -1   -1    0    0    0  501 -0.00000000000E+00 -0.00000000000E+00 -0.27458131067E+02  0.27458131067E+02  0.00000000000E+00 0.  1.
          5    1    1    2  502    0  0.57495390096E+02 -0.76927695801E+01  0.69333642326E+02  0.90521503215E+02  0.47000000000E+01 0.  1.
         -5    1    1    2    0  502  0.21873396985E+02  0.44344166367E+02  0.39772756359E+03  0.40081686020E+03  0.47000000000E+01 0.  1.
        -11    1    1    2    0    0  0.60870968049E+01 -0.30178613078E+02  0.52045781065E+02  0.60469535813E+02  0.00000000000E+00 0.  1.
         11    1    1    2    0    0 -0.85455883886E+02 -0.64727837083E+01  0.15419705939E+03  0.17641240927E+03  0.00000000000E+00 0. -1.
<mgrwt>
<rscale>  0 0.14260325E+03</rscale>
<asrwt>0</asrwt>
<pdfrwt beam="1">  1        1 0.10780955E+00 0.15253595E+03</pdfrwt>
<pdfrwt beam="2">  1       -1 0.42243284E-02 0.15253595E+03</pdfrwt>
<totfact> 0.61987552E+03</totfact>
</mgrwt>
</event>
<event>
 6    1  0.8353100E-006  0.1543898E+03  0.7546771E-02  0.1203186E+00
         -1   -1    0    0    0  501 -0.00000000000E+00  0.00000000000E+00  0.56242406171E+02  0.56242406171E+02  0.00000000000E+00 0.  1.
          1   -1    0    0  501    0  0.00000000000E+00 -0.00000000000E+00 -0.38943836416E+03  0.38943836416E+03  0.00000000000E+00 0. -1.
          5    1    1    2  502    0 -0.40450552246E+02 -0.98338056317E+02 -0.22803843679E+03  0.25165500025E+03  0.47000000000E+01 0.  1.
         -5    1    1    2    0  502 -0.16438490554E+02  0.27801220655E+02 -0.14183336640E+02  0.35586358058E+02  0.47000000000E+01 0.  1.
        -11    1    1    2    0    0  0.13521488347E+02  0.29398096516E+02 -0.93163986232E+02  0.98623562380E+02  0.00000000000E+00 0. -1.
         11    1    1    2    0    0  0.43367554452E+02  0.41138739146E+02  0.21898016688E+01  0.59815849647E+02  0.00000000000E+00 0.  1.
<mgrwt>
<rscale>  0 0.14781345E+03</rscale>
<asrwt>0</asrwt>
<pdfrwt beam="2">  1        1 0.59913596E-01 0.15438980E+03</pdfrwt>
<pdfrwt beam="1">  1       -1 0.86526777E-02 0.15438980E+03</pdfrwt>
<totfact> 0.46387507E+03</totfact>
</mgrwt>
</event>
<event>
 6    1  0.8353100E-006  0.1913585E+03  0.7546771E-02  0.1162017E+00
          2   -1    0    0  501    0  0.00000000000E+00  0.00000000000E+00  0.11340884266E+04  0.11340884266E+04  0.00000000000E+00 0. -1.
         -2   -1    0    0    0  501 -0.00000000000E+00 -0.00000000000E+00 -0.30441285539E+02  0.30441285539E+02  0.00000000000E+00 0.  1.
          5    1    1    2  502    0  0.11885593254E+03  0.25112054131E+01  0.50996837151E+03  0.52366293433E+03  0.47000000000E+01 0. -1.
         -5    1    1    2    0  502  0.73987081568E+01  0.68571825093E+02  0.19847716494E+03  0.21017162292E+03  0.47000000000E+01 0. -1.
        -11    1    1    2    0    0 -0.12266643014E+03 -0.89809675353E+02  0.35596418178E+03  0.38707018689E+03  0.00000000000E+00 0.  1.
         11    1    1    2    0    0 -0.35882105553E+01  0.18726644847E+02  0.39237422846E+02  0.43624968009E+02  0.00000000000E+00 0. -1.
<mgrwt>
<rscale>  0 0.18611023E+03</rscale>
<asrwt>0</asrwt>
<pdfrwt beam="1">  1        2 0.17447511E+00 0.19135851E+03</pdfrwt>
<pdfrwt beam="2">  1       -2 0.46832756E-02 0.19135851E+03</pdfrwt>
<totfact> 0.46738420E+03</totfact>
</mgrwt>
</event>
<event>
 6    1  0.8353100E-006  0.1221424E+03  0.7546771E-02  0.1252011E+00
          1   -1    0    0  501    0  0.00000000000E+00  0.00000000000E+00  0.17535155347E+04  0.17535155347E+04  0.00000000000E+00 0. -1.
         -1   -1    0    0    0  501 -0.00000000000E+00 -0.00000000000E+00 -0.80476778468E+01  0.80476778468E+01  0.00000000000E+00 0.  1.
          5    1    1    2  502    0 -0.14946134264E+02  0.47004083384E+02  0.49321580334E+03  0.49569818383E+03  0.47000000000E+01 0. -1.
         -5    1    1    2    0  502  0.20304713087E+02 -0.69263249870E+02  0.82392716896E+03  0.82709597321E+03  0.47000000000E+01 0.  1.
        -11    1    1    2    0    0 -0.22534528372E+02  0.50872065517E+02  0.33647720781E+03  0.34104645342E+03  0.00000000000E+00 0. -1.
         11    1    1    2    0    0  0.17175949550E+02 -0.28612899031E+02  0.91847676711E+02  0.97722602049E+02  0.00000000000E+00 0.  1.
<mgrwt>
<rscale>  0 0.11475389E+03</rscale>
<asrwt>0</asrwt>
<pdfrwt beam="1">  1        1 0.26977132E+00 0.12214243E+03</pdfrwt>
<pdfrwt beam="2">  1       -1 0.12381057E-02 0.12214243E+03</pdfrwt>
<totfact> 0.65864320E+03</totfact>
</mgrwt>
</event>
<event>
 6    1  0.8353100E-006  0.1353071E+03  0.7546771E-02  0.1232784E+00
         -1   -1    0    0    0  501 -0.00000000000E+00  0.00000000000E+00  0.75513743084E+02  0.75513743084E+02  0.00000000000E+00 0.  1.
          1   -1    0    0  501    0  0.00000000000E+00 -0.00000000000E+00 -0.25786141925E+03  0.25786141925E+03  0.00000000000E+00 0. -1.
          5    1    1    2  502    0 -0.47683006083E+02  0.23996760325E+02 -0.41669165391E+02  0.67881683241E+02  0.47000000000E+01 0.  1.
         -5    1    1    2    0  502  0.70116310201E+02  0.22691421379E+02 -0.14434940382E+03  0.16214203016E+03  0.47000000000E+01 0.  1.
        -11    1    1    2    0    0 -0.23824558179E+02  0.32607174838E+01  0.36394805758E+02  0.43621367896E+02  0.00000000000E+00 0.  1.
         11    1    1    2    0    0  0.13912540614E+01 -0.49948899188E+02 -0.32723912715E+02  0.59730081042E+02  0.00000000000E+00 0. -1.
<mgrwt>
<rscale>  0 0.12647391E+03</rscale>
<asrwt>0</asrwt>
<pdfrwt beam="2">  1        1 0.39670988E-01 0.13530706E+03</pdfrwt>
<pdfrwt beam="1">  1       -1 0.11617499E-01 0.13530706E+03</pdfrwt>
<totfact> 0.49039540E+03</totfact>
</mgrwt>
</event>
<event>
 6    1  0.8353100E-006  0.1337829E+03  0.7546771E-02  0.1242146E+00
          1   -1    0    0  501    0  0.00000000000E+00  0.00000000000E+00  0.82153891496E+02  0.82153891496E+02  0.00000000000E+00 0. -1.
         -1   -1    0    0    0  501 -0.00000000000E+00 -0.00000000000E+00 -0.17004834693E+03  0.17004834693E+03  0.00000000000E+00 0.  1.
          5    1    1    2  502    0  0.14983252476E+02 -0.22755165082E+02 -0.52710641940E+02  0.59521400911E+02  0.47000000000E+01 0.  1.
         -5    1    1    2    0  502  0.16899524505E+02  0.58201415003E+02  0.43238212858E+02  0.74596458951E+02  0.47000000000E+01 0.  1.
        -11    1    1    2    0    0  0.11401815795E+02 -0.28444082488E+01  0.92923290035E+01  0.14981303015E+02  0.00000000000E+00 0. -1.
         11    1    1    2    0    0 -0.43284592777E+02 -0.32601841672E+02 -0.87714355353E+02  0.10310307555E+03  0.00000000000E+00 0.  1.
<mgrwt>
<rscale>  0 0.12057852E+03</rscale>
<asrwt>0</asrwt>
<pdfrwt beam="1">  1        1 0.12639060E-01 0.13378293E+03</pdfrwt>
<pdfrwt beam="2">  1       -1 0.26161284E-01 0.13378293E+03</pdfrwt>
<totfact> 0.57369814E+03</totfact>
</mgrwt>
</event>
<event>
 6    1  0.8353100E-006  0.1382997E+03  0.7546771E-02  0.1227087E+00
         -1   -1    0    0    0  501 -0.00000000000E+00  0.00000000000E+00  0.19081918801E+02  0.19081918801E+02  0.00000000000E+00 0.  1.
          1   -1    0    0  501    0  0.00000000000E+00 -0.00000000000E+00 -0.94491044984E+03  0.94491044984E+03  0.00000000000E+00 0. -1.
          5    1    1    2  502    0  0.16203322970E+02 -0.16864080506E+02 -0.63438652205E+03  0.63483485588E+03  0.47000000000E+01 0. -1.
         -5    1    1    2    0  502 -0.79546416170E+01 -0.41723468432E+02 -0.62958735553E+02  0.76092158096E+02  0.47000000000E+01 0. -1.
        -11    1    1    2    0    0  0.82858612205E+01  0.64004876864E+02 -0.22654454195E+03  0.23555829267E+03  0.00000000000E+00 0. -1.
         11    1    1    2    0    0 -0.16534542573E+02 -0.54173279255E+01 -0.19387314916E+01  0.17507061997E+02  0.00000000000E+00 0.  1.
<mgrwt>
<rscale>  0 0.13024867E+03</rscale>
<asrwt>0</asrwt>
<pdfrwt beam="2">  1        1 0.14537085E+00 0.13829971E+03</pdfrwt>
<pdfrwt beam="1">  1       -1 0.29356796E-02 0.13829971E+03</pdfrwt>
<totfact> 0.66629767E+03</totfact>
</mgrwt>
</event>
<event>
 6    1  0.8353100E-006  0.1493903E+03  0.7546771E-02  0.1208977E+00
          1   -1    0    0  501    0  0.00000000000E+00  0.00000000000E+00  0.50896266481E+03  0.50896266481E+03  0.00000000000E+00 0. -1.
         -1   -1    0    0    0  501 -0.00000000000E+00 -0.00000000000E+00 -0.43688661015E+02  0.43688661015E+02  0.00000000000E+00 0.  1.
          5    1    1    2  502    0 -0.93540365335E+02 -0.78108324464E+01  0.35558348064E+03  0.36779411463E+03  0.47000000000E+01 0. -1.
         -5    1    1    2    0  502  0.11773633364E+02  0.10355128390E+02 -0.15752973169E+01  0.16444412066E+02  0.47000000000E+01 0. -1.
        -11    1    1    2    0    0  0.93143014453E+02 -0.20624624754E+02  0.59552313063E+02  0.11246099003E+03  0.00000000000E+00 0.  1.
         11    1    1    2    0    0 -0.11376282482E+02  0.18080328811E+02  0.51713507406E+02  0.55951809097E+02  0.00000000000E+00 0. -1.
<mgrwt>
<rscale>  0 0.14328420E+03</rscale>
<asrwt>0</asrwt>
<pdfrwt beam="1">  1        1 0.78301944E-01 0.14939027E+03</pdfrwt>
<pdfrwt beam="2">  1       -1 0.67213328E-02 0.14939027E+03</pdfrwt>
<totfact> 0.48074786E+03</totfact>
</mgrwt>
</event>
<event>
 6    1  0.8353100E-006  0.2805839E+03  0.7546771E-02  0.1095370E+00
          2   -1    0    0  501    0  0.00000000000E+00  0.00000000000E+00  0.20161946974E+03  0.20161946974E+03  0.00000000000E+00 0. -1.
         -2   -1    0    0    0  501 -0.00000000000E+00 -0.00000000000E+00 -0.97618692927E+02  0.97618692927E+02  0.00000000000E+00 0.  1.
          5    1    1    2  502    0 -0.15473198796E+02  0.70937534282E+01  0.11748898009E+03  0.11880863462E+03  0.47000000000E+01 0.  1.
         -5    1    1    2    0  502 -0.44934182648E+02 -0.45026260208E+02 -0.48197654432E+01  0.63966905642E+02  0.47000000000E+01 0.  1.
        -11    1    1    2    0    0  0.31755266507E+02 -0.27108454320E+02  0.10094463711E+02  0.42955365720E+02  0.00000000000E+00 0. -1.
         11    1    1    2    0    0  0.28652114936E+02  0.65040961099E+02 -0.18762901541E+02  0.73507256685E+02  0.00000000000E+00 0.  1.
<mgrwt>
<rscale>  0 0.28058388E+03</rscale>
<asrwt>0</asrwt>
<pdfrwt beam="1">  1        2 0.31018380E-01 0.28058388E+03</pdfrwt>
<pdfrwt beam="2">  1       -2 0.15018261E-01 0.28058388E+03</pdfrwt>
<totfact> 0.57372889E+03</totfact>
</mgrwt>
</event>
<event>
 6    1  0.8353100E-006  0.2761656E+03  0.7546771E-02  0.1097802E+00
         -4   -1    0    0    0  501 -0.00000000000E+00  0.00000000000E+00  0.29539893717E+03  0.29539893717E+03  0.00000000000E+00 0.  1.
          4   -1    0    0  501    0  0.00000000000E+00 -0.00000000000E+00 -0.64546143816E+02  0.64546143816E+02  0.00000000000E+00 0. -1.
          5    1    1    2  502    0  0.12632406293E+02 -0.40664870118E+02  0.10660824257E+03  0.11489393689E+03  0.47000000000E+01 0. -1.
         -5    1    1    2    0  502  0.16198707637E+02  0.24300438986E+02 -0.17917973636E+02  0.34584002707E+02  0.47000000000E+01 0.  1.
        -11    1    1    2    0    0  0.46952886667E+02  0.18845649548E+02  0.12189923968E+03  0.13198165292E+03  0.00000000000E+00 0.  1.
         11    1    1    2    0    0 -0.75784000596E+02 -0.24812184162E+01  0.20263284737E+02  0.78485488465E+02  0.00000000000E+00 0. -1.
<mgrwt>
<rscale>  0 0.27616562E+03</rscale>
<asrwt>0</asrwt>
<pdfrwt beam="2">  1        4 0.99301762E-02 0.27616562E+03</pdfrwt>
<pdfrwt beam="1">  1       -4 0.45445990E-01 0.27616562E+03</pdfrwt>
<totfact> 0.67857024E+02</totfact>
</mgrwt>
</event>
<event>
 6    1  0.8353100E-006  0.1712246E+03  0.7546771E-02  0.1183325E+00
         -1   -1    0    0    0  501 -0.00000000000E+00  0.00000000000E+00  0.17555237023E+02  0.17555237023E+02  0.00000000000E+00 0.  1.
          1   -1    0    0  501    0  0.00000000000E+00 -0.00000000000E+00 -0.15719052779E+04  0.15719052779E+04  0.00000000000E+00 0. -1.
          5    1    1    2  502    0 -0.51256045927E+01 -0.56885183130E+02 -0.72972747705E+03  0.73197436884E+03  0.47000000000E+01 0.  1.
         -5    1    1    2    0  502  0.81736730549E+02 -0.31494198927E+02 -0.32823901425E+03  0.33975832317E+03  0.47000000000E+01 0.  1.
        -11    1    1    2    0    0 -0.93557179808E+02  0.55091470093E+02 -0.39620819146E+03  0.41081497897E+03  0.00000000000E+00 0. -1.
         11    1    1    2    0    0  0.16946053852E+02  0.33287911964E+02 -0.10017535811E+03  0.10691284393E+03  0.00000000000E+00 0.  1.
<mgrwt>
<rscale>  0 0.16485249E+03</rscale>
<asrwt>0</asrwt>
<pdfrwt beam="2">  1        1 0.24183155E+00 0.17122461E+03</pdfrwt>
<pdfrwt beam="1">  1       -1 0.27008060E-02 0.17122461E+03</pdfrwt>
<totfact> 0.28165873E+03</totfact>
</mgrwt>
</event>
<event>
 6    1  0.8353100E-006  0.1509572E+03  0.7546771E-02  0.1209176E+00
          2   -1    0    0  501    0  0.00000000000E+00  0.00000000000E+00  0.14208147140E+04  0.14208147140E+04  0.00000000000E+00 0. -1.
         -2   -1    0    0    0  501 -0.00000000000E+00 -0.00000000000E+00 -0.13935565250E+02  0.13935565250E+02  0.00000000000E+00 0.  1.
          5    1    1    2  502    0 -0.15968579637E+02  0.52899609613E+02  0.12968892179E+03  0.14104846921E+03  0.47000000000E+01 0. -1.
         -5    1    1    2    0  502 -0.19378523281E+02  0.23938155612E+02  0.81757485736E+03  0.81816825888E+03  0.47000000000E+01 0. -1.
        -11    1    1    2    0    0  0.30701831723E+02 -0.42372080663E+01  0.45349282760E+02  0.54928260943E+02  0.00000000000E+00 0.  1.
         11    1    1    2    0    0  0.46452711951E+01 -0.72600557159E+02  0.41426608684E+03  0.42060529021E+03  0.00000000000E+00 0. -1.
<mgrwt>
<rscale>  0 0.14313211E+03</rscale>
<asrwt>0</asrwt>
<pdfrwt beam="1">  1        2 0.21858676E+00 0.15095716E+03</pdfrwt>
<pdfrwt beam="2">  1       -2 0.21439342E-02 0.15095716E+03</pdfrwt>
<totfact> 0.10271279E+04</totfact>
</mgrwt>
</event>
<event>
 6    1  0.8353100E-006  0.1552572E+03  0.7546771E-02  0.1202391E+00
          2   -1    0    0  501    0  0.00000000000E+00  0.00000000000E+00  0.24751934861E+03  0.24751934861E+03  0.00000000000E+00 0. -1.
         -2   -1    0    0    0  501 -0.00000000000E+00 -0.00000000000E+00 -0.82326861151E+02  0.82326861151E+02  0.00000000000E+00 0.  1.
          5    1    1    2  502    0 -0.22095171907E+02 -0.45190906514E+02 -0.19124404620E+02  0.54020806225E+02  0.47000000000E+01 0. -1.
         -5    1    1    2    0  502 -0.53454845681E+02 -0.74727422071E+01  0.11854999220E+03  0.13034359613E+03  0.47000000000E+01 0. -1.
        -11    1    1    2    0    0  0.67148507851E+02  0.29484883996E+02  0.86403329276E+02  0.11333055987E+03  0.00000000000E+00 0. -1.
         11    1    1    2    0    0  0.84015097374E+01  0.23178764726E+02 -0.20636429391E+02  0.32151247535E+02  0.00000000000E+00 0.  1.
<mgrwt>
<rscale>  0 0.14845008E+03</rscale>
<asrwt>0</asrwt>
<pdfrwt beam="1">  1        2 0.38079900E-01 0.15525716E+03</pdfrwt>
<pdfrwt beam="2">  1       -2 0.12665671E-01 0.15525716E+03</pdfrwt>
<totfact> 0.58746077E+03</totfact>
</mgrwt>
</event>
<event>
 6    1  0.8353100E-006  0.1250743E+03  0.7546771E-02  0.1250653E+00
         -1   -1    0    0    0  501 -0.00000000000E+00  0.00000000000E+00  0.60886951230E+02  0.60886951230E+02  0.00000000000E+00 0.  1.
          1   -1    0    0  501    0  0.00000000000E+00 -0.00000000000E+00 -0.19196250206E+03  0.19196250206E+03  0.00000000000E+00 0. -1.
          5    1    1    2  502    0 -0.19384299194E+02  0.53870456773E+02 -0.12083784811E+02  0.58701661165E+02  0.47000000000E+01 0. -1.
         -5    1    1    2    0  502  0.15945607964E+02 -0.56501682073E+02 -0.67327701393E+02  0.89452847161E+02  0.47000000000E+01 0. -1.
        -11    1    1    2    0    0 -0.28711016439E+02  0.33135638115E+02 -0.38801132399E+02  0.58547594773E+02  0.00000000000E+00 0. -1.
         11    1    1    2    0    0  0.32149707669E+02 -0.30504412815E+02 -0.12862932231E+02  0.46147350194E+02  0.00000000000E+00 0.  1.
<mgrwt>
<rscale>  0 0.11553338E+03</rscale>
<asrwt>0</asrwt>
<pdfrwt beam="2">  1        1 0.29532692E-01 0.12507427E+03</pdfrwt>
<pdfrwt beam="1">  1       -1 0.93672233E-02 0.12507427E+03</pdfrwt>
<totfact> 0.97660703E+03</totfact>
</mgrwt>
</event>
<event>
 6    1  0.8353100E-006  0.1814347E+03  0.7546771E-02  0.1171415E+00
          1   -1    0    0  501    0  0.00000000000E+00  0.00000000000E+00  0.55955979645E+02  0.55955979645E+02  0.00000000000E+00 0. -1.
         -1   -1    0    0    0  501 -0.00000000000E+00 -0.00000000000E+00 -0.52729326655E+03  0.52729326655E+03  0.00000000000E+00 0.  1.
          5    1    1    2  502    0 -0.14693134529E+02 -0.58764541902E+02 -0.45472844388E+02  0.75888267631E+02  0.47000000000E+01 0.  1.
         -5    1    1    2    0  502  0.10814849648E+03 -0.33758741947E+02 -0.19168026566E+03  0.22270869806E+03  0.47000000000E+01 0.  1.
        -11    1    1    2    0    0 -0.79242982687E+02  0.11149211494E+03 -0.18522043304E+03  0.23025323193E+03  0.00000000000E+00 0. -1.
         11    1    1    2    0    0 -0.14212379259E+02 -0.18968831093E+02 -0.48963743815E+02  0.54399048573E+02  0.00000000000E+00 0.  1.
<mgrwt>
<rscale>  0 0.17631782E+03</rscale>
<asrwt>0</asrwt>
<pdfrwt beam="1">  1        1 0.86086127E-02 0.18143470E+03</pdfrwt>
<pdfrwt beam="2">  1       -1 0.81122037E-01 0.18143470E+03</pdfrwt>
<totfact> 0.12331281E+03</totfact>
</mgrwt>
</event>
<event>
 6    1  0.8353100E-006  0.1309497E+03  0.7546771E-02  0.1238922E+00
         -1   -1    0    0    0  501 -0.00000000000E+00  0.00000000000E+00  0.30574525700E+02  0.30574525700E+02  0.00000000000E+00 0.  1.
          1   -1    0    0  501    0  0.00000000000E+00 -0.00000000000E+00 -0.59278979496E+03  0.59278979496E+03  0.00000000000E+00 0. -1.
          5    1    1    2  502    0  0.14135001880E+02  0.48862954462E+02 -0.24947491574E+03  0.25465115389E+03  0.47000000000E+01 0. -1.
         -5    1    1    2    0  502 -0.52806663786E+02 -0.54180903335E+02 -0.21719390274E+03  0.23004216008E+03  0.47000000000E+01 0. -1.
        -11    1    1    2    0    0  0.58340495102E+02  0.53813626665E+01 -0.22069443883E+02  0.62606970747E+02  0.00000000000E+00 0.  1.
         11    1    1    2    0    0 -0.19668833195E+02 -0.63413793806E-01 -0.73477006896E+02  0.76064035937E+02  0.00000000000E+00 0. -1.
<mgrwt>
<rscale>  0 0.12256638E+03</rscale>
<asrwt>0</asrwt>
<pdfrwt beam="2">  1        1 0.91198424E-01 0.13094969E+03</pdfrwt>
<pdfrwt beam="1">  1       -1 0.47037735E-02 0.13094969E+03</pdfrwt>
<totfact> 0.66245050E+03</totfact>
</mgrwt>
</event>
<event>
 6    1  0.1038713E-005  0.5412820E+03  0.7546771E-02  0.1003532E+00
          1   -1    0    0  501    0  0.00000000000E+00  0.00000000000E+00  0.47713019528E+03  0.47713019528E+03  0.00000000000E+00 0. -1.
         -1   -1    0    0    0  501 -0.00000000000E+00 -0.00000000000E+00 -0.15351479417E+03  0.15351479417E+03  0.00000000000E+00 0.  1.
          5    1    1    2  502    0  0.15720297284E+03 -0.10802808967E+03  0.33383628954E+03  0.38451476050E+03  0.47000000000E+01 0. -1.
         -5    1    1    2    0  502 -0.22574974594E+02 -0.15501915477E+02  0.26514783046E+02  0.38406543471E+02  0.47000000000E+01 0. -1.
        -11    1    1    2    0    0 -0.68525335843E+02  0.61239103227E+02  0.28131068201E+02  0.96110906845E+02  0.00000000000E+00 0. -1.
         11    1    1    2    0    0 -0.66102662401E+02  0.62290901918E+02 -0.64866739680E+02  0.11161277864E+03  0.00000000000E+00 0.  1.
<mgrwt>
<rscale>  0 0.54128197E+03</rscale>
<asrwt>0</asrwt>
<pdfrwt beam="1">  1        1 0.73404645E-01 0.54128197E+03</pdfrwt>
<pdfrwt beam="2">  1       -1 0.23617661E-01 0.54128197E+03</pdfrwt>
<totfact> 0.73504917E+02</totfact>
</mgrwt>
</event>
<event>
 6    1  0.8353100E-006  0.2355445E+03  0.7546771E-02  0.1122797E+00
          3   -1    0    0  501    0  0.00000000000E+00  0.00000000000E+00  0.20184058068E+03  0.20184058068E+03  0.00000000000E+00 0. -1.
         -3   -1    0    0    0  501 -0.00000000000E+00 -0.00000000000E+00 -0.68719127172E+02  0.68719127172E+02  0.00000000000E+00 0.  1.
          5    1    1    2  502    0 -0.87956658039E+02  0.96191379440E+01  0.56832148533E+02  0.10526578084E+03  0.47000000000E+01 0. -1.
         -5    1    1    2    0  502  0.38721329016E+02 -0.35439273961E+01  0.40262846599E+02  0.56170166089E+02  0.47000000000E+01 0.  1.
        -11    1    1    2    0    0  0.25596581185E+02  0.54768486360E+01  0.64948461024E+02  0.70024877214E+02  0.00000000000E+00 0. -1.
         11    1    1    2    0    0  0.23638747838E+02 -0.11552059184E+02 -0.28922002646E+02  0.39098883715E+02  0.00000000000E+00 0.  1.
<mgrwt>
<rscale>  0 0.23554455E+03</rscale>
<asrwt>0</asrwt>
<pdfrwt beam="1">  1        3 0.31052397E-01 0.23554455E+03</pdfrwt>
<pdfrwt beam="2">  1       -3 0.10572173E-01 0.23554455E+03</pdfrwt>
<totfact> 0.16915289E+03</totfact>
</mgrwt>
</event>
<event>
 6    1  0.8353100E-006  0.1297795E+03  0.7546771E-02  0.1241621E+00
         -1   -1    0    0    0  501 -0.00000000000E+00  0.00000000000E+00  0.28345833720E+03  0.28345833720E+03  0.00000000000E+00 0.  1.
          1   -1    0    0  501    0  0.00000000000E+00 -0.00000000000E+00 -0.46287996296E+02  0.46287996296E+02  0.00000000000E+00 0. -1.
          5    1    1    2  502    0  0.10127541462E+02  0.38016208290E+02 -0.14791163415E+01  0.39649425897E+02  0.47000000000E+01 0.  1.
         -5    1    1    2    0  502 -0.43373754193E+02 -0.48627747109E+02  0.11744758159E+03  0.13439480928E+03  0.47000000000E+01 0.  1.
        -11    1    1    2    0    0 -0.27097082705E+02  0.19266890373E+02  0.63925857450E+02  0.72055396789E+02  0.00000000000E+00 0.  1.
         11    1    1    2    0    0  0.60343295436E+02 -0.86553515544E+01  0.57276018209E+02  0.83646701528E+02  0.00000000000E+00 0. -1.
<mgrwt>
<rscale>  0 0.12089919E+03</rscale>
<asrwt>0</asrwt>
<pdfrwt beam="2">  1        1 0.71212303E-02 0.12977947E+03</pdfrwt>
<pdfrwt beam="1">  1       -1 0.43608974E-01 0.12977947E+03</pdfrwt>
<totfact> 0.51222340E+03</totfact>
</mgrwt>
</event>
<event>
 6    1  0.8353100E-006  0.1549237E+03  0.7546771E-02  0.1202976E+00
          1   -1    0    0  501    0  0.00000000000E+00  0.00000000000E+00  0.37932840864E+02  0.37932840864E+02  0.00000000000E+00 0. -1.
         -1   -1    0    0    0  501 -0.00000000000E+00 -0.00000000000E+00 -0.73445949700E+03  0.73445949700E+03  0.00000000000E+00 0.  1.
          5    1    1    2  502    0 -0.77030175751E+02 -0.22773178007E+02 -0.82481756465E+02  0.11522845032E+03  0.47000000000E+01 0.  1.
         -5    1    1    2    0  502  0.41414798560E+02 -0.61505895917E+02 -0.86237389427E+02  0.11382942549E+03  0.47000000000E+01 0.  1.
        -11    1    1    2    0    0 -0.23489596786E+02  0.57291513066E+02 -0.30620299566E+03  0.31240094939E+03  0.00000000000E+00 0.  1.
         11    1    1    2    0    0  0.59104973977E+02  0.26987560858E+02 -0.22160451458E+03  0.23093351267E+03  0.00000000000E+00 0. -1.
<mgrwt>
<rscale>  0 0.14798071E+03</rscale>
<asrwt>0</asrwt>
<pdfrwt beam="1">  1        1 0.58358223E-02 0.15492372E+03</pdfrwt>
<pdfrwt beam="2">  1       -1 0.11299376E+00 0.15492372E+03</pdfrwt>
<totfact> 0.10102262E+03</totfact>
</mgrwt>
</event>
<event>
 6    1  0.8353100E-006  0.2016347E+03  0.7546771E-02  0.1152591E+00
         -3   -1    0    0    0  501 -0.00000000000E+00  0.00000000000E+00  0.37748755414E+03  0.37748755414E+03  0.00000000000E+00 0.  1.
          3   -1    0    0  501    0  0.00000000000E+00 -0.00000000000E+00 -0.10517330197E+03  0.10517330197E+03  0.00000000000E+00 0. -1.
          5    1    1    2  502    0  0.32174234374E+02 -0.54432366851E+02  0.78825883971E+02  0.10116162268E+03  0.47000000000E+01 0. -1.
         -5    1    1    2    0  502 -0.52378010334E+02 -0.10239485570E+03 -0.61184583822E+00  0.11511136693E+03  0.47000000000E+01 0. -1.
        -11    1    1    2    0    0  0.98655136280E+01  0.19302685837E+02  0.92723701501E+02  0.95223982587E+02  0.00000000000E+00 0.  1.
         11    1    1    2    0    0  0.10338262332E+02  0.13752453672E+03  0.10137651254E+03  0.17116388393E+03  0.00000000000E+00 0. -1.
<mgrwt>
<rscale>  0 0.19665697E+03</rscale>
<asrwt>0</asrwt>
<pdfrwt beam="2">  1        3 0.16180508E-01 0.20163474E+03</pdfrwt>
<pdfrwt beam="1">  1       -3 0.58075008E-01 0.20163474E+03</pdfrwt>
<totfact> 0.23432178E+02</totfact>
</mgrwt>
</event>
<event>
 6    1  0.8353100E-006  0.2382010E+03  0.7546771E-02  0.1123714E+00
          2   -1    0    0  501    0  0.00000000000E+00  0.00000000000E+00  0.33900990520E+03  0.33900990520E+03  0.00000000000E+00 0. -1.
         -2   -1    0    0    0  501 -0.00000000000E+00 -0.00000000000E+00 -0.16761266133E+03  0.16761266133E+03  0.00000000000E+00 0.  1.
          5    1    1    2  502    0  0.29319526703E+02  0.74647898380E+01  0.73583958040E+02  0.79699727817E+02  0.47000000000E+01 0. -1.
         -5    1    1    2    0  502  0.12343893236E+03 -0.14080699599E+03  0.79725700742E+02  0.20357322392E+03  0.47000000000E+01 0. -1.
        -11    1    1    2    0    0 -0.13865211767E+03  0.66652241414E+02  0.20139214535E+02  0.15515321131E+03  0.00000000000E+00 0.  1.
         11    1    1    2    0    0 -0.14106341392E+02  0.66689964734E+02 -0.20516294460E+01  0.68196403476E+02  0.00000000000E+00 0. -1.
<mgrwt>
<rscale>  0 0.23420533E+03</rscale>
<asrwt>0</asrwt>
<pdfrwt beam="1">  1        2 0.52155370E-01 0.23820099E+03</pdfrwt>
<pdfrwt beam="2">  1       -2 0.25786563E-01 0.23820099E+03</pdfrwt>
<totfact> 0.12845854E+03</totfact>
</mgrwt>
</event>
<event>
 6    1  0.8353100E-006  0.3405866E+03  0.7546771E-02  0.1066546E+00
         -2   -1    0    0    0  501 -0.00000000000E+00  0.00000000000E+00  0.17302976419E+03  0.17302976419E+03  0.00000000000E+00 0.  1.
          2   -1    0    0  501    0  0.00000000000E+00 -0.00000000000E+00 -0.16760012476E+03  0.16760012476E+03  0.00000000000E+00 0. -1.
          5    1    1    2  502    0 -0.19016627501E+02 -0.16877427542E+02  0.31517747423E+01  0.26048097166E+02  0.47000000000E+01 0. -1.
         -5    1    1    2    0  502  0.96703618846E+02  0.11855645440E+03  0.17394985161E+02  0.15405160916E+03  0.47000000000E+01 0. -1.
        -11    1    1    2    0    0 -0.32247379333E+02 -0.39910722793E+02  0.40858938308E+02  0.65591250235E+02  0.00000000000E+00 0.  1.
         11    1    1    2    0    0 -0.45439612012E+02 -0.61768304063E+02 -0.55976058785E+02  0.94938932392E+02  0.00000000000E+00 0. -1.
<mgrwt>
<rscale>  0 0.34058661E+03</rscale>
<asrwt>0</asrwt>
<pdfrwt beam="2">  1        2 0.25784635E-01 0.34058661E+03</pdfrwt>
<pdfrwt beam="1">  1       -2 0.26619964E-01 0.34058661E+03</pdfrwt>
<totfact> 0.26483970E+03</totfact>
</mgrwt>
</event>
<event>
 6    1  0.8353100E-006  0.1603873E+03  0.7546771E-02  0.1190558E+00
         -2   -1    0    0    0  501 -0.00000000000E+00  0.00000000000E+00  0.29259739073E+02  0.29259739073E+02  0.00000000000E+00 0.  1.
          2   -1    0    0  501    0  0.00000000000E+00 -0.00000000000E+00 -0.11744539524E+04  0.11744539524E+04  0.00000000000E+00 0. -1.
          5    1    1    2  502    0 -0.20753578903E+02 -0.49079471548E+02 -0.49014991263E+03  0.49306037401E+03  0.47000000000E+01 0.  1.
         -5    1    1    2    0  502 -0.79588498808E+02  0.55345366727E+02 -0.41575140473E+03  0.42692945471E+03  0.47000000000E+01 0.  1.
        -11    1    1    2    0    0  0.83642064090E+02  0.37568783287E+02 -0.20806194728E+03  0.22737014375E+03  0.00000000000E+00 0. -1.
         11    1    1    2    0    0  0.16700013621E+02 -0.43834678466E+02 -0.31230948705E+02  0.56353719027E+02  0.00000000000E+00 0.  1.
<mgrwt>
<rscale>  0 0.15836262E+03</rscale>
<asrwt>0</asrwt>
<pdfrwt beam="2">  1        2 0.18068517E+00 0.16038731E+03</pdfrwt>
<pdfrwt beam="1">  1       -2 0.45014995E-02 0.16038731E+03</pdfrwt>
<totfact> 0.46832295E+03</totfact>
</mgrwt>
</event>
<event>
 6    1  0.8353100E-006  0.3162116E+03  0.7546771E-02  0.1077406E+00
         -2   -1    0    0    0  501 -0.00000000000E+00  0.00000000000E+00  0.10640145990E+02  0.10640145990E+02  0.00000000000E+00 0.  1.
          2   -1    0    0  501    0  0.00000000000E+00 -0.00000000000E+00 -0.23493515693E+04  0.23493515693E+04  0.00000000000E+00 0. -1.
          5    1    1    2  502    0 -0.11939173510E+02 -0.12453762360E+02 -0.40750961829E+02  0.44501358980E+02  0.47000000000E+01 0. -1.
         -5    1    1    2    0  502  0.57699113168E+01  0.65176747724E+01 -0.20368991788E+04  0.20369232009E+04  0.47000000000E+01 0. -1.
        -11    1    1    2    0    0 -0.39149046146E+02 -0.14750519691E+01 -0.55469093738E+02  0.67909085935E+02  0.00000000000E+00 0.  1.
         11    1    1    2    0    0  0.45318308340E+02  0.74111395565E+01 -0.20559218894E+03  0.21065806943E+03  0.00000000000E+00 0. -1.
<mgrwt>
<rscale>  0 0.31621160E+03</rscale>
<asrwt>0</asrwt>
<pdfrwt beam="2">  1        2 0.36143915E+00 0.31621160E+03</pdfrwt>
<pdfrwt beam="1">  1       -2 0.16369435E-02 0.31621160E+03</pdfrwt>
<totfact> 0.50223805E+03</totfact>
</mgrwt>
</event>
<event>
 6    1  0.8353100E-006  0.1201946E+03  0.7546771E-02  0.1258684E+00
          2   -1    0    0  501    0  0.00000000000E+00  0.00000000000E+00  0.13412307389E+04  0.13412307389E+04  0.00000000000E+00 0. -1.
         -2   -1    0    0    0  501 -0.00000000000E+00 -0.00000000000E+00 -0.92328862733E+01  0.92328862733E+01  0.00000000000E+00 0.  1.
          5    1    1    2  502    0 -0.44197590183E+02  0.14316710992E+02  0.86319228597E+03  0.86445439888E+03  0.47000000000E+01 0. -1.
         -5    1    1    2    0  502  0.38729730238E+02 -0.10504294596E+02  0.13408948889E+03  0.14004432598E+03  0.47000000000E+01 0.  1.
        -11    1    1    2    0    0 -0.26450632112E+02  0.29037628851E+02  0.11492277469E+03  0.12144984138E+03  0.00000000000E+00 0. -1.
         11    1    1    2    0    0  0.31918492057E+02 -0.32850045246E+02  0.21979330308E+03  0.22451505893E+03  0.00000000000E+00 0.  1.
<mgrwt>
<rscale>  0 0.11102484E+03</rscale>
<asrwt>0</asrwt>
<pdfrwt beam="1">  1        2 0.20634304E+00 0.12019463E+03</pdfrwt>
<pdfrwt beam="2">  1       -2 0.14204451E-02 0.12019463E+03</pdfrwt>
<totfact> 0.20277658E+04</totfact>
</mgrwt>
</event>
<event>
 6    1  0.8353100E-006  0.2728566E+03  0.7546771E-02  0.1099656E+00
          1   -1    0    0  501    0  0.00000000000E+00  0.00000000000E+00  0.11646448162E+03  0.11646448162E+03  0.00000000000E+00 0. -1.
         -1   -1    0    0    0  501 -0.00000000000E+00 -0.00000000000E+00 -0.15981424304E+03  0.15981424304E+03  0.00000000000E+00 0.  1.
          5    1    1    2  502    0  0.83228946653E+02  0.23727243226E+02  0.25342047464E+02  0.90301434107E+02  0.47000000000E+01 0. -1.
         -5    1    1    2    0  502 -0.69577069169E+01  0.95887520092E+01 -0.63323000076E+02  0.64592926774E+02  0.47000000000E+01 0. -1.
        -11    1    1    2    0    0 -0.90755436093E+01 -0.34428629376E+02 -0.33164856959E+02  0.48658028624E+02  0.00000000000E+00 0.  1.
         11    1    1    2    0    0 -0.67195696127E+02  0.11126341413E+01  0.27796048144E+02  0.72726335156E+02  0.00000000000E+00 0. -1.
<mgrwt>
<rscale>  0 0.27285661E+03</rscale>
<asrwt>0</asrwt>
<pdfrwt beam="1">  1        1 0.17917613E-01 0.27285661E+03</pdfrwt>
<pdfrwt beam="2">  1       -1 0.24586807E-01 0.27285661E+03</pdfrwt>
<totfact> 0.41942450E+03</totfact>
</mgrwt>
</event>
<event>
 6    1  0.8353100E-006  0.1356238E+03  0.7546771E-02  0.1231834E+00
         -2   -1    0    0    0  501 -0.00000000000E+00  0.00000000000E+00  0.21902039814E+02  0.21902039814E+02  0.00000000000E+00 0.  1.
          2   -1    0    0  501    0  0.00000000000E+00 -0.00000000000E+00 -0.76035361629E+03  0.76035361629E+03  0.00000000000E+00 0. -1.
          5    1    1    2  502    0 -0.21754454806E+02 -0.40914554941E+02 -0.24529533853E+03  0.24967809318E+03  0.47000000000E+01 0. -1.
         -5    1    1    2    0  502  0.74235619817E+02  0.44686989340E+02 -0.30727867267E+03  0.31929629961E+03  0.47000000000E+01 0. -1.
        -11    1    1    2    0    0  0.62797271187E+01  0.31603094507E+02 -0.35157668419E+02  0.47689120392E+02  0.00000000000E+00 0.  1.
         11    1    1    2    0    0 -0.58760892129E+02 -0.35375528906E+02 -0.15071989685E+03  0.16559214292E+03  0.00000000000E+00 0. -1.
<mgrwt>
<rscale>  0 0.12709292E+03</rscale>
<asrwt>0</asrwt>
<pdfrwt beam="2">  1        2 0.11697749E+00 0.13562382E+03</pdfrwt>
<pdfrwt beam="1">  1       -2 0.33695443E-02 0.13562382E+03</pdfrwt>
<totfact> 0.12860479E+04</totfact>
</mgrwt>
</event>
<event>
 6    1  0.8353100E-006  0.2324087E+03  0.7546771E-02  0.1132393E+00
         -2   -1    0    0    0  501 -0.00000000000E+00  0.00000000000E+00  0.79258683083E+02  0.79258683083E+02  0.00000000000E+00 0.  1.
          2   -1    0    0  501    0  0.00000000000E+00 -0.00000000000E+00 -0.57700556935E+03  0.57700556935E+03  0.00000000000E+00 0. -1.
          5    1    1    2  502    0 -0.67653886281E+02  0.91297824340E+02 -0.29409290903E+03  0.31531741182E+03  0.47000000000E+01 0. -1.
         -5    1    1    2    0  502 -0.22550898680E+01  0.64450528732E+02 -0.70002504587E+01  0.65038831406E+02  0.47000000000E+01 0.  1.
        -11    1    1    2    0    0  0.34711353907E+02 -0.10158875974E+03 -0.17937174570E+03  0.20904396033E+03  0.00000000000E+00 0. -1.
         11    1    1    2    0    0  0.35197622241E+02 -0.54159593327E+02 -0.17281981076E+02  0.66864048866E+02  0.00000000000E+00 0.  1.
<mgrwt>
<rscale>  0 0.22201094E+03</rscale>
<asrwt>0</asrwt>
<pdfrwt beam="2">  1        2 0.88770091E-01 0.23240865E+03</pdfrwt>
<pdfrwt beam="1">  1       -2 0.12193643E-01 0.23240865E+03</pdfrwt>
<totfact> 0.25287834E+03</totfact>
</mgrwt>
</event>
<event>
 6    1  0.8353100E-006  0.1363856E+03  0.7546771E-02  0.1232841E+00
         -4   -1    0    0    0  501 -0.00000000000E+00  0.00000000000E+00  0.46130393554E+02  0.46130393554E+02  0.00000000000E+00 0.  1.
          4   -1    0    0  501    0  0.00000000000E+00 -0.00000000000E+00 -0.32384274147E+03  0.32384274147E+03  0.00000000000E+00 0. -1.
          5    1    1    2  502    0 -0.82550684082E+02 -0.15879630451E+02 -0.16918524493E+03  0.18897755213E+03  0.47000000000E+01 0. -1.
         -5    1    1    2    0  502  0.30344091983E+02  0.31662844343E+02 -0.33787160132E+02  0.55560433943E+02  0.47000000000E+01 0. -1.
        -11    1    1    2    0    0  0.87746057972E+01  0.16403688195E+02  0.12777161812E+02  0.22568353003E+02  0.00000000000E+00 0.  1.
         11    1    1    2    0    0  0.43431986302E+02 -0.32186902088E+02 -0.87517104665E+02  0.10286679595E+03  0.00000000000E+00 0. -1.
<mgrwt>
<rscale>  0 0.12643680E+03</rscale>
<asrwt>0</asrwt>
<pdfrwt beam="2">  1        4 0.49821963E-01 0.13638559E+03</pdfrwt>
<pdfrwt beam="1">  1       -4 0.70969832E-02 0.13638559E+03</pdfrwt>
<totfact> 0.87126916E+02</totfact>
</mgrwt>
</event>
<event>
 6    1  0.9198813E-006  0.1687371E+03  0.7546771E-02  0.1185607E+00
          3   -1    0    0  501    0  0.00000000000E+00  0.00000000000E+00  0.24580452734E+03  0.24580452734E+03  0.00000000000E+00 0. -1.
         -3   -1    0    0    0  501 -0.00000000000E+00 -0.00000000000E+00 -0.10768347814E+03  0.10768347814E+03  0.00000000000E+00 0.  1.
          5    1    1    2  502    0 -0.82969905517E+02 -0.46679317372E+02  0.50833251800E+02  0.10802348532E+03  0.47000000000E+01 0. -1.
         -5    1    1    2    0  502 -0.28912245566E+02  0.64850861438E+02  0.67412413425E+02  0.98020791961E+02  0.47000000000E+01 0. -1.
        -11    1    1    2    0    0  0.40959469533E+02  0.86454633665E+01  0.50565167751E+02  0.65644941701E+02  0.00000000000E+00 0. -1.
         11    1    1    2    0    0  0.70922681550E+02 -0.26817007432E+02 -0.30689783775E+02  0.81798786507E+02  0.00000000000E+00 0.  1.
<mgrwt>
<rscale>  0 0.16276798E+03</rscale>
<asrwt>0</asrwt>
<pdfrwt beam="1">  1        3 0.37816081E-01 0.16873709E+03</pdfrwt>
<pdfrwt beam="2">  1       -3 0.16566689E-01 0.16873709E+03</pdfrwt>
<totfact> 0.51704195E+02</totfact>
</mgrwt>
</event>
<event>
 6    1  0.8353100E-006  0.1475715E+03  0.7546771E-02  0.1213716E+00
         -2   -1    0    0    0  501 -0.00000000000E+00  0.00000000000E+00  0.25653375405E+02  0.25653375405E+02  0.00000000000E+00 0. -1.
          2   -1    0    0  501    0  0.00000000000E+00 -0.00000000000E+00 -0.79222472757E+03  0.79222472757E+03  0.00000000000E+00 0.  1.
          5    1    1    2  502    0  0.16702156274E+01  0.48447755869E+02 -0.14897067647E+03  0.15673010916E+03  0.47000000000E+01 0.  1.
         -5    1    1    2    0  502 -0.79822857219E+02 -0.55159208053E+02 -0.41669833672E+03  0.42787126638E+03  0.47000000000E+01 0.  1.
        -11    1    1    2    0    0  0.34668398174E+02  0.29988042231E+02 -0.28542281872E+02  0.53998540381E+02  0.00000000000E+00 0.  1.
         11    1    1    2    0    0  0.43484243418E+02 -0.23276590047E+02 -0.17236005710E+03  0.17927818706E+03  0.00000000000E+00 0. -1.
<mgrwt>
<rscale>  0 0.13971260E+03</rscale>
<asrwt>0</asrwt>
<pdfrwt beam="2">  1        2 0.12188072E+00 0.14757146E+03</pdfrwt>
<pdfrwt beam="1">  1       -2 0.39466734E-02 0.14757146E+03</pdfrwt>
<totfact> 0.97237668E+03</totfact>
</mgrwt>
</event>
<event>
 6    1  0.8353100E-006  0.1736576E+03  0.7546771E-02  0.1180497E+00
          1   -1    0    0  501    0  0.00000000000E+00  0.00000000000E+00  0.13495090015E+04  0.13495090015E+04  0.00000000000E+00 0. -1.
         -1   -1    0    0    0  501 -0.00000000000E+00 -0.00000000000E+00 -0.19482018099E+02  0.19482018099E+02  0.00000000000E+00 0.  1.
          5    1    1    2  502    0 -0.84797773051E+02  0.53448022959E+02  0.26479774683E+03  0.28317360435E+03  0.47000000000E+01 0.  1.
         -5    1    1    2    0  502  0.63188187373E+01  0.38053348905E+02  0.48135208561E+03  0.48291811434E+03  0.47000000000E+01 0.  1.
        -11    1    1    2    0    0  0.42111519467E+02 -0.10215660626E+03  0.38988253299E+03  0.40523788299E+03  0.00000000000E+00 0. -1.
         11    1    1    2    0    0  0.36367434847E+02  0.10655234398E+02  0.19399461797E+03  0.19766141793E+03  0.00000000000E+00 0.  1.
<mgrwt>
<rscale>  0 0.16748420E+03</rscale>
<asrwt>0</asrwt>
<pdfrwt beam="1">  1        1 0.20761670E+00 0.17365756E+03</pdfrwt>
<pdfrwt beam="2">  1       -1 0.29972346E-02 0.17365756E+03</pdfrwt>
<totfact> 0.33874152E+03</totfact>
</mgrwt>
</event>
<event>
 6    1  0.8353100E-006  0.3448883E+03  0.7546771E-02  0.1064733E+00
          2   -1    0    0  501    0  0.00000000000E+00  0.00000000000E+00  0.15984198147E+03  0.15984198147E+03  0.00000000000E+00 0. -1.
         -2   -1    0    0    0  501 -0.00000000000E+00 -0.00000000000E+00 -0.18603990564E+03  0.18603990564E+03  0.00000000000E+00 0.  1.
          5    1    1    2  502    0 -0.37504270619E+01 -0.22124025075E+01  0.98168082618E+02  0.98376942791E+02  0.47000000000E+01 0. -1.
         -5    1    1    2    0  502 -0.40981765801E+02 -0.58605722840E+02  0.47948458199E+01  0.71827685639E+02  0.47000000000E+01 0.  1.
        -11    1    1    2    0    0  0.46428381638E+02  0.83662493152E+02 -0.11019047932E+03  0.14593474266E+03  0.00000000000E+00 0.  1.
         11    1    1    2    0    0 -0.16961887746E+01 -0.22844367805E+02 -0.18970373288E+02  0.29742516024E+02  0.00000000000E+00 0. -1.
<mgrwt>
<rscale>  0 0.34488831E+03</rscale>
<asrwt>0</asrwt>
<pdfrwt beam="1">  1        2 0.24591074E-01 0.34488831E+03</pdfrwt>
<pdfrwt beam="2">  1       -2 0.28621524E-01 0.34488831E+03</pdfrwt>
<totfact> 0.24519931E+03</totfact>
</mgrwt>
</event>
<event>
 6    1  0.8353100E-006  0.3581173E+03  0.7546771E-02  0.1059332E+00
          2   -1    0    0  501    0  0.00000000000E+00  0.00000000000E+00  0.36350649501E+03  0.36350649501E+03  0.00000000000E+00 0. -1.
         -2   -1    0    0    0  501 -0.00000000000E+00 -0.00000000000E+00 -0.88202012735E+02  0.88202012735E+02  0.00000000000E+00 0.  1.
          5    1    1    2  502    0  0.45409420156E+02 -0.26557038235E+02  0.72016740208E+02  0.89307293033E+02  0.47000000000E+01 0. -1.
         -5    1    1    2    0  502 -0.70345885294E+02 -0.11121800291E+03  0.10088839462E+03  0.16588714814E+03  0.47000000000E+01 0. -1.
        -11    1    1    2    0    0  0.58093357442E+02  0.74139771479E+02  0.72132254648E+02  0.11863644488E+03  0.00000000000E+00 0. -1.
         11    1    1    2    0    0 -0.33156892305E+02  0.63635269669E+02  0.30267092801E+02  0.77877621688E+02  0.00000000000E+00 0.  1.
<mgrwt>
<rscale>  0 0.35811732E+03</rscale>
<asrwt>0</asrwt>
<pdfrwt beam="1">  1        2 0.55924075E-01 0.35811732E+03</pdfrwt>
<pdfrwt beam="2">  1       -2 0.13569541E-01 0.35811732E+03</pdfrwt>
<totfact> 0.35986151E+03</totfact>
</mgrwt>
</event>
<event>
 6    1  0.8353100E-006  0.3168758E+03  0.7546771E-02  0.1078530E+00
          1   -1    0    0  501    0  0.00000000000E+00  0.00000000000E+00  0.37193266051E+03  0.37193266051E+03  0.00000000000E+00 0. -1.
         -1   -1    0    0    0  501 -0.00000000000E+00 -0.00000000000E+00 -0.26048951597E+03  0.26048951597E+03  0.00000000000E+00 0.  1.
          5    1    1    2  502    0  0.20250927274E+01 -0.15209684933E+03 -0.10787425671E+02  0.15256477683E+03  0.47000000000E+01 0. -1.
         -5    1    1    2    0  502  0.10574033488E+03 -0.11840924166E+03  0.51247398109E+02  0.16688365032E+03  0.47000000000E+01 0. -1.
        -11    1    1    2    0    0 -0.37254415614E+02  0.16382223836E+03  0.27465473900E+01  0.16802726203E+03  0.00000000000E+00 0.  1.
         11    1    1    2    0    0 -0.70511011993E+02  0.10668385264E+03  0.68236624712E+02  0.14494648729E+03  0.00000000000E+00 0. -1.
<mgrwt>
<rscale>  0 0.31381735E+03</rscale>
<asrwt>0</asrwt>
<pdfrwt beam="1">  1        1 0.57220410E-01 0.31687582E+03</pdfrwt>
<pdfrwt beam="2">  1       -1 0.40075310E-01 0.31687582E+03</pdfrwt>
<totfact> 0.41106834E+02</totfact>
</mgrwt>
</event>
<event>
 6    1  0.8353100E-006  0.1900300E+03  0.7546771E-02  0.1163492E+00
         -2   -1    0    0    0  501 -0.00000000000E+00  0.00000000000E+00  0.29262884867E+02  0.29262884867E+02  0.00000000000E+00 0.  1.
          2   -1    0    0  501    0  0.00000000000E+00 -0.00000000000E+00 -0.12173222015E+04  0.12173222015E+04  0.00000000000E+00 0. -1.
          5    1    1    2  502    0 -0.11798653566E+02 -0.68987199692E+02 -0.66818231288E+03  0.67185425145E+03  0.47000000000E+01 0. -1.
         -5    1    1    2    0  502 -0.39240776704E+02 -0.64741621547E+02 -0.14977032847E+03  0.16788257029E+03  0.47000000000E+01 0. -1.
        -11    1    1    2    0    0  0.40749779931E+02  0.27706410406E+02 -0.53184356019E+02  0.72503554859E+02  0.00000000000E+00 0.  1.
         11    1    1    2    0    0  0.10289650338E+02  0.10602241083E+03 -0.31692231931E+03  0.33434470981E+03  0.00000000000E+00 0. -1.
<mgrwt>
<rscale>  0 0.18452740E+03</rscale>
<asrwt>0</asrwt>
<pdfrwt beam="2">  1        2 0.18728030E+00 0.19003001E+03</pdfrwt>
<pdfrwt beam="1">  1       -2 0.45019832E-02 0.19003001E+03</pdfrwt>
<totfact> 0.44497380E+03</totfact>
</mgrwt>
</event>
<event>
 6    1  0.8353100E-006  0.1310501E+03  0.7546771E-02  0.1238731E+00
          1   -1    0    0  501    0  0.00000000000E+00  0.00000000000E+00  0.59490525062E+02  0.59490525062E+02  0.00000000000E+00 0. -1.
         -1   -1    0    0    0  501 -0.00000000000E+00 -0.00000000000E+00 -0.22596860856E+03  0.22596860856E+03  0.00000000000E+00 0.  1.
          5    1    1    2  502    0  0.34497620324E+02 -0.30141885710E+02  0.11276453279E+01  0.46064961371E+02  0.47000000000E+01 0. -1.
         -5    1    1    2    0  502 -0.62144370035E+02  0.42066082035E+01 -0.10078987388E+03  0.11857616521E+03  0.47000000000E+01 0.  1.
        -11    1    1    2    0    0  0.49196334788E+02  0.51081997885E+01 -0.21065130245E+01  0.49505660876E+02  0.00000000000E+00 0. -1.
         11    1    1    2    0    0 -0.21549585076E+02  0.20827077718E+02 -0.64709341922E+02  0.71312346163E+02  0.00000000000E+00 0.  1.
<mgrwt>
<rscale>  0 0.12268555E+03</rscale>
<asrwt>0</asrwt>
<pdfrwt beam="1">  1        1 0.91523886E-02 0.13105015E+03</pdfrwt>
<pdfrwt beam="2">  1       -1 0.34764401E-01 0.13105015E+03</pdfrwt>
<totfact> 0.54389178E+03</totfact>
</mgrwt>
</event>
<event>
 6    1  0.8353100E-006  0.3427060E+03  0.7546771E-02  0.1065649E+00
         -2   -1    0    0    0  501 -0.00000000000E+00  0.00000000000E+00  0.61143928816E+02  0.61143928816E+02  0.00000000000E+00 0.  1.
          2   -1    0    0  501    0  0.00000000000E+00 -0.00000000000E+00 -0.48020869752E+03  0.48020869752E+03  0.00000000000E+00 0. -1.
          5    1    1    2  502    0  0.81989986283E+02  0.54997339120E+02 -0.34611768773E+03  0.35995362051E+03  0.47000000000E+01 0.  1.
         -5    1    1    2    0  502  0.12521978009E+02  0.19979311327E+01  0.89349387257E+01  0.16208479018E+02  0.47000000000E+01 0.  1.
        -11    1    1    2    0    0 -0.13503332242E+02 -0.59234639066E+02 -0.22762896881E+02  0.64878593706E+02  0.00000000000E+00 0.  1.
         11    1    1    2    0    0 -0.81008632050E+02  0.22393688130E+01 -0.59119122821E+02  0.10031193310E+03  0.00000000000E+00 0. -1.
<mgrwt>
<rscale>  0 0.34270598E+03</rscale>
<asrwt>0</asrwt>
<pdfrwt beam="2">  1        2 0.73878260E-01 0.34270598E+03</pdfrwt>
<pdfrwt beam="1">  1       -2 0.94067584E-02 0.34270598E+03</pdfrwt>
<totfact> 0.47821831E+03</totfact>
</mgrwt>
</event>
<event>
 6    1  0.8353100E-006  0.1632998E+03  0.7546771E-02  0.1192339E+00
          2   -1    0    0  501    0  0.00000000000E+00  0.00000000000E+00  0.32539257224E+03  0.32539257224E+03  0.00000000000E+00 0. -1.
         -2   -1    0    0    0  501 -0.00000000000E+00 -0.00000000000E+00 -0.71476837454E+02  0.71476837454E+02  0.00000000000E+00 0.  1.
          5    1    1    2  502    0 -0.78205402262E+02 -0.75061319625E+02  0.10930488238E+03  0.15401277206E+03  0.47000000000E+01 0. -1.
         -5    1    1    2    0  502 -0.23643477262E+02  0.49211404217E+02  0.54675984808E+02  0.77410139109E+02  0.47000000000E+01 0. -1.
        -11    1    1    2    0    0  0.67258216242E+02 -0.28554505513E+02  0.36328375290E+02  0.81601337540E+02  0.00000000000E+00 0.  1.
         11    1    1    2    0    0  0.34590663282E+02  0.54404420922E+02  0.53606492305E+02  0.83845160978E+02  0.00000000000E+00 0. -1.
<mgrwt>
<rscale>  0 0.15681576E+03</rscale>
<asrwt>0</asrwt>
<pdfrwt beam="1">  1        2 0.50060395E-01 0.16329984E+03</pdfrwt>
<pdfrwt beam="2">  1       -2 0.10996437E-01 0.16329984E+03</pdfrwt>
<totfact> 0.55180111E+03</totfact>
</mgrwt>
</event>
<event>
 6    1  0.8353100E-006  0.3723111E+03  0.7546771E-02  0.1053813E+00
          1   -1    0    0  501    0  0.00000000000E+00  0.00000000000E+00  0.48543215624E+03  0.48543215624E+03  0.00000000000E+00 0. -1.
         -1   -1    0    0    0  501 -0.00000000000E+00 -0.00000000000E+00 -0.71387696842E+02  0.71387696842E+02  0.00000000000E+00 0.  1.
          5    1    1    2  502    0  0.44357480809E+02 -0.54381582402E+02  0.41661082663E+03  0.42250634726E+03  0.47000000000E+01 0. -1.
         -5    1    1    2    0  502  0.97879739935E+01  0.38959919979E+01 -0.92137363763E+01  0.14763675916E+02  0.47000000000E+01 0.  1.
        -11    1    1    2    0    0 -0.72064863615E+02  0.14548108507E+02  0.21715378313E+02  0.76658656942E+02  0.00000000000E+00 0.  1.
         11    1    1    2    0    0  0.17919408813E+02  0.35937481897E+02 -0.15068009175E+02  0.42891172959E+02  0.00000000000E+00 0. -1.
<mgrwt>
<rscale>  0 0.37231107E+03</rscale>
<asrwt>0</asrwt>
<pdfrwt beam="1">  1        1 0.74681868E-01 0.37231107E+03</pdfrwt>
<pdfrwt beam="2">  1       -1 0.10982723E-01 0.37231107E+03</pdfrwt>
<totfact> 0.24827970E+03</totfact>
</mgrwt>
</event>
<event>
 6    1  0.8353100E-006  0.1443258E+03  0.7546771E-02  0.1217984E+00
          1   -1    0    0  501    0  0.00000000000E+00  0.00000000000E+00  0.24180904824E+04  0.24180904824E+04  0.00000000000E+00 0. -1.
         -1   -1    0    0    0  501 -0.00000000000E+00 -0.00000000000E+00 -0.86660675481E+01  0.86660675481E+01  0.00000000000E+00 0.  1.
          5    1    1    2  502    0 -0.35449727593E+02 -0.44113659685E+02  0.16880343531E+04  0.16889892733E+04  0.47000000000E+01 0. -1.
         -5    1    1    2    0  502  0.26210755724E+02 -0.27433465481E+02  0.15340810834E+03  0.15810039990E+03  0.47000000000E+01 0. -1.
        -11    1    1    2    0    0 -0.39684311316E+02  0.19027128463E+02  0.21121360375E+03  0.21575000021E+03  0.00000000000E+00 0. -1.
         11    1    1    2    0    0  0.48923283185E+02  0.52519996702E+02  0.35676834970E+03  0.36391687655E+03  0.00000000000E+00 0.  1.
<mgrwt>
<rscale>  0 0.13659576E+03</rscale>
<asrwt>0</asrwt>
<pdfrwt beam="1">  1        1 0.37201338E+00 0.14432575E+03</pdfrwt>
<pdfrwt beam="2">  1       -1 0.13332431E-02 0.14432575E+03</pdfrwt>
<totfact> 0.22368715E+03</totfact>
</mgrwt>
</event>
<event>
 6    1  0.8353100E-006  0.3163960E+03  0.7546771E-02  0.1078797E+00
          2   -1    0    0  501    0  0.00000000000E+00  0.00000000000E+00  0.23502969102E+03  0.23502969102E+03  0.00000000000E+00 0. -1.
         -2   -1    0    0    0  501 -0.00000000000E+00 -0.00000000000E+00 -0.41000117151E+03  0.41000117151E+03  0.00000000000E+00 0.  1.
          5    1    1    2  502    0 -0.17478483385E+03 -0.28757471200E+02  0.37423154251E+01  0.17723663622E+03  0.47000000000E+01 0. -1.
         -5    1    1    2    0  502 -0.11019320976E+03 -0.28420131137E+02 -0.10515202532E+03  0.15501382441E+03  0.47000000000E+01 0. -1.
        -11    1    1    2    0    0  0.17841506457E+03 -0.88593608061E+01 -0.42223988923E+02  0.18355731743E+03  0.00000000000E+00 0.  1.
         11    1    1    2    0    0  0.10656297904E+03  0.66036963142E+02 -0.31337781674E+02  0.12922308448E+03  0.00000000000E+00 0. -1.
<mgrwt>
<rscale>  0 0.31325221E+03</rscale>
<asrwt>0</asrwt>
<pdfrwt beam="1">  1        2 0.36158414E-01 0.31639602E+03</pdfrwt>
<pdfrwt beam="2">  1       -2 0.63077103E-01 0.31639602E+03</pdfrwt>
<totfact> 0.34126397E+02</totfact>
</mgrwt>
</event>
<event>
 6    1  0.8353100E-006  0.1406859E+03  0.7546771E-02  0.1234762E+00
          1   -1    0    0  501    0  0.00000000000E+00  0.00000000000E+00  0.17812897196E+04  0.17812897196E+04  0.00000000000E+00 0. -1.
         -1   -1    0    0    0  501 -0.00000000000E+00 -0.00000000000E+00 -0.10472490224E+02  0.10472490224E+02  0.00000000000E+00 0.  1.
          5    1    1    2  502    0 -0.29711182901E+02 -0.46638950633E+02  0.85570147078E+03  0.85749929632E+03  0.47000000000E+01 0. -1.
         -5    1    1    2    0  502  0.63904578529E+02  0.45963489573E+02  0.65191239753E+03  0.65666452743E+03  0.47000000000E+01 0.  1.
        -11    1    1    2    0    0 -0.32386662283E+02 -0.37763986740E+02  0.14798275894E+03  0.15612146404E+03  0.00000000000E+00 0. -1.
         11    1    1    2    0    0 -0.18067333453E+01  0.38439447800E+02  0.11522060211E+03  0.12147692201E+03  0.00000000000E+00 0.  1.
<mgrwt>
<rscale>  0 0.12519706E+03</rscale>
<asrwt>0</asrwt>
<pdfrwt beam="1">  1        1 0.27404433E+00 0.14068585E+03</pdfrwt>
<pdfrwt beam="2">  1       -1 0.16111538E-02 0.14068585E+03</pdfrwt>
<totfact> 0.43544855E+03</totfact>
</mgrwt>
</event>
<event>
 6    1  0.8353100E-006  0.2103523E+03  0.7546771E-02  0.1144936E+00
          2   -1    0    0  501    0  0.00000000000E+00  0.00000000000E+00  0.10140920790E+04  0.10140920790E+04  0.00000000000E+00 0. -1.
         -2   -1    0    0    0  501 -0.00000000000E+00 -0.00000000000E+00 -0.48995698121E+02  0.48995698121E+02  0.00000000000E+00 0.  1.
          5    1    1    2  502    0  0.11656816169E+03 -0.19692536437E+02  0.25035795554E+03  0.27690635278E+03  0.47000000000E+01 0. -1.
         -5    1    1    2    0  502  0.43563567652E+02 -0.34917269869E+02  0.47634645613E+03  0.47963010375E+03  0.47000000000E+01 0. -1.
        -11    1    1    2    0    0 -0.53678011348E+02  0.63565033856E+02  0.79421149896E+02  0.11501983082E+03  0.00000000000E+00 0.  1.
         11    1    1    2    0    0 -0.10645371799E+03 -0.89552275498E+01  0.15897081928E+03  0.19153148973E+03  0.00000000000E+00 0. -1.
<mgrwt>
<rscale>  0 0.20579988E+03</rscale>
<asrwt>0</asrwt>
<pdfrwt beam="1">  1        2 0.15601415E+00 0.21035234E+03</pdfrwt>
<pdfrwt beam="2">  1       -2 0.75378005E-02 0.21035234E+03</pdfrwt>
<totfact> 0.26593377E+03</totfact>
</mgrwt>
</event>
<event>
 6    1  0.8353100E-006  0.3767212E+03  0.7546771E-02  0.1053102E+00
          1   -1    0    0  501    0  0.00000000000E+00  0.00000000000E+00  0.34745145903E+04  0.34745145903E+04  0.00000000000E+00 0. -1.
         -1   -1    0    0    0  501 -0.00000000000E+00 -0.00000000000E+00 -0.42339440806E+02  0.42339440806E+02  0.00000000000E+00 0.  1.
          5    1    1    2  502    0 -0.19897348685E+03  0.20427594340E+03  0.14227987937E+04  0.14511022042E+04  0.47000000000E+01 0.  1.
         -5    1    1    2    0  502 -0.19156233692E+02  0.76281558619E+02  0.74843788206E+03  0.75257371120E+03  0.47000000000E+01 0.  1.
        -11    1    1    2    0    0  0.73761108817E+02 -0.44151524553E+02  0.22557603264E+03  0.24140133553E+03  0.00000000000E+00 0.  1.
         11    1    1    2    0    0  0.14436861173E+03 -0.23640597746E+03  0.10353624411E+04  0.10717767802E+04  0.00000000000E+00 0. -1.
<mgrwt>
<rscale>  0 0.37419120E+03</rscale>
<asrwt>0</asrwt>
<pdfrwt beam="1">  1        1 0.53454048E+00 0.37672117E+03</pdfrwt>
<pdfrwt beam="2">  1       -1 0.65137629E-02 0.37672117E+03</pdfrwt>
<totfact> 0.37343281E+01</totfact>
</mgrwt>
</event>
<event>
 6    1  0.8353100E-006  0.1355691E+03  0.7546771E-02  0.1232038E+00
         -1   -1    0    0    0  501 -0.00000000000E+00  0.00000000000E+00  0.11552085758E+02  0.11552085758E+02  0.00000000000E+00 0.  1.
          1   -1    0    0  501    0  0.00000000000E+00 -0.00000000000E+00 -0.16596297555E+04  0.16596297555E+04  0.00000000000E+00 0. -1.
          5    1    1    2  502    0  0.29975434597E+02  0.80713826316E+02 -0.84143141486E+03  0.84583814311E+03  0.47000000000E+01 0.  1.
         -5    1    1    2    0  502  0.10953928847E+02 -0.47878622212E+02 -0.47828432275E+03  0.48082256021E+03  0.47000000000E+01 0.  1.
        -11    1    1    2    0    0 -0.79945292361E+01 -0.59695078041E+02 -0.16253993180E+03  0.17333967887E+03  0.00000000000E+00 0.  1.
         11    1    1    2    0    0 -0.32934834208E+02  0.26859873936E+02 -0.16582200031E+03  0.17118145904E+03  0.00000000000E+00 0. -1.
<mgrwt>
<rscale>  0 0.12695962E+03</rscale>
<asrwt>0</asrwt>
<pdfrwt beam="2">  1        1 0.25532751E+00 0.13556915E+03</pdfrwt>
<pdfrwt beam="1">  1       -1 0.17772449E-02 0.13556915E+03</pdfrwt>
<totfact> 0.45175684E+03</totfact>
</mgrwt>
</event>
<event>
 6    1  0.8353100E-006  0.1384737E+03  0.7546771E-02  0.1226573E+00
          1   -1    0    0  501    0  0.00000000000E+00  0.00000000000E+00  0.10852917539E+03  0.10852917539E+03  0.00000000000E+00 0. -1.
         -1   -1    0    0    0  501 -0.00000000000E+00 -0.00000000000E+00 -0.18370104812E+03  0.18370104812E+03  0.00000000000E+00 0.  1.
          5    1    1    2  502    0 -0.26950510781E+02  0.12078819409E+02 -0.37691905018E+02  0.48114422095E+02  0.47000000000E+01 0.  1.
         -5    1    1    2    0  502  0.49378010154E+02  0.43054110311E+02  0.66217652117E+02  0.93266884549E+02  0.47000000000E+01 0.  1.
        -11    1    1    2    0    0  0.18746566230E+02 -0.55970716415E+02 -0.29498657092E+02  0.65987314021E+02  0.00000000000E+00 0. -1.
         11    1    1    2    0    0 -0.41174065603E+02  0.83778669404E+00 -0.74198962744E+02  0.84861602843E+02  0.00000000000E+00 0.  1.
<mgrwt>
<rscale>  0 0.13059694E+03</rscale>
<asrwt>0</asrwt>
<pdfrwt beam="1">  1        1 0.16696796E-01 0.13847366E+03</pdfrwt>
<pdfrwt beam="2">  1       -1 0.28261699E-01 0.13847366E+03</pdfrwt>
<totfact> 0.35245303E+03</totfact>
</mgrwt>
</event>
<event>
 6    1  0.8353100E-006  0.1341597E+03  0.7546771E-02  0.1223070E+00
         -1   -1    0    0    0  501 -0.00000000000E+00  0.00000000000E+00  0.25049169882E+02  0.25049169882E+02  0.00000000000E+00 0.  1.
          1   -1    0    0  501    0  0.00000000000E+00 -0.00000000000E+00 -0.10793581180E+04  0.10793581180E+04  0.00000000000E+00 0. -1.
          5    1    1    2  502    0 -0.40881473561E+02  0.31921391797E+02 -0.19908190464E+03  0.20578135215E+03  0.47000000000E+01 0. -1.
         -5    1    1    2    0  502  0.21336943938E+02 -0.59885466668E+02 -0.65200649939E+03  0.65511533301E+03  0.47000000000E+01 0. -1.
        -11    1    1    2    0    0  0.12239708595E+02 -0.13260029441E+02  0.13655910403E+02  0.22630128948E+02  0.00000000000E+00 0.  1.
         11    1    1    2    0    0  0.73048210272E+01  0.41224104312E+02 -0.21687645450E+03  0.22088047380E+03  0.00000000000E+00 0. -1.
<mgrwt>
<rscale>  0 0.13300047E+03</rscale>
<asrwt>0</asrwt>
<pdfrwt beam="2">  1        1 0.16605509E+00 0.13415970E+03</pdfrwt>
<pdfrwt beam="1">  1       -1 0.38537187E-02 0.13415970E+03</pdfrwt>
<totfact> 0.35688033E+03</totfact>
</mgrwt>
</event>
<event>
 6    1  0.8353100E-006  0.1277866E+03  0.7546771E-02  0.1245699E+00
          1   -1    0    0  501    0  0.00000000000E+00  0.00000000000E+00  0.61883558882E+03  0.61883558882E+03  0.00000000000E+00 0. -1.
         -1   -1    0    0    0  501 -0.00000000000E+00 -0.00000000000E+00 -0.20201585299E+02  0.20201585299E+02  0.00000000000E+00 0.  1.
          5    1    1    2  502    0  0.15702761980E+02  0.51218127179E+02  0.33870519142E+03  0.34294776567E+03  0.47000000000E+01 0. -1.
         -5    1    1    2    0  502  0.82804924875E+01 -0.39836062342E+02  0.42144521155E+02  0.58768436104E+02  0.47000000000E+01 0. -1.
        -11    1    1    2    0    0  0.19070738201E+02 -0.22128717290E+02  0.21998120400E+02  0.36568982561E+02  0.00000000000E+00 0.  1.
         11    1    1    2    0    0 -0.43053992669E+02  0.10746652453E+02  0.19578617055E+03  0.20075198978E+03  0.00000000000E+00 0. -1.
<mgrwt>
<rscale>  0 0.11843613E+03</rscale>
<asrwt>0</asrwt>
<pdfrwt beam="1">  1        1 0.95205461E-01 0.12778655E+03</pdfrwt>
<pdfrwt beam="2">  1       -1 0.31079367E-02 0.12778655E+03</pdfrwt>
<totfact> 0.11444539E+04</totfact>
</mgrwt>
</event>
<event>
 6    1  0.8353100E-006  0.1406054E+03  0.7546771E-02  0.1222937E+00
         -3   -1    0    0    0  501 -0.00000000000E+00  0.00000000000E+00  0.54392933045E+03  0.54392933045E+03  0.00000000000E+00 0.  1.
          3   -1    0    0  501    0  0.00000000000E+00 -0.00000000000E+00 -0.43365497281E+02  0.43365497281E+02  0.00000000000E+00 0. -1.
          5    1    1    2  502    0  0.13440378414E+02  0.30277578326E+02 -0.71430271777E+01  0.34212400653E+02  0.47000000000E+01 0.  1.
         -5    1    1    2    0  502 -0.77355047234E+02 -0.38006598162E+02  0.11089739839E+03  0.14052981110E+03  0.47000000000E+01 0.  1.
        -11    1    1    2    0    0  0.17139122418E+01 -0.33160521004E+02  0.71479120998E+02  0.78815115220E+02  0.00000000000E+00 0.  1.
         11    1    1    2    0    0  0.62200756578E+02  0.40889540841E+02  0.32533034096E+03  0.33373750077E+03  0.00000000000E+00 0. -1.
<mgrwt>
<rscale>  0 0.13309317E+03</rscale>
<asrwt>0</asrwt>
<pdfrwt beam="2">  1        3 0.66716154E-02 0.14060537E+03</pdfrwt>
<pdfrwt beam="1">  1       -3 0.83681430E-01 0.14060537E+03</pdfrwt>
<totfact> 0.45190127E+02</totfact>
</mgrwt>
</event>
<event>
 6    1  0.8353100E-006  0.2447881E+03  0.7546771E-02  0.1116644E+00
          2   -1    0    0  501    0  0.00000000000E+00  0.00000000000E+00  0.86029821781E+03  0.86029821781E+03  0.00000000000E+00 0. -1.
         -2   -1    0    0    0  501 -0.00000000000E+00 -0.00000000000E+00 -0.17412921885E+02  0.17412921885E+02  0.00000000000E+00 0.  1.
          5    1    1    2  502    0 -0.44306353030E+02  0.32936779629E+02  0.82024250505E+02  0.98984605076E+02  0.47000000000E+01 0.  1.
         -5    1    1    2    0  502  0.19832401365E+01 -0.53868381059E+00  0.45297976375E+03  0.45300880762E+03  0.47000000000E+01 0.  1.
        -11    1    1    2    0    0 -0.68796586222E+01  0.20410939337E+02  0.21701045408E+02  0.30575668744E+02  0.00000000000E+00 0.  1.
         11    1    1    2    0    0  0.49202771515E+02 -0.52809035156E+02  0.28618023626E+03  0.29514205825E+03  0.00000000000E+00 0. -1.
<mgrwt>
<rscale>  0 0.24478812E+03</rscale>
<asrwt>0</asrwt>
<pdfrwt beam="1">  1        2 0.13235354E+00 0.24478812E+03</pdfrwt>
<pdfrwt beam="2">  1       -2 0.26789117E-02 0.24478812E+03</pdfrwt>
<totfact> 0.16026185E+04</totfact>
</mgrwt>
</event>
<event>
 6    1  0.8353100E-006  0.3340624E+03  0.7546771E-02  0.1069353E+00
          3   -1    0    0  501    0  0.00000000000E+00  0.00000000000E+00  0.16670161782E+03  0.16670161782E+03  0.00000000000E+00 0.  1.
         -3   -1    0    0    0  501 -0.00000000000E+00 -0.00000000000E+00 -0.16736145033E+03  0.16736145033E+03  0.00000000000E+00 0. -1.
          5    1    1    2  502    0  0.10136585722E+03  0.89573659059E+02  0.39641973769E+02  0.14103919133E+03  0.47000000000E+01 0. -1.
         -5    1    1    2    0  502 -0.10160786530E+02 -0.27387128987E+02  0.21531303887E+02  0.36592122979E+02  0.47000000000E+01 0. -1.
        -11    1    1    2    0    0 -0.48170764680E+02  0.18670927985E+02 -0.28183513700E+02  0.58850119509E+02  0.00000000000E+00 0.  1.
         11    1    1    2    0    0 -0.43034306012E+02 -0.80857458057E+02 -0.33649596462E+02  0.97581634335E+02  0.00000000000E+00 0. -1.
<mgrwt>
<rscale>  0 0.33406242E+03</rscale>
<asrwt>0</asrwt>
<pdfrwt beam="1">  1        3 0.25646403E-01 0.33406242E+03</pdfrwt>
<pdfrwt beam="2">  1       -3 0.25747915E-01 0.33406242E+03</pdfrwt>
<totfact> 0.52757491E+02</totfact>
</mgrwt>
</event>
<event>
 6    1  0.8353100E-006  0.1506777E+03  0.7546771E-02  0.1208493E+00
         -1   -1    0    0    0  501 -0.00000000000E+00  0.00000000000E+00  0.32073876188E+02  0.32073876188E+02  0.00000000000E+00 0.  1.
          1   -1    0    0  501    0  0.00000000000E+00 -0.00000000000E+00 -0.59857148614E+03  0.59857148614E+03  0.00000000000E+00 0. -1.
          5    1    1    2  502    0  0.57626285508E+02 -0.14822023421E+02 -0.48528409860E+02  0.76925793615E+02  0.47000000000E+01 0. -1.
         -5    1    1    2    0  502  0.51637175179E+01 -0.41177378683E+02 -0.29843252004E+03  0.30134083611E+03  0.47000000000E+01 0. -1.
        -11    1    1    2    0    0  0.19564519083E+02  0.19011985060E+02 -0.93131725590E+02  0.97045063214E+02  0.00000000000E+00 0. -1.
         11    1    1    2    0    0 -0.82354522109E+02  0.36987417044E+02 -0.12640495447E+03  0.15533366939E+03  0.00000000000E+00 0.  1.
<mgrwt>
<rscale>  0 0.14365589E+03</rscale>
<asrwt>0</asrwt>
<pdfrwt beam="2">  1        1 0.92087916E-01 0.15067766E+03</pdfrwt>
<pdfrwt beam="1">  1       -1 0.49344428E-02 0.15067766E+03</pdfrwt>
<totfact> 0.61377867E+03</totfact>
</mgrwt>
</event>
<event>
 6    1  0.8353100E-006  0.1441066E+03  0.7546771E-02  0.1225634E+00
         -1   -1    0    0    0  501 -0.00000000000E+00  0.00000000000E+00  0.13046849839E+03  0.13046849839E+03  0.00000000000E+00 0.  1.
          1   -1    0    0  501    0  0.00000000000E+00 -0.00000000000E+00 -0.13490054292E+03  0.13490054292E+03  0.00000000000E+00 0. -1.
          5    1    1    2  502    0 -0.15679207755E+02 -0.75224123841E+01  0.37804415056E+02  0.41877058656E+02  0.47000000000E+01 0.  1.
         -5    1    1    2    0  502  0.39350139484E+01 -0.63212907755E+02 -0.92620348131E+02  0.11230304951E+03  0.47000000000E+01 0.  1.
        -11    1    1    2    0    0 -0.82395475196E+01  0.10392269065E+02 -0.14983849320E+02  0.20010125939E+02  0.00000000000E+00 0. -1.
         11    1    1    2    0    0  0.19983741326E+02  0.60343051074E+02  0.65367737862E+02  0.91178807206E+02  0.00000000000E+00 0.  1.
<mgrwt>
<rscale>  0 0.13123554E+03</rscale>
<asrwt>0</asrwt>
<pdfrwt beam="2">  1        1 0.20753930E-01 0.14410662E+03</pdfrwt>
<pdfrwt beam="1">  1       -1 0.20072077E-01 0.14410662E+03</pdfrwt>
<totfact> 0.46826964E+03</totfact>
</mgrwt>
</event>
<event>
 6    1  0.8353100E-006  0.1457123E+03  0.7546771E-02  0.1213176E+00
          2   -1    0    0  501    0  0.00000000000E+00  0.00000000000E+00  0.52556988922E+03  0.52556988922E+03  0.00000000000E+00 0. -1.
         -2   -1    0    0    0  501 -0.00000000000E+00 -0.00000000000E+00 -0.35713459911E+02  0.35713459911E+02  0.00000000000E+00 0.  1.
          5    1    1    2  502    0 -0.37467991228E+02 -0.69834889967E+01  0.91759756194E+01  0.39483009179E+02  0.47000000000E+01 0. -1.
         -5    1    1    2    0  502 -0.36043820884E+02 -0.71938773553E+01  0.30033535251E+03  0.30261249621E+03  0.47000000000E+01 0. -1.
        -11    1    1    2    0    0 -0.17214971338E+02  0.27162435787E+02  0.36715293755E+02  0.48807437462E+02  0.00000000000E+00 0.  1.
         11    1    1    2    0    0  0.90726783450E+02 -0.12985069435E+02  0.14362980743E+03  0.17038040628E+03  0.00000000000E+00 0. -1.
<mgrwt>
<rscale>  0 0.14011349E+03</rscale>
<asrwt>0</asrwt>
<pdfrwt beam="1">  1        2 0.80856900E-01 0.14571229E+03</pdfrwt>
<pdfrwt beam="2">  1       -2 0.54943788E-02 0.14571229E+03</pdfrwt>
<totfact> 0.95521700E+03</totfact>
</mgrwt>
</event>
<event>
 6    1  0.8353100E-006  0.1265209E+03  0.7546771E-02  0.1247474E+00
          2   -1    0    0  501    0  0.00000000000E+00  0.00000000000E+00  0.58043991830E+03  0.58043991830E+03  0.00000000000E+00 0. -1.
         -2   -1    0    0    0  501 -0.00000000000E+00 -0.00000000000E+00 -0.35571374002E+02  0.35571374002E+02  0.00000000000E+00 0.  1.
          5    1    1    2  502    0 -0.12243700239E+02 -0.64912911956E+02  0.19292205108E+03  0.20397206213E+03  0.47000000000E+01 0. -1.
         -5    1    1    2    0  502  0.23659405359E+02  0.48997937981E+02  0.29985742209E+03  0.30479030327E+03  0.47000000000E+01 0. -1.
        -11    1    1    2    0    0  0.28760733142E+02  0.34231557905E+02  0.43275010504E+02  0.62223033208E+02  0.00000000000E+00 0. -1.
         11    1    1    2    0    0 -0.40176438262E+02 -0.18316583930E+02  0.88140606241E+01  0.45025893694E+02  0.00000000000E+00 0.  1.
<mgrwt>
<rscale>  0 0.11738551E+03</rscale>
<asrwt>0</asrwt>
<pdfrwt beam="1">  1        2 0.89298442E-01 0.12652089E+03</pdfrwt>
<pdfrwt beam="2">  1       -2 0.54725195E-02 0.12652089E+03</pdfrwt>
<totfact> 0.85222064E+03</totfact>
</mgrwt>
</event>
<event>
 6    1  0.8353100E-006  0.2175532E+03  0.7546771E-02  0.1167833E+00
         -2   -1    0    0    0  501 -0.00000000000E+00  0.00000000000E+00  0.32740902814E+02  0.32740902814E+02  0.00000000000E+00 0.  1.
          2   -1    0    0  501    0  0.00000000000E+00 -0.00000000000E+00 -0.80425736895E+03  0.80425736895E+03  0.00000000000E+00 0. -1.
          5    1    1    2  502    0 -0.87876898493E+02  0.11987995212E+02 -0.54419359265E+03  0.55139352335E+03  0.47000000000E+01 0. -1.
         -5    1    1    2    0  502  0.58848157037E+02  0.20576495271E+02 -0.45995127481E+02  0.77615330292E+02  0.47000000000E+01 0.  1.
        -11    1    1    2    0    0  0.56744070115E+02 -0.30294318365E+02 -0.78606853023E+02  0.10157102225E+03  0.00000000000E+00 0.  1.
         11    1    1    2    0    0 -0.27715328658E+02 -0.22701721181E+01 -0.10272089299E+03  0.10641839587E+03  0.00000000000E+00 0. -1.
<mgrwt>
<rscale>  0 0.17996914E+03</rscale>
<asrwt>0</asrwt>
<pdfrwt beam="2">  1        2 0.12373189E+00 0.21755324E+03</pdfrwt>
<pdfrwt beam="1">  1       -2 0.50370626E-02 0.21755324E+03</pdfrwt>
<totfact> 0.67389387E+03</totfact>
</mgrwt>
</event>
<event>
 6    1  0.8353100E-006  0.1310405E+03  0.7546771E-02  0.1239178E+00
         -2   -1    0    0    0  501 -0.00000000000E+00  0.00000000000E+00  0.56305172887E+02  0.56305172887E+02  0.00000000000E+00 0.  1.
          2   -1    0    0  501    0  0.00000000000E+00 -0.00000000000E+00 -0.25169919061E+03  0.25169919061E+03  0.00000000000E+00 0. -1.
          5    1    1    2  502    0  0.64795429156E+02 -0.29831490977E+02 -0.47167680143E+02  0.85646048032E+02  0.47000000000E+01 0.  1.
         -5    1    1    2    0  502 -0.26964780093E+02  0.40595403234E+02 -0.10042631952E+03  0.11172565409E+03  0.47000000000E+01 0.  1.
        -11    1    1    2    0    0 -0.32747157471E+02 -0.42665015801E+02 -0.10329201749E+01  0.53793557419E+02  0.00000000000E+00 0.  1.
         11    1    1    2    0    0 -0.50834915916E+01  0.31901103544E+02 -0.46767097887E+02  0.56839103959E+02  0.00000000000E+00 0. -1.
<mgrwt>
<rscale>  0 0.12240744E+03</rscale>
<asrwt>0</asrwt>
<pdfrwt beam="2">  1        2 0.38722953E-01 0.13104045E+03</pdfrwt>
<pdfrwt beam="1">  1       -2 0.86623342E-02 0.13104045E+03</pdfrwt>
<totfact> 0.10394856E+04</totfact>
</mgrwt>
</event>
<event>
 6    1  0.8353100E-006  0.1287524E+03  0.7546771E-02  0.1246171E+00
          3   -1    0    0  501    0  0.00000000000E+00  0.00000000000E+00  0.16196345665E+03  0.16196345665E+03  0.00000000000E+00 0. -1.
         -3   -1    0    0    0  501 -0.00000000000E+00 -0.00000000000E+00 -0.98140410211E+02  0.98140410211E+02  0.00000000000E+00 0.  1.
          5    1    1    2  502    0  0.31482546085E+02 -0.72991755841E+02  0.66177157422E+02  0.10353962185E+03  0.47000000000E+01 0. -1.
         -5    1    1    2    0  502 -0.20553208684E+02  0.44081850279E+02  0.32649431629E+02  0.58768352852E+02  0.47000000000E+01 0. -1.
        -11    1    1    2    0    0 -0.30311595079E+02  0.37631757709E+02 -0.51701355030E+02  0.70767026901E+02  0.00000000000E+00 0.  1.
         11    1    1    2    0    0  0.19382257678E+02 -0.87218521467E+01  0.16697812422E+02  0.27028865260E+02  0.00000000000E+00 0. -1.
<mgrwt>
<rscale>  0 0.11815563E+03</rscale>
<asrwt>0</asrwt>
<pdfrwt beam="1">  1        3 0.24917455E-01 0.12875241E+03</pdfrwt>
<pdfrwt beam="2">  1       -3 0.15098525E-01 0.12875241E+03</pdfrwt>
<totfact> 0.12655448E+03</totfact>
</mgrwt>
</event>
<event>
 6    1  0.8353100E-006  0.1559525E+03  0.7546771E-02  0.1201441E+00
          2   -1    0    0  501    0  0.00000000000E+00  0.00000000000E+00  0.25341719159E+03  0.25341719159E+03  0.00000000000E+00 0. -1.
         -2   -1    0    0    0  501 -0.00000000000E+00 -0.00000000000E+00 -0.81063387420E+02  0.81063387420E+02  0.00000000000E+00 0.  1.
          5    1    1    2  502    0 -0.11507662743E+03 -0.47075517531E+02  0.75619864523E+02  0.14559941086E+03  0.47000000000E+01 0. -1.
         -5    1    1    2    0  502  0.28128905632E+02  0.13364428541E+02  0.17206972657E+02  0.35888900656E+02  0.47000000000E+01 0. -1.
        -11    1    1    2    0    0  0.78790351383E+02  0.54061212866E+01  0.91786180757E+02  0.12108612058E+03  0.00000000000E+00 0. -1.
         11    1    1    2    0    0  0.81573704132E+01  0.28304967704E+02 -0.12259213771E+02  0.31906146917E+02  0.00000000000E+00 0.  1.
<mgrwt>
<rscale>  0 0.14921481E+03</rscale>
<asrwt>0</asrwt>
<pdfrwt beam="1">  1        2 0.38987260E-01 0.15595251E+03</pdfrwt>
<pdfrwt beam="2">  1       -2 0.12471291E-01 0.15595251E+03</pdfrwt>
<totfact> 0.58743205E+03</totfact>
</mgrwt>
</event>
<event>
 6    1  0.8353100E-006  0.1563313E+03  0.7546771E-02  0.1201781E+00
         -2   -1    0    0    0  501 -0.00000000000E+00  0.00000000000E+00  0.20382073798E+02  0.20382073798E+02  0.00000000000E+00 0.  1.
          2   -1    0    0  501    0  0.00000000000E+00 -0.00000000000E+00 -0.10990791536E+04  0.10990791536E+04  0.00000000000E+00 0. -1.
          5    1    1    2  502    0 -0.12152518241E+03  0.19631243623E+02 -0.60476040527E+03  0.61717987124E+03  0.47000000000E+01 0. -1.
         -5    1    1    2    0  502  0.31775656727E+02  0.79113588664E+01 -0.15154737597E+03  0.15511601827E+03  0.47000000000E+01 0. -1.
        -11    1    1    2    0    0 -0.92003467062E+01 -0.24894172667E+02 -0.10497888389E+03  0.10828172641E+03  0.00000000000E+00 0. -1.
         11    1    1    2    0    0  0.98949872385E+02 -0.26484298221E+01 -0.21741041472E+03  0.23888361152E+03  0.00000000000E+00 0.  1.
<mgrwt>
<rscale>  0 0.14894013E+03</rscale>
<asrwt>0</asrwt>
<pdfrwt beam="2">  1        2 0.16908914E+00 0.15633132E+03</pdfrwt>
<pdfrwt beam="1">  1       -2 0.31357029E-02 0.15633132E+03</pdfrwt>
<totfact> 0.88445312E+03</totfact>
</mgrwt>
</event>
<event>
 6    1  0.8353100E-006  0.1882610E+03  0.7546771E-02  0.1164369E+00
          2   -1    0    0  501    0  0.00000000000E+00  0.00000000000E+00  0.30077176988E+02  0.30077176988E+02  0.00000000000E+00 0. -1.
         -2   -1    0    0    0  501 -0.00000000000E+00 -0.00000000000E+00 -0.10766729870E+04  0.10766729870E+04  0.00000000000E+00 0.  1.
          5    1    1    2  502    0 -0.54189632697E+01  0.53349260958E+02 -0.74182025703E+02  0.91654632971E+02  0.47000000000E+01 0. -1.
         -5    1    1    2    0  502  0.88542976100E+02  0.65491835816E+02 -0.52334906478E+03  0.53483209775E+03  0.47000000000E+01 0.  1.
        -11    1    1    2    0    0 -0.88265866396E+02 -0.13036353446E+03 -0.42171827859E+03  0.45014644371E+03  0.00000000000E+00 0. -1.
         11    1    1    2    0    0  0.51418535660E+01  0.11522437684E+02 -0.27346440969E+02  0.30116989590E+02  0.00000000000E+00 0.  1.
<mgrwt>
<rscale>  0 0.18359403E+03</rscale>
<asrwt>0</asrwt>
<pdfrwt beam="1">  1        2 0.46272576E-02 0.18826104E+03</pdfrwt>
<pdfrwt beam="2">  1       -2 0.16564201E+00 0.18826104E+03</pdfrwt>
<totfact> 0.42184680E+02</totfact>
</mgrwt>
</event>
<event>
 6    1  0.8353100E-006  0.1412902E+03  0.7546771E-02  0.1221276E+00
         -1   -1    0    0    0  501 -0.00000000000E+00  0.00000000000E+00  0.18268517590E+02  0.18268517590E+02  0.00000000000E+00 0.  1.
          1   -1    0    0  501    0  0.00000000000E+00 -0.00000000000E+00 -0.11184435710E+04  0.11184435710E+04  0.00000000000E+00 0. -1.
          5    1    1    2  502    0 -0.50751729008E+02 -0.30489523695E+02 -0.47045508678E+03  0.47418923198E+03  0.47000000000E+01 0. -1.
         -5    1    1    2    0  502  0.70640896480E+02 -0.32297765409E+02 -0.37474374512E+03  0.38273782987E+03  0.47000000000E+01 0. -1.
        -11    1    1    2    0    0  0.85577149038E+01  0.56517334528E+02 -0.24060751600E+03  0.24730430716E+03  0.00000000000E+00 0.  1.
         11    1    1    2    0    0 -0.28446882376E+02  0.62699545752E+01 -0.14368705547E+02  0.32480719610E+02  0.00000000000E+00 0. -1.
<mgrwt>
<rscale>  0 0.13425479E+03</rscale>
<asrwt>0</asrwt>
<pdfrwt beam="2">  1        1 0.17206823E+00 0.14129021E+03</pdfrwt>
<pdfrwt beam="1">  1       -1 0.28105413E-02 0.14129021E+03</pdfrwt>
<totfact> 0.53201648E+03</totfact>
</mgrwt>
</event>
<event>
 6    1  0.8353100E-006  0.2866725E+03  0.7546771E-02  0.1092099E+00
         -1   -1    0    0    0  501 -0.00000000000E+00  0.00000000000E+00  0.11213087643E+02  0.11213087643E+02  0.00000000000E+00 0.  1.
          1   -1    0    0  501    0  0.00000000000E+00 -0.00000000000E+00 -0.18322587680E+04  0.18322587680E+04  0.00000000000E+00 0. -1.
          5    1    1    2  502    0 -0.80514390800E+01 -0.25379397226E+02 -0.91898426522E+02  0.95793268407E+02  0.47000000000E+01 0.  1.
         -5    1    1    2    0  502  0.24094787678E+02  0.75571995845E+02 -0.14025368757E+04  0.14047859136E+04  0.47000000000E+01 0.  1.
        -11    1    1    2    0    0  0.21504199285E+02 -0.54412850862E+02 -0.12824506084E+03  0.14096093273E+03  0.00000000000E+00 0.  1.
         11    1    1    2    0    0 -0.37547547884E+02  0.42202522421E+01 -0.19836531730E+03  0.20193174092E+03  0.00000000000E+00 0. -1.
<mgrwt>
<rscale>  0 0.28667248E+03</rscale>
<asrwt>0</asrwt>
<pdfrwt beam="2">  1        1 0.28188594E+00 0.28667248E+03</pdfrwt>
<pdfrwt beam="1">  1       -1 0.17250906E-02 0.28667248E+03</pdfrwt>
<totfact> 0.36905830E+03</totfact>
</mgrwt>
</event>
<event>
 6    1  0.8353100E-006  0.1341484E+03  0.7546771E-02  0.1233826E+00
          1   -1    0    0  501    0  0.00000000000E+00  0.00000000000E+00  0.69269813078E+03  0.69269813078E+03  0.00000000000E+00 0. -1.
         -1   -1    0    0    0  501 -0.00000000000E+00 -0.00000000000E+00 -0.23418788381E+02  0.23418788381E+02  0.00000000000E+00 0.  1.
          5    1    1    2  502    0  0.15491850029E+02  0.66076546174E+02  0.39919639693E+03  0.40495180045E+03  0.47000000000E+01 0.  1.
         -5    1    1    2    0  502  0.26854868153E+02 -0.42291243079E+02  0.99868257804E+02  0.11182795760E+03  0.47000000000E+01 0.  1.
        -11    1    1    2    0    0 -0.33165799596E+02  0.21237098589E+02  0.24107903404E+02  0.46175487284E+02  0.00000000000E+00 0.  1.
         11    1    1    2    0    0 -0.91809185859E+01 -0.45022401684E+02  0.14610678427E+03  0.15316167383E+03  0.00000000000E+00 0. -1.
<mgrwt>
<rscale>  0 0.12579896E+03</rscale>
<asrwt>0</asrwt>
<pdfrwt beam="1">  1        1 0.10656893E+00 0.13414838E+03</pdfrwt>
<pdfrwt beam="2">  1       -1 0.36028911E-02 0.13414838E+03</pdfrwt>
<totfact> 0.79065486E+03</totfact>
</mgrwt>
</event>
<event>
 6    1  0.8353100E-006  0.1673474E+03  0.7546771E-02  0.1186693E+00
          1   -1    0    0  501    0  0.00000000000E+00  0.00000000000E+00  0.91652855395E+03  0.91652855395E+03  0.00000000000E+00 0. -1.
         -1   -1    0    0    0  501 -0.00000000000E+00 -0.00000000000E+00 -0.27319106883E+02  0.27319106883E+02  0.00000000000E+00 0.  1.
          5    1    1    2  502    0  0.73408233504E+02  0.50128387313E+02  0.27285919253E+03  0.28701193861E+03  0.47000000000E+01 0.  1.
         -5    1    1    2    0  502 -0.51139613907E+02  0.58888511625E+02  0.26515173245E+03  0.27642476035E+03  0.47000000000E+01 0.  1.
        -11    1    1    2    0    0 -0.36074646268E+02 -0.64338150927E+02  0.96536685541E+02  0.12149119072E+03  0.00000000000E+00 0.  1.
         11    1    1    2    0    0  0.13806026671E+02 -0.44678748010E+02  0.25466183655E+03  0.25891977114E+03  0.00000000000E+00 0. -1.
<mgrwt>
<rscale>  0 0.16178757E+03</rscale>
<asrwt>0</asrwt>
<pdfrwt beam="1">  1        1 0.14100437E+00 0.16734742E+03</pdfrwt>
<pdfrwt beam="2">  1       -1 0.42029402E-02 0.16734742E+03</pdfrwt>
<totfact> 0.41681740E+03</totfact>
</mgrwt>
</event>
<event>
 6    1  0.8353100E-006  0.1924340E+03  0.7546771E-02  0.1160994E+00
         -2   -1    0    0    0  501 -0.00000000000E+00  0.00000000000E+00  0.42883011488E+02  0.42883011488E+02  0.00000000000E+00 0.  1.
          2   -1    0    0  501    0  0.00000000000E+00 -0.00000000000E+00 -0.90599766992E+03  0.90599766992E+03  0.00000000000E+00 0. -1.
          5    1    1    2  502    0 -0.72937062532E+02 -0.74830569951E+02 -0.58032615694E+03  0.58967785079E+03  0.47000000000E+01 0.  1.
         -5    1    1    2    0  502 -0.70386737704E+01 -0.47678189728E+02 -0.51007894016E+02  0.70332410425E+02  0.47000000000E+01 0.  1.
        -11    1    1    2    0    0  0.51398591560E+02  0.93811446046E+01 -0.46681516025E+02  0.70064149369E+02  0.00000000000E+00 0.  1.
         11    1    1    2    0    0  0.28577144743E+02  0.11312761507E+03 -0.18509909145E+03  0.21880627082E+03  0.00000000000E+00 0. -1.
<mgrwt>
<rscale>  0 0.18721886E+03</rscale>
<asrwt>0</asrwt>
<pdfrwt beam="2">  1        2 0.13938426E+00 0.19243404E+03</pdfrwt>
<pdfrwt beam="1">  1       -2 0.65973862E-02 0.19243404E+03</pdfrwt>
<totfact> 0.38062944E+03</totfact>
</mgrwt>
</event>
<event>
 6    1  0.8353100E-006  0.1297138E+03  0.7546771E-02  0.1240472E+00
          2   -1    0    0  501    0  0.00000000000E+00  0.00000000000E+00  0.14954956843E+04  0.14954956843E+04  0.00000000000E+00 0.  1.
         -2   -1    0    0    0  501 -0.00000000000E+00 -0.00000000000E+00 -0.15112112796E+02  0.15112112796E+02  0.00000000000E+00 0. -1.
          5    1    1    2  502    0 -0.97123185211E+01  0.61765054372E+02  0.11376770655E+04  0.11394035486E+04  0.47000000000E+01 0.  1.
         -5    1    1    2    0  502  0.22473973421E+02 -0.29528999181E+02  0.14246776071E+03  0.14729628005E+03  0.47000000000E+01 0.  1.
        -11    1    1    2    0    0 -0.41366951828E+02  0.52380743763E+01  0.43603681542E+02  0.60331941546E+02  0.00000000000E+00 0. -1.
         11    1    1    2    0    0  0.28605296928E+02 -0.37474129567E+02  0.15663506377E+03  0.16357602697E+03  0.00000000000E+00 0.  1.
<mgrwt>
<rscale>  0 0.12160521E+03</rscale>
<asrwt>0</asrwt>
<pdfrwt beam="1">  1        2 0.23007614E+00 0.12971381E+03</pdfrwt>
<pdfrwt beam="2">  1       -2 0.23249416E-02 0.12971381E+03</pdfrwt>
<totfact> 0.82883369E+03</totfact>
</mgrwt>
</event>
<event>
 6    1  0.8353100E-006  0.1299086E+03  0.7546771E-02  0.1238808E+00
          2   -1    0    0  501    0  0.00000000000E+00  0.00000000000E+00  0.59706021070E+03  0.59706021070E+03  0.00000000000E+00 0. -1.
         -2   -1    0    0    0  501 -0.00000000000E+00 -0.00000000000E+00 -0.27227915517E+02  0.27227915517E+02  0.00000000000E+00 0.  1.
          5    1    1    2  502    0 -0.49045053279E+02  0.47305688313E+02  0.21208705595E+03  0.22281439518E+03  0.47000000000E+01 0.  1.
         -5    1    1    2    0  502  0.59463523051E+02 -0.13486652080E+02  0.22603614096E+03  0.23416282237E+03  0.47000000000E+01 0.  1.
        -11    1    1    2    0    0 -0.20090243654E+02 -0.54864454456E+02  0.35529510512E+02  0.68381813153E+02  0.00000000000E+00 0.  1.
         11    1    1    2    0    0  0.96717738819E+01  0.21045418222E+02  0.96179587760E+02  0.98929095517E+02  0.00000000000E+00 0. -1.
<mgrwt>
<rscale>  0 0.12263797E+03</rscale>
<asrwt>0</asrwt>
<pdfrwt beam="1">  1        2 0.91855407E-01 0.12990859E+03</pdfrwt>
<pdfrwt beam="2">  1       -2 0.41889105E-02 0.12990859E+03</pdfrwt>
<totfact> 0.12336396E+04</totfact>
</mgrwt>
</event>
<event>
 6    1  0.8353100E-006  0.1659679E+03  0.7546771E-02  0.1199605E+00
         -1   -1    0    0    0  501 -0.00000000000E+00  0.00000000000E+00  0.10487935310E+03  0.10487935310E+03  0.00000000000E+00 0.  1.
          1   -1    0    0  501    0  0.00000000000E+00 -0.00000000000E+00 -0.24156872651E+03  0.24156872651E+03  0.00000000000E+00 0. -1.
          5    1    1    2  502    0  0.63975793367E+02 -0.36731471206E+02 -0.95964836105E+02  0.12113398731E+03  0.47000000000E+01 0. -1.
         -5    1    1    2    0  502 -0.23350392731E+02  0.85547092867E+02 -0.64800511883E+02  0.10993062485E+03  0.47000000000E+01 0.  1.
        -11    1    1    2    0    0 -0.23371851612E+02  0.10174963119E+02  0.43933744772E+02  0.50793181156E+02  0.00000000000E+00 0. -1.
         11    1    1    2    0    0 -0.17253549024E+02 -0.58990584781E+02 -0.19857770186E+02  0.64590286293E+02  0.00000000000E+00 0.  1.
<mgrwt>
<rscale>  0 0.15070840E+03</rscale>
<asrwt>0</asrwt>
<pdfrwt beam="2">  1        1 0.37164420E-01 0.16596794E+03</pdfrwt>
<pdfrwt beam="1">  1       -1 0.16135285E-01 0.16596794E+03</pdfrwt>
<totfact> 0.32175182E+03</totfact>
</mgrwt>
</event>
<event>
 6    1  0.8353100E-006  0.2722122E+03  0.7546771E-02  0.1100020E+00
          1   -1    0    0  501    0  0.00000000000E+00  0.00000000000E+00  0.56122355341E+02  0.56122355341E+02  0.00000000000E+00 0. -1.
         -1   -1    0    0    0  501 -0.00000000000E+00 -0.00000000000E+00 -0.33008009882E+03  0.33008009882E+03  0.00000000000E+00 0.  1.
          5    1    1    2  502    0 -0.65376257770E+01 -0.10442859809E+03 -0.70860355950E+02  0.12645692032E+03  0.47000000000E+01 0. -1.
         -5    1    1    2    0  502  0.27743957330E+02  0.30409361805E+02 -0.39032795569E+02  0.56921925333E+02  0.47000000000E+01 0. -1.
        -11    1    1    2    0    0 -0.21409381549E+02  0.34575453154E+02 -0.74826379163E+01  0.41349890560E+02  0.00000000000E+00 0. -1.
         11    1    1    2    0    0  0.20304999623E+00  0.39443783132E+02 -0.15658195404E+03  0.16147371795E+03  0.00000000000E+00 0.  1.
<mgrwt>
<rscale>  0 0.27221222E+03</rscale>
<asrwt>0</asrwt>
<pdfrwt beam="1">  1        1 0.86342083E-02 0.27221222E+03</pdfrwt>
<pdfrwt beam="2">  1       -1 0.50781555E-01 0.27221222E+03</pdfrwt>
<totfact> 0.31136189E+03</totfact>
</mgrwt>
</event>
<event>
 6    1  0.8353100E-006  0.1289767E+03  0.7546771E-02  0.1243232E+00
         -2   -1    0    0    0  501 -0.00000000000E+00  0.00000000000E+00  0.72393505698E+02  0.72393505698E+02  0.00000000000E+00 0.  1.
          2   -1    0    0  501    0  0.00000000000E+00 -0.00000000000E+00 -0.17584117172E+03  0.17584117172E+03  0.00000000000E+00 0. -1.
          5    1    1    2  502    0  0.17169669736E+02 -0.76573128433E+02 -0.25590373953E+02  0.82675261088E+02  0.47000000000E+01 0.  1.
         -5    1    1    2    0  502 -0.60242392079E+01  0.46819784403E+02 -0.39838316080E+02  0.61948083890E+02  0.47000000000E+01 0.  1.
        -11    1    1    2    0    0 -0.26932800719E+02 -0.23280152671E+02 -0.32148447652E+02  0.47967321683E+02  0.00000000000E+00 0. -1.
         11    1    1    2    0    0  0.15787370192E+02  0.53033496702E+02 -0.58705283350E+01  0.55644010755E+02  0.00000000000E+00 0.  1.
<mgrwt>
<rscale>  0 0.11991809E+03</rscale>
<asrwt>0</asrwt>
<pdfrwt beam="2">  1        2 0.27052488E-01 0.12897674E+03</pdfrwt>
<pdfrwt beam="1">  1       -2 0.11137462E-01 0.12897674E+03</pdfrwt>
<totfact> 0.10298872E+04</totfact>
</mgrwt>
</event>
<event>
 6    1  0.8353100E-006  0.1396412E+03  0.7546771E-02  0.1224658E+00
         -4   -1    0    0    0  501 -0.00000000000E+00  0.00000000000E+00  0.21500595494E+03  0.21500595494E+03  0.00000000000E+00 0.  1.
          4   -1    0    0  501    0  0.00000000000E+00 -0.00000000000E+00 -0.98754875385E+02  0.98754875385E+02  0.00000000000E+00 0. -1.
          5    1    1    2  502    0  0.35847907778E+02  0.86897630395E+02  0.21480067850E+01  0.94143372541E+02  0.47000000000E+01 0.  1.
         -5    1    1    2    0  502  0.69885742242E+01 -0.41723164466E+02 -0.18644060920E+02  0.46468845804E+02  0.47000000000E+01 0.  1.
        -11    1    1    2    0    0  0.50070237158E+01  0.13337090792E+02 -0.57559541883E+01  0.15364871815E+02  0.00000000000E+00 0. -1.
         11    1    1    2    0    0 -0.47843505718E+02 -0.58511556720E+02  0.13850308788E+03  0.15778374017E+03  0.00000000000E+00 0.  1.
<mgrwt>
<rscale>  0 0.13190359E+03</rscale>
<asrwt>0</asrwt>
<pdfrwt beam="2">  1        4 0.15193058E-01 0.13964124E+03</pdfrwt>
<pdfrwt beam="1">  1       -4 0.33077839E-01 0.13964124E+03</pdfrwt>
<totfact> 0.54178348E+02</totfact>
</mgrwt>
</event>
<event>
 6    1  0.8353100E-006  0.4848946E+03  0.7546771E-02  0.1075853E+00
          2   -1    0    0  501    0  0.00000000000E+00  0.00000000000E+00  0.94248240064E+03  0.94248240064E+03  0.00000000000E+00 0. -1.
         -2   -1    0    0    0  501 -0.00000000000E+00 -0.00000000000E+00 -0.88139438673E+02  0.88139438673E+02  0.00000000000E+00 0.  1.
          5    1    1    2  502    0  0.14153352472E+03  0.67368630411E+01  0.70186051709E+03  0.71603589253E+03  0.47000000000E+01 0. -1.
         -5    1    1    2    0  502 -0.15398163115E+03 -0.90116144658E+01  0.22948139322E+02  0.15601365013E+03  0.47000000000E+01 0.  1.
        -11    1    1    2    0    0 -0.32971781826E+02 -0.18115731863E+02  0.79682415323E+02  0.88116998641E+02  0.00000000000E+00 0. -1.
         11    1    1    2    0    0  0.45419888260E+02  0.20390483288E+02  0.49851890230E+02  0.70455298010E+02  0.00000000000E+00 0.  1.
<mgrwt>
<rscale>  0 0.31955860E+03</rscale>
<asrwt>0</asrwt>
<pdfrwt beam="1">  1        2 0.14499729E+00 0.48489464E+03</pdfrwt>
<pdfrwt beam="2">  1       -2 0.13559914E-01 0.48489464E+03</pdfrwt>
<totfact> 0.11505560E+03</totfact>
</mgrwt>
</event>
<event>
 6    1  0.8353100E-006  0.2810094E+03  0.7546771E-02  0.1097008E+00
          2   -1    0    0  501    0  0.00000000000E+00  0.00000000000E+00  0.69355949548E+03  0.69355949548E+03  0.00000000000E+00 0. -1.
         -2   -1    0    0    0  501 -0.00000000000E+00 -0.00000000000E+00 -0.11182149537E+03  0.11182149537E+03  0.00000000000E+00 0.  1.
          5    1    1    2  502    0 -0.11458883736E+02  0.14560548997E+03  0.18185962710E+03  0.23329654668E+03  0.47000000000E+01 0. -1.
         -5    1    1    2    0  502 -0.11293121087E+03  0.73184692306E+02  0.18534551051E+03  0.22909497123E+03  0.47000000000E+01 0. -1.
        -11    1    1    2    0    0  0.40947610650E+02 -0.16095310195E+03  0.13434279241E+03  0.21361318713E+03  0.00000000000E+00 0.  1.
         11    1    1    2    0    0  0.83442483953E+02 -0.57837080323E+02  0.80190070089E+02  0.12937628581E+03  0.00000000000E+00 0. -1.
<mgrwt>
<rscale>  0 0.27759908E+03</rscale>
<asrwt>0</asrwt>
<pdfrwt beam="1">  1        2 0.10670146E+00 0.28100944E+03</pdfrwt>
<pdfrwt beam="2">  1       -2 0.17203307E-01 0.28100944E+03</pdfrwt>
<totfact> 0.11550255E+03</totfact>
</mgrwt>
</event>
<event>
 6    1  0.8353100E-006  0.1255587E+03  0.7546771E-02  0.1249844E+00
         -1   -1    0    0    0  501 -0.00000000000E+00  0.00000000000E+00  0.72739719242E+02  0.72739719242E+02  0.00000000000E+00 0.  1.
          1   -1    0    0  501    0  0.00000000000E+00 -0.00000000000E+00 -0.24005120250E+03  0.24005120250E+03  0.00000000000E+00 0. -1.
          5    1    1    2  502    0 -0.72180408851E+01 -0.57961371850E+02 -0.42612077056E+02  0.72453432300E+02  0.47000000000E+01 0.  1.
         -5    1    1    2    0  502 -0.28347737139E+01  0.51698879910E+02 -0.13839956442E+03  0.14784227933E+03  0.47000000000E+01 0.  1.
        -11    1    1    2    0    0  0.34683992840E+01  0.34003318883E+02  0.40754917433E+02  0.53190401236E+02  0.00000000000E+00 0.  1.
         11    1    1    2    0    0  0.65844153149E+01 -0.27740826943E+02 -0.27054759213E+02  0.39304808874E+02  0.00000000000E+00 0. -1.
<mgrwt>
<rscale>  0 0.11600071E+03</rscale>
<asrwt>0</asrwt>
<pdfrwt beam="2">  1        1 0.36930954E-01 0.12555870E+03</pdfrwt>
<pdfrwt beam="1">  1       -1 0.11190726E-01 0.12555870E+03</pdfrwt>
<totfact> 0.56482093E+03</totfact>
</mgrwt>
</event>
<event>
 6    1  0.8353100E-006  0.1902991E+03  0.7546771E-02  0.1182086E+00
          1   -1    0    0  501    0  0.00000000000E+00  0.00000000000E+00  0.88074063513E+03  0.88074063513E+03  0.00000000000E+00 0. -1.
         -1   -1    0    0    0  501 -0.00000000000E+00 -0.00000000000E+00 -0.26870006152E+02  0.26870006152E+02  0.00000000000E+00 0.  1.
          5    1    1    2  502    0  0.36644443533E+02  0.15244104087E+01  0.61072349883E+03  0.61184182686E+03  0.47000000000E+01 0. -1.
         -5    1    1    2    0  502  0.21719936548E+02  0.35492023764E+02  0.18957287846E+02  0.45966380725E+02  0.47000000000E+01 0.  1.
        -11    1    1    2    0    0 -0.78679368578E+02 -0.14804457988E+02  0.16071919307E+03  0.17955576859E+03  0.00000000000E+00 0. -1.
         11    1    1    2    0    0  0.20314988497E+02 -0.22211976184E+02  0.63470649235E+02  0.70246665102E+02  0.00000000000E+00 0.  1.
<mgrwt>
<rscale>  0 0.16599906E+03</rscale>
<asrwt>0</asrwt>
<pdfrwt beam="1">  1        1 0.13549854E+00 0.19029909E+03</pdfrwt>
<pdfrwt beam="2">  1       -1 0.41338478E-02 0.19029909E+03</pdfrwt>
<totfact> 0.45737733E+03</totfact>
</mgrwt>
</event>
<event>
 6    1  0.8353100E-006  0.1361112E+03  0.7546771E-02  0.1231192E+00
          3   -1    0    0  501    0  0.00000000000E+00  0.00000000000E+00  0.94328959862E+03  0.94328959862E+03  0.00000000000E+00 0. -1.
         -3   -1    0    0    0  501 -0.00000000000E+00 -0.00000000000E+00 -0.16393175656E+02  0.16393175656E+02  0.00000000000E+00 0.  1.
          5    1    1    2  502    0 -0.24785101528E+02  0.53754548953E+02  0.31569206463E+03  0.32122799141E+03  0.47000000000E+01 0. -1.
         -5    1    1    2    0  502 -0.26218961831E+02 -0.71092429165E+02  0.32209328584E+03  0.33091954042E+03  0.47000000000E+01 0. -1.
        -11    1    1    2    0    0  0.88088817752E+00  0.46459119323E+02  0.14226180497E+03  0.14965843406E+03  0.00000000000E+00 0. -1.
         11    1    1    2    0    0  0.50123175182E+02 -0.29121239111E+02  0.14684926753E+03  0.15787680840E+03  0.00000000000E+00 0.  1.
<mgrwt>
<rscale>  0 0.12751417E+03</rscale>
<asrwt>0</asrwt>
<pdfrwt beam="1">  1        3 0.14512143E+00 0.13611117E+03</pdfrwt>
<pdfrwt beam="2">  1       -3 0.25220278E-02 0.13611117E+03</pdfrwt>
<totfact> 0.57889481E+02</totfact>
</mgrwt>
</event>
<event>
 6    1  0.8353100E-006  0.1184340E+03  0.7546771E-02  0.1300663E+00
         -2   -1    0    0    0  501 -0.00000000000E+00  0.00000000000E+00  0.54727341655E+01  0.54727341655E+01  0.00000000000E+00 0.  1.
          2   -1    0    0  501    0  0.00000000000E+00 -0.00000000000E+00 -0.23506565700E+04  0.23506565700E+04  0.00000000000E+00 0. -1.
          5    1    1    2  502    0  0.23640755716E+02  0.60459484053E+01 -0.17279403559E+04  0.17281190359E+04  0.47000000000E+01 0. -1.
         -5    1    1    2    0  502 -0.30318067906E+02 -0.45749329337E+02 -0.51303338934E+03  0.51598210720E+03  0.47000000000E+01 0.  1.
        -11    1    1    2    0    0 -0.13695994372E+00  0.16316180341E+02 -0.34006603598E+02  0.37718504572E+02  0.00000000000E+00 0. -1.
         11    1    1    2    0    0  0.68142721330E+01  0.23387200591E+02 -0.70203487082E+02  0.74309656537E+02  0.00000000000E+00 0.  1.
<mgrwt>
<rscale>  0 0.90909931E+02</rscale>
<asrwt>0</asrwt>
<pdfrwt beam="2">  1        2 0.36163889E+00 0.11843401E+03</pdfrwt>
<pdfrwt beam="1">  1       -2 0.84196046E-03 0.11843401E+03</pdfrwt>
<totfact> 0.12958011E+04</totfact>
</mgrwt>
</event>
<event>
 6    1  0.8353100E-006  0.1197219E+03  0.7546771E-02  0.1257052E+00
          1   -1    0    0  501    0  0.00000000000E+00  0.00000000000E+00  0.69694759023E+02  0.69694759023E+02  0.00000000000E+00 0. -1.
         -1   -1    0    0    0  501 -0.00000000000E+00 -0.00000000000E+00 -0.45767208957E+03  0.45767208957E+03  0.00000000000E+00 0.  1.
          5    1    1    2  502    0  0.92454640012E+01 -0.38212606385E+02 -0.38723625983E+02  0.55383130109E+02  0.47000000000E+01 0. -1.
         -5    1    1    2    0  502 -0.21519999452E+02  0.37757562117E+02  0.47661579401E+02  0.64671941555E+02  0.47000000000E+01 0.  1.
        -11    1    1    2    0    0  0.75897158829E+01  0.45363047464E+02 -0.21659602136E+03  0.22142548709E+03  0.00000000000E+00 0.  1.
         11    1    1    2    0    0  0.46848195681E+01 -0.44908003196E+02 -0.18031926261E+03  0.18588628984E+03  0.00000000000E+00 0. -1.
<mgrwt>
<rscale>  0 0.11192147E+03</rscale>
<asrwt>0</asrwt>
<pdfrwt beam="1">  1        1 0.10722270E-01 0.11972190E+03</pdfrwt>
<pdfrwt beam="2">  1       -1 0.70411094E-01 0.11972190E+03</pdfrwt>
<totfact> 0.12102469E+03</totfact>
</mgrwt>
</event>
<event>
 6    1  0.8353100E-006  0.1255751E+03  0.7546771E-02  0.1248754E+00
         -1   -1    0    0    0  501 -0.00000000000E+00  0.00000000000E+00  0.11180786809E+03  0.11180786809E+03  0.00000000000E+00 0.  1.
          1   -1    0    0  501    0  0.00000000000E+00 -0.00000000000E+00 -0.11779910746E+03  0.11779910746E+03  0.00000000000E+00 0. -1.
          5    1    1    2  502    0  0.56582929176E+02  0.25005689709E+02 -0.23596761760E+02  0.66376272549E+02  0.47000000000E+01 0.  1.
         -5    1    1    2    0  502 -0.60978727242E+02 -0.15760978995E+02 -0.13783596191E+02  0.64644343596E+02  0.47000000000E+01 0.  1.
        -11    1    1    2    0    0  0.46582764185E+02 -0.89915209746E+01  0.30477768759E+02  0.56388791059E+02  0.00000000000E+00 0. -1.
         11    1    1    2    0    0 -0.42186966119E+02 -0.25318973886E+00  0.91134982606E+00  0.42197568341E+02  0.00000000000E+00 0.  1.
<mgrwt>
<rscale>  0 0.11663511E+03</rscale>
<asrwt>0</asrwt>
<pdfrwt beam="2">  1        1 0.18122940E-01 0.12557512E+03</pdfrwt>
<pdfrwt beam="1">  1       -1 0.17201210E-01 0.12557512E+03</pdfrwt>
<totfact> 0.70527980E+03</totfact>
</mgrwt>
</event>
<event>
 6    1  0.8353100E-006  0.1260285E+03  0.7546771E-02  0.1248871E+00
          1   -1    0    0  501    0  0.00000000000E+00  0.00000000000E+00  0.12078821698E+03  0.12078821698E+03  0.00000000000E+00 0. -1.
         -1   -1    0    0    0  501 -0.00000000000E+00 -0.00000000000E+00 -0.98612290592E+02  0.98612290592E+02  0.00000000000E+00 0.  1.
          5    1    1    2  502    0 -0.32771303253E+02  0.47579229806E+01 -0.41190822676E+02  0.53060060504E+02  0.47000000000E+01 0. -1.
         -5    1    1    2    0  502  0.48590493230E+02 -0.19977067077E+01  0.55243763113E+02  0.73749510014E+02  0.47000000000E+01 0. -1.
        -11    1    1    2    0    0  0.12422511121E+02 -0.14882869123E+02 -0.34778721538E+02  0.39816806096E+02  0.00000000000E+00 0.  1.
         11    1    1    2    0    0 -0.28241701098E+02  0.12122652850E+02  0.42901707491E+02  0.52774130960E+02  0.00000000000E+00 0. -1.
<mgrwt>
<rscale>  0 0.11656663E+03</rscale>
<asrwt>0</asrwt>
<pdfrwt beam="1">  1        1 0.18582803E-01 0.12602850E+03</pdfrwt>
<pdfrwt beam="2">  1       -1 0.15171122E-01 0.12602850E+03</pdfrwt>
<totfact> 0.83251764E+03</totfact>
</mgrwt>
</event>
<event>
 6    1  0.8353100E-006  0.1511298E+03  0.7546771E-02  0.1210399E+00
          4   -1    0    0  501    0  0.00000000000E+00  0.00000000000E+00  0.38208823671E+02  0.38208823671E+02  0.00000000000E+00 0. -1.
         -4   -1    0    0    0  501 -0.00000000000E+00 -0.00000000000E+00 -0.48998221015E+03  0.48998221015E+03  0.00000000000E+00 0.  1.
          5    1    1    2  502    0 -0.30239226082E+02  0.23899682546E+01 -0.10886406389E+03  0.11310878458E+03  0.47000000000E+01 0.  1.
         -5    1    1    2    0  502  0.80770223670E+02  0.65885454357E+02 -0.98537013737E+02  0.14351430313E+03  0.47000000000E+01 0.  1.
        -11    1    1    2    0    0 -0.25713378294E+02 -0.21209797540E+02 -0.19861010187E+03  0.20138770046E+03  0.00000000000E+00 0.  1.
         11    1    1    2    0    0 -0.24817619293E+02 -0.47065625071E+02 -0.45762206990E+02  0.70180245649E+02  0.00000000000E+00 0. -1.
<mgrwt>
<rscale>  0 0.14220007E+03</rscale>
<asrwt>0</asrwt>
<pdfrwt beam="1">  1        4 0.58782805E-02 0.15112975E+03</pdfrwt>
<pdfrwt beam="2">  1       -4 0.75381879E-01 0.15112975E+03</pdfrwt>
<totfact> 0.50456422E+02</totfact>
</mgrwt>
</event>
<event>
 6    1  0.8353100E-006  0.1378797E+03  0.7546771E-02  0.1227936E+00
          2   -1    0    0  501    0  0.00000000000E+00  0.00000000000E+00  0.91530759507E+02  0.91530759507E+02  0.00000000000E+00 0.  1.
         -2   -1    0    0    0  501 -0.00000000000E+00 -0.00000000000E+00 -0.17980483582E+03  0.17980483582E+03  0.00000000000E+00 0. -1.
          5    1    1    2  502    0 -0.39656568505E+02  0.20836500931E+01 -0.84630538140E+01  0.40874176483E+02  0.47000000000E+01 0. -1.
         -5    1    1    2    0  502  0.96904503684E+02  0.83443969791E+01 -0.19129886485E+01  0.97395386548E+02  0.47000000000E+01 0. -1.
        -11    1    1    2    0    0  0.17270796560E+02  0.15751238073E+01  0.76719980852E+01  0.18963675367E+02  0.00000000000E+00 0.  1.
         11    1    1    2    0    0 -0.74518731739E+02 -0.12003170879E+02 -0.85570031936E+02  0.11410235693E+03  0.00000000000E+00 0. -1.
<mgrwt>
<rscale>  0 0.12967677E+03</rscale>
<asrwt>0</asrwt>
<pdfrwt beam="1">  1        2 0.14081655E-01 0.13787969E+03</pdfrwt>
<pdfrwt beam="2">  1       -2 0.27662282E-01 0.13787969E+03</pdfrwt>
<totfact> 0.47567264E+03</totfact>
</mgrwt>
</event>
<event>
 6    1  0.8353100E-006  0.1349894E+03  0.7546771E-02  0.1231901E+00
         -2   -1    0    0    0  501 -0.00000000000E+00  0.00000000000E+00  0.40327221154E+02  0.40327221154E+02  0.00000000000E+00 0. -1.
          2   -1    0    0  501    0  0.00000000000E+00 -0.00000000000E+00 -0.36304951891E+03  0.36304951891E+03  0.00000000000E+00 0.  1.
          5    1    1    2  502    0 -0.82461044643E+02  0.22725060977E+02 -0.83496185371E+02  0.11962422519E+03  0.47000000000E+01 0. -1.
         -5    1    1    2    0  502  0.32458064658E+02 -0.12914243270E+02 -0.11610934920E+03  0.12134156177E+03  0.47000000000E+01 0. -1.
        -11    1    1    2    0    0  0.65027085572E+02 -0.33052178235E+02 -0.10948895268E+03  0.13156290930E+03  0.00000000000E+00 0.  1.
         11    1    1    2    0    0 -0.15024105587E+02  0.23241360528E+02 -0.13627810507E+02  0.30848043813E+02  0.00000000000E+00 0. -1.
<mgrwt>
<rscale>  0 0.12704918E+03</rscale>
<asrwt>0</asrwt>
<pdfrwt beam="2">  1        2 0.55853770E-01 0.13498941E+03</pdfrwt>
<pdfrwt beam="1">  1       -2 0.62041881E-02 0.13498941E+03</pdfrwt>
<totfact> 0.11792423E+04</totfact>
</mgrwt>
</event>
<event>
 6    1  0.8353100E-006  0.1324376E+03  0.7546771E-02  0.1236530E+00
          2   -1    0    0  501    0  0.00000000000E+00  0.00000000000E+00  0.27860061667E+03  0.27860061667E+03  0.00000000000E+00 0. -1.
         -2   -1    0    0    0  501 -0.00000000000E+00 -0.00000000000E+00 -0.51649957801E+02  0.51649957801E+02  0.00000000000E+00 0.  1.
          5    1    1    2  502    0  0.24654430813E+02  0.33204764327E+01 -0.16095543196E+02  0.30000383885E+02  0.47000000000E+01 0. -1.
         -5    1    1    2    0  502  0.18958433228E+02 -0.21944136291E+01  0.17840689369E+03  0.17948634310E+03  0.47000000000E+01 0. -1.
        -11    1    1    2    0    0 -0.30819813423E+02  0.16068207781E+02 -0.15319031357E+02  0.37983166303E+02  0.00000000000E+00 0.  1.
         11    1    1    2    0    0 -0.12793050618E+02 -0.17194270584E+02  0.79958339724E+02  0.82780681179E+02  0.00000000000E+00 0. -1.
<mgrwt>
<rscale>  0 0.12407011E+03</rscale>
<asrwt>0</asrwt>
<pdfrwt beam="1">  1        2 0.42861632E-01 0.13243759E+03</pdfrwt>
<pdfrwt beam="2">  1       -2 0.79461475E-02 0.13243759E+03</pdfrwt>
<totfact> 0.10675250E+04</totfact>
</mgrwt>
</event>
<event>
 6    1  0.8353100E-006  0.1438903E+03  0.7546771E-02  0.1218682E+00
          2   -1    0    0  501    0  0.00000000000E+00  0.00000000000E+00  0.38801930474E+03  0.38801930474E+03  0.00000000000E+00 0. -1.
         -2   -1    0    0    0  501 -0.00000000000E+00 -0.00000000000E+00 -0.43915031455E+02  0.43915031455E+02  0.00000000000E+00 0.  1.
          5    1    1    2  502    0 -0.83933254084E+02  0.24281394064E+02  0.20739921408E+03  0.22510197964E+03  0.47000000000E+01 0.  1.
         -5    1    1    2    0  502  0.27739634380E+02  0.19557500513E+02  0.10166118421E+02  0.35741056302E+02  0.47000000000E+01 0.  1.
        -11    1    1    2    0    0  0.80275440122E+02 -0.41232111514E+02  0.10696138495E+03  0.13994631534E+03  0.00000000000E+00 0. -1.
         11    1    1    2    0    0 -0.24081820419E+02 -0.26067830631E+01  0.19577555838E+02  0.31144984912E+02  0.00000000000E+00 0.  1.
<mgrwt>
<rscale>  0 0.13609497E+03</rscale>
<asrwt>0</asrwt>
<pdfrwt beam="1">  1        2 0.59695275E-01 0.14389029E+03</pdfrwt>
<pdfrwt beam="2">  1       -2 0.67561589E-02 0.14389029E+03</pdfrwt>
<totfact> 0.96918668E+03</totfact>
</mgrwt>
</event>
<event>
 6    1  0.8353100E-006  0.2969046E+03  0.7546771E-02  0.1088381E+00
          1   -1    0    0  501    0  0.00000000000E+00  0.00000000000E+00  0.85596211341E+03  0.85596211341E+03  0.00000000000E+00 0. -1.
         -1   -1    0    0    0  501 -0.00000000000E+00 -0.00000000000E+00 -0.11729325869E+03  0.11729325869E+03  0.00000000000E+00 0.  1.
          5    1    1    2  502    0 -0.34429720310E+02 -0.19099001892E+03  0.28133233775E+03  0.34180779282E+03  0.47000000000E+01 0. -1.
         -5    1    1    2    0  502  0.32927213301E+02 -0.78324455849E+02  0.28777058879E+03  0.30008819292E+03  0.47000000000E+01 0. -1.
        -11    1    1    2    0    0  0.32032196238E+02  0.81442254595E+02  0.21246423461E+02  0.90057275882E+02  0.00000000000E+00 0.  1.
         11    1    1    2    0    0 -0.30529689229E+02  0.18787222017E+03  0.14831950472E+03  0.24130211047E+03  0.00000000000E+00 0. -1.
<mgrwt>
<rscale>  0 0.29380176E+03</rscale>
<asrwt>0</asrwt>
<pdfrwt beam="1">  1        1 0.13168647E+00 0.29690456E+03</pdfrwt>
<pdfrwt beam="2">  1       -1 0.18045117E-01 0.29690456E+03</pdfrwt>
<totfact> 0.49564258E+02</totfact>
</mgrwt>
</event>
<event>
 6    1  0.8353100E-006  0.1426620E+03  0.7546771E-02  0.1220409E+00
         -2   -1    0    0    0  501 -0.00000000000E+00  0.00000000000E+00  0.48714304761E+02  0.48714304761E+02  0.00000000000E+00 0. -1.
          2   -1    0    0  501    0  0.00000000000E+00 -0.00000000000E+00 -0.42604251607E+03  0.42604251607E+03  0.00000000000E+00 0.  1.
          5    1    1    2  502    0  0.33896388508E+01  0.73124127306E+02 -0.99355667686E+02  0.12350006618E+03  0.47000000000E+01 0.  1.
         -5    1    1    2    0  502  0.47310978186E+02 -0.26663154572E+02 -0.21347691061E+03  0.22032642563E+03  0.47000000000E+01 0.  1.
        -11    1    1    2    0    0 -0.42437673844E+02  0.19597466100E+02 -0.33414256064E+02  0.57458936182E+02  0.00000000000E+00 0.  1.
         11    1    1    2    0    0 -0.82629431931E+01 -0.66058438834E+02 -0.31081376944E+02  0.73471392828E+02  0.00000000000E+00 0. -1.
<mgrwt>
<rscale>  0 0.13486625E+03</rscale>
<asrwt>0</asrwt>
<pdfrwt beam="2">  1        2 0.65545002E-01 0.14266196E+03</pdfrwt>
<pdfrwt beam="1">  1       -2 0.74945085E-02 0.14266196E+03</pdfrwt>
<totfact> 0.74733199E+03</totfact>
</mgrwt>
</event>
<event>
 6    1  0.8353100E-006  0.1515182E+03  0.7546771E-02  0.1220273E+00
          2   -1    0    0  501    0  0.00000000000E+00  0.00000000000E+00  0.78597519581E+02  0.78597519581E+02  0.00000000000E+00 0. -1.
         -2   -1    0    0    0  501 -0.00000000000E+00 -0.00000000000E+00 -0.22068889492E+03  0.22068889492E+03  0.00000000000E+00 0.  1.
          5    1    1    2  502    0 -0.50973924945E+02  0.59207731652E+02  0.21223299429E+02  0.81095098189E+02  0.47000000000E+01 0. -1.
         -5    1    1    2    0  502  0.37961314251E+02 -0.31122770313E+02 -0.55516702916E+02  0.74255521777E+02  0.47000000000E+01 0.  1.
        -11    1    1    2    0    0  0.22321211766E+02 -0.34841100708E+02 -0.12013947262E+03  0.12706546216E+03  0.00000000000E+00 0.  1.
         11    1    1    2    0    0 -0.93086010720E+01  0.67561393695E+01  0.12341500769E+02  0.16870332372E+02  0.00000000000E+00 0. -1.
<mgrwt>
<rscale>  0 0.13496204E+03</rscale>
<asrwt>0</asrwt>
<pdfrwt beam="1">  1        2 0.12091926E-01 0.15151824E+03</pdfrwt>
<pdfrwt beam="2">  1       -2 0.33952137E-01 0.15151824E+03</pdfrwt>
<totfact> 0.39624967E+03</totfact>
</mgrwt>
</event>
<event>
 6    1  0.8353100E-006  0.1287160E+03  0.7546771E-02  0.1231214E+00
         -2   -1    0    0    0  501 -0.00000000000E+00  0.00000000000E+00  0.51292794625E+02  0.51292794625E+02  0.00000000000E+00 0. -1.
          2   -1    0    0  501    0  0.00000000000E+00 -0.00000000000E+00 -0.39062030803E+03  0.39062030803E+03  0.00000000000E+00 0.  1.
          5    1    1    2  502    0 -0.55686185660E+02 -0.23086537526E+02 -0.16931645969E+03  0.17978902361E+03  0.47000000000E+01 0.  1.
         -5    1    1    2    0  502  0.63738237731E+02 -0.65321300169E+01 -0.10260558729E+03  0.12105878000E+03  0.47000000000E+01 0.  1.
        -11    1    1    2    0    0 -0.43828832303E+02  0.39447322254E+02  0.55400463591E+01  0.59226260120E+02  0.00000000000E+00 0. -1.
         11    1    1    2    0    0  0.35776780232E+02 -0.98286547120E+01 -0.72945512775E+02  0.81839038919E+02  0.00000000000E+00 0.  1.
<mgrwt>
<rscale>  0 0.12749960E+03</rscale>
<asrwt>0</asrwt>
<pdfrwt beam="2">  1        2 0.60095430E-01 0.12871597E+03</pdfrwt>
<pdfrwt beam="1">  1       -2 0.78911995E-02 0.12871597E+03</pdfrwt>
<totfact> 0.75252439E+03</totfact>
</mgrwt>
</event>
<event>
 6    1  0.8353100E-006  0.7729645E+03  0.7546771E-02  0.9599996E-01
          2   -1    0    0  501    0  0.00000000000E+00  0.00000000000E+00  0.86482085408E+03  0.86482085408E+03  0.00000000000E+00 0. -1.
         -2   -1    0    0    0  501 -0.00000000000E+00 -0.00000000000E+00 -0.17271612975E+03  0.17271612975E+03  0.00000000000E+00 0.  1.
          5    1    1    2  502    0  0.15329056361E+02  0.52522733717E+02  0.29850728336E+03  0.30351656585E+03  0.47000000000E+01 0. -1.
         -5    1    1    2    0  502 -0.13283414452E+03  0.98992373877E+02  0.47089120804E+03  0.49920438685E+03  0.47000000000E+01 0. -1.
        -11    1    1    2    0    0  0.54440031342E+02 -0.61038029309E+02 -0.92513760528E+02  0.12348341557E+03  0.00000000000E+00 0.  1.
         11    1    1    2    0    0  0.63065056815E+02 -0.90477078285E+02  0.15219993445E+02  0.11133261556E+03  0.00000000000E+00 0. -1.
<mgrwt>
<rscale>  0 0.77296445E+03</rscale>
<asrwt>0</asrwt>
<pdfrwt beam="1">  1        2 0.13304936E+00 0.77296445E+03</pdfrwt>
<pdfrwt beam="2">  1       -2 0.26571713E-01 0.77296445E+03</pdfrwt>
<totfact> 0.39959909E+02</totfact>
</mgrwt>
</event>
<event>
 6    1  0.8353100E-006  0.1279977E+03  0.7546771E-02  0.1244776E+00
          1   -1    0    0  501    0  0.00000000000E+00  0.00000000000E+00  0.49654496827E+02  0.49654496827E+02  0.00000000000E+00 0. -1.
         -1   -1    0    0    0  501 -0.00000000000E+00 -0.00000000000E+00 -0.26803615601E+03  0.26803615601E+03  0.00000000000E+00 0.  1.
          5    1    1    2  502    0 -0.50925786237E+02 -0.15998065466E+02 -0.91626972141E+02  0.10614596472E+03  0.47000000000E+01 0.  1.
         -5    1    1    2    0  502  0.45649180633E+02 -0.11012818337E+02  0.64066900625E+01  0.47626311401E+02  0.47000000000E+01 0.  1.
        -11    1    1    2    0    0 -0.20980834700E+02 -0.26122300865E+01  0.36851014493E+01  0.21461573648E+02  0.00000000000E+00 0. -1.
         11    1    1    2    0    0  0.26257440305E+02  0.29623113890E+02 -0.13684647856E+03  0.14245680307E+03  0.00000000000E+00 0.  1.
<mgrwt>
<rscale>  0 0.11898818E+03</rscale>
<asrwt>0</asrwt>
<pdfrwt beam="1">  1        1 0.76391533E-02 0.12799772E+03</pdfrwt>
<pdfrwt beam="2">  1       -1 0.41236332E-01 0.12799772E+03</pdfrwt>
<totfact> 0.51406394E+03</totfact>
</mgrwt>
</event>
<event>
 6    1  0.8353100E-006  0.1935678E+03  0.7546771E-02  0.1159925E+00
         -1   -1    0    0    0  501 -0.00000000000E+00  0.00000000000E+00  0.76614064800E+03  0.76614064800E+03  0.00000000000E+00 0.  1.
          1   -1    0    0  501    0  0.00000000000E+00 -0.00000000000E+00 -0.49302187475E+02  0.49302187475E+02  0.00000000000E+00 0. -1.
          5    1    1    2  502    0  0.10724111493E+03  0.83339821206E+02  0.10725048899E+03  0.17312117120E+03  0.47000000000E+01 0.  1.
         -5    1    1    2    0  502 -0.38407420933E+01  0.22263389412E+02  0.13503682487E+03  0.13699432061E+03  0.47000000000E+01 0.  1.
        -11    1    1    2    0    0 -0.80310958286E+02 -0.12111551862E+03  0.38299339332E+03  0.40963734961E+03  0.00000000000E+00 0. -1.
         11    1    1    2    0    0 -0.23089414551E+02  0.15512307998E+02  0.91557753342E+02  0.95689994047E+02  0.00000000000E+00 0.  1.
<mgrwt>
<rscale>  0 0.18838580E+03</rscale>
<asrwt>0</asrwt>
<pdfrwt beam="2">  1        1 0.75849525E-02 0.19356776E+03</pdfrwt>
<pdfrwt beam="1">  1       -1 0.11786778E+00 0.19356776E+03</pdfrwt>
<totfact> 0.64364672E+02</totfact>
</mgrwt>
</event>
<event>
 6    1  0.8353100E-006  0.3922271E+03  0.7546771E-02  0.1046505E+00
         -2   -1    0    0    0  501 -0.00000000000E+00  0.00000000000E+00  0.98270982006E+02  0.98270982006E+02  0.00000000000E+00 0.  1.
          2   -1    0    0  501    0  0.00000000000E+00 -0.00000000000E+00 -0.39137214813E+03  0.39137214813E+03  0.00000000000E+00 0. -1.
          5    1    1    2  502    0  0.17724135366E+02 -0.32563091011E+02 -0.64949473242E+02  0.74933463454E+02  0.47000000000E+01 0.  1.
         -5    1    1    2    0  502  0.10415119402E+03  0.11176050791E+03 -0.18087562466E+03  0.23680364005E+03  0.47000000000E+01 0.  1.
        -11    1    1    2    0    0 -0.24382366132E+02 -0.44044787172E+02 -0.54280834537E+02  0.74032776885E+02  0.00000000000E+00 0. -1.
         11    1    1    2    0    0 -0.97492963258E+02 -0.35152629726E+02  0.70047663180E+01  0.10387324975E+03  0.00000000000E+00 0.  1.
<mgrwt>
<rscale>  0 0.39222710E+03</rscale>
<asrwt>0</asrwt>
<pdfrwt beam="2">  1        2 0.60211099E-01 0.39222710E+03</pdfrwt>
<pdfrwt beam="1">  1       -2 0.15118613E-01 0.39222710E+03</pdfrwt>
<totfact> 0.27789315E+03</totfact>
</mgrwt>
</event>
<event>
 6    1  0.8353100E-006  0.1350864E+03  0.7546771E-02  0.1232445E+00
         -2   -1    0    0    0  501 -0.00000000000E+00  0.00000000000E+00  0.10596423831E+02  0.10596423831E+02  0.00000000000E+00 0.  1.
          2   -1    0    0  501    0  0.00000000000E+00 -0.00000000000E+00 -0.19132657803E+04  0.19132657803E+04  0.00000000000E+00 0. -1.
          5    1    1    2  502    0 -0.38616235934E+02 -0.55915299862E+02 -0.63351361685E+03  0.63716507058E+03  0.47000000000E+01 0.  1.
         -5    1    1    2    0  502  0.62726193777E+02  0.10700211179E+02 -0.92058491295E+03  0.92279344485E+03  0.47000000000E+01 0.  1.
        -11    1    1    2    0    0  0.30497160802E+02  0.23099186888E+02 -0.20794596372E+03  0.21143597868E+03  0.00000000000E+00 0. -1.
         11    1    1    2    0    0 -0.54607118645E+02  0.22115901795E+02 -0.14062486290E+03  0.15246770998E+03  0.00000000000E+00 0.  1.
<mgrwt>
<rscale>  0 0.12669449E+03</rscale>
<asrwt>0</asrwt>
<pdfrwt beam="2">  1        2 0.29434849E+00 0.13508638E+03</pdfrwt>
<pdfrwt beam="1">  1       -2 0.16302195E-02 0.13508638E+03</pdfrwt>
<totfact> 0.84791453E+03</totfact>
</mgrwt>
</event>
<event>
 6    1  0.8353100E-006  0.1454122E+03  0.7546771E-02  0.1215885E+00
         -2   -1    0    0    0  501 -0.00000000000E+00  0.00000000000E+00  0.19871068772E+03  0.19871068772E+03  0.00000000000E+00 0. -1.
          2   -1    0    0  501    0  0.00000000000E+00 -0.00000000000E+00 -0.96164466050E+02  0.96164466050E+02  0.00000000000E+00 0.  1.
          5    1    1    2  502    0  0.88588609458E+02 -0.31514366720E+02  0.45089008945E+02  0.10438489241E+03  0.47000000000E+01 0. -1.
         -5    1    1    2    0  502 -0.24158485520E+02 -0.55169418027E+01 -0.32993085245E+02  0.41529540613E+02  0.47000000000E+01 0. -1.
        -11    1    1    2    0    0 -0.70238076167E+02  0.10939877833E+02  0.20355121004E+02  0.73941863796E+02  0.00000000000E+00 0.  1.
         11    1    1    2    0    0  0.58079522288E+01  0.26091430690E+02  0.70095176962E+02  0.75018856949E+02  0.00000000000E+00 0. -1.
<mgrwt>
<rscale>  0 0.13811722E+03</rscale>
<asrwt>0</asrwt>
<pdfrwt beam="2">  1        2 0.14794533E-01 0.14541221E+03</pdfrwt>
<pdfrwt beam="1">  1       -2 0.30570875E-01 0.14541221E+03</pdfrwt>
<totfact> 0.37646828E+03</totfact>
</mgrwt>
</event>
<event>
 6    1  0.8353100E-006  0.1339999E+03  0.7546771E-02  0.1234394E+00
         -1   -1    0    0    0  501 -0.00000000000E+00  0.00000000000E+00  0.98135406161E+02  0.98135406161E+02  0.00000000000E+00 0.  1.
          1   -1    0    0  501    0  0.00000000000E+00 -0.00000000000E+00 -0.16525913075E+03  0.16525913075E+03  0.00000000000E+00 0. -1.
          5    1    1    2  502    0 -0.31556750909E+00  0.42671259197E+02 -0.17886645889E+02  0.46507612769E+02  0.47000000000E+01 0.  1.
         -5    1    1    2    0  502  0.16206393532E+02 -0.88256114511E+02 -0.67517834983E+02  0.11239455939E+03  0.47000000000E+01 0.  1.
        -11    1    1    2    0    0 -0.23612764828E+02  0.12142249594E+01  0.45920311848E+02  0.51649898793E+02  0.00000000000E+00 0.  1.
         11    1    1    2    0    0  0.77219388053E+01  0.44370630354E+02 -0.27639555569E+02  0.52842465962E+02  0.00000000000E+00 0. -1.
<mgrwt>
<rscale>  0 0.12543306E+03</rscale>
<asrwt>0</asrwt>
<pdfrwt beam="2">  1        1 0.25424482E-01 0.13399991E+03</pdfrwt>
<pdfrwt beam="1">  1       -1 0.15097755E-01 0.13399991E+03</pdfrwt>
<totfact> 0.56704990E+03</totfact>
</mgrwt>
</event>
<event>
 6    1  0.8353100E-006  0.1272114E+03  0.7546771E-02  0.1245894E+00
         -3   -1    0    0    0  501 -0.00000000000E+00  0.00000000000E+00  0.23696924724E+03  0.23696924724E+03  0.00000000000E+00 0.  1.
          3   -1    0    0  501    0  0.00000000000E+00 -0.00000000000E+00 -0.57285039607E+02  0.57285039607E+02  0.00000000000E+00 0. -1.
          5    1    1    2  502    0  0.26927184987E+02 -0.57905708677E+02  0.72586907025E+02  0.96794077609E+02  0.47000000000E+01 0. -1.
         -5    1    1    2    0  502 -0.18310438986E+02  0.35920483104E+02 -0.14431320762E+02  0.43080230979E+02  0.47000000000E+01 0. -1.
        -11    1    1    2    0    0  0.10766648203E+02 -0.34136135889E+02  0.43644740789E+02  0.56445193644E+02  0.00000000000E+00 0. -1.
         11    1    1    2    0    0 -0.19383394204E+02  0.56121361462E+02  0.77883880584E+02  0.97934784617E+02  0.00000000000E+00 0.  1.
<mgrwt>
<rscale>  0 0.11832035E+03</rscale>
<asrwt>0</asrwt>
<pdfrwt beam="2">  1        3 0.88130832E-02 0.12721144E+03</pdfrwt>
<pdfrwt beam="1">  1       -3 0.36456807E-01 0.12721144E+03</pdfrwt>
<totfact> 0.15355050E+03</totfact>
</mgrwt>
</event>
<event>
 6    1  0.8353100E-006  0.1310034E+03  0.7546771E-02  0.1240114E+00
         -1   -1    0    0    0  501 -0.00000000000E+00  0.00000000000E+00  0.58358158079E+02  0.58358158079E+02  0.00000000000E+00 0.  1.
          1   -1    0    0  501    0  0.00000000000E+00 -0.00000000000E+00 -0.22490824631E+03  0.22490824631E+03  0.00000000000E+00 0. -1.
          5    1    1    2  502    0  0.22062676880E+02 -0.48288324459E+02 -0.97331775734E+00  0.53306297354E+02  0.47000000000E+01 0.  1.
         -5    1    1    2    0  502  0.16716205854E+02  0.54040429064E+02 -0.89211801418E+02  0.10573852195E+03  0.47000000000E+01 0.  1.
        -11    1    1    2    0    0 -0.43558509665E+02  0.38322409179E+01 -0.93952534249E+02  0.10362967011E+03  0.00000000000E+00 0. -1.
         11    1    1    2    0    0  0.47796269314E+01 -0.95843455232E+01  0.17587565199E+02  0.20591914975E+02  0.00000000000E+00 0.  1.
<mgrwt>
<rscale>  0 0.12182670E+03</rscale>
<asrwt>0</asrwt>
<pdfrwt beam="2">  1        1 0.34601270E-01 0.13100343E+03</pdfrwt>
<pdfrwt beam="1">  1       -1 0.89781779E-02 0.13100343E+03</pdfrwt>
<totfact> 0.85903207E+03</totfact>
</mgrwt>
</event>
<event>
 6    1  0.8353100E-006  0.1505039E+03  0.7546771E-02  0.1208687E+00
         -2   -1    0    0    0  501 -0.00000000000E+00  0.00000000000E+00  0.39004815247E+02  0.39004815247E+02  0.00000000000E+00 0.  1.
          2   -1    0    0  501    0  0.00000000000E+00 -0.00000000000E+00 -0.49234089828E+03  0.49234089828E+03  0.00000000000E+00 0. -1.
          5    1    1    2  502    0  0.77269271703E-01  0.85560024911E+02 -0.19910487910E+03  0.21676108210E+03  0.47000000000E+01 0. -1.
         -5    1    1    2    0  502  0.40395197121E+02 -0.12152015187E+02 -0.15140116269E+02  0.45063916210E+02  0.47000000000E+01 0. -1.
        -11    1    1    2    0    0 -0.35155149276E+02  0.25979953619E+01 -0.27744420608E+02  0.44859636372E+02  0.00000000000E+00 0.  1.
         11    1    1    2    0    0 -0.53173171169E+01 -0.76006005087E+02 -0.21134666705E+03  0.22466107884E+03  0.00000000000E+00 0. -1.
<mgrwt>
<rscale>  0 0.14350635E+03</rscale>
<asrwt>0</asrwt>
<pdfrwt beam="2">  1        2 0.75744755E-01 0.15050386E+03</pdfrwt>
<pdfrwt beam="1">  1       -2 0.60007407E-02 0.15050386E+03</pdfrwt>
<totfact> 0.90016831E+03</totfact>
</mgrwt>
</event>
<event>
 6    1  0.8353100E-006  0.1600710E+03  0.7546771E-02  0.1196051E+00
         -1   -1    0    0    0  501 -0.00000000000E+00  0.00000000000E+00  0.34085661962E+02  0.34085661962E+02  0.00000000000E+00 0.  1.
          1   -1    0    0  501    0  0.00000000000E+00 -0.00000000000E+00 -0.64870210374E+03  0.64870210374E+03  0.00000000000E+00 0. -1.
          5    1    1    2  502    0  0.48828610124E+02  0.35918055474E+02 -0.31172739269E+02  0.68324004194E+02  0.47000000000E+01 0.  1.
         -5    1    1    2    0  502  0.36452461147E+02  0.16291626773E+02 -0.26782348635E+03  0.27082412903E+03  0.47000000000E+01 0.  1.
        -11    1    1    2    0    0 -0.60025566021E+02  0.75139717320E+01 -0.21956292327E+03  0.22774416705E+03  0.00000000000E+00 0. -1.
         11    1    1    2    0    0 -0.25255505249E+02 -0.59723653979E+02 -0.96057292885E+02  0.11589546543E+03  0.00000000000E+00 0.  1.
<mgrwt>
<rscale>  0 0.15365577E+03</rscale>
<asrwt>0</asrwt>
<pdfrwt beam="2">  1        1 0.99800319E-01 0.16007096E+03</pdfrwt>
<pdfrwt beam="1">  1       -1 0.52439482E-02 0.16007096E+03</pdfrwt>
<totfact> 0.50321355E+03</totfact>
</mgrwt>
</event>
<event>
 6    1  0.8353100E-006  0.1492233E+03  0.7546771E-02  0.1210527E+00
          1   -1    0    0  501    0  0.00000000000E+00  0.00000000000E+00  0.63096784829E+02  0.63096784829E+02  0.00000000000E+00 0. -1.
         -1   -1    0    0    0  501 -0.00000000000E+00 -0.00000000000E+00 -0.29750835826E+03  0.29750835826E+03  0.00000000000E+00 0.  1.
          5    1    1    2  502    0 -0.44110988494E+02  0.79078959816E+02 -0.29313682757E+02  0.95292408870E+02  0.47000000000E+01 0. -1.
         -5    1    1    2    0  502  0.42082242297E+02  0.23813141904E+01 -0.77074866145E+02  0.87972784230E+02  0.47000000000E+01 0. -1.
        -11    1    1    2    0    0  0.24064077356E+02 -0.55041129300E+02 -0.18980032187E+02  0.62998788524E+02  0.00000000000E+00 0. -1.
         11    1    1    2    0    0 -0.22035331158E+02 -0.26419144706E+02 -0.10904299234E+03  0.11434116146E+03  0.00000000000E+00 0.  1.
<mgrwt>
<rscale>  0 0.14210329E+03</rscale>
<asrwt>0</asrwt>
<pdfrwt beam="1">  1        1 0.97071975E-02 0.14922335E+03</pdfrwt>
<pdfrwt beam="2">  1       -1 0.45770517E-01 0.14922335E+03</pdfrwt>
<totfact> 0.31285936E+03</totfact>
</mgrwt>
</event>
<event>
 6    1  0.8353100E-006  0.1323035E+03  0.7546771E-02  0.1237256E+00
         -1   -1    0    0    0  501 -0.00000000000E+00  0.00000000000E+00  0.22064661905E+03  0.22064661905E+03  0.00000000000E+00 0.  1.
          1   -1    0    0  501    0  0.00000000000E+00 -0.00000000000E+00 -0.61824941737E+02  0.61824941737E+02  0.00000000000E+00 0. -1.
          5    1    1    2  502    0  0.37586889120E+02 -0.24121113792E+02  0.55381368000E+02  0.71300689239E+02  0.47000000000E+01 0. -1.
         -5    1    1    2    0  502 -0.51507857572E+02  0.65180031672E+02  0.43659345665E+02  0.93966613136E+02  0.47000000000E+01 0. -1.
        -11    1    1    2    0    0  0.21809278510E+02 -0.56877099265E+02  0.67296201407E+01  0.61285698471E+02  0.00000000000E+00 0. -1.
         11    1    1    2    0    0 -0.78883100583E+01  0.15818181385E+02  0.53051343507E+02  0.55918559940E+02  0.00000000000E+00 0.  1.
<mgrwt>
<rscale>  0 0.12361087E+03</rscale>
<asrwt>0</asrwt>
<pdfrwt beam="2">  1        1 0.95115296E-02 0.13230351E+03</pdfrwt>
<pdfrwt beam="1">  1       -1 0.33945633E-01 0.13230351E+03</pdfrwt>
<totfact> 0.53861782E+03</totfact>
</mgrwt>
</event>
<event>
 6    1  0.8353100E-006  0.1405795E+03  0.7546771E-02  0.1223350E+00
          3   -1    0    0  501    0  0.00000000000E+00  0.00000000000E+00  0.58231940768E+03  0.58231940768E+03  0.00000000000E+00 0. -1.
         -3   -1    0    0    0  501 -0.00000000000E+00 -0.00000000000E+00 -0.28013968600E+02  0.28013968600E+02  0.00000000000E+00 0.  1.
          5    1    1    2  502    0  0.33209712443E+02 -0.64034601222E+02  0.17192857424E+03  0.18650694302E+03  0.47000000000E+01 0.  1.
         -5    1    1    2    0  502  0.31019316769E+02  0.60439960312E+02  0.18142791725E+03  0.19378690867E+03  0.47000000000E+01 0.  1.
        -11    1    1    2    0    0 -0.59640081884E+02 -0.88719777905E+01  0.20688253005E+03  0.21549021462E+03  0.00000000000E+00 0. -1.
         11    1    1    2    0    0 -0.45889473280E+01  0.12466618701E+02 -0.59335824683E+01  0.14549309961E+02  0.00000000000E+00 0.  1.
<mgrwt>
<rscale>  0 0.13280634E+03</rscale>
<asrwt>0</asrwt>
<pdfrwt beam="1">  1        3 0.89587592E-01 0.14057953E+03</pdfrwt>
<pdfrwt beam="2">  1       -3 0.43098418E-02 0.14057953E+03</pdfrwt>
<totfact> 0.77999686E+02</totfact>
</mgrwt>
</event>
<event>
 6    1  0.8353100E-006  0.1425375E+03  0.7546771E-02  0.1220102E+00
          2   -1    0    0  501    0  0.00000000000E+00  0.00000000000E+00  0.14996907449E+04  0.14996907449E+04  0.00000000000E+00 0. -1.
         -2   -1    0    0    0  501 -0.00000000000E+00 -0.00000000000E+00 -0.14044640908E+02  0.14044640908E+02  0.00000000000E+00 0.  1.
          5    1    1    2  502    0  0.17086087550E+02  0.81651766838E+02  0.44809721151E+03  0.45582030053E+03  0.47000000000E+01 0. -1.
         -5    1    1    2    0  502  0.25814670352E+02 -0.28255044647E+02  0.70492275845E+03  0.70597657903E+03  0.47000000000E+01 0. -1.
        -11    1    1    2    0    0 -0.26094435236E+02  0.17555839044E+02  0.42995606603E+02  0.53270528644E+02  0.00000000000E+00 0.  1.
         11    1    1    2    0    0 -0.16806322665E+02 -0.70952561235E+02  0.28963052747E+03  0.29866797765E+03  0.00000000000E+00 0. -1.
<mgrwt>
<rscale>  0 0.13508375E+03</rscale>
<asrwt>0</asrwt>
<pdfrwt beam="1">  1        2 0.23072153E+00 0.14253750E+03</pdfrwt>
<pdfrwt beam="2">  1       -2 0.21607152E-02 0.14253750E+03</pdfrwt>
<totfact> 0.92091391E+03</totfact>
</mgrwt>
</event>
<event>
 6    1  0.8353100E-006  0.1682812E+03  0.7546771E-02  0.1207348E+00
         -2   -1    0    0    0  501 -0.00000000000E+00  0.00000000000E+00  0.85573751516E+02  0.85573751516E+02  0.00000000000E+00 0.  1.
          2   -1    0    0  501    0  0.00000000000E+00 -0.00000000000E+00 -0.79065986102E+03  0.79065986102E+03  0.00000000000E+00 0. -1.
          5    1    1    2  502    0  0.39504483491E+02  0.46079919631E+02 -0.62876429235E+03  0.63170451046E+03  0.47000000000E+01 0. -1.
         -5    1    1    2    0  502 -0.51178762155E+02 -0.38855972112E+02 -0.12513264254E+03  0.14074558783E+03  0.47000000000E+01 0.  1.
        -11    1    1    2    0    0  0.38577268786E+02  0.20533493214E+02  0.48284191557E+02  0.65124443681E+02  0.00000000000E+00 0.  1.
         11    1    1    2    0    0 -0.26902990121E+02 -0.27757440733E+02  0.52663382654E+00  0.38659070562E+02  0.00000000000E+00 0. -1.
<mgrwt>
<rscale>  0 0.14453978E+03</rscale>
<asrwt>0</asrwt>
<pdfrwt beam="2">  1        2 0.12163998E+00 0.16828121E+03</pdfrwt>
<pdfrwt beam="1">  1       -2 0.13165193E-01 0.16828121E+03</pdfrwt>
<totfact> 0.15242797E+03</totfact>
</mgrwt>
</event>
<event>
 6    1  0.8353100E-006  0.1360585E+03  0.7546771E-02  0.1230757E+00
         -1   -1    0    0    0  501 -0.00000000000E+00  0.00000000000E+00  0.22463196906E+03  0.22463196906E+03  0.00000000000E+00 0.  1.
          1   -1    0    0  501    0  0.00000000000E+00 -0.00000000000E+00 -0.68109190049E+02  0.68109190049E+02  0.00000000000E+00 0. -1.
          5    1    1    2  502    0  0.44537137612E+02 -0.31474805643E+02  0.51379656929E+02  0.75074490761E+02  0.47000000000E+01 0.  1.
         -5    1    1    2    0  502 -0.88429886533E+01  0.71639957695E+02  0.59885547569E+01  0.72583984287E+02  0.47000000000E+01 0.  1.
        -11    1    1    2    0    0  0.26436236916E+01 -0.10995381854E+02 -0.16381523268E+02  0.19905815053E+02  0.00000000000E+00 0. -1.
         11    1    1    2    0    0 -0.38337772650E+02 -0.29169770199E+02  0.11553609059E+03  0.12517686901E+03  0.00000000000E+00 0.  1.
<mgrwt>
<rscale>  0 0.12779991E+03</rscale>
<asrwt>0</asrwt>
<pdfrwt beam="2">  1        1 0.10478337E-01 0.13605849E+03</pdfrwt>
<pdfrwt beam="1">  1       -1 0.34558764E-01 0.13605849E+03</pdfrwt>
<totfact> 0.46030707E+03</totfact>
</mgrwt>
</event>
<event>
 6    1  0.8353100E-006  0.1545937E+03  0.7546771E-02  0.1202917E+00
         -1   -1    0    0    0  501 -0.00000000000E+00  0.00000000000E+00  0.62757822107E+02  0.62757822107E+02  0.00000000000E+00 0.  1.
          1   -1    0    0  501    0  0.00000000000E+00 -0.00000000000E+00 -0.37853814892E+03  0.37853814892E+03  0.00000000000E+00 0. -1.
          5    1    1    2  502    0 -0.60058409046E+02 -0.10210020743E+03 -0.17359316804E+03  0.21020975916E+03  0.47000000000E+01 0. -1.
         -5    1    1    2    0  502  0.28721735200E+02  0.16705213209E+02 -0.80535248308E+02  0.87246882129E+02  0.47000000000E+01 0. -1.
        -11    1    1    2    0    0  0.33851236250E+02  0.25911548996E+00  0.68486538154E+01  0.34538057206E+02  0.00000000000E+00 0.  1.
         11    1    1    2    0    0 -0.25145624044E+01  0.85135878731E+02 -0.68500564283E+02  0.10930127254E+03  0.00000000000E+00 0. -1.
<mgrwt>
<rscale>  0 0.14802791E+03</rscale>
<asrwt>0</asrwt>
<pdfrwt beam="2">  1        1 0.58236637E-01 0.15459367E+03</pdfrwt>
<pdfrwt beam="1">  1       -1 0.96550497E-02 0.15459367E+03</pdfrwt>
<totfact> 0.40685215E+03</totfact>
</mgrwt>
</event>
<event>
 6    1  0.8353100E-006  0.1418886E+03  0.7546771E-02  0.1222888E+00
         -1   -1    0    0    0  501 -0.00000000000E+00  0.00000000000E+00  0.18183917997E+03  0.18183917997E+03  0.00000000000E+00 0.  1.
          1   -1    0    0  501    0  0.00000000000E+00 -0.00000000000E+00 -0.98322266116E+02  0.98322266116E+02  0.00000000000E+00 0. -1.
          5    1    1    2  502    0 -0.27434798272E+02  0.34941171507E+01 -0.40879919166E+02  0.49579580493E+02  0.47000000000E+01 0.  1.
         -5    1    1    2    0  502  0.63472612449E+02  0.53151489492E+02  0.40559624677E+02  0.92309406456E+02  0.47000000000E+01 0.  1.
        -11    1    1    2    0    0 -0.15163107999E+02 -0.19099535265E+02 -0.16284341947E+02  0.29323913180E+02  0.00000000000E+00 0. -1.
         11    1    1    2    0    0 -0.20874706177E+02 -0.37546071378E+02  0.10012155029E+03  0.10894854596E+03  0.00000000000E+00 0.  1.
<mgrwt>
<rscale>  0 0.13312715E+03</rscale>
<asrwt>0</asrwt>
<pdfrwt beam="2">  1        1 0.15126502E-01 0.14188863E+03</pdfrwt>
<pdfrwt beam="1">  1       -1 0.27975258E-01 0.14188863E+03</pdfrwt>
<totfact> 0.40778766E+03</totfact>
</mgrwt>
</event>
<event>
 6    1  0.8353100E-006  0.1296889E+03  0.7546771E-02  0.1242211E+00
          1   -1    0    0  501    0  0.00000000000E+00  0.00000000000E+00  0.43087649182E+02  0.43087649182E+02  0.00000000000E+00 0. -1.
         -1   -1    0    0    0  501 -0.00000000000E+00 -0.00000000000E+00 -0.31063650673E+03  0.31063650673E+03  0.00000000000E+00 0.  1.
          5    1    1    2  502    0 -0.59560290831E+02 -0.31853919056E+02 -0.34056114814E+02  0.75789243032E+02  0.47000000000E+01 0. -1.
         -5    1    1    2    0  502  0.53722887785E+02 -0.22181010817E+01 -0.82456608907E+02  0.98550753406E+02  0.47000000000E+01 0. -1.
        -11    1    1    2    0    0  0.40126605691E+02 -0.82468122119E+01 -0.79912243631E+02  0.89800451436E+02  0.00000000000E+00 0.  1.
         11    1    1    2    0    0 -0.34289202644E+02  0.42318832349E+02 -0.71123890200E+02  0.89583708042E+02  0.00000000000E+00 0. -1.
<mgrwt>
<rscale>  0 0.12053853E+03</rscale>
<asrwt>0</asrwt>
<pdfrwt beam="1">  1        1 0.66288689E-02 0.12968893E+03</pdfrwt>
<pdfrwt beam="2">  1       -1 0.47790233E-01 0.12968893E+03</pdfrwt>
<totfact> 0.47878535E+03</totfact>
</mgrwt>
</event>
<event>
 6    1  0.8353100E-006  0.1259686E+03  0.7546771E-02  0.1249106E+00
         -2   -1    0    0    0  501 -0.00000000000E+00  0.00000000000E+00  0.16804070760E+03  0.16804070760E+03  0.00000000000E+00 0.  1.
          2   -1    0    0  501    0  0.00000000000E+00 -0.00000000000E+00 -0.81081205593E+02  0.81081205593E+02  0.00000000000E+00 0. -1.
          5    1    1    2  502    0  0.52141694077E+02 -0.14189861802E+02  0.13140192178E+02  0.55810958508E+02  0.47000000000E+01 0. -1.
         -5    1    1    2    0  502 -0.67209251740E+02  0.18285507901E+02 -0.79666510499E+01  0.70263794714E+02  0.47000000000E+01 0. -1.
        -11    1    1    2    0    0 -0.22795366864E+02  0.26680642881E+02  0.10440919857E+02  0.36612815549E+02  0.00000000000E+00 0. -1.
         11    1    1    2    0    0  0.37862924527E+02 -0.30776288980E+02  0.71345041021E+02  0.86434344420E+02  0.00000000000E+00 0.  1.
<mgrwt>
<rscale>  0 0.11642986E+03</rscale>
<asrwt>0</asrwt>
<pdfrwt beam="2">  1        2 0.12474032E-01 0.12596856E+03</pdfrwt>
<pdfrwt beam="1">  1       -2 0.25852416E-01 0.12596856E+03</pdfrwt>
<totfact> 0.61498313E+03</totfact>
</mgrwt>
</event>
<event>
 6    1  0.8353100E-006  0.1303737E+03  0.7546771E-02  0.1239262E+00
          1   -1    0    0  501    0  0.00000000000E+00  0.00000000000E+00  0.60536789185E+03  0.60536789185E+03  0.00000000000E+00 0. -1.
         -1   -1    0    0    0  501 -0.00000000000E+00 -0.00000000000E+00 -0.22410758930E+02  0.22410758930E+02  0.00000000000E+00 0.  1.
          5    1    1    2  502    0 -0.13740830494E+02  0.57591226495E+02  0.33553576032E+03  0.34075195707E+03  0.47000000000E+01 0.  1.
         -5    1    1    2    0  502  0.26561289371E+02 -0.22838508057E+02  0.26890424981E+02  0.44410409804E+02  0.47000000000E+01 0.  1.
        -11    1    1    2    0    0 -0.56533373520E+00 -0.43032753117E+02  0.22343655626E+03  0.22754347302E+03  0.00000000000E+00 0. -1.
         11    1    1    2    0    0 -0.12255125142E+02  0.82800346793E+01 -0.29056086354E+01  0.15072810889E+02  0.00000000000E+00 0.  1.
<mgrwt>
<rscale>  0 0.12235464E+03</rscale>
<asrwt>0</asrwt>
<pdfrwt beam="1">  1        1 0.93133509E-01 0.13037373E+03</pdfrwt>
<pdfrwt beam="2">  1       -1 0.34478095E-02 0.13037373E+03</pdfrwt>
<totfact> 0.10152488E+04</totfact>
</mgrwt>
</event>
<event>
 6    1  0.8353100E-006  0.1452550E+03  0.7546771E-02  0.1215862E+00
         -1   -1    0    0    0  501 -0.00000000000E+00  0.00000000000E+00  0.34579484922E+02  0.34579484922E+02  0.00000000000E+00 0.  1.
          1   -1    0    0  501    0  0.00000000000E+00 -0.00000000000E+00 -0.12011844637E+04  0.12011844637E+04  0.00000000000E+00 0. -1.
          5    1    1    2  502    0  0.53994885777E+01  0.97882741891E+02 -0.60741234360E+03  0.61529020047E+03  0.47000000000E+01 0.  1.
         -5    1    1    2    0  502  0.27296036340E+02 -0.31513740806E+02 -0.47012877161E+03  0.47199718363E+03  0.47000000000E+01 0.  1.
        -11    1    1    2    0    0 -0.25305400330E+02 -0.13335381604E+02  0.14365269374E+02  0.32008696514E+02  0.00000000000E+00 0.  1.
         11    1    1    2    0    0 -0.73901245877E+01 -0.53033619480E+02 -0.10342913292E+03  0.11646786798E+03  0.00000000000E+00 0. -1.
<mgrwt>
<rscale>  0 0.13813391E+03</rscale>
<asrwt>0</asrwt>
<pdfrwt beam="2">  1        1 0.18479764E+00 0.14525495E+03</pdfrwt>
<pdfrwt beam="1">  1       -1 0.53199199E-02 0.14525495E+03</pdfrwt>
<totfact> 0.18268319E+03</totfact>
</mgrwt>
</event>
<event>
 6    1  0.8353100E-006  0.1331030E+03  0.7546771E-02  0.1235444E+00
         -2   -1    0    0    0  501 -0.00000000000E+00  0.00000000000E+00  0.26841720483E+02  0.26841720483E+02  0.00000000000E+00 0.  1.
          2   -1    0    0  501    0  0.00000000000E+00 -0.00000000000E+00 -0.58033893412E+03  0.58033893412E+03  0.00000000000E+00 0. -1.
          5    1    1    2  502    0  0.37128946739E+02 -0.20748129624E+02 -0.17707779315E+03  0.18217485665E+03  0.47000000000E+01 0.  1.
         -5    1    1    2    0  502 -0.81544213908E+02  0.31631138284E+02 -0.23018854128E+03  0.24629015869E+03  0.47000000000E+01 0.  1.
        -11    1    1    2    0    0 -0.16168703706E+02  0.31613807028E+01  0.32692030492E+01  0.16796100620E+02  0.00000000000E+00 0.  1.
         11    1    1    2    0    0  0.60583970875E+02 -0.14044389363E+02 -0.14950008227E+03  0.16191953865E+03  0.00000000000E+00 0. -1.
<mgrwt>
<rscale>  0 0.12476055E+03</rscale>
<asrwt>0</asrwt>
<pdfrwt beam="2">  1        2 0.89282900E-01 0.13310298E+03</pdfrwt>
<pdfrwt beam="1">  1       -2 0.41294961E-02 0.13310298E+03</pdfrwt>
<totfact> 0.13036266E+04</totfact>
</mgrwt>
</event>
<event>
 6    1  0.8353100E-006  0.1445646E+03  0.7546771E-02  0.1217546E+00
         -2   -1    0    0    0  501 -0.00000000000E+00  0.00000000000E+00  0.93410849643E+02  0.93410849643E+02  0.00000000000E+00 0.  1.
          2   -1    0    0  501    0  0.00000000000E+00 -0.00000000000E+00 -0.18459869777E+03  0.18459869777E+03  0.00000000000E+00 0. -1.
          5    1    1    2  502    0  0.30416760068E+02 -0.35520896449E+02 -0.10205459467E+03  0.11235721459E+03  0.47000000000E+01 0. -1.
         -5    1    1    2    0  502  0.10665381954E+01 -0.29938638399E+02  0.35587836513E+02  0.46755146033E+02  0.47000000000E+01 0. -1.
        -11    1    1    2    0    0 -0.21621597807E+02  0.37302608202E+02  0.32750112954E+02  0.54143771284E+02  0.00000000000E+00 0.  1.
         11    1    1    2    0    0 -0.98617004555E+01  0.28156926646E+02 -0.57471202927E+02  0.64753415508E+02  0.00000000000E+00 0. -1.
<mgrwt>
<rscale>  0 0.13691158E+03</rscale>
<asrwt>0</asrwt>
<pdfrwt beam="2">  1        2 0.28399799E-01 0.14456456E+03</pdfrwt>
<pdfrwt beam="1">  1       -2 0.14370900E-01 0.14456456E+03</pdfrwt>
<totfact> 0.65410997E+03</totfact>
</mgrwt>
</event>
<event>
 6    1  0.8353100E-006  0.1816212E+03  0.7546771E-02  0.1171724E+00
          3   -1    0    0  501    0  0.00000000000E+00  0.00000000000E+00  0.35324193933E+02  0.35324193933E+02  0.00000000000E+00 0. -1.
         -3   -1    0    0    0  501 -0.00000000000E+00 -0.00000000000E+00 -0.10024745338E+04  0.10024745338E+04  0.00000000000E+00 0.  1.
          5    1    1    2  502    0 -0.28861931697E+02 -0.25347648805E+02 -0.56190039235E+02  0.68227010124E+02  0.47000000000E+01 0.  1.
         -5    1    1    2    0  502  0.12968904908E+03 -0.59457427734E+02 -0.23556156829E+03  0.27543742959E+03  0.47000000000E+01 0.  1.
        -11    1    1    2    0    0 -0.10188885693E+03  0.33686236568E+02 -0.40706535613E+03  0.42097304648E+03  0.00000000000E+00 0.  1.
         11    1    1    2    0    0  0.10617395551E+01  0.51118839971E+02 -0.26833337623E+03  0.27316124156E+03  0.00000000000E+00 0. -1.
<mgrwt>
<rscale>  0 0.17600691E+03</rscale>
<asrwt>0</asrwt>
<pdfrwt beam="1">  1        3 0.54344917E-02 0.18162116E+03</pdfrwt>
<pdfrwt beam="2">  1       -3 0.15422684E+00 0.18162116E+03</pdfrwt>
<totfact> 0.15424164E+02</totfact>
</mgrwt>
</event>
<event>
 6    1  0.8353100E-006  0.1603514E+03  0.7546771E-02  0.1195594E+00
         -2   -1    0    0    0  501 -0.00000000000E+00  0.00000000000E+00  0.27675947511E+02  0.27675947511E+02  0.00000000000E+00 0.  1.
          2   -1    0    0  501    0  0.00000000000E+00 -0.00000000000E+00 -0.79638123513E+03  0.79638123513E+03  0.00000000000E+00 0. -1.
          5    1    1    2  502    0 -0.38012469662E+02 -0.66767040150E+01 -0.27563763107E+02  0.47658968336E+02  0.47000000000E+01 0.  1.
         -5    1    1    2    0  502 -0.25607005590E+02  0.84405823657E+02 -0.38426051707E+03  0.39428200160E+03  0.47000000000E+01 0.  1.
        -11    1    1    2    0    0  0.30436721764E+02 -0.25234252166E+02 -0.30647786393E+02  0.50024477258E+02  0.00000000000E+00 0.  1.
         11    1    1    2    0    0  0.33182753487E+02 -0.52494867476E+02 -0.32623322105E+03  0.33209173545E+03  0.00000000000E+00 0. -1.
<mgrwt>
<rscale>  0 0.15404083E+03</rscale>
<asrwt>0</asrwt>
<pdfrwt beam="2">  1        2 0.12252019E+00 0.16035144E+03</pdfrwt>
<pdfrwt beam="1">  1       -2 0.42578381E-02 0.16035144E+03</pdfrwt>
<totfact> 0.86665225E+03</totfact>
</mgrwt>
</event>
<event>
 6    1  0.8353100E-006  0.2840176E+03  0.7546771E-02  0.1093515E+00
          1   -1    0    0  501    0  0.00000000000E+00  0.00000000000E+00  0.16823475245E+03  0.16823475245E+03  0.00000000000E+00 0. -1.
         -1   -1    0    0    0  501 -0.00000000000E+00 -0.00000000000E+00 -0.11987115896E+03  0.11987115896E+03  0.00000000000E+00 0.  1.
          5    1    1    2  502    0  0.91294931253E+02  0.76720087120E+02  0.18047430662E+02  0.12070019053E+03  0.47000000000E+01 0.  1.
         -5    1    1    2    0  502 -0.24667119569E+02 -0.15850762710E+02  0.26450754669E+02  0.39767397311E+02  0.47000000000E+01 0.  1.
        -11    1    1    2    0    0 -0.36317771523E+02 -0.50584217157E+02  0.44040875840E+02  0.76271503843E+02  0.00000000000E+00 0. -1.
         11    1    1    2    0    0 -0.30310040161E+02 -0.10285107254E+02 -0.40175467680E+02  0.51366819729E+02  0.00000000000E+00 0.  1.
<mgrwt>
<rscale>  0 0.28401757E+03</rscale>
<asrwt>0</asrwt>
<pdfrwt beam="1">  1        1 0.25882270E-01 0.28401757E+03</pdfrwt>
<pdfrwt beam="2">  1       -1 0.18441717E-01 0.28401757E+03</pdfrwt>
<totfact> 0.41928603E+03</totfact>
</mgrwt>
</event>
<event>
 6    1  0.8353100E-006  0.1358651E+03  0.7546771E-02  0.1232593E+00
          2   -1    0    0  501    0  0.00000000000E+00  0.00000000000E+00  0.13477989119E+04  0.13477989119E+04  0.00000000000E+00 0. -1.
         -2   -1    0    0    0  501 -0.00000000000E+00 -0.00000000000E+00 -0.19582895774E+02  0.19582895774E+02  0.00000000000E+00 0.  1.
          5    1    1    2  502    0 -0.61509155748E+02 -0.61223470488E+02  0.78083559194E+03  0.78565768705E+03  0.47000000000E+01 0.  1.
         -5    1    1    2    0  502  0.47552459688E+02  0.98629981384E+01  0.39574003951E+03  0.39873648445E+03  0.47000000000E+01 0.  1.
        -11    1    1    2    0    0  0.46979416359E+02  0.50995855601E+02  0.99828683146E+02  0.12154591243E+03  0.00000000000E+00 0.  1.
         11    1    1    2    0    0 -0.33022720299E+02  0.36461674873E+00  0.51811701500E+02  0.61441723720E+02  0.00000000000E+00 0. -1.
<mgrwt>
<rscale>  0 0.12659783E+03</rscale>
<asrwt>0</asrwt>
<pdfrwt beam="1">  1        2 0.20735361E+00 0.13586514E+03</pdfrwt>
<pdfrwt beam="2">  1       -2 0.30127543E-02 0.13586514E+03</pdfrwt>
<totfact> 0.67969614E+03</totfact>
</mgrwt>
</event>
<event>
 6    1  0.8353100E-006  0.1267404E+03  0.7546771E-02  0.1246634E+00
         -1   -1    0    0    0  501 -0.00000000000E+00  0.00000000000E+00  0.21861968033E+02  0.21861968033E+02  0.00000000000E+00 0.  1.
          1   -1    0    0  501    0  0.00000000000E+00 -0.00000000000E+00 -0.61504935974E+03  0.61504935974E+03  0.00000000000E+00 0. -1.
          5    1    1    2  502    0  0.55621269861E+02 -0.11201274878E+02 -0.28926886997E+03  0.29481818695E+03  0.47000000000E+01 0.  1.
         -5    1    1    2    0  502 -0.60196648899E+02 -0.91994633103E+01 -0.13937106434E+03  0.15216652142E+03  0.47000000000E+01 0.  1.
        -11    1    1    2    0    0 -0.20846254719E+02  0.39826739179E+02 -0.36389450463E+02  0.57835349004E+02  0.00000000000E+00 0.  1.
         11    1    1    2    0    0  0.25421633757E+02 -0.19426000991E+02 -0.12815800693E+03  0.13209127041E+03  0.00000000000E+00 0. -1.
<mgrwt>
<rscale>  0 0.11788108E+03</rscale>
<asrwt>0</asrwt>
<pdfrwt beam="2">  1        1 0.94622965E-01 0.12674043E+03</pdfrwt>
<pdfrwt beam="1">  1       -1 0.33633802E-02 0.12674043E+03</pdfrwt>
<totfact> 0.10280658E+04</totfact>
</mgrwt>
</event>
<event>
 6    1  0.8353100E-006  0.1315147E+03  0.7546771E-02  0.1238922E+00
         -3   -1    0    0    0  501 -0.00000000000E+00  0.00000000000E+00  0.14847653941E+03  0.14847653941E+03  0.00000000000E+00 0.  1.
          3   -1    0    0  501    0  0.00000000000E+00 -0.00000000000E+00 -0.89908197755E+02  0.89908197755E+02  0.00000000000E+00 0. -1.
          5    1    1    2  502    0  0.15745935226E+02  0.52845484247E+02 -0.24154650923E+02  0.60383084077E+02  0.47000000000E+01 0.  1.
         -5    1    1    2    0  502  0.24725789618E+02 -0.47084590321E+02  0.51020177938E+02  0.73847626060E+02  0.47000000000E+01 0.  1.
        -11    1    1    2    0    0 -0.65929362896E+02 -0.18990744195E+02  0.12792420024E+02  0.69792372557E+02  0.00000000000E+00 0. -1.
         11    1    1    2    0    0  0.25457638053E+02  0.13229850269E+02  0.18910394612E+02  0.34361654468E+02  0.00000000000E+00 0.  1.
<mgrwt>
<rscale>  0 0.12256648E+03</rscale>
<asrwt>0</asrwt>
<pdfrwt beam="2">  1        3 0.13832030E-01 0.13151474E+03</pdfrwt>
<pdfrwt beam="1">  1       -3 0.22842544E-01 0.13151474E+03</pdfrwt>
<totfact> 0.17234267E+03</totfact>
</mgrwt>
</event>
<event>
 6    1  0.8353100E-006  0.1343178E+03  0.7546771E-02  0.1231957E+00
          2   -1    0    0  501    0  0.00000000000E+00  0.00000000000E+00  0.21841093321E+03  0.21841093321E+03  0.00000000000E+00 0. -1.
         -2   -1    0    0    0  501 -0.00000000000E+00 -0.00000000000E+00 -0.67851671494E+02  0.67851671494E+02  0.00000000000E+00 0.  1.
          5    1    1    2  502    0  0.35107003196E+02 -0.20125493237E+02  0.11201547855E+03  0.11919351738E+03  0.47000000000E+01 0.  1.
         -5    1    1    2    0  502  0.63108641692E+01  0.46605231224E+02 -0.11411809339E+02  0.48622977865E+02  0.47000000000E+01 0.  1.
        -11    1    1    2    0    0 -0.21922314257E+02  0.26446409431E+01  0.73155823894E+02  0.76415682669E+02  0.00000000000E+00 0. -1.
         11    1    1    2    0    0 -0.19495553108E+02 -0.29124378930E+02 -0.23200231392E+02  0.42030426785E+02  0.00000000000E+00 0.  1.
<mgrwt>
<rscale>  0 0.12701276E+03</rscale>
<asrwt>0</asrwt>
<pdfrwt beam="1">  1        2 0.33601682E-01 0.13431782E+03</pdfrwt>
<pdfrwt beam="2">  1       -2 0.10438719E-01 0.13431782E+03</pdfrwt>
<totfact> 0.90524893E+03</totfact>
</mgrwt>
</event>
<event>
 6    1  0.8353100E-006  0.2314336E+03  0.7546771E-02  0.1128642E+00
          1   -1    0    0  501    0  0.00000000000E+00  0.00000000000E+00  0.20209835233E+03  0.20209835233E+03  0.00000000000E+00 0. -1.
         -1   -1    0    0    0  501 -0.00000000000E+00 -0.00000000000E+00 -0.42704204076E+03  0.42704204076E+03  0.00000000000E+00 0.  1.
          5    1    1    2  502    0 -0.41291011821E+02 -0.10329866098E+03  0.85923337099E+02  0.14064306196E+03  0.47000000000E+01 0. -1.
         -5    1    1    2    0  502  0.57350535012E+02 -0.90774903823E+02  0.37072802686E+01  0.10754069442E+03  0.47000000000E+01 0. -1.
        -11    1    1    2    0    0  0.27642821451E+02  0.12447955612E+03 -0.14901750400E+03  0.19612623988E+03  0.00000000000E+00 0. -1.
         11    1    1    2    0    0 -0.43702344642E+02  0.69594008688E+02 -0.16555680179E+03  0.18483039683E+03  0.00000000000E+00 0.  1.
<mgrwt>
<rscale>  0 0.22717785E+03</rscale>
<asrwt>0</asrwt>
<pdfrwt beam="1">  1        1 0.31092055E-01 0.23143364E+03</pdfrwt>
<pdfrwt beam="2">  1       -1 0.65698774E-01 0.23143364E+03</pdfrwt>
<totfact> 0.35464379E+02</totfact>
</mgrwt>
</event>
<event>
 6    1  0.8353100E-006  0.1528453E+03  0.7546771E-02  0.1210321E+00
         -1   -1    0    0    0  501 -0.00000000000E+00  0.00000000000E+00  0.93736165190E+02  0.93736165190E+02  0.00000000000E+00 0.  1.
          1   -1    0    0  501    0  0.00000000000E+00 -0.00000000000E+00 -0.20865707184E+03  0.20865707184E+03  0.00000000000E+00 0. -1.
          5    1    1    2  502    0  0.46978275067E+02  0.24981719759E+02 -0.11493736177E+03  0.12674277802E+03  0.47000000000E+01 0.  1.
         -5    1    1    2    0  502  0.38340046994E+02 -0.46502052439E+02  0.62963323316E+01  0.60779387010E+02  0.47000000000E+01 0.  1.
        -11    1    1    2    0    0 -0.70865083722E+02 -0.17007936778E+02  0.19615129477E+01  0.72903892471E+02  0.00000000000E+00 0.  1.
         11    1    1    2    0    0 -0.14453238338E+02  0.38528269457E+02 -0.82413901632E+01  0.41967179530E+02  0.00000000000E+00 0. -1.
<mgrwt>
<rscale>  0 0.14225884E+03</rscale>
<asrwt>0</asrwt>
<pdfrwt beam="2">  1        1 0.32101088E-01 0.15284531E+03</pdfrwt>
<pdfrwt beam="1">  1       -1 0.14420949E-01 0.15284531E+03</pdfrwt>
<totfact> 0.45897021E+03</totfact>
</mgrwt>
</event>
<event>
 6    1  0.8353100E-006  0.1297508E+03  0.7546771E-02  0.1241468E+00
          1   -1    0    0  501    0  0.00000000000E+00  0.00000000000E+00  0.74014131841E+03  0.74014131841E+03  0.00000000000E+00 0. -1.
         -1   -1    0    0    0  501 -0.00000000000E+00 -0.00000000000E+00 -0.18192491283E+02  0.18192491283E+02  0.00000000000E+00 0.  1.
          5    1    1    2  502    0  0.80218966917E+01 -0.63029590034E+02  0.25733487006E+03  0.26510451787E+03  0.47000000000E+01 0.  1.
         -5    1    1    2    0  502  0.26694037069E+02  0.59735402663E+02  0.22324121056E+03  0.23267921703E+03  0.47000000000E+01 0.  1.
        -11    1    1    2    0    0 -0.65635367974E+02 -0.55136048557E+01  0.15677374466E+03  0.17004825310E+03  0.00000000000E+00 0.  1.
         11    1    1    2    0    0  0.30919434213E+02  0.88077922268E+01  0.84599001855E+02  0.90501821699E+02  0.00000000000E+00 0. -1.
<mgrwt>
<rscale>  0 0.12099314E+03</rscale>
<asrwt>0</asrwt>
<pdfrwt beam="1">  1        1 0.11386787E+00 0.12975083E+03</pdfrwt>
<pdfrwt beam="2">  1       -1 0.27988454E-02 0.12975083E+03</pdfrwt>
<totfact> 0.10363330E+04</totfact>
</mgrwt>
</event>
<event>
 6    1  0.8353100E-006  0.1638383E+03  0.7546771E-02  0.1191565E+00
          1   -1    0    0  501    0  0.00000000000E+00  0.00000000000E+00  0.96443224301E+03  0.96443224301E+03  0.00000000000E+00 0. -1.
         -1   -1    0    0    0  501 -0.00000000000E+00 -0.00000000000E+00 -0.23919187412E+02  0.23919187412E+02  0.00000000000E+00 0.  1.
          5    1    1    2  502    0  0.40580597605E+02  0.27202576604E+02  0.18339643415E+03  0.18985022290E+03  0.47000000000E+01 0. -1.
         -5    1    1    2    0  502  0.23959061514E+02 -0.11118256110E+03  0.33369140100E+03  0.35257288555E+03  0.47000000000E+01 0. -1.
        -11    1    1    2    0    0 -0.48868422399E+02  0.10024606210E+03  0.29192068309E+03  0.31249812941E+03  0.00000000000E+00 0.  1.
         11    1    1    2    0    0 -0.15671236720E+02 -0.16266077601E+02  0.13150453736E+03  0.13343019256E+03  0.00000000000E+00 0. -1.
<mgrwt>
<rscale>  0 0.15748583E+03</rscale>
<asrwt>0</asrwt>
<pdfrwt beam="1">  1        1 0.14837416E+00 0.16383833E+03</pdfrwt>
<pdfrwt beam="2">  1       -1 0.36798757E-02 0.16383833E+03</pdfrwt>
<totfact> 0.46606354E+03</totfact>
</mgrwt>
</event>
<event>
 6    1  0.8353100E-006  0.1276848E+03  0.7546771E-02  0.1245395E+00
          2   -1    0    0  501    0  0.00000000000E+00  0.00000000000E+00  0.73598197143E+03  0.73598197143E+03  0.00000000000E+00 0. -1.
         -2   -1    0    0    0  501 -0.00000000000E+00 -0.00000000000E+00 -0.18204862094E+02  0.18204862094E+02  0.00000000000E+00 0.  1.
          5    1    1    2  502    0  0.43634401020E+02  0.21913931090E+02  0.12219476763E+03  0.13167320367E+03  0.47000000000E+01 0. -1.
         -5    1    1    2    0  502 -0.68472497060E+02 -0.14033020686E+02  0.38680088790E+03  0.39309340545E+03  0.47000000000E+01 0. -1.
        -11    1    1    2    0    0  0.35266002863E+02 -0.20299071318E+02  0.20927768461E+03  0.21319683987E+03  0.00000000000E+00 0. -1.
         11    1    1    2    0    0 -0.10427906823E+02  0.12418160914E+02 -0.49623079959E+00  0.16223384548E+02  0.00000000000E+00 0.  1.
<mgrwt>
<rscale>  0 0.11861762E+03</rscale>
<asrwt>0</asrwt>
<pdfrwt beam="1">  1        2 0.11322797E+00 0.12768483E+03</pdfrwt>
<pdfrwt beam="2">  1       -2 0.28007486E-02 0.12768483E+03</pdfrwt>
<totfact> 0.17478591E+04</totfact>
</mgrwt>
</event>
<event>
 6    1  0.8353100E-006  0.1254926E+03  0.7546771E-02  0.1248981E+00
          2   -1    0    0  501    0  0.00000000000E+00  0.00000000000E+00  0.20382915324E+04  0.20382915324E+04  0.00000000000E+00 0. -1.
         -2   -1    0    0    0  501 -0.00000000000E+00 -0.00000000000E+00 -0.73872502948E+01  0.73872502948E+01  0.00000000000E+00 0.  1.
          5    1    1    2  502    0 -0.82502934063E+01  0.33588190751E+02  0.12847752571E+03  0.13313451285E+03  0.47000000000E+01 0. -1.
         -5    1    1    2    0  502  0.14057139388E+02 -0.24148094440E+02  0.14660075161E+04  0.14662813035E+04  0.47000000000E+01 0. -1.
        -11    1    1    2    0    0  0.27071263901E+02  0.29978798401E+02  0.23248728764E+03  0.23597016887E+03  0.00000000000E+00 0.  1.
         11    1    1    2    0    0 -0.32878109883E+02 -0.39418894712E+02  0.20393195264E+03  0.21029279749E+03  0.00000000000E+00 0. -1.
<mgrwt>
<rscale>  0 0.11650222E+03</rscale>
<asrwt>0</asrwt>
<pdfrwt beam="1">  1        2 0.31358286E+00 0.12549265E+03</pdfrwt>
<pdfrwt beam="2">  1       -2 0.11365017E-02 0.12549265E+03</pdfrwt>
<totfact> 0.12265232E+04</totfact>
</mgrwt>
</event>
<event>
 6    1  0.8353100E-006  0.1992178E+03  0.7546771E-02  0.1174165E+00
          2   -1    0    0  501    0  0.00000000000E+00  0.00000000000E+00  0.10865243830E+04  0.10865243830E+04  0.00000000000E+00 0. -1.
         -2   -1    0    0    0  501 -0.00000000000E+00 -0.00000000000E+00 -0.22901302170E+02  0.22901302170E+02  0.00000000000E+00 0.  1.
          5    1    1    2  502    0 -0.61632011351E+01 -0.43413763393E+02  0.49898518329E+03  0.50093017782E+03  0.47000000000E+01 0. -1.
         -5    1    1    2    0  502  0.40380705718E+02  0.10111388912E+03  0.22561390145E+03  0.25055606657E+03  0.47000000000E+01 0.  1.
        -11    1    1    2    0    0  0.25276885313E+02  0.56323879255E+01  0.52678031363E+02  0.58699401301E+02  0.00000000000E+00 0.  1.
         11    1    1    2    0    0 -0.59494389896E+02 -0.63332513655E+02  0.28634596468E+03  0.29924003944E+03  0.00000000000E+00 0. -1.
<mgrwt>
<rscale>  0 0.17357991E+03</rscale>
<asrwt>0</asrwt>
<pdfrwt beam="1">  1        2 0.16715756E+00 0.19921783E+03</pdfrwt>
<pdfrwt beam="2">  1       -2 0.35232781E-02 0.19921783E+03</pdfrwt>
<totfact> 0.76427828E+03</totfact>
</mgrwt>
</event>
<event>
 6    1  0.8353100E-006  0.1436326E+03  0.7546771E-02  0.1214579E+00
          3   -1    0    0  501    0  0.00000000000E+00  0.00000000000E+00  0.71286111559E+03  0.71286111559E+03  0.00000000000E+00 0. -1.
         -3   -1    0    0    0  501 -0.00000000000E+00 -0.00000000000E+00 -0.28916746157E+02  0.28916746157E+02  0.00000000000E+00 0.  1.
          5    1    1    2  502    0  0.15400774345E+02 -0.20901784663E+02  0.22234302903E+02  0.34503951630E+02  0.47000000000E+01 0. -1.
         -5    1    1    2    0  502  0.25429893735E+02  0.85189887759E+02  0.46562019551E+03  0.47405511592E+03  0.47000000000E+01 0.  1.
        -11    1    1    2    0    0 -0.12621824599E+02  0.21291164055E+01 -0.91034576626E+01  0.15707212811E+02  0.00000000000E+00 0.  1.
         11    1    1    2    0    0 -0.28208843481E+02 -0.66417219501E+02  0.20519332869E+03  0.21751158138E+03  0.00000000000E+00 0. -1.
<mgrwt>
<rscale>  0 0.13907528E+03</rscale>
<asrwt>0</asrwt>
<pdfrwt beam="1">  1        3 0.10967093E+00 0.14363256E+03</pdfrwt>
<pdfrwt beam="2">  1       -3 0.44487307E-02 0.14363256E+03</pdfrwt>
<totfact> 0.47069728E+02</totfact>
</mgrwt>
</event>
<event>
 6    1  0.8353100E-006  0.1327204E+03  0.7546771E-02  0.1241066E+00
          1   -1    0    0  501    0  0.00000000000E+00  0.00000000000E+00  0.11369740767E+03  0.11369740767E+03  0.00000000000E+00 0. -1.
         -1   -1    0    0    0  501 -0.00000000000E+00 -0.00000000000E+00 -0.11352445916E+03  0.11352445916E+03  0.00000000000E+00 0.  1.
          5    1    1    2  502    0  0.24186779752E+02  0.38979203043E+02  0.37734818953E+02  0.59585108425E+02  0.47000000000E+01 0.  1.
         -5    1    1    2    0  502 -0.51536577193E+02 -0.37691752249E+01 -0.52732525904E+02  0.73979961874E+02  0.47000000000E+01 0.  1.
        -11    1    1    2    0    0  0.38428992524E+02 -0.52286651444E+02 -0.48945195178E+01  0.65074093977E+02  0.00000000000E+00 0.  1.
         11    1    1    2    0    0 -0.11079195082E+02  0.17076623626E+02  0.20065174979E+02  0.28582702550E+02  0.00000000000E+00 0. -1.
<mgrwt>
<rscale>  0 0.12123963E+03</rscale>
<asrwt>0</asrwt>
<pdfrwt beam="1">  1        1 0.17491909E-01 0.13272037E+03</pdfrwt>
<pdfrwt beam="2">  1       -1 0.17465301E-01 0.13272037E+03</pdfrwt>
<totfact> 0.72338695E+03</totfact>
</mgrwt>
</event>
<event>
 6    1  0.8914002E-006  0.1469791E+03  0.7546771E-02  0.1213637E+00
          1   -1    0    0  501    0  0.00000000000E+00  0.00000000000E+00  0.12534737328E+04  0.12534737328E+04  0.00000000000E+00 0. -1.
         -1   -1    0    0    0  501 -0.00000000000E+00 -0.00000000000E+00 -0.15851884679E+02  0.15851884679E+02  0.00000000000E+00 0.  1.
          5    1    1    2  502    0 -0.29999308831E+02  0.54694986110E+02  0.22186482424E+03  0.23051592195E+03  0.47000000000E+01 0. -1.
         -5    1    1    2    0  502  0.67231756006E+02  0.13068068499E+02  0.65427299894E+03  0.65786482698E+03  0.47000000000E+01 0. -1.
        -11    1    1    2    0    0 -0.51596664588E+01 -0.60610783759E+02  0.32957213160E+03  0.33513889538E+03  0.00000000000E+00 0. -1.
         11    1    1    2    0    0 -0.32072780716E+02 -0.71522708499E+01  0.31911893294E+02  0.45805973134E+02  0.00000000000E+00 0.  1.
<mgrwt>
<rscale>  0 0.13977158E+03</rscale>
<asrwt>0</asrwt>
<pdfrwt beam="1">  1        1 0.19284203E+00 0.14697915E+03</pdfrwt>
<pdfrwt beam="2">  1       -1 0.24387525E-02 0.14697915E+03</pdfrwt>
<totfact> 0.52861426E+03</totfact>
</mgrwt>
</event>
<event>
 6    1  0.8353100E-006  0.1315384E+03  0.7546771E-02  0.1240949E+00
          1   -1    0    0  501    0  0.00000000000E+00  0.00000000000E+00  0.28170755819E+03  0.28170755819E+03  0.00000000000E+00 0. -1.
         -1   -1    0    0    0  501 -0.00000000000E+00 -0.00000000000E+00 -0.68500285631E+02  0.68500285631E+02  0.00000000000E+00 0.  1.
          5    1    1    2  502    0  0.47406298964E+02 -0.12590054471E+02  0.19578476616E+03  0.20189014665E+03  0.47000000000E+01 0. -1.
         -5    1    1    2    0  502 -0.43490919271E+02 -0.19706411636E+02  0.22564894685E+02  0.53019498213E+02  0.47000000000E+01 0.  1.
        -11    1    1    2    0    0  0.13730211248E+02 -0.28605252235E+02 -0.27045002273E+01  0.31844834397E+02  0.00000000000E+00 0. -1.
         11    1    1    2    0    0 -0.17645590941E+02  0.60901718341E+02 -0.24378880555E+01  0.63453364566E+02  0.00000000000E+00 0.  1.
<mgrwt>
<rscale>  0 0.12131159E+03</rscale>
<asrwt>0</asrwt>
<pdfrwt beam="1">  1        1 0.43339624E-01 0.13153841E+03</pdfrwt>
<pdfrwt beam="2">  1       -1 0.10538506E-01 0.13153841E+03</pdfrwt>
<totfact> 0.50976225E+03</totfact>
</mgrwt>
</event>
<event>
 6    1  0.8353100E-006  0.1310658E+03  0.7546771E-02  0.1238647E+00
         -4   -1    0    0    0  501 -0.00000000000E+00  0.00000000000E+00  0.46186922714E+02  0.46186922714E+02  0.00000000000E+00 0. -1.
          4   -1    0    0  501    0  0.00000000000E+00 -0.00000000000E+00 -0.31333864538E+03  0.31333864538E+03  0.00000000000E+00 0.  1.
          5    1    1    2  502    0 -0.38774284189E+02  0.10081116553E+02 -0.30172946597E+01  0.40450810775E+02  0.47000000000E+01 0.  1.
         -5    1    1    2    0  502  0.16958300329E+02  0.22754676523E+02 -0.19437619037E+03  0.19649313636E+03  0.47000000000E+01 0.  1.
        -11    1    1    2    0    0  0.55748014900E+02 -0.35184958659E+02 -0.53409038977E+02  0.84843078242E+02  0.00000000000E+00 0. -1.
         11    1    1    2    0    0 -0.33932031040E+02  0.23491655832E+01 -0.16349198656E+02  0.37738542713E+02  0.00000000000E+00 0.  1.
<mgrwt>
<rscale>  0 0.12273799E+03</rscale>
<asrwt>0</asrwt>
<pdfrwt beam="2">  1        4 0.48205944E-01 0.13106581E+03</pdfrwt>
<pdfrwt beam="1">  1       -4 0.71056806E-02 0.13106581E+03</pdfrwt>
<totfact> 0.92209069E+02</totfact>
</mgrwt>
</event>
<event>
 6    1  0.8353100E-006  0.1659904E+03  0.7546771E-02  0.1189605E+00
          1   -1    0    0  501    0  0.00000000000E+00  0.00000000000E+00  0.16468064229E+03  0.16468064229E+03  0.00000000000E+00 0. -1.
         -1   -1    0    0    0  501 -0.00000000000E+00 -0.00000000000E+00 -0.15716505511E+03  0.15716505511E+03  0.00000000000E+00 0.  1.
          5    1    1    2  502    0 -0.49429443351E+02  0.47619213266E+02  0.74928388229E+02  0.10172125002E+03  0.47000000000E+01 0. -1.
         -5    1    1    2    0  502 -0.59111702672E+02 -0.35482924939E+02 -0.21970646219E+02  0.72512279307E+02  0.47000000000E+01 0. -1.
        -11    1    1    2    0    0  0.74062159089E+02 -0.32909571800E+02 -0.64018431232E+02  0.10327924701E+03  0.00000000000E+00 0.  1.
         11    1    1    2    0    0  0.34478986934E+02  0.20773283472E+02  0.18576276403E+02  0.44332921077E+02  0.00000000000E+00 0. -1.
<mgrwt>
<rscale>  0 0.15919797E+03</rscale>
<asrwt>0</asrwt>
<pdfrwt beam="1">  1        1 0.25335483E-01 0.16599036E+03</pdfrwt>
<pdfrwt beam="2">  1       -1 0.24179239E-01 0.16599036E+03</pdfrwt>
<totfact> 0.27067733E+03</totfact>
</mgrwt>
</event>
<event>
 6    1  0.8353100E-006  0.1344214E+03  0.7546771E-02  0.1233553E+00
          2   -1    0    0  501    0  0.00000000000E+00  0.00000000000E+00  0.50599272377E+03  0.50599272377E+03  0.00000000000E+00 0.  1.
         -2   -1    0    0    0  501 -0.00000000000E+00 -0.00000000000E+00 -0.30508779296E+02  0.30508779296E+02  0.00000000000E+00 0. -1.
          5    1    1    2  502    0 -0.45585780624E+02  0.19123410815E+02  0.22603491267E+03  0.23142523627E+03  0.47000000000E+01 0.  1.
         -5    1    1    2    0  502  0.66106658812E+02  0.25863499467E+02  0.11602289270E+03  0.13609707041E+03  0.47000000000E+01 0.  1.
        -11    1    1    2    0    0  0.27967676684E+02 -0.15961986388E+02  0.10811936695E+02  0.33968719783E+02  0.00000000000E+00 0. -1.
         11    1    1    2    0    0 -0.48488554872E+02 -0.29024923894E+02  0.12261420241E+03  0.13501047661E+03  0.00000000000E+00 0.  1.
<mgrwt>
<rscale>  0 0.12597505E+03</rscale>
<asrwt>0</asrwt>
<pdfrwt beam="1">  1        2 0.77845028E-01 0.13442137E+03</pdfrwt>
<pdfrwt beam="2">  1       -2 0.46936587E-02 0.13442137E+03</pdfrwt>
<totfact> 0.12553627E+04</totfact>
</mgrwt>
</event>
<event>
 6    1  0.8353100E-006  0.1283104E+03  0.7546771E-02  0.1244983E+00
          2   -1    0    0  501    0  0.00000000000E+00  0.00000000000E+00  0.91438763186E+03  0.91438763186E+03  0.00000000000E+00 0. -1.
         -2   -1    0    0    0  501 -0.00000000000E+00 -0.00000000000E+00 -0.17155689327E+02  0.17155689327E+02  0.00000000000E+00 0.  1.
          5    1    1    2  502    0  0.75289235539E+01  0.40934737305E+02  0.11682653935E+03  0.12410829023E+03  0.47000000000E+01 0.  1.
         -5    1    1    2    0  502 -0.15836174625E+02 -0.68660907049E+02  0.59656078137E+03  0.60072619424E+03  0.47000000000E+01 0.  1.
        -11    1    1    2    0    0 -0.37306539144E+02  0.27163771214E+02  0.11709460572E+03  0.12586022015E+03  0.00000000000E+00 0.  1.
         11    1    1    2    0    0  0.45613790215E+02  0.56239852982E+00  0.66750016095E+02  0.80848616553E+02  0.00000000000E+00 0. -1.
<mgrwt>
<rscale>  0 0.11886418E+03</rscale>
<asrwt>0</asrwt>
<pdfrwt beam="1">  1        2 0.14067498E+00 0.12831041E+03</pdfrwt>
<pdfrwt beam="2">  1       -2 0.26393375E-02 0.12831041E+03</pdfrwt>
<totfact> 0.14524667E+04</totfact>
</mgrwt>
</event>
<event>
 6    1  0.8353100E-006  0.1389271E+03  0.7546771E-02  0.1226758E+00
          1   -1    0    0  501    0  0.00000000000E+00  0.00000000000E+00  0.94300195769E+02  0.94300195769E+02  0.00000000000E+00 0. -1.
         -1   -1    0    0    0  501 -0.00000000000E+00 -0.00000000000E+00 -0.16331213718E+03  0.16331213718E+03  0.00000000000E+00 0.  1.
          5    1    1    2  502    0  0.63529212332E+02 -0.25410665226E+02 -0.50145495795E+02  0.84960717248E+02  0.47000000000E+01 0. -1.
         -5    1    1    2    0  502 -0.14609847023E+02  0.61239621811E+02 -0.11810372496E+01  0.63144467363E+02  0.47000000000E+01 0. -1.
        -11    1    1    2    0    0 -0.58300920273E+02 -0.29050871729E+02 -0.45449833437E+02  0.79426933797E+02  0.00000000000E+00 0.  1.
         11    1    1    2    0    0  0.93815549638E+01 -0.67780848560E+01  0.27764425066E+02  0.30080214545E+02  0.00000000000E+00 0. -1.
<mgrwt>
<rscale>  0 0.13047163E+03</rscale>
<asrwt>0</asrwt>
<pdfrwt beam="1">  1        1 0.14507723E-01 0.13892708E+03</pdfrwt>
<pdfrwt beam="2">  1       -1 0.25124944E-01 0.13892708E+03</pdfrwt>
<totfact> 0.51363928E+03</totfact>
</mgrwt>
</event>
<event>
 6    1  0.9123986E-006  0.2296649E+03  0.7546771E-02  0.1129982E+00
         -1   -1    0    0    0  501 -0.00000000000E+00  0.00000000000E+00  0.43098140534E+02  0.43098140534E+02  0.00000000000E+00 0.  1.
          1   -1    0    0  501    0  0.00000000000E+00 -0.00000000000E+00 -0.14187501805E+04  0.14187501805E+04  0.00000000000E+00 0. -1.
          5    1    1    2  502    0  0.17636531582E+03  0.66586409569E+02 -0.99209078472E+03  0.10098537962E+04  0.47000000000E+01 0. -1.
         -5    1    1    2    0  502 -0.68670847450E+01  0.25018488664E+02 -0.43243568999E+02  0.50647585211E+02  0.47000000000E+01 0. -1.
        -11    1    1    2    0    0 -0.10990285146E+03 -0.99903089538E+01 -0.15509654353E+03  0.19035067860E+03  0.00000000000E+00 0. -1.
         11    1    1    2    0    0 -0.59595379616E+02 -0.81614589279E+02 -0.18522114270E+03  0.21099626100E+03  0.00000000000E+00 0.  1.
<mgrwt>
<rscale>  0 0.22531450E+03</rscale>
<asrwt>0</asrwt>
<pdfrwt beam="2">  1        1 0.21826922E+00 0.22966488E+03</pdfrwt>
<pdfrwt beam="1">  1       -1 0.66304843E-02 0.22966488E+03</pdfrwt>
<totfact> 0.93410613E+02</totfact>
</mgrwt>
</event>
<event>
 6    1  0.1123823E-005  0.1764020E+03  0.7546771E-02  0.1177258E+00
         -1   -1    0    0    0  501 -0.00000000000E+00  0.00000000000E+00  0.11999715567E+03  0.11999715567E+03  0.00000000000E+00 0.  1.
          1   -1    0    0  501    0  0.00000000000E+00 -0.00000000000E+00 -0.24688504662E+03  0.24688504662E+03  0.00000000000E+00 0. -1.
          5    1    1    2  502    0  0.45625070626E+02 -0.13505900025E+03 -0.10629729103E+03  0.17788699980E+03  0.47000000000E+01 0.  1.
         -5    1    1    2    0  502 -0.29864731573E+02  0.11590462425E+02 -0.12103368000E+02  0.34566205000E+02  0.47000000000E+01 0.  1.
        -11    1    1    2    0    0 -0.26627264409E+01  0.11086208400E+03  0.27374520934E+02  0.11422283563E+03  0.00000000000E+00 0.  1.
         11    1    1    2    0    0 -0.13097612611E+02  0.12606453817E+02 -0.35861752861E+02  0.40206161869E+02  0.00000000000E+00 0. -1.
<mgrwt>
<rscale>  0 0.17056720E+03</rscale>
<asrwt>0</asrwt>
<pdfrwt beam="2">  1        1 0.37982315E-01 0.17640195E+03</pdfrwt>
<pdfrwt beam="1">  1       -1 0.18461101E-01 0.17640195E+03</pdfrwt>
<totfact> 0.25327325E+03</totfact>
</mgrwt>
</event>
<event>
 6    1  0.8353100E-006  0.7513648E+03  0.7546771E-02  0.9633212E-01
          1   -1    0    0  501    0  0.00000000000E+00  0.00000000000E+00  0.82065970885E+03  0.82065970885E+03  0.00000000000E+00 0. -1.
         -1   -1    0    0    0  501 -0.00000000000E+00 -0.00000000000E+00 -0.17198026829E+03  0.17198026829E+03  0.00000000000E+00 0.  1.
          5    1    1    2  502    0  0.17367353548E+01 -0.17165072456E+01  0.66401931297E+02  0.66612830047E+02  0.47000000000E+01 0.  1.
         -5    1    1    2    0  502 -0.30117375020E+03 -0.14231060270E+03  0.44260603520E+03  0.55396762346E+03  0.47000000000E+01 0.  1.
        -11    1    1    2    0    0  0.28662347375E+03  0.15477139681E+03  0.12228870820E+03  0.34793926069E+03  0.00000000000E+00 0.  1.
         11    1    1    2    0    0  0.12813541088E+02 -0.10744286860E+02  0.17382765868E+02  0.24120262945E+02  0.00000000000E+00 0. -1.
<mgrwt>
<rscale>  0 0.75136483E+03</rscale>
<asrwt>0</asrwt>
<pdfrwt beam="1">  1        1 0.12625534E+00 0.75136483E+03</pdfrwt>
<pdfrwt beam="2">  1       -1 0.26458503E-01 0.75136483E+03</pdfrwt>
<totfact> 0.27235698E+02</totfact>
</mgrwt>
</event>
<event>
 6    1  0.8353100E-006  0.1847214E+03  0.7546771E-02  0.1168435E+00
         -2   -1    0    0    0  501 -0.00000000000E+00  0.00000000000E+00  0.13189127563E+03  0.13189127563E+03  0.00000000000E+00 0.  1.
          2   -1    0    0  501    0  0.00000000000E+00 -0.00000000000E+00 -0.26511272938E+03  0.26511272938E+03  0.00000000000E+00 0. -1.
          5    1    1    2  502    0 -0.62397005974E+02  0.35053711148E+02 -0.12454399655E+02  0.72796642028E+02  0.47000000000E+01 0. -1.
         -5    1    1    2    0  502  0.16292437961E+02  0.92896151264E+02 -0.12897692417E+03  0.15985079112E+03  0.47000000000E+01 0. -1.
        -11    1    1    2    0    0  0.37724904559E+02 -0.11642750007E+03  0.40621283102E+02  0.12895200595E+03  0.00000000000E+00 0.  1.
         11    1    1    2    0    0  0.83796634547E+01 -0.11522362339E+02 -0.32411413023E+02  0.35404565915E+02  0.00000000000E+00 0. -1.
<mgrwt>
<rscale>  0 0.17934906E+03</rscale>
<asrwt>0</asrwt>
<pdfrwt beam="2">  1        2 0.40786574E-01 0.18472144E+03</pdfrwt>
<pdfrwt beam="1">  1       -2 0.20290966E-01 0.18472144E+03</pdfrwt>
<totfact> 0.25220476E+03</totfact>
</mgrwt>
</event>
<event>
 6    1  0.8353100E-006  0.1620603E+03  0.7546771E-02  0.1198225E+00
          2   -1    0    0  501    0  0.00000000000E+00  0.00000000000E+00  0.23171409863E+04  0.23171409863E+04  0.00000000000E+00 0. -1.
         -2   -1    0    0    0  501 -0.00000000000E+00 -0.00000000000E+00 -0.39450901453E+02  0.39450901453E+02  0.00000000000E+00 0.  1.
          5    1    1    2  502    0 -0.33149294572E+02  0.11362874668E+03  0.17354939785E+04  0.17395320656E+04  0.47000000000E+01 0. -1.
         -5    1    1    2    0  502 -0.12905585088E+02 -0.40134535211E+02  0.47176828440E+03  0.47367155204E+03  0.47000000000E+01 0.  1.
        -11    1    1    2    0    0  0.38131558074E+02 -0.45304798833E+02 -0.79237498593E+01  0.59743839266E+02  0.00000000000E+00 0.  1.
         11    1    1    2    0    0  0.79233215862E+01 -0.28189412633E+02  0.78351571788E+02  0.83644430844E+02  0.00000000000E+00 0. -1.
<mgrwt>
<rscale>  0 0.15184432E+03</rscale>
<asrwt>0</asrwt>
<pdfrwt beam="1">  1        2 0.35648312E+00 0.16206035E+03</pdfrwt>
<pdfrwt beam="2">  1       -2 0.60693713E-02 0.16206035E+03</pdfrwt>
<totfact> 0.74976998E+02</totfact>
</mgrwt>
</event>
<event>
 6    1  0.8353100E-006  0.3869794E+03  0.7546771E-02  0.1048384E+00
         -1   -1    0    0    0  501 -0.00000000000E+00  0.00000000000E+00  0.43647085971E+02  0.43647085971E+02  0.00000000000E+00 0.  1.
          1   -1    0    0  501    0  0.00000000000E+00 -0.00000000000E+00 -0.85774945677E+03  0.85774945677E+03  0.00000000000E+00 0. -1.
          5    1    1    2  502    0  0.14949898408E+03 -0.77653853247E+02 -0.48957659816E+03  0.51777157379E+03  0.47000000000E+01 0.  1.
         -5    1    1    2    0  502 -0.13415697145E+02  0.15461433463E+01 -0.41863882422E+01  0.14899239432E+02  0.47000000000E+01 0.  1.
        -11    1    1    2    0    0 -0.90941456833E+02  0.27483797590E+01 -0.11949246019E+03  0.15018771656E+03  0.00000000000E+00 0.  1.
         11    1    1    2    0    0 -0.45141830102E+02  0.73359330142E+02 -0.20084692421E+03  0.21853801296E+03  0.00000000000E+00 0. -1.
<mgrwt>
<rscale>  0 0.38697940E+03</rscale>
<asrwt>0</asrwt>
<pdfrwt beam="2">  1        1 0.13196145E+00 0.38697940E+03</pdfrwt>
<pdfrwt beam="1">  1       -1 0.67149364E-02 0.38697940E+03</pdfrwt>
<totfact> 0.23302177E+03</totfact>
</mgrwt>
</event>
<event>
 6    1  0.8353100E-006  0.1608002E+03  0.7546771E-02  0.1195307E+00
          1   -1    0    0  501    0  0.00000000000E+00  0.00000000000E+00  0.47068827965E+03  0.47068827965E+03  0.00000000000E+00 0. -1.
         -1   -1    0    0    0  501 -0.00000000000E+00 -0.00000000000E+00 -0.46947382787E+02  0.46947382787E+02  0.00000000000E+00 0.  1.
          5    1    1    2  502    0  0.94302752724E+02 -0.65395806444E+02  0.15889962337E+03  0.19606325760E+03  0.47000000000E+01 0. -1.
         -5    1    1    2    0  502  0.47129568314E+01  0.44709946805E+02  0.80594331452E+02  0.92405235607E+02  0.47000000000E+01 0. -1.
        -11    1    1    2    0    0 -0.57071374773E+02  0.54476502179E+02  0.83196735405E+02  0.11465830929E+03  0.00000000000E+00 0.  1.
         11    1    1    2    0    0 -0.41944334783E+02 -0.33790642540E+02  0.10105020664E+03  0.11450885994E+03  0.00000000000E+00 0. -1.
<mgrwt>
<rscale>  0 0.15428312E+03</rscale>
<asrwt>0</asrwt>
<pdfrwt beam="1">  1        1 0.72413578E-01 0.16080024E+03</pdfrwt>
<pdfrwt beam="2">  1       -1 0.72226746E-02 0.16080024E+03</pdfrwt>
<totfact> 0.47951540E+03</totfact>
</mgrwt>
</event>
<event>
 6    1  0.8353100E-006  0.1432343E+03  0.7546771E-02  0.1213541E+00
          2   -1    0    0  501    0  0.00000000000E+00  0.00000000000E+00  0.11958852879E+03  0.11958852879E+03  0.00000000000E+00 0. -1.
         -2   -1    0    0    0  501 -0.00000000000E+00 -0.00000000000E+00 -0.18373809214E+03  0.18373809214E+03  0.00000000000E+00 0.  1.
          5    1    1    2  502    0 -0.20462972714E+02  0.46669775634E+02  0.38472004200E+02  0.64023326353E+02  0.47000000000E+01 0. -1.
         -5    1    1    2    0  502  0.76968457000E+02  0.22532321972E+02 -0.13229009000E+02  0.81418336912E+02  0.47000000000E+01 0.  1.
        -11    1    1    2    0    0 -0.26146339943E+02  0.12998999198E+02  0.43977673865E+01  0.29528722128E+02  0.00000000000E+00 0. -1.
         11    1    1    2    0    0 -0.30359144344E+02 -0.82201096804E+02 -0.93790325942E+02  0.12835623554E+03  0.00000000000E+00 0.  1.
<mgrwt>
<rscale>  0 0.13984234E+03</rscale>
<asrwt>0</asrwt>
<pdfrwt beam="1">  1        2 0.18398235E-01 0.14323431E+03</pdfrwt>
<pdfrwt beam="2">  1       -2 0.28267399E-01 0.14323431E+03</pdfrwt>
<totfact> 0.33623003E+03</totfact>
</mgrwt>
</event>
<event>
 6    1  0.8353100E-006  0.3302233E+03  0.7546771E-02  0.1071038E+00
          2   -1    0    0  501    0  0.00000000000E+00  0.00000000000E+00  0.71171024966E+03  0.71171024966E+03  0.00000000000E+00 0.  1.
         -2   -1    0    0    0  501 -0.00000000000E+00 -0.00000000000E+00 -0.38304702978E+02  0.38304702978E+02  0.00000000000E+00 0. -1.
          5    1    1    2  502    0 -0.17869995873E+02 -0.16194385772E+02  0.25331432684E+02  0.35289748722E+02  0.47000000000E+01 0. -1.
         -5    1    1    2    0  502 -0.39461172469E+02  0.64548242548E+02  0.56670183927E+03  0.57174882980E+03  0.47000000000E+01 0.  1.
        -11    1    1    2    0    0  0.24623846584E+02 -0.41936791691E+02  0.95191257111E+02  0.10689435789E+03  0.00000000000E+00 0.  1.
         11    1    1    2    0    0  0.32707321759E+02 -0.64170650847E+01 -0.13818982381E+02  0.36082016227E+02  0.00000000000E+00 0. -1.
<mgrwt>
<rscale>  0 0.33022326E+03</rscale>
<asrwt>0</asrwt>
<pdfrwt beam="1">  1        2 0.10949387E+00 0.33022326E+03</pdfrwt>
<pdfrwt beam="2">  1       -2 0.58930318E-02 0.33022326E+03</pdfrwt>
<totfact> 0.62715961E+03</totfact>
</mgrwt>
</event>
<event>
 6    1  0.8353100E-006  0.1273539E+03  0.7546771E-02  0.1246527E+00
          1   -1    0    0  501    0  0.00000000000E+00  0.00000000000E+00  0.61039250554E+03  0.61039250554E+03  0.00000000000E+00 0. -1.
         -1   -1    0    0    0  501 -0.00000000000E+00 -0.00000000000E+00 -0.34359515939E+02  0.34359515939E+02  0.00000000000E+00 0.  1.
          5    1    1    2  502    0 -0.59210962461E+02 -0.15426657412E+02  0.28515856269E+03  0.29168718811E+03  0.47000000000E+01 0. -1.
         -5    1    1    2    0  502  0.64334751768E+02 -0.84030299071E+01  0.23532189572E+03  0.24414761068E+03  0.47000000000E+01 0. -1.
        -11    1    1    2    0    0  0.10122145666E+02 -0.21709319220E+02 -0.11395957739E+02  0.26525840734E+02  0.00000000000E+00 0.  1.
         11    1    1    2    0    0 -0.15245934973E+02  0.45539006538E+02  0.66948488935E+02  0.82391381955E+02  0.00000000000E+00 0. -1.
<mgrwt>
<rscale>  0 0.11794425E+03</rscale>
<asrwt>0</asrwt>
<pdfrwt beam="1">  1        1 0.93906532E-01 0.12735393E+03</pdfrwt>
<pdfrwt beam="2">  1       -1 0.52860798E-02 0.12735393E+03</pdfrwt>
<totfact> 0.53495796E+03</totfact>
</mgrwt>
</event>
<event>
 6    1  0.8353100E-006  0.2212438E+03  0.7546771E-02  0.1148392E+00
         -1   -1    0    0    0  501 -0.00000000000E+00  0.00000000000E+00  0.24025430470E+02  0.24025430470E+02  0.00000000000E+00 0.  1.
          1   -1    0    0  501    0  0.00000000000E+00 -0.00000000000E+00 -0.22742767644E+04  0.22742767644E+04  0.00000000000E+00 0. -1.
          5    1    1    2  502    0  0.14257979503E+03  0.77275152848E+02 -0.16016654921E+04  0.16098617599E+04  0.47000000000E+01 0. -1.
         -5    1    1    2    0  502 -0.53911746344E+02  0.73262476511E+01 -0.33837384332E+03  0.34275224017E+03  0.47000000000E+01 0.  1.
        -11    1    1    2    0    0 -0.79316916721E+02 -0.31777077920E+02 -0.25399587798E+03  0.26798295093E+03  0.00000000000E+00 0.  1.
         11    1    1    2    0    0 -0.93511319685E+01 -0.52824322579E+02 -0.56216120484E+02  0.77705243885E+02  0.00000000000E+00 0. -1.
<mgrwt>
<rscale>  0 0.20160447E+03</rscale>
<asrwt>0</asrwt>
<pdfrwt beam="2">  1        1 0.34988864E+00 0.22124378E+03</pdfrwt>
<pdfrwt beam="1">  1       -1 0.36962210E-02 0.22124378E+03</pdfrwt>
<totfact> 0.62278937E+02</totfact>
</mgrwt>
</event>
<event>
 6    1  0.8353100E-006  0.1369883E+03  0.7546771E-02  0.1229321E+00
         -1   -1    0    0    0  501 -0.00000000000E+00  0.00000000000E+00  0.51055439383E+02  0.51055439383E+02  0.00000000000E+00 0.  1.
          1   -1    0    0  501    0  0.00000000000E+00 -0.00000000000E+00 -0.31645713898E+03  0.31645713898E+03  0.00000000000E+00 0. -1.
          5    1    1    2  502    0  0.40283161852E+02 -0.20579343518E-01 -0.71425288998E+02  0.82136444169E+02  0.47000000000E+01 0.  1.
         -5    1    1    2    0  502 -0.94480848987E+02  0.14289330628E+02 -0.12785072034E+03  0.15968316281E+03  0.47000000000E+01 0.  1.
        -11    1    1    2    0    0  0.36088868934E+02 -0.38480044383E+02 -0.77191852713E+02  0.93497071622E+02  0.00000000000E+00 0. -1.
         11    1    1    2    0    0  0.18108818202E+02  0.24211293099E+02  0.11066162448E+02  0.32195899762E+02  0.00000000000E+00 0.  1.
<mgrwt>
<rscale>  0 0.12875080E+03</rscale>
<asrwt>0</asrwt>
<pdfrwt beam="2">  1        1 0.48685712E-01 0.13698830E+03</pdfrwt>
<pdfrwt beam="1">  1       -1 0.78546832E-02 0.13698830E+03</pdfrwt>
<totfact> 0.69140174E+03</totfact>
</mgrwt>
</event>
<event>
 6    1  0.8353100E-006  0.1487909E+03  0.7546771E-02  0.1220335E+00
         -1   -1    0    0    0  501 -0.00000000000E+00  0.00000000000E+00  0.16517080311E+02  0.16517080311E+02  0.00000000000E+00 0.  1.
          1   -1    0    0  501    0  0.00000000000E+00 -0.00000000000E+00 -0.11848630899E+04  0.11848630899E+04  0.00000000000E+00 0. -1.
          5    1    1    2  502    0 -0.85405622202E+02  0.36923396516E+02 -0.63911691464E+03  0.64587148729E+03  0.47000000000E+01 0. -1.
         -5    1    1    2    0  502  0.41473524592E+02 -0.35569746188E+02 -0.30303054740E+03  0.30795269563E+03  0.47000000000E+01 0.  1.
        -11    1    1    2    0    0 -0.19719365223E+02 -0.20288992201E+02 -0.34137284560E+02  0.44337915676E+02  0.00000000000E+00 0.  1.
         11    1    1    2    0    0  0.63651462834E+02  0.18935341873E+02 -0.19206126300E+03  0.20321807163E+03  0.00000000000E+00 0. -1.
<mgrwt>
<rscale>  0 0.13491806E+03</rscale>
<asrwt>0</asrwt>
<pdfrwt beam="2">  1        1 0.18228668E+00 0.14879090E+03</pdfrwt>
<pdfrwt beam="1">  1       -1 0.25410885E-02 0.14879090E+03</pdfrwt>
<totfact> 0.55494630E+03</totfact>
</mgrwt>
</event>
<event>
 6    1  0.8353100E-006  0.1273337E+03  0.7546771E-02  0.1246147E+00
         -2   -1    0    0    0  501 -0.00000000000E+00  0.00000000000E+00  0.13368176016E+02  0.13368176016E+02  0.00000000000E+00 0.  1.
          2   -1    0    0  501    0  0.00000000000E+00 -0.00000000000E+00 -0.10071148770E+04  0.10071148770E+04  0.00000000000E+00 0. -1.
          5    1    1    2  502    0  0.37693062235E+02 -0.10448267553E+02 -0.90062191541E+02  0.98301686560E+02  0.47000000000E+01 0. -1.
         -5    1    1    2    0  502 -0.61315348684E+02  0.43682927444E+01 -0.62277031630E+03  0.62581435813E+03  0.47000000000E+01 0. -1.
        -11    1    1    2    0    0  0.52294240110E+02 -0.13850138125E+02 -0.11883432607E+03  0.13056841473E+03  0.00000000000E+00 0.  1.
         11    1    1    2    0    0 -0.28671953660E+02  0.19930112934E+02 -0.16207986706E+03  0.16579859359E+03  0.00000000000E+00 0. -1.
<mgrwt>
<rscale>  0 0.11816988E+03</rscale>
<asrwt>0</asrwt>
<pdfrwt beam="2">  1        2 0.15494073E+00 0.12733366E+03</pdfrwt>
<pdfrwt beam="1">  1       -2 0.20566427E-02 0.12733366E+03</pdfrwt>
<totfact> 0.18332226E+04</totfact>
</mgrwt>
</event>
<event>
 6    1  0.8353100E-006  0.1283140E+03  0.7546771E-02  0.1243985E+00
         -2   -1    0    0    0  501 -0.00000000000E+00  0.00000000000E+00  0.51370936585E+02  0.51370936585E+02  0.00000000000E+00 0.  1.
          2   -1    0    0  501    0  0.00000000000E+00 -0.00000000000E+00 -0.26518329365E+03  0.26518329365E+03  0.00000000000E+00 0. -1.
          5    1    1    2  502    0 -0.39873350095E+02 -0.33467227143E+02 -0.12839970711E+03  0.13863085560E+03  0.47000000000E+01 0.  1.
         -5    1    1    2    0  502  0.21162495956E+02  0.55533759578E+02 -0.35005011905E+02  0.69132413139E+02  0.47000000000E+01 0.  1.
        -11    1    1    2    0    0  0.20946541706E+02 -0.56664780038E+02 -0.40503424158E+02  0.72733639224E+02  0.00000000000E+00 0.  1.
         11    1    1    2    0    0 -0.22356875677E+01  0.34598247604E+02 -0.99042138926E+01  0.36057322266E+02  0.00000000000E+00 0. -1.
<mgrwt>
<rscale>  0 0.11946315E+03</rscale>
<asrwt>0</asrwt>
<pdfrwt beam="2">  1        2 0.40797429E-01 0.12831397E+03</pdfrwt>
<pdfrwt beam="1">  1       -2 0.79032212E-02 0.12831397E+03</pdfrwt>
<totfact> 0.11313807E+04</totfact>
</mgrwt>
</event>
<event>
 6    1  0.8353100E-006  0.3523137E+03  0.7546771E-02  0.1061669E+00
          2   -1    0    0  501    0  0.00000000000E+00  0.00000000000E+00  0.11041889249E+03  0.11041889249E+03  0.00000000000E+00 0.  1.
         -2   -1    0    0    0  501 -0.00000000000E+00 -0.00000000000E+00 -0.28103198745E+03  0.28103198745E+03  0.00000000000E+00 0. -1.
          5    1    1    2  502    0 -0.29780282832E+02 -0.50004380615E+01 -0.36980384667E+02  0.47974039610E+02  0.47000000000E+01 0. -1.
         -5    1    1    2    0  502  0.94294178361E+01  0.12603809966E+03  0.19952667248E+02  0.12804185025E+03  0.47000000000E+01 0. -1.
        -11    1    1    2    0    0 -0.31212425753E+02 -0.36616862241E+02 -0.28358767785E+02  0.55850065640E+02  0.00000000000E+00 0. -1.
         11    1    1    2    0    0  0.51563290749E+02 -0.84420799356E+02 -0.12522660975E+03  0.15958492444E+03  0.00000000000E+00 0.  1.
<mgrwt>
<rscale>  0 0.35231373E+03</rscale>
<asrwt>0</asrwt>
<pdfrwt beam="1">  1        2 0.16987522E-01 0.35231373E+03</pdfrwt>
<pdfrwt beam="2">  1       -2 0.43235690E-01 0.35231373E+03</pdfrwt>
<totfact> 0.17308621E+03</totfact>
</mgrwt>
</event>
<event>
 6    1  0.8353100E-006  0.1344670E+03  0.7546771E-02  0.1232547E+00
         -2   -1    0    0    0  501 -0.00000000000E+00  0.00000000000E+00  0.35878565412E+02  0.35878565412E+02  0.00000000000E+00 0.  1.
          2   -1    0    0  501    0  0.00000000000E+00 -0.00000000000E+00 -0.31738158888E+04  0.31738158888E+04  0.00000000000E+00 0. -1.
          5    1    1    2  502    0  0.14734598136E+02  0.41419001151E+02 -0.83637063750E+03  0.83753840229E+03  0.47000000000E+01 0. -1.
         -5    1    1    2    0  502  0.10620058025E+02 -0.88232645918E+02 -0.22547551535E+04  0.22565107307E+04  0.47000000000E+01 0.  1.
        -11    1    1    2    0    0  0.10974171552E+01  0.28460782281E+02 -0.70261680985E+02  0.75815066229E+02  0.00000000000E+00 0. -1.
         11    1    1    2    0    0 -0.26452073316E+02  0.18352862486E+02  0.23450148605E+02  0.39830255005E+02  0.00000000000E+00 0.  1.
<mgrwt>
<rscale>  0 0.12662787E+03</rscale>
<asrwt>0</asrwt>
<pdfrwt beam="2">  1        2 0.48827930E+00 0.13446703E+03</pdfrwt>
<pdfrwt beam="1">  1       -2 0.55197800E-02 0.13446703E+03</pdfrwt>
<totfact> 0.29157233E+02</totfact>
</mgrwt>
</event>
<event>
 6    1  0.8353100E-006  0.3617218E+03  0.7546771E-02  0.1057904E+00
         -1   -1    0    0    0  501 -0.00000000000E+00  0.00000000000E+00  0.12054770983E+04  0.12054770983E+04  0.00000000000E+00 0.  1.
          1   -1    0    0  501    0  0.00000000000E+00 -0.00000000000E+00 -0.27135031488E+02  0.27135031488E+02  0.00000000000E+00 0. -1.
          5    1    1    2  502    0 -0.13385462892E+03 -0.71574151380E+01  0.21141433545E+03  0.25037252547E+03  0.47000000000E+01 0. -1.
         -5    1    1    2    0  502  0.10155847768E+02  0.99446275047E+01  0.15872639311E+03  0.15943084624E+03  0.47000000000E+01 0. -1.
        -11    1    1    2    0    0  0.10188686098E+03  0.37386749890E+02  0.55425628361E+03  0.56478201939E+03  0.00000000000E+00 0.  1.
         11    1    1    2    0    0  0.21811920177E+02 -0.40173962257E+02  0.25394505461E+03  0.25802673866E+03  0.00000000000E+00 0. -1.
<mgrwt>
<rscale>  0 0.36172177E+03</rscale>
<asrwt>0</asrwt>
<pdfrwt beam="2">  1        1 0.41746212E-02 0.36172177E+03</pdfrwt>
<pdfrwt beam="1">  1       -1 0.18545797E+00 0.36172177E+03</pdfrwt>
<totfact> 0.44870218E+02</totfact>
</mgrwt>
</event>
<event>
 6    1  0.8353100E-006  0.2481655E+03  0.7546771E-02  0.1114470E+00
         -2   -1    0    0    0  501 -0.00000000000E+00  0.00000000000E+00  0.14705988735E+02  0.14705988735E+02  0.00000000000E+00 0.  1.
          2   -1    0    0  501    0  0.00000000000E+00 -0.00000000000E+00 -0.10469560651E+04  0.10469560651E+04  0.00000000000E+00 0. -1.
          5    1    1    2  502    0 -0.13093964849E+02  0.77024770857E+01 -0.53245067340E+01  0.16769628519E+02  0.47000000000E+01 0. -1.
         -5    1    1    2    0  502 -0.36150371018E+02 -0.19524400894E+02 -0.70713767026E+03  0.70834583803E+03  0.47000000000E+01 0. -1.
        -11    1    1    2    0    0  0.26711604988E+02 -0.39424233121E+02 -0.12122601582E+03  0.13024410508E+03  0.00000000000E+00 0. -1.
         11    1    1    2    0    0  0.22532730878E+02  0.51246156929E+02 -0.19856188351E+03  0.20630248215E+03  0.00000000000E+00 0.  1.
<mgrwt>
<rscale>  0 0.24816546E+03</rscale>
<asrwt>0</asrwt>
<pdfrwt beam="2">  1        2 0.16107017E+00 0.24816546E+03</pdfrwt>
<pdfrwt beam="1">  1       -2 0.22624597E-02 0.24816546E+03</pdfrwt>
<totfact> 0.15723474E+04</totfact>
</mgrwt>
</event>
<event>
 6    1  0.8353100E-006  0.2245765E+03  0.7546771E-02  0.1133661E+00
         -1   -1    0    0    0  501 -0.00000000000E+00  0.00000000000E+00  0.97490052297E+02  0.97490052297E+02  0.00000000000E+00 0.  1.
          1   -1    0    0  501    0  0.00000000000E+00 -0.00000000000E+00 -0.47994543091E+03  0.47994543091E+03  0.00000000000E+00 0. -1.
          5    1    1    2  502    0  0.19671965247E+03 -0.53949856854E+02 -0.17820168103E+03  0.27090060510E+03  0.47000000000E+01 0. -1.
         -5    1    1    2    0  502 -0.14967513938E+02  0.11797887609E+02 -0.26437585522E+02  0.32927990430E+02  0.47000000000E+01 0. -1.
        -11    1    1    2    0    0 -0.10124198009E+02 -0.10944050746E+02 -0.52471522861E+02  0.54548440339E+02  0.00000000000E+00 0. -1.
         11    1    1    2    0    0 -0.17162794052E+03  0.53096019991E+02 -0.12534458920E+03  0.21905844734E+03  0.00000000000E+00 0.  1.
<mgrwt>
<rscale>  0 0.22029853E+03</rscale>
<asrwt>0</asrwt>
<pdfrwt beam="2">  1        1 0.73837760E-01 0.22457646E+03</pdfrwt>
<pdfrwt beam="1">  1       -1 0.14998469E-01 0.22457646E+03</pdfrwt>
<totfact> 0.15284857E+03</totfact>
</mgrwt>
</event>
<event>
 6    1  0.8353100E-006  0.4350707E+03  0.7546771E-02  0.1032270E+00
          4   -1    0    0  501    0  0.00000000000E+00  0.00000000000E+00  0.75355613122E+03  0.75355613122E+03  0.00000000000E+00 0.  1.
         -4   -1    0    0    0  501 -0.00000000000E+00 -0.00000000000E+00 -0.62797760386E+02  0.62797760386E+02  0.00000000000E+00 0. -1.
          5    1    1    2  502    0 -0.22724561090E+02 -0.49263251978E+02  0.56509786711E+02  0.78477510576E+02  0.47000000000E+01 0.  1.
         -5    1    1    2    0  502 -0.11877438425E+03 -0.21414700176E+02  0.47108684063E+03  0.48632380689E+03  0.47000000000E+01 0.  1.
        -11    1    1    2    0    0  0.57263499280E+02  0.86909331855E+02  0.10544534899E+03  0.14815890772E+03  0.00000000000E+00 0.  1.
         11    1    1    2    0    0  0.84235446061E+02 -0.16231379701E+02  0.57716394501E+02  0.10339366641E+03  0.00000000000E+00 0. -1.
<mgrwt>
<rscale>  0 0.43507074E+03</rscale>
<asrwt>0</asrwt>
<pdfrwt beam="1">  1        4 0.11593171E+00 0.43507074E+03</pdfrwt>
<pdfrwt beam="2">  1       -4 0.96611944E-02 0.43507074E+03</pdfrwt>
<totfact> 0.93755544E+01</totfact>
</mgrwt>
</event>
<event>
 6    1  0.8353100E-006  0.1386987E+03  0.7546771E-02  0.1226123E+00
         -2   -1    0    0    0  501 -0.00000000000E+00  0.00000000000E+00  0.16997220297E+02  0.16997220297E+02  0.00000000000E+00 0.  1.
          2   -1    0    0  501    0  0.00000000000E+00 -0.00000000000E+00 -0.12881750609E+04  0.12881750609E+04  0.00000000000E+00 0. -1.
          5    1    1    2  502    0  0.59554144757E+02 -0.22092529477E+02 -0.26357189993E+03  0.27115864812E+03  0.47000000000E+01 0. -1.
         -5    1    1    2    0  502 -0.61555355149E+01  0.49682380582E+02 -0.77564179854E+03  0.77726991400E+03  0.47000000000E+01 0. -1.
        -11    1    1    2    0    0 -0.79469690237E+02 -0.14865790965E+02 -0.17711845159E+03  0.19469814920E+03  0.00000000000E+00 0. -1.
         11    1    1    2    0    0  0.26071080995E+02 -0.12724060140E+02 -0.54845690481E+02  0.62045569826E+02  0.00000000000E+00 0.  1.
<mgrwt>
<rscale>  0 0.13090230E+03</rscale>
<asrwt>0</asrwt>
<pdfrwt beam="2">  1        2 0.19818085E+00 0.13869873E+03</pdfrwt>
<pdfrwt beam="1">  1       -2 0.26149560E-02 0.13869873E+03</pdfrwt>
<totfact> 0.90140101E+03</totfact>
</mgrwt>
</event>
<event>
 6    1  0.8353100E-006  0.1493755E+03  0.7546771E-02  0.1210058E+00
          2   -1    0    0  501    0  0.00000000000E+00  0.00000000000E+00  0.36144200111E+02  0.36144200111E+02  0.00000000000E+00 0. -1.
         -2   -1    0    0    0  501 -0.00000000000E+00 -0.00000000000E+00 -0.51531495622E+03  0.51531495622E+03  0.00000000000E+00 0.  1.
          5    1    1    2  502    0 -0.77743797091E+02 -0.17853314569E+02 -0.12027459116E+03  0.14439842834E+03  0.47000000000E+01 0.  1.
         -5    1    1    2    0  502  0.12089535001E+02  0.66626527325E+02 -0.14324965781E+03  0.15851752415E+03  0.47000000000E+01 0.  1.
        -11    1    1    2    0    0  0.11611352120E+02 -0.56529899237E+02 -0.16211792351E+03  0.17208333483E+03  0.00000000000E+00 0.  1.
         11    1    1    2    0    0  0.54042909971E+02  0.77566864804E+01 -0.53528583631E+02  0.76459869009E+02  0.00000000000E+00 0. -1.
<mgrwt>
<rscale>  0 0.14245921E+03</rscale>
<asrwt>0</asrwt>
<pdfrwt beam="1">  1        2 0.55606464E-02 0.14937551E+03</pdfrwt>
<pdfrwt beam="2">  1       -2 0.79279221E-01 0.14937551E+03</pdfrwt>
<totfact> 0.19207262E+03</totfact>
</mgrwt>
</event>
<event>
 6    1  0.8353100E-006  0.2742717E+03  0.7546771E-02  0.1098859E+00
          1   -1    0    0  501    0  0.00000000000E+00  0.00000000000E+00  0.28251787853E+03  0.28251787853E+03  0.00000000000E+00 0. -1.
         -1   -1    0    0    0  501 -0.00000000000E+00 -0.00000000000E+00 -0.66566540181E+02  0.66566540181E+02  0.00000000000E+00 0.  1.
          5    1    1    2  502    0  0.15626757290E+02 -0.10070655930E+03  0.14784213381E+03  0.17962570295E+03  0.47000000000E+01 0.  1.
         -5    1    1    2    0  502  0.59286594629E+01  0.19969560270E+02 -0.10697921621E+02  0.23884469167E+02  0.47000000000E+01 0.  1.
        -11    1    1    2    0    0 -0.18379519916E+02  0.34496194669E+02 -0.14257675572E+02  0.41606195593E+02  0.00000000000E+00 0.  1.
         11    1    1    2    0    0 -0.31758968370E+01  0.46240804359E+02  0.93064801726E+02  0.10396805100E+03  0.00000000000E+00 0. -1.
<mgrwt>
<rscale>  0 0.27427167E+03</rscale>
<asrwt>0</asrwt>
<pdfrwt beam="1">  1        1 0.43464288E-01 0.27427167E+03</pdfrwt>
<pdfrwt beam="2">  1       -1 0.10241006E-01 0.27427167E+03</pdfrwt>
<totfact> 0.55159214E+03</totfact>
</mgrwt>
</event>
<event>
 6    1  0.8353100E-006  0.1518404E+03  0.7546771E-02  0.1206569E+00
          4   -1    0    0  501    0  0.00000000000E+00  0.00000000000E+00  0.15317044870E+03  0.15317044870E+03  0.00000000000E+00 0.  1.
         -4   -1    0    0    0  501 -0.00000000000E+00 -0.00000000000E+00 -0.16142615467E+03  0.16142615467E+03  0.00000000000E+00 0. -1.
          5    1    1    2  502    0  0.29565037393E+02  0.78393850204E+02  0.26401990920E+02  0.87970690064E+02  0.47000000000E+01 0.  1.
         -5    1    1    2    0  502  0.49501001350E+02 -0.44023474002E+02  0.41899344129E+02  0.78524266544E+02  0.47000000000E+01 0.  1.
        -11    1    1    2    0    0 -0.53145505884E+02  0.25556423783E+02 -0.21745322037E+02  0.62852483028E+02  0.00000000000E+00 0. -1.
         11    1    1    2    0    0 -0.25920532860E+02 -0.59926799984E+02 -0.54811718979E+02  0.85249163735E+02  0.00000000000E+00 0.  1.
<mgrwt>
<rscale>  0 0.14514529E+03</rscale>
<asrwt>0</asrwt>
<pdfrwt beam="1">  1        4 0.23564685E-01 0.15184037E+03</pdfrwt>
<pdfrwt beam="2">  1       -4 0.24834793E-01 0.15184037E+03</pdfrwt>
<totfact> 0.42995516E+02</totfact>
</mgrwt>
</event>
<event>
 6    1  0.8353100E-006  0.1499802E+03  0.7546771E-02  0.1208168E+00
         -2   -1    0    0    0  501 -0.00000000000E+00  0.00000000000E+00  0.53356266219E+03  0.53356266219E+03  0.00000000000E+00 0.  1.
          2   -1    0    0  501    0  0.00000000000E+00 -0.00000000000E+00 -0.36156518798E+02  0.36156518798E+02  0.00000000000E+00 0. -1.
          5    1    1    2  502    0 -0.94905818686E+02 -0.57467616430E+01  0.20754196186E+03  0.22833286146E+03  0.47000000000E+01 0. -1.
         -5    1    1    2    0  502  0.20234297461E+02  0.41710203315E+02  0.41576148546E+02  0.62448650764E+02  0.47000000000E+01 0. -1.
        -11    1    1    2    0    0  0.69575907183E+02  0.14603234901E+02  0.18212170095E+03  0.19550543544E+03  0.00000000000E+00 0.  1.
         11    1    1    2    0    0  0.50956140411E+01 -0.50566676573E+02  0.66166332039E+02  0.83432233325E+02  0.00000000000E+00 0. -1.
<mgrwt>
<rscale>  0 0.14390575E+03</rscale>
<asrwt>0</asrwt>
<pdfrwt beam="2">  1        2 0.55625417E-02 0.14998018E+03</pdfrwt>
<pdfrwt beam="1">  1       -2 0.82086558E-01 0.14998018E+03</pdfrwt>
<totfact> 0.17790408E+03</totfact>
</mgrwt>
</event>
<event>
 6    1  0.8353100E-006  0.2582996E+03  0.7546771E-02  0.1110295E+00
         -4   -1    0    0    0  501 -0.00000000000E+00  0.00000000000E+00  0.34419944548E+03  0.34419944548E+03  0.00000000000E+00 0.  1.
          4   -1    0    0  501    0  0.00000000000E+00 -0.00000000000E+00 -0.19681360462E+03  0.19681360462E+03  0.00000000000E+00 0. -1.
          5    1    1    2  502    0 -0.37869268529E+02 -0.21093318647E+03 -0.18425145548E+02  0.21514754621E+03  0.47000000000E+01 0. -1.
         -5    1    1    2    0  502 -0.35314559610E+02 -0.29092335576E+01  0.24293803176E+02  0.43218753257E+02  0.47000000000E+01 0. -1.
        -11    1    1    2    0    0  0.10100418953E+02  0.60652582319E+02 -0.47179396144E+01  0.61668575136E+02  0.00000000000E+00 0. -1.
         11    1    1    2    0    0  0.63083409186E+02  0.15318983770E+03  0.14623512285E+03  0.22097817550E+03  0.00000000000E+00 0.  1.
<mgrwt>
<rscale>  0 0.25482194E+03</rscale>
<asrwt>0</asrwt>
<pdfrwt beam="2">  1        4 0.30279016E-01 0.25829964E+03</pdfrwt>
<pdfrwt beam="1">  1       -4 0.52953761E-01 0.25829964E+03</pdfrwt>
<totfact> 0.65923313E+01</totfact>
</mgrwt>
</event>
<event>
 6    1  0.8353100E-006  0.1259838E+03  0.7546771E-02  0.1248597E+00
          1   -1    0    0  501    0  0.00000000000E+00  0.00000000000E+00  0.48578173011E+03  0.48578173011E+03  0.00000000000E+00 0. -1.
         -1   -1    0    0    0  501 -0.00000000000E+00 -0.00000000000E+00 -0.35263866568E+02  0.35263866568E+02  0.00000000000E+00 0.  1.
          5    1    1    2  502    0  0.17300485606E+02 -0.21001875238E+02  0.37386604885E+03  0.37488437957E+03  0.47000000000E+01 0.  1.
         -5    1    1    2    0  502 -0.50103530448E+01  0.30762998575E+02  0.17061283359E+02  0.35841918319E+02  0.47000000000E+01 0.  1.
        -11    1    1    2    0    0 -0.43843057978E+02 -0.31844223869E+02  0.31834103998E+02  0.62846467714E+02  0.00000000000E+00 0.  1.
         11    1    1    2    0    0  0.31552925417E+02  0.22083100532E+02  0.27756427334E+02  0.47472831070E+02  0.00000000000E+00 0. -1.
<mgrwt>
<rscale>  0 0.11672666E+03</rscale>
<asrwt>0</asrwt>
<pdfrwt beam="1">  1        1 0.74735646E-01 0.12598378E+03</pdfrwt>
<pdfrwt beam="2">  1       -1 0.54252106E-02 0.12598378E+03</pdfrwt>
<totfact> 0.69638498E+03</totfact>
</mgrwt>
</event>
<event>
 6    1  0.8353100E-006  0.2399118E+03  0.7546771E-02  0.1119852E+00
          2   -1    0    0  501    0  0.00000000000E+00  0.00000000000E+00  0.10295096820E+04  0.10295096820E+04  0.00000000000E+00 0. -1.
         -2   -1    0    0    0  501 -0.00000000000E+00 -0.00000000000E+00 -0.13976962071E+02  0.13976962071E+02  0.00000000000E+00 0.  1.
          5    1    1    2  502    0  0.37895718796E+02  0.44309910311E+01  0.69949255654E+03  0.70054810388E+03  0.47000000000E+01 0. -1.
         -5    1    1    2    0  502 -0.13249564841E+01  0.17201041306E+01 -0.43237111865E+01  0.67452758527E+01  0.47000000000E+01 0. -1.
        -11    1    1    2    0    0 -0.15438820421E+02 -0.50296406099E+02  0.15123758739E+03  0.16012774114E+03  0.00000000000E+00 0. -1.
         11    1    1    2    0    0 -0.21131941891E+02  0.44145310937E+02  0.16912628722E+03  0.17606552325E+03  0.00000000000E+00 0.  1.
<mgrwt>
<rscale>  0 0.23991180E+03</rscale>
<asrwt>0</asrwt>
<pdfrwt beam="1">  1        2 0.15838605E+00 0.23991180E+03</pdfrwt>
<pdfrwt beam="2">  1       -2 0.21503027E-02 0.23991180E+03</pdfrwt>
<totfact> 0.17333148E+04</totfact>
</mgrwt>
</event>
<event>
 6    1  0.8353100E-006  0.1608510E+03  0.7546771E-02  0.1195513E+00
          1   -1    0    0  501    0  0.00000000000E+00  0.00000000000E+00  0.30672564289E+03  0.30672564289E+03  0.00000000000E+00 0. -1.
         -1   -1    0    0    0  501 -0.00000000000E+00 -0.00000000000E+00 -0.78860081943E+02  0.78860081943E+02  0.00000000000E+00 0.  1.
          5    1    1    2  502    0 -0.22699249332E+02  0.99053178793E+01  0.39429000428E+01  0.25514852602E+02  0.47000000000E+01 0.  1.
         -5    1    1    2    0  502  0.12380094452E+03 -0.15097055287E+02  0.17714228714E+03  0.21669350437E+03  0.47000000000E+01 0.  1.
        -11    1    1    2    0    0  0.16922852888E+02 -0.19728546160E+01  0.30514793926E+01  0.17308571047E+02  0.00000000000E+00 0.  1.
         11    1    1    2    0    0 -0.11802454807E+03  0.71645920232E+01  0.43728894367E+02  0.12606879681E+03  0.00000000000E+00 0. -1.
<mgrwt>
<rscale>  0 0.15410883E+03</rscale>
<asrwt>0</asrwt>
<pdfrwt beam="1">  1        1 0.47188560E-01 0.16085100E+03</pdfrwt>
<pdfrwt beam="2">  1       -1 0.12132320E-01 0.16085100E+03</pdfrwt>
<totfact> 0.37321186E+03</totfact>
</mgrwt>
</event>
<event>
 6    1  0.8353100E-006  0.1342561E+03  0.7546771E-02  0.1235036E+00
         -2   -1    0    0    0  501 -0.00000000000E+00  0.00000000000E+00  0.99892297942E+01  0.99892297942E+01  0.00000000000E+00 0.  1.
          2   -1    0    0  501    0  0.00000000000E+00 -0.00000000000E+00 -0.16644858441E+04  0.16644858441E+04  0.00000000000E+00 0. -1.
          5    1    1    2  502    0 -0.89368769761E+02  0.19212708168E+02 -0.84795637758E+03  0.85288218028E+03  0.47000000000E+01 0. -1.
         -5    1    1    2    0  502  0.41514725951E+02 -0.87361372990E+01 -0.41716285692E+03  0.41934083007E+03  0.47000000000E+01 0. -1.
        -11    1    1    2    0    0  0.57215046575E+02  0.17456603404E+02 -0.33601159751E+03  0.34129472340E+03  0.00000000000E+00 0. -1.
         11    1    1    2    0    0 -0.93610027652E+01 -0.27933174274E+02 -0.53365782262E+02  0.60957340118E+02  0.00000000000E+00 0.  1.
<mgrwt>
<rscale>  0 0.12502099E+03</rscale>
<asrwt>0</asrwt>
<pdfrwt beam="2">  1        2 0.25607465E+00 0.13425614E+03</pdfrwt>
<pdfrwt beam="1">  1       -2 0.15368052E-02 0.13425614E+03</pdfrwt>
<totfact> 0.12370288E+04</totfact>
</mgrwt>
</event>
<event>
 6    1  0.8353100E-006  0.1322700E+03  0.7546771E-02  0.1237155E+00
          1   -1    0    0  501    0  0.00000000000E+00  0.00000000000E+00  0.91220520966E+03  0.91220520966E+03  0.00000000000E+00 0. -1.
         -1   -1    0    0    0  501 -0.00000000000E+00 -0.00000000000E+00 -0.32645795345E+02  0.32645795345E+02  0.00000000000E+00 0.  1.
          5    1    1    2  502    0  0.32774244210E+02  0.11600965232E+02  0.50216733441E+03  0.50339135394E+03  0.47000000000E+01 0.  1.
         -5    1    1    2    0  502 -0.67499750711E+02 -0.37397429534E+02  0.31110937848E+03  0.32057123929E+03  0.47000000000E+01 0.  1.
        -11    1    1    2    0    0 -0.13716286603E+02  0.10877970607E+02 -0.16346531082E+02  0.23951531081E+02  0.00000000000E+00 0.  1.
         11    1    1    2    0    0  0.48441793104E+02  0.14918493695E+02  0.82629232514E+02  0.96936880696E+02  0.00000000000E+00 0. -1.
<mgrwt>
<rscale>  0 0.12367461E+03</rscale>
<asrwt>0</asrwt>
<pdfrwt beam="1">  1        1 0.14033924E+00 0.13226996E+03</pdfrwt>
<pdfrwt beam="2">  1       -1 0.50224307E-02 0.13226996E+03</pdfrwt>
<totfact> 0.32036465E+03</totfact>
</mgrwt>
</event>
<event>
 6    1  0.8353100E-006  0.1771674E+03  0.7546771E-02  0.1175691E+00
          1   -1    0    0  501    0  0.00000000000E+00  0.00000000000E+00  0.20648288944E+03  0.20648288944E+03  0.00000000000E+00 0. -1.
         -1   -1    0    0    0  501 -0.00000000000E+00 -0.00000000000E+00 -0.14530656348E+03  0.14530656348E+03  0.00000000000E+00 0.  1.
          5    1    1    2  502    0  0.64495384100E+02  0.14697195505E+02  0.44187040871E+02  0.79688435214E+02  0.47000000000E+01 0. -1.
         -5    1    1    2    0  502 -0.27048117949E+02  0.10514478416E+03  0.33063280560E+02  0.11358827775E+03  0.47000000000E+01 0. -1.
        -11    1    1    2    0    0  0.19934925153E+02 -0.39855207480E+02  0.25848654557E+02  0.51516907386E+02  0.00000000000E+00 0. -1.
         11    1    1    2    0    0 -0.57382191304E+02 -0.79986772180E+02 -0.41922650034E+02  0.10699583258E+03  0.00000000000E+00 0.  1.
<mgrwt>
<rscale>  0 0.17208488E+03</rscale>
<asrwt>0</asrwt>
<pdfrwt beam="1">  1        1 0.31766598E-01 0.17716737E+03</pdfrwt>
<pdfrwt beam="2">  1       -1 0.22354856E-01 0.17716737E+03</pdfrwt>
<totfact> 0.23228309E+03</totfact>
</mgrwt>
</event>
<event>
 6    1  0.8353100E-006  0.1300756E+03  0.7546771E-02  0.1241041E+00
         -2   -1    0    0    0  501 -0.00000000000E+00  0.00000000000E+00  0.20458573194E+02  0.20458573194E+02  0.00000000000E+00 0.  1.
          2   -1    0    0  501    0  0.00000000000E+00 -0.00000000000E+00 -0.91476983888E+03  0.91476983888E+03  0.00000000000E+00 0. -1.
          5    1    1    2  502    0 -0.60977331768E+01  0.65585132736E+02 -0.34504290076E+03  0.35130511717E+03  0.47000000000E+01 0.  1.
         -5    1    1    2    0  502 -0.28709219562E+02 -0.56404743464E+02 -0.40152543374E+03  0.40651012080E+03  0.47000000000E+01 0.  1.
        -11    1    1    2    0    0  0.62517277879E+02 -0.10312948316E+02 -0.67811461869E+02  0.92807118785E+02  0.00000000000E+00 0. -1.
         11    1    1    2    0    0 -0.27710325140E+02  0.11325590439E+01 -0.79931469316E+02  0.84606055317E+02  0.00000000000E+00 0.  1.
<mgrwt>
<rscale>  0 0.12125467E+03</rscale>
<asrwt>0</asrwt>
<pdfrwt beam="2">  1        2 0.14073384E+00 0.13007558E+03</pdfrwt>
<pdfrwt beam="1">  1       -2 0.31474723E-02 0.13007558E+03</pdfrwt>
<totfact> 0.11224492E+04</totfact>
</mgrwt>
</event>
<event>
 6    1  0.8353100E-006  0.1269420E+03  0.7546771E-02  0.1246314E+00
         -1   -1    0    0    0  501 -0.00000000000E+00  0.00000000000E+00  0.74183731013E+02  0.74183731013E+02  0.00000000000E+00 0.  1.
          1   -1    0    0  501    0  0.00000000000E+00 -0.00000000000E+00 -0.17863661372E+03  0.17863661372E+03  0.00000000000E+00 0. -1.
          5    1    1    2  502    0 -0.20792065755E+02  0.47276628557E+02 -0.56481505109E+02  0.76678810798E+02  0.47000000000E+01 0.  1.
         -5    1    1    2    0  502  0.38502579957E+02 -0.60501489363E+02 -0.36009345299E+02  0.80384338197E+02  0.47000000000E+01 0.  1.
        -11    1    1    2    0    0 -0.33034764518E+02  0.20491846341E+01 -0.46072151330E+02  0.56728634327E+02  0.00000000000E+00 0. -1.
         11    1    1    2    0    0  0.15324250315E+02  0.11175676173E+02  0.34110119029E+02  0.39028561411E+02  0.00000000000E+00 0.  1.
<mgrwt>
<rscale>  0 0.11807095E+03</rscale>
<asrwt>0</asrwt>
<pdfrwt beam="2">  1        1 0.27482556E-01 0.12694202E+03</pdfrwt>
<pdfrwt beam="1">  1       -1 0.11412882E-01 0.12694202E+03</pdfrwt>
<totfact> 0.79095371E+03</totfact>
</mgrwt>
</event>
<event>
 6    1  0.1553489E-005  0.2431641E+03  0.7546771E-02  0.1120383E+00
          1   -1    0    0  501    0  0.00000000000E+00  0.00000000000E+00  0.77095054868E+03  0.77095054868E+03  0.00000000000E+00 0.  1.
         -1   -1    0    0    0  501 -0.00000000000E+00 -0.00000000000E+00 -0.72412503789E+02  0.72412503789E+02  0.00000000000E+00 0. -1.
          5    1    1    2  502    0 -0.63119295604E+01 -0.27950391590E+02  0.17931936761E+03  0.18165514153E+03  0.47000000000E+01 0. -1.
         -5    1    1    2    0  502 -0.11563305924E+03 -0.14126237597E+03  0.22048573138E+03  0.28629025655E+03  0.47000000000E+01 0. -1.
        -11    1    1    2    0    0  0.65897073877E+02  0.10632697310E+03  0.10199018637E+03  0.16139965201E+03  0.00000000000E+00 0. -1.
         11    1    1    2    0    0  0.56047914919E+02  0.62885794466E+02  0.19674275953E+03  0.21401800238E+03  0.00000000000E+00 0.  1.
<mgrwt>
<rscale>  0 0.23911554E+03</rscale>
<asrwt>0</asrwt>
<pdfrwt beam="1">  1        1 0.11860777E+00 0.24316410E+03</pdfrwt>
<pdfrwt beam="2">  1       -1 0.11140386E-01 0.24316410E+03</pdfrwt>
<totfact> 0.12566049E+03</totfact>
</mgrwt>
</event>
<event>
 6    1  0.8353100E-006  0.2045463E+03  0.7546771E-02  0.1149761E+00
         -2   -1    0    0    0  501 -0.00000000000E+00  0.00000000000E+00  0.77131068418E+02  0.77131068418E+02  0.00000000000E+00 0.  1.
          2   -1    0    0  501    0  0.00000000000E+00 -0.00000000000E+00 -0.56892317650E+03  0.56892317650E+03  0.00000000000E+00 0. -1.
          5    1    1    2  502    0 -0.12726504079E+03 -0.40269278585E+02 -0.16110297128E+03  0.20927078812E+03  0.47000000000E+01 0.  1.
         -5    1    1    2    0  502 -0.12345978804E+02 -0.41726560033E+02 -0.20959206101E+03  0.21411317344E+03  0.47000000000E+01 0.  1.
        -11    1    1    2    0    0  0.12470566130E+03  0.89914269154E+02 -0.13195307520E+03  0.20260229962E+03  0.00000000000E+00 0. -1.
         11    1    1    2    0    0  0.14905358292E+02 -0.79184305359E+01  0.10855999405E+02  0.20067983732E+02  0.00000000000E+00 0.  1.
<mgrwt>
<rscale>  0 0.19997427E+03</rscale>
<asrwt>0</asrwt>
<pdfrwt beam="2">  1        2 0.87526642E-01 0.20454626E+03</pdfrwt>
<pdfrwt beam="1">  1       -2 0.11866318E-01 0.20454626E+03</pdfrwt>
<totfact> 0.26766358E+03</totfact>
</mgrwt>
</event>
<event>
 6    1  0.2061609E-005  0.3473695E+03  0.7546771E-02  0.1063700E+00
         -1   -1    0    0    0  501 -0.00000000000E+00  0.00000000000E+00  0.23250918546E+02  0.23250918546E+02  0.00000000000E+00 0.  1.
          1   -1    0    0  501    0  0.00000000000E+00 -0.00000000000E+00 -0.12974283453E+04  0.12974283453E+04  0.00000000000E+00 0. -1.
          5    1    1    2  502    0  0.26999293743E+02 -0.17281292305E+02 -0.11173366416E+03  0.11633617938E+03  0.47000000000E+01 0.  1.
         -5    1    1    2    0  502 -0.12146245217E+02  0.14063462982E+03 -0.76773187759E+03  0.78061511403E+03  0.47000000000E+01 0.  1.
        -11    1    1    2    0    0 -0.24494560601E+01 -0.51837630231E+02 -0.52189345310E+02  0.73599371648E+02  0.00000000000E+00 0.  1.
         11    1    1    2    0    0 -0.12403592466E+02 -0.71515707281E+02 -0.34252253973E+03  0.35012859883E+03  0.00000000000E+00 0. -1.
<mgrwt>
<rscale>  0 0.34736955E+03</rscale>
<asrwt>0</asrwt>
<pdfrwt beam="2">  1        1 0.19960432E+00 0.34736955E+03</pdfrwt>
<pdfrwt beam="1">  1       -1 0.35770651E-02 0.34736955E+03</pdfrwt>
<totfact> 0.28510835E+03</totfact>
</mgrwt>
</event>
<event>
 6    1  0.8353100E-006  0.1466060E+03  0.7546771E-02  0.1214144E+00
          2   -1    0    0  501    0  0.00000000000E+00  0.00000000000E+00  0.47601353052E+03  0.47601353052E+03  0.00000000000E+00 0. -1.
         -2   -1    0    0    0  501 -0.00000000000E+00 -0.00000000000E+00 -0.95212437110E+02  0.95212437110E+02  0.00000000000E+00 0.  1.
          5    1    1    2  502    0  0.51025166596E+02  0.30373203745E+02  0.31361585284E+03  0.31922263749E+03  0.47000000000E+01 0. -1.
         -5    1    1    2    0  502  0.17654625541E+02 -0.64321181430E+02  0.10662285392E+03  0.12585477012E+03  0.47000000000E+01 0. -1.
        -11    1    1    2    0    0 -0.24222486541E+00  0.31601576435E+02  0.18352040294E+02  0.36544708085E+02  0.00000000000E+00 0. -1.
         11    1    1    2    0    0 -0.68437567272E+02  0.23464012499E+01 -0.57789653648E+02  0.89603851936E+02  0.00000000000E+00 0.  1.
<mgrwt>
<rscale>  0 0.13939626E+03</rscale>
<asrwt>0</asrwt>
<pdfrwt beam="1">  1        2 0.73232850E-01 0.14660603E+03</pdfrwt>
<pdfrwt beam="2">  1       -2 0.14648068E-01 0.14660603E+03</pdfrwt>
<totfact> 0.22985971E+03</totfact>
</mgrwt>
</event>
<event>
 6    1  0.8353100E-006  0.2806779E+03  0.7546771E-02  0.1095319E+00
          1   -1    0    0  501    0  0.00000000000E+00  0.00000000000E+00  0.47480632437E+02  0.47480632437E+02  0.00000000000E+00 0. -1.
         -1   -1    0    0    0  501 -0.00000000000E+00 -0.00000000000E+00 -0.41480125179E+03  0.41480125179E+03  0.00000000000E+00 0.  1.
          5    1    1    2  502    0 -0.42177409374E+02 -0.74290350244E+02 -0.18061083809E+02  0.87443025732E+02  0.47000000000E+01 0.  1.
         -5    1    1    2    0  502  0.18595147907E+02  0.19688758358E+02 -0.73648746412E+02  0.78610779028E+02  0.47000000000E+01 0.  1.
        -11    1    1    2    0    0 -0.24180380606E+02  0.46018388510E+02 -0.85866263547E+02  0.10037628257E+03  0.00000000000E+00 0. -1.
         11    1    1    2    0    0  0.47762642073E+02  0.85832033765E+01 -0.18974452559E+03  0.19585179690E+03  0.00000000000E+00 0.  1.
<mgrwt>
<rscale>  0 0.28067793E+03</rscale>
<asrwt>0</asrwt>
<pdfrwt beam="1">  1        1 0.73047126E-02 0.28067793E+03</pdfrwt>
<pdfrwt beam="2">  1       -1 0.63815578E-01 0.28067793E+03</pdfrwt>
<totfact> 0.25331967E+03</totfact>
</mgrwt>
</event>
<event>
 6    1  0.8353100E-006  0.1400738E+03  0.7546771E-02  0.1224657E+00
          1   -1    0    0  501    0  0.00000000000E+00  0.00000000000E+00  0.75132791742E+03  0.75132791742E+03  0.00000000000E+00 0. -1.
         -1   -1    0    0    0  501 -0.00000000000E+00 -0.00000000000E+00 -0.27950038577E+02  0.27950038577E+02  0.00000000000E+00 0.  1.
          5    1    1    2  502    0  0.19824608878E+02  0.45616332052E+02  0.76160356213E+02  0.91084327552E+02  0.47000000000E+01 0.  1.
         -5    1    1    2    0  502  0.35680993910E+02 -0.15365778039E+02  0.51333713704E+03  0.51482652100E+03  0.47000000000E+01 0.  1.
        -11    1    1    2    0    0 -0.56018961142E+02 -0.90868709909E+01  0.14021936185E+03  0.15126851844E+03  0.00000000000E+00 0. -1.
         11    1    1    2    0    0  0.51335835423E+00 -0.21163683022E+02 -0.63389762652E+01  0.22098589004E+02  0.00000000000E+00 0.  1.
<mgrwt>
<rscale>  0 0.13190463E+03</rscale>
<asrwt>0</asrwt>
<pdfrwt beam="1">  1        1 0.11558889E+00 0.14007377E+03</pdfrwt>
<pdfrwt beam="2">  1       -1 0.43000065E-02 0.14007377E+03</pdfrwt>
<totfact> 0.54350672E+03</totfact>
</mgrwt>
</event>
<event>
 6    1  0.8353100E-006  0.1319112E+03  0.7546771E-02  0.1237517E+00
          1   -1    0    0  501    0  0.00000000000E+00  0.00000000000E+00  0.17039128240E+03  0.17039128240E+03  0.00000000000E+00 0. -1.
         -1   -1    0    0    0  501 -0.00000000000E+00 -0.00000000000E+00 -0.15757202756E+03  0.15757202756E+03  0.00000000000E+00 0.  1.
          5    1    1    2  502    0  0.27442350317E+02 -0.36162741252E+02  0.25863005761E+02  0.52457711662E+02  0.47000000000E+01 0. -1.
         -5    1    1    2    0  502 -0.28338645232E+02  0.78266155384E+02  0.95735179216E+02  0.12694874726E+03  0.47000000000E+01 0. -1.
        -11    1    1    2    0    0 -0.41198073436E+02 -0.11220782041E+02 -0.75217696734E+02  0.86492133206E+02  0.00000000000E+00 0. -1.
         11    1    1    2    0    0  0.42094368351E+02 -0.30882632091E+02 -0.33561233403E+02  0.62064717829E+02  0.00000000000E+00 0.  1.
<mgrwt>
<rscale>  0 0.12344656E+03</rscale>
<asrwt>0</asrwt>
<pdfrwt beam="1">  1        1 0.26214044E-01 0.13191118E+03</pdfrwt>
<pdfrwt beam="2">  1       -1 0.24241850E-01 0.13191118E+03</pdfrwt>
<totfact> 0.25569897E+03</totfact>
</mgrwt>
</event>
<event>
 6    1  0.8353100E-006  0.1610256E+03  0.7546771E-02  0.1195001E+00
         -2   -1    0    0    0  501 -0.00000000000E+00  0.00000000000E+00  0.26409414787E+02  0.26409414787E+02  0.00000000000E+00 0.  1.
          2   -1    0    0  501    0  0.00000000000E+00 -0.00000000000E+00 -0.85305323242E+03  0.85305323242E+03  0.00000000000E+00 0. -1.
          5    1    1    2  502    0  0.11320137118E+03  0.39904261588E+02 -0.33643555511E+03  0.35723643889E+03  0.47000000000E+01 0.  1.
         -5    1    1    2    0  502 -0.31781303169E+02  0.20717014880E+02 -0.16722573268E+03  0.17153944621E+03  0.47000000000E+01 0.  1.
        -11    1    1    2    0    0  0.82718724981E+01 -0.18176735935E+02 -0.99664768216E+01  0.22319235294E+02  0.00000000000E+00 0.  1.
         11    1    1    2    0    0 -0.89691940509E+02 -0.42444540533E+02 -0.31301605303E+03  0.32836752681E+03  0.00000000000E+00 0. -1.
<mgrwt>
<rscale>  0 0.15454156E+03</rscale>
<asrwt>0</asrwt>
<pdfrwt beam="2">  1        2 0.13123897E+00 0.16102560E+03</pdfrwt>
<pdfrwt beam="1">  1       -2 0.40629866E-02 0.16102560E+03</pdfrwt>
<totfact> 0.85211962E+03</totfact>
</mgrwt>
</event>
<event>
 6    1  0.8353100E-006  0.2557348E+03  0.7546771E-02  0.1109733E+00
         -2   -1    0    0    0  501 -0.00000000000E+00  0.00000000000E+00  0.39814618639E+02  0.39814618639E+02  0.00000000000E+00 0.  1.
          2   -1    0    0  501    0  0.00000000000E+00 -0.00000000000E+00 -0.41065504609E+03  0.41065504609E+03  0.00000000000E+00 0. -1.
          5    1    1    2  502    0  0.61629516994E+02 -0.22424093384E+02 -0.32188499165E+02  0.73206740178E+02  0.47000000000E+01 0. -1.
         -5    1    1    2    0  502 -0.31951675603E+01 -0.83197260642E+01 -0.18918305778E+03  0.18945117125E+03  0.47000000000E+01 0. -1.
        -11    1    1    2    0    0 -0.39811019211E+02 -0.18372407195E+02 -0.20194678207E+02  0.48273052779E+02  0.00000000000E+00 0.  1.
         11    1    1    2    0    0 -0.18623330223E+02  0.49116226644E+02 -0.12927419230E+03  0.13953870052E+03  0.00000000000E+00 0. -1.
<mgrwt>
<rscale>  0 0.25573482E+03</rscale>
<asrwt>0</asrwt>
<pdfrwt beam="2">  1        2 0.63177698E-01 0.25573482E+03</pdfrwt>
<pdfrwt beam="1">  1       -2 0.61253260E-02 0.25573482E+03</pdfrwt>
<totfact> 0.10994067E+04</totfact>
</mgrwt>
</event>
<event>
 6    1  0.8353100E-006  0.1276023E+03  0.7546771E-02  0.1250997E+00
          1   -1    0    0  501    0  0.00000000000E+00  0.00000000000E+00  0.14638983159E+04  0.14638983159E+04  0.00000000000E+00 0. -1.
         -1   -1    0    0    0  501 -0.00000000000E+00 -0.00000000000E+00 -0.93033343320E+01  0.93033343320E+01  0.00000000000E+00 0.  1.
          5    1    1    2  502    0 -0.32036957144E+02  0.43300073343E+02  0.30911342138E+03  0.31380640569E+03  0.47000000000E+01 0.  1.
         -5    1    1    2    0  502  0.54754893607E+02 -0.31410522642E+02  0.83648050970E+03  0.83887213115E+03  0.47000000000E+01 0.  1.
        -11    1    1    2    0    0 -0.39509340492E+02  0.23367489586E+02  0.15560058181E+03  0.16222998680E+03  0.00000000000E+00 0. -1.
         11    1    1    2    0    0  0.16791404029E+02 -0.35257040287E+02  0.15340046872E+03  0.15829312665E+03  0.00000000000E+00 0.  1.
<mgrwt>
<rscale>  0 0.11533518E+03</rscale>
<asrwt>0</asrwt>
<pdfrwt beam="1">  1        1 0.22521494E+00 0.12760233E+03</pdfrwt>
<pdfrwt beam="2">  1       -1 0.14312834E-02 0.12760233E+03</pdfrwt>
<totfact> 0.82214027E+03</totfact>
</mgrwt>
</event>
<event>
 6    1  0.8353100E-006  0.1437416E+03  0.7546771E-02  0.1220631E+00
          2   -1    0    0  501    0  0.00000000000E+00  0.00000000000E+00  0.30733303881E+03  0.30733303881E+03  0.00000000000E+00 0. -1.
         -2   -1    0    0    0  501 -0.00000000000E+00 -0.00000000000E+00 -0.58601813595E+02  0.58601813595E+02  0.00000000000E+00 0.  1.
          5    1    1    2  502    0  0.41607215741E+02 -0.11432414956E+02  0.44035108168E+01  0.43627301326E+02  0.47000000000E+01 0. -1.
         -5    1    1    2    0  502  0.16235785477E+02  0.52554943935E+02  0.19185728012E+03  0.19964200158E+03  0.47000000000E+01 0. -1.
        -11    1    1    2    0    0 -0.39886833295E+02  0.21362474328E+02  0.27935867361E+02  0.53176380706E+02  0.00000000000E+00 0. -1.
         11    1    1    2    0    0 -0.17956167923E+02 -0.62485003307E+02  0.24534566913E+02  0.69489168785E+02  0.00000000000E+00 0.  1.
<mgrwt>
<rscale>  0 0.13470918E+03</rscale>
<asrwt>0</asrwt>
<pdfrwt beam="1">  1        2 0.47282005E-01 0.14374163E+03</pdfrwt>
<pdfrwt beam="2">  1       -2 0.90156638E-02 0.14374163E+03</pdfrwt>
<totfact> 0.79552461E+03</totfact>
</mgrwt>
</event>
<event>
 6    1  0.8353100E-006  0.1587977E+03  0.7546771E-02  0.1198268E+00
          1   -1    0    0  501    0  0.00000000000E+00  0.00000000000E+00  0.18884364996E+03  0.18884364996E+03  0.00000000000E+00 0. -1.
         -1   -1    0    0    0  501 -0.00000000000E+00 -0.00000000000E+00 -0.25719195441E+03  0.25719195441E+03  0.00000000000E+00 0.  1.
          5    1    1    2  502    0 -0.21026808490E+02  0.67865463444E+02  0.19250018545E+02  0.73759752018E+02  0.47000000000E+01 0.  1.
         -5    1    1    2    0  502  0.67665429873E+02  0.18262209312E+02  0.11225109344E+03  0.13241796203E+03  0.47000000000E+01 0.  1.
        -11    1    1    2    0    0 -0.29814498050E+02  0.11058015569E+02 -0.69220473195E+02  0.76175179105E+02  0.00000000000E+00 0.  1.
         11    1    1    2    0    0 -0.16824123333E+02 -0.97185688324E+02 -0.13062894324E+03  0.16368271122E+03  0.00000000000E+00 0. -1.
<mgrwt>
<rscale>  0 0.15180903E+03</rscale>
<asrwt>0</asrwt>
<pdfrwt beam="1">  1        1 0.29052869E-01 0.15879769E+03</pdfrwt>
<pdfrwt beam="2">  1       -1 0.39567993E-01 0.15879769E+03</pdfrwt>
<totfact> 0.98717853E+02</totfact>
</mgrwt>
</event>
<event>
 6    1  0.8353100E-006  0.1539310E+03  0.7546771E-02  0.1208971E+00
          1   -1    0    0  501    0  0.00000000000E+00  0.00000000000E+00  0.57976078521E+03  0.57976078521E+03  0.00000000000E+00 0. -1.
         -1   -1    0    0    0  501 -0.00000000000E+00 -0.00000000000E+00 -0.12107342694E+03  0.12107342694E+03  0.00000000000E+00 0.  1.
          5    1    1    2  502    0  0.28769296520E+02 -0.55487348780E+02  0.89615282855E+02  0.10935953190E+03  0.47000000000E+01 0. -1.
         -5    1    1    2    0  502 -0.20889792564E+02 -0.34301108700E+02  0.44908618410E+03  0.45090291665E+03  0.47000000000E+01 0. -1.
        -11    1    1    2    0    0 -0.38088937553E+02  0.56039359109E+02 -0.33281340567E+02  0.75490559431E+02  0.00000000000E+00 0.  1.
         11    1    1    2    0    0  0.30209433597E+02  0.33749098371E+02 -0.46732768124E+02  0.65081204166E+02  0.00000000000E+00 0. -1.
<mgrwt>
<rscale>  0 0.14328899E+03</rscale>
<asrwt>0</asrwt>
<pdfrwt beam="1">  1        1 0.89193965E-01 0.15393096E+03</pdfrwt>
<pdfrwt beam="2">  1       -1 0.18626681E-01 0.15393096E+03</pdfrwt>
<totfact> 0.83845443E+02</totfact>
</mgrwt>
</event>
<event>
 6    1  0.8353100E-006  0.4051438E+03  0.7546771E-02  0.1042809E+00
          2   -1    0    0  501    0  0.00000000000E+00  0.00000000000E+00  0.13907531429E+04  0.13907531429E+04  0.00000000000E+00 0. -1.
         -2   -1    0    0    0  501 -0.00000000000E+00 -0.00000000000E+00 -0.12726458406E+03  0.12726458406E+03  0.00000000000E+00 0.  1.
          5    1    1    2  502    0  0.22303811076E+03  0.20250818091E+03  0.56535005267E+03  0.64062339501E+03  0.47000000000E+01 0. -1.
         -5    1    1    2    0  502  0.92928912700E+02  0.18126899720E+02  0.30522105327E+03  0.31960342406E+03  0.47000000000E+01 0. -1.
        -11    1    1    2    0    0 -0.13454787448E+03 -0.41233125961E+02  0.13565908751E+03  0.19546531464E+03  0.00000000000E+00 0.  1.
         11    1    1    2    0    0 -0.18141914898E+03 -0.17940195467E+03  0.25725836538E+03  0.36232559324E+03  0.00000000000E+00 0. -1.
<mgrwt>
<rscale>  0 0.40281594E+03</rscale>
<asrwt>0</asrwt>
<pdfrwt beam="1">  1        2 0.21396201E+00 0.40514379E+03</pdfrwt>
<pdfrwt beam="2">  1       -2 0.19579168E-01 0.40514379E+03</pdfrwt>
<totfact> 0.33732186E+02</totfact>
</mgrwt>
</event>
<event>
 6    1  0.8353100E-006  0.1293028E+03  0.7546771E-02  0.1242127E+00
          2   -1    0    0  501    0  0.00000000000E+00  0.00000000000E+00  0.14114890704E+03  0.14114890704E+03  0.00000000000E+00 0. -1.
         -2   -1    0    0    0  501 -0.00000000000E+00 -0.00000000000E+00 -0.91733084964E+02  0.91733084964E+02  0.00000000000E+00 0.  1.
          5    1    1    2  502    0  0.41393484377E+02 -0.23744798484E+02  0.54532773196E+02  0.72616453758E+02  0.47000000000E+01 0. -1.
         -5    1    1    2    0  502 -0.15751580583E+02  0.44693470183E+02 -0.33720559755E+02  0.58350533143E+02  0.47000000000E+01 0. -1.
        -11    1    1    2    0    0 -0.43759512120E+02  0.23367656264E+02  0.10346862718E+02  0.50675436144E+02  0.00000000000E+00 0.  1.
         11    1    1    2    0    0  0.18117608326E+02 -0.44316327963E+02  0.18256745915E+02  0.51239568958E+02  0.00000000000E+00 0. -1.
<mgrwt>
<rscale>  0 0.12059001E+03</rscale>
<asrwt>0</asrwt>
<pdfrwt beam="1">  1        2 0.21715216E-01 0.12930276E+03</pdfrwt>
<pdfrwt beam="2">  1       -2 0.14112782E-01 0.12930276E+03</pdfrwt>
<totfact> 0.89876251E+03</totfact>
</mgrwt>
</event>
<event>
 6    1  0.8353100E-006  0.1434989E+03  0.7546771E-02  0.1219397E+00
          2   -1    0    0  501    0  0.00000000000E+00  0.00000000000E+00  0.52540064795E+03  0.52540064795E+03  0.00000000000E+00 0. -1.
         -2   -1    0    0    0  501 -0.00000000000E+00 -0.00000000000E+00 -0.34522893677E+02  0.34522893677E+02  0.00000000000E+00 0.  1.
          5    1    1    2  502    0 -0.49990860815E+02  0.53365594606E+02  0.32078073442E+03  0.32904307078E+03  0.47000000000E+01 0. -1.
         -5    1    1    2    0  502 -0.18226285275E+02 -0.35462682469E+02  0.30507582817E+02  0.50424219698E+02  0.47000000000E+01 0. -1.
        -11    1    1    2    0    0  0.76317670884E+02 -0.40350360653E+01  0.14466643506E+03  0.16361248680E+03  0.00000000000E+00 0. -1.
         11    1    1    2    0    0 -0.81005247928E+01 -0.13867876072E+02 -0.50769980172E+01  0.16843764352E+02  0.00000000000E+00 0.  1.
<mgrwt>
<rscale>  0 0.13558428E+03</rscale>
<asrwt>0</asrwt>
<pdfrwt beam="1">  1        2 0.80830863E-01 0.14349893E+03</pdfrwt>
<pdfrwt beam="2">  1       -2 0.53112148E-02 0.14349893E+03</pdfrwt>
<totfact> 0.10047330E+04</totfact>
</mgrwt>
</event>
<event>
 6    1  0.8353100E-006  0.1274048E+03  0.7546771E-02  0.1244075E+00
          2   -1    0    0  501    0  0.00000000000E+00  0.00000000000E+00  0.25849770135E+03  0.25849770135E+03  0.00000000000E+00 0.  1.
         -2   -1    0    0    0  501 -0.00000000000E+00 -0.00000000000E+00 -0.50477129925E+02  0.50477129925E+02  0.00000000000E+00 0. -1.
          5    1    1    2  502    0  0.21426663664E+02 -0.13946427844E+02 -0.15103380960E+02  0.30063381077E+02  0.47000000000E+01 0.  1.
         -5    1    1    2    0  502 -0.74273473399E+01  0.34086350536E+02  0.15587944036E+03  0.15980467674E+03  0.47000000000E+01 0.  1.
        -11    1    1    2    0    0  0.18974871121E+02 -0.22675262402E+02  0.78728975269E+02  0.84097947692E+02  0.00000000000E+00 0.  1.
         11    1    1    2    0    0 -0.32974187445E+02  0.25353397105E+01 -0.11484463247E+02  0.35008825761E+02  0.00000000000E+00 0. -1.
<mgrwt>
<rscale>  0 0.11940906E+03</rscale>
<asrwt>0</asrwt>
<pdfrwt beam="1">  1        2 0.39768876E-01 0.12740479E+03</pdfrwt>
<pdfrwt beam="2">  1       -2 0.77657124E-02 0.12740479E+03</pdfrwt>
<totfact> 0.11935630E+04</totfact>
</mgrwt>
</event>
<event>
 6    1  0.8353100E-006  0.2597551E+03  0.7546771E-02  0.1109548E+00
          2   -1    0    0  501    0  0.00000000000E+00  0.00000000000E+00  0.83359021522E+03  0.83359021522E+03  0.00000000000E+00 0. -1.
         -2   -1    0    0    0  501 -0.00000000000E+00 -0.00000000000E+00 -0.92524396949E+02  0.92524396949E+02  0.00000000000E+00 0.  1.
          5    1    1    2  502    0  0.19701944728E+03  0.11469344096E+03  0.46103040789E+03  0.51433683031E+03  0.47000000000E+01 0.  1.
         -5    1    1    2    0  502 -0.14025159096E+02  0.20810306766E+02  0.11114787335E+03  0.11404259601E+03  0.47000000000E+01 0.  1.
        -11    1    1    2    0    0 -0.95660320443E+02 -0.12364032908E+03  0.11894532404E+03  0.19643273147E+03  0.00000000000E+00 0.  1.
         11    1    1    2    0    0 -0.87333967746E+02 -0.11863418646E+02  0.49942212987E+02  0.10130245437E+03  0.00000000000E+00 0. -1.
<mgrwt>
<rscale>  0 0.25603738E+03</rscale>
<asrwt>0</asrwt>
<pdfrwt beam="1">  1        2 0.12824464E+00 0.25975511E+03</pdfrwt>
<pdfrwt beam="2">  1       -2 0.14234523E-01 0.25975511E+03</pdfrwt>
<totfact> 0.12572001E+03</totfact>
</mgrwt>
</event>
<event>
 6    1  0.8353100E-006  0.1381233E+03  0.7546771E-02  0.1228693E+00
         -1   -1    0    0    0  501 -0.00000000000E+00  0.00000000000E+00  0.83848869979E+02  0.83848869979E+02  0.00000000000E+00 0.  1.
          1   -1    0    0  501    0  0.00000000000E+00 -0.00000000000E+00 -0.20960545683E+03  0.20960545683E+03  0.00000000000E+00 0. -1.
          5    1    1    2  502    0 -0.63254609497E+02 -0.30038154245E+02 -0.32703369637E+02  0.77427622453E+02  0.47000000000E+01 0. -1.
         -5    1    1    2    0  502  0.10436514000E+02  0.55796464367E+02 -0.94541223924E+02  0.11037345370E+03  0.47000000000E+01 0. -1.
        -11    1    1    2    0    0  0.14750514404E+02 -0.45116185084E+02  0.28266557291E+02  0.55245326434E+02  0.00000000000E+00 0.  1.
         11    1    1    2    0    0  0.38067581093E+02  0.19357874961E+02 -0.26778550581E+02  0.50407924224E+02  0.00000000000E+00 0. -1.
<mgrwt>
<rscale>  0 0.12916958E+03</rscale>
<asrwt>0</asrwt>
<pdfrwt beam="2">  1        1 0.32246993E-01 0.13812334E+03</pdfrwt>
<pdfrwt beam="1">  1       -1 0.12899826E-01 0.13812334E+03</pdfrwt>
<totfact> 0.53981958E+03</totfact>
</mgrwt>
</event>
<event>
 6    1  0.8353100E-006  0.1366915E+03  0.7546771E-02  0.1232198E+00
          2   -1    0    0  501    0  0.00000000000E+00  0.00000000000E+00  0.46018858597E+02  0.46018858597E+02  0.00000000000E+00 0. -1.
         -2   -1    0    0    0  501 -0.00000000000E+00 -0.00000000000E+00 -0.35676060664E+03  0.35676060664E+03  0.00000000000E+00 0.  1.
          5    1    1    2  502    0  0.54236175615E+02  0.35633819701E+02 -0.10447417409E+03  0.12307832833E+03  0.47000000000E+01 0. -1.
         -5    1    1    2    0  502 -0.43003694769E+02  0.18527541993E+02  0.30083426993E+01  0.47156417399E+02  0.47000000000E+01 0. -1.
        -11    1    1    2    0    0  0.35211088116E+02 -0.37660920352E+02 -0.94893459893E+02  0.10799506645E+03  0.00000000000E+00 0.  1.
         11    1    1    2    0    0 -0.46443568963E+02 -0.16500441342E+02 -0.11438245676E+03  0.12454965306E+03  0.00000000000E+00 0. -1.
<mgrwt>
<rscale>  0 0.12685527E+03</rscale>
<asrwt>0</asrwt>
<pdfrwt beam="1">  1        2 0.70798244E-02 0.13669145E+03</pdfrwt>
<pdfrwt beam="2">  1       -2 0.54886247E-01 0.13669145E+03</pdfrwt>
<totfact> 0.30315144E+03</totfact>
</mgrwt>
</event>
<event>
 6    1  0.8353100E-006  0.2883613E+03  0.7546771E-02  0.1092938E+00
         -1   -1    0    0    0  501 -0.00000000000E+00  0.00000000000E+00  0.27862337576E+03  0.27862337576E+03  0.00000000000E+00 0.  1.
          1   -1    0    0  501    0  0.00000000000E+00 -0.00000000000E+00 -0.28755908793E+03  0.28755908793E+03  0.00000000000E+00 0. -1.
          5    1    1    2  502    0  0.91927006666E+02  0.99572063075E+02 -0.17747995498E+02  0.13675617589E+03  0.47000000000E+01 0.  1.
         -5    1    1    2    0  502  0.14736256334E+03  0.17764791223E+01  0.38274292167E+02  0.15233480361E+03  0.47000000000E+01 0.  1.
        -11    1    1    2    0    0 -0.16590604645E+03 -0.10584280101E+03 -0.45171565803E+02  0.20191083461E+03  0.00000000000E+00 0. -1.
         11    1    1    2    0    0 -0.73383523547E+02  0.44942588160E+01  0.15709556958E+02  0.75180649573E+02  0.00000000000E+00 0.  1.
<mgrwt>
<rscale>  0 0.28509615E+03</rscale>
<asrwt>0</asrwt>
<pdfrwt beam="2">  1        1 0.44239860E-01 0.28836135E+03</pdfrwt>
<pdfrwt beam="1">  1       -1 0.42865135E-01 0.28836135E+03</pdfrwt>
<totfact> 0.50607265E+02</totfact>
</mgrwt>
</event>
<event>
 6    1  0.8353100E-006  0.1278628E+03  0.7546771E-02  0.1245169E+00
          1   -1    0    0  501    0  0.00000000000E+00  0.00000000000E+00  0.81837895729E+02  0.81837895729E+02  0.00000000000E+00 0. -1.
         -1   -1    0    0    0  501 -0.00000000000E+00 -0.00000000000E+00 -0.17469811885E+03  0.17469811885E+03  0.00000000000E+00 0.  1.
          5    1    1    2  502    0  0.17696139889E+02  0.47010597632E+02  0.14022934388E+01  0.50469853215E+02  0.47000000000E+01 0.  1.
         -5    1    1    2    0  502 -0.24679932013E+02 -0.72951319139E+02 -0.78669859409E+01  0.77556260070E+02  0.47000000000E+01 0.  1.
        -11    1    1    2    0    0 -0.35916133236E+02  0.35977013943E+02 -0.50819767384E+02  0.71881589547E+02  0.00000000000E+00 0.  1.
         11    1    1    2    0    0  0.42899925360E+02 -0.10036292436E+02 -0.35575763239E+02  0.56628311751E+02  0.00000000000E+00 0. -1.
<mgrwt>
<rscale>  0 0.11875252E+03</rscale>
<asrwt>0</asrwt>
<pdfrwt beam="1">  1        1 0.12590445E-01 0.12786279E+03</pdfrwt>
<pdfrwt beam="2">  1       -1 0.26876634E-01 0.12786279E+03</pdfrwt>
<totfact> 0.54972671E+03</totfact>
</mgrwt>
</event>
<event>
 6    1  0.8353100E-006  0.2087925E+03  0.7546771E-02  0.1146504E+00
          2   -1    0    0  501    0  0.00000000000E+00  0.00000000000E+00  0.11764037698E+03  0.11764037698E+03  0.00000000000E+00 0.  1.
         -2   -1    0    0    0  501 -0.00000000000E+00 -0.00000000000E+00 -0.34286522779E+03  0.34286522779E+03  0.00000000000E+00 0. -1.
          5    1    1    2  502    0  0.27460487881E+02  0.86353960495E+01 -0.42389310587E+01  0.29473835789E+02  0.47000000000E+01 0. -1.
         -5    1    1    2    0  502 -0.12455495630E+03  0.12757303438E+03 -0.85395340005E+02  0.19774546856E+03  0.47000000000E+01 0. -1.
        -11    1    1    2    0    0  0.90540204076E+02 -0.50699148088E+02 -0.80819530765E+02  0.13152843314E+03  0.00000000000E+00 0.  1.
         11    1    1    2    0    0  0.65542643434E+01 -0.85509282342E+02 -0.54771048983E+02  0.10175786729E+03  0.00000000000E+00 0. -1.
<mgrwt>
<rscale>  0 0.20388290E+03</rscale>
<asrwt>0</asrwt>
<pdfrwt beam="1">  1        2 0.18098520E-01 0.20879250E+03</pdfrwt>
<pdfrwt beam="2">  1       -2 0.52748496E-01 0.20879250E+03</pdfrwt>
<totfact> 0.10683561E+03</totfact>
</mgrwt>
</event>
<event>
 6    1  0.8353100E-006  0.1269610E+03  0.7546771E-02  0.1252662E+00
         -2   -1    0    0    0  501 -0.00000000000E+00  0.00000000000E+00  0.39377640482E+02  0.39377640482E+02  0.00000000000E+00 0.  1.
          2   -1    0    0  501    0  0.00000000000E+00 -0.00000000000E+00 -0.28218051806E+03  0.28218051806E+03  0.00000000000E+00 0. -1.
          5    1    1    2  502    0  0.43810866953E+02  0.32407731921E+02 -0.32803475682E+02  0.63779394543E+02  0.47000000000E+01 0. -1.
         -5    1    1    2    0  502 -0.59070314642E+02 -0.16150221586E+02 -0.12067637134E+03  0.13540682527E+03  0.47000000000E+01 0. -1.
        -11    1    1    2    0    0 -0.29693282784E+01 -0.45197847199E+02 -0.31434810107E+02  0.55134468242E+02  0.00000000000E+00 0.  1.
         11    1    1    2    0    0  0.18228775968E+02  0.28940336865E+02 -0.57888220449E+02  0.67237470490E+02  0.00000000000E+00 0. -1.
<mgrwt>
<rscale>  0 0.11438290E+03</rscale>
<asrwt>0</asrwt>
<pdfrwt beam="2">  1        2 0.43412389E-01 0.12696097E+03</pdfrwt>
<pdfrwt beam="1">  1       -2 0.60580983E-02 0.12696097E+03</pdfrwt>
<totfact> 0.15885700E+04</totfact>
</mgrwt>
</event>
<event>
 6    1  0.8353100E-006  0.2023359E+03  0.7546771E-02  0.1152226E+00
          2   -1    0    0  501    0  0.00000000000E+00  0.00000000000E+00  0.27563017127E+03  0.27563017127E+03  0.00000000000E+00 0. -1.
         -2   -1    0    0    0  501 -0.00000000000E+00 -0.00000000000E+00 -0.16707782018E+03  0.16707782018E+03  0.00000000000E+00 0.  1.
          5    1    1    2  502    0  0.71049164570E+01 -0.13685288841E+03  0.98396477736E+02  0.16876951661E+03  0.47000000000E+01 0. -1.
         -5    1    1    2    0  502  0.64523585367E+02 -0.52172737094E+01  0.56460372381E+02  0.86025441951E+02  0.47000000000E+01 0. -1.
        -11    1    1    2    0    0 -0.50546470299E+02  0.28493397797E+02  0.10850394739E+02  0.59030080838E+02  0.00000000000E+00 0.  1.
         11    1    1    2    0    0 -0.21082031524E+02  0.11357676432E+03 -0.57154893769E+02  0.12888295205E+03  0.00000000000E+00 0. -1.
<mgrwt>
<rscale>  0 0.19708036E+03</rscale>
<asrwt>0</asrwt>
<pdfrwt beam="1">  1        2 0.42404642E-01 0.20233593E+03</pdfrwt>
<pdfrwt beam="2">  1       -2 0.25704280E-01 0.20233593E+03</pdfrwt>
<totfact> 0.16086678E+03</totfact>
</mgrwt>
</event>
<event>
 6    1  0.8353100E-006  0.1762031E+03  0.7546771E-02  0.1179960E+00
          2   -1    0    0  501    0  0.00000000000E+00  0.00000000000E+00  0.86629236700E+02  0.86629236700E+02  0.00000000000E+00 0. -1.
         -2   -1    0    0    0  501 -0.00000000000E+00 -0.00000000000E+00 -0.30859566928E+03  0.30859566928E+03  0.00000000000E+00 0.  1.
          5    1    1    2  502    0 -0.88753658563E+02 -0.15654689202E+02 -0.35175753968E+02  0.96859201264E+02  0.47000000000E+01 0. -1.
         -5    1    1    2    0  502  0.29009348523E+02 -0.79959641204E+02 -0.50998202733E+02  0.99287427227E+02  0.47000000000E+01 0.  1.
        -11    1    1    2    0    0  0.45144827784E+02  0.78322372806E+01 -0.85135265256E+02  0.96682019045E+02  0.00000000000E+00 0.  1.
         11    1    1    2    0    0  0.14599482255E+02  0.87782093126E+02 -0.50657210627E+02  0.10239625845E+03  0.00000000000E+00 0. -1.
<mgrwt>
<rscale>  0 0.16798990E+03</rscale>
<asrwt>0</asrwt>
<pdfrwt beam="1">  1        2 0.13327575E-01 0.17620315E+03</pdfrwt>
<pdfrwt beam="2">  1       -2 0.47476256E-01 0.17620315E+03</pdfrwt>
<totfact> 0.18780611E+03</totfact>
</mgrwt>
</event>
<event>
 6    1  0.8353100E-006  0.2557964E+03  0.7546771E-02  0.1111985E+00
          3   -1    0    0  501    0  0.00000000000E+00  0.00000000000E+00  0.26617002446E+03  0.26617002446E+03  0.00000000000E+00 0. -1.
         -3   -1    0    0    0  501 -0.00000000000E+00 -0.00000000000E+00 -0.24183388569E+03  0.24183388569E+03  0.00000000000E+00 0.  1.
          5    1    1    2  502    0 -0.10920248117E+03 -0.14459379241E+03  0.92018487784E+02  0.20327823000E+03  0.47000000000E+01 0. -1.
         -5    1    1    2    0  502 -0.51887671529E+02 -0.98778797042E+01 -0.28618663047E+02  0.60257952494E+02  0.47000000000E+01 0. -1.
        -11    1    1    2    0    0  0.54322860577E+02  0.11416282606E+03 -0.10747727228E+02  0.12688434764E+03  0.00000000000E+00 0. -1.
         11    1    1    2    0    0  0.10676729212E+03  0.40308846053E+02 -0.28315958735E+02  0.11758338002E+03  0.00000000000E+00 0.  1.
<mgrwt>
<rscale>  0 0.25209954E+03</rscale>
<asrwt>0</asrwt>
<pdfrwt beam="1">  1        3 0.40949234E-01 0.25579637E+03</pdfrwt>
<pdfrwt beam="2">  1       -3 0.37205213E-01 0.25579637E+03</pdfrwt>
<totfact> 0.10572259E+02</totfact>
</mgrwt>
</event>
<event>
 6    1  0.8353100E-006  0.1500201E+03  0.7546771E-02  0.1215691E+00
         -1   -1    0    0    0  501 -0.00000000000E+00  0.00000000000E+00  0.64328108630E+03  0.64328108630E+03  0.00000000000E+00 0.  1.
          1   -1    0    0  501    0  0.00000000000E+00 -0.00000000000E+00 -0.63484701941E+02  0.63484701941E+02  0.00000000000E+00 0. -1.
          5    1    1    2  502    0 -0.73685217338E+02  0.33092627583E+02 -0.27101394483E+02  0.85329999633E+02  0.47000000000E+01 0. -1.
         -5    1    1    2    0  502  0.19863790875E+02 -0.10034411082E+02  0.65772164287E+02  0.69594016903E+02  0.47000000000E+01 0.  1.
        -11    1    1    2    0    0 -0.96805195929E+01  0.25540003059E+02  0.10827128295E+03  0.11166322101E+03  0.00000000000E+00 0. -1.
         11    1    1    2    0    0  0.63501946055E+02 -0.48598219560E+02  0.43285433161E+03  0.44017855069E+03  0.00000000000E+00 0.  1.
<mgrwt>
<rscale>  0 0.13825881E+03</rscale>
<asrwt>0</asrwt>
<pdfrwt beam="2">  1        1 0.97668777E-02 0.15002007E+03</pdfrwt>
<pdfrwt beam="1">  1       -1 0.98966317E-01 0.15002007E+03</pdfrwt>
<totfact> 0.67920469E+02</totfact>
</mgrwt>
</event>
<event>
 6    1  0.8353100E-006  0.2764870E+03  0.7546771E-02  0.1097623E+00
          1   -1    0    0  501    0  0.00000000000E+00  0.00000000000E+00  0.11145903516E+04  0.11145903516E+04  0.00000000000E+00 0. -1.
         -1   -1    0    0    0  501 -0.00000000000E+00 -0.00000000000E+00 -0.17146450474E+02  0.17146450474E+02  0.00000000000E+00 0.  1.
          5    1    1    2  502    0  0.82101865174E+02  0.11186015970E+02  0.27732590446E+03  0.28947813476E+03  0.47000000000E+01 0.  1.
         -5    1    1    2    0  502 -0.12230744503E+02 -0.22933474240E+02  0.52136231105E+03  0.52203092316E+03  0.47000000000E+01 0.  1.
        -11    1    1    2    0    0 -0.58227341300E+02 -0.26358287102E+02  0.24569341598E+03  0.25387090663E+03  0.00000000000E+00 0. -1.
         11    1    1    2    0    0 -0.11643779371E+02  0.38105745373E+02  0.53062269638E+02  0.66356837535E+02  0.00000000000E+00 0.  1.
<mgrwt>
<rscale>  0 0.27648702E+03</rscale>
<asrwt>0</asrwt>
<pdfrwt beam="1">  1        1 0.17147538E+00 0.27648702E+03</pdfrwt>
<pdfrwt beam="2">  1       -1 0.26379163E-02 0.27648702E+03</pdfrwt>
<totfact> 0.60069768E+03</totfact>
</mgrwt>
</event>
<event>
 6    1  0.8353100E-006  0.1388054E+03  0.7546771E-02  0.1219037E+00
          1   -1    0    0  501    0  0.00000000000E+00  0.00000000000E+00  0.57290867539E+03  0.57290867539E+03  0.00000000000E+00 0. -1.
         -1   -1    0    0    0  501 -0.00000000000E+00 -0.00000000000E+00 -0.31237511072E+02  0.31237511072E+02  0.00000000000E+00 0.  1.
          5    1    1    2  502    0  0.88766845816E+02 -0.16075393215E+02  0.13996637018E+03  0.16658525134E+03  0.47000000000E+01 0. -1.
         -5    1    1    2    0  502 -0.28660850481E+02  0.10652805537E+02  0.17352966800E+03  0.17626560156E+03  0.47000000000E+01 0. -1.
        -11    1    1    2    0    0 -0.79164919827E+02  0.34239278168E+02  0.12031886603E+03  0.14804067760E+03  0.00000000000E+00 0. -1.
         11    1    1    2    0    0  0.19058924492E+02 -0.28816690490E+02  0.10785626010E+03  0.11325465596E+03  0.00000000000E+00 0.  1.
<mgrwt>
<rscale>  0 0.13584143E+03</rscale>
<asrwt>0</asrwt>
<pdfrwt beam="1">  1        1 0.88139788E-01 0.13880541E+03</pdfrwt>
<pdfrwt beam="2">  1       -1 0.48057714E-02 0.13880541E+03</pdfrwt>
<totfact> 0.67428684E+03</totfact>
</mgrwt>
</event>
<event>
 6    1  0.8353100E-006  0.2014662E+03  0.7546771E-02  0.1152515E+00
         -2   -1    0    0    0  501 -0.00000000000E+00  0.00000000000E+00  0.49312494979E+03  0.49312494979E+03  0.00000000000E+00 0.  1.
          2   -1    0    0  501    0  0.00000000000E+00 -0.00000000000E+00 -0.77323986438E+02  0.77323986438E+02  0.00000000000E+00 0. -1.
          5    1    1    2  502    0 -0.25508161676E+02  0.72516021510E+01  0.59869688918E+02  0.65648470637E+02  0.47000000000E+01 0. -1.
         -5    1    1    2    0  502  0.66382706153E+01 -0.16412021275E+03  0.10850745323E+03  0.19691487571E+03  0.47000000000E+01 0. -1.
        -11    1    1    2    0    0  0.77620028779E+01 -0.84098438699E+01  0.17436502180E+01  0.11576462269E+02  0.00000000000E+00 0. -1.
         11    1    1    2    0    0  0.11107888183E+02  0.16527845447E+03  0.24568017098E+03  0.29630912761E+03  0.00000000000E+00 0.  1.
<mgrwt>
<rscale>  0 0.19674500E+03</rscale>
<asrwt>0</asrwt>
<pdfrwt beam="2">  1        2 0.11895998E-01 0.20146625E+03</pdfrwt>
<pdfrwt beam="1">  1       -2 0.75865375E-01 0.20146625E+03</pdfrwt>
<totfact> 0.82079687E+02</totfact>
</mgrwt>
</event>
<event>
 6    1  0.8353100E-006  0.1449920E+03  0.7546771E-02  0.1217008E+00
          2   -1    0    0  501    0  0.00000000000E+00  0.00000000000E+00  0.34424124507E+03  0.34424124507E+03  0.00000000000E+00 0. -1.
         -2   -1    0    0    0  501 -0.00000000000E+00 -0.00000000000E+00 -0.70932339938E+02  0.70932339938E+02  0.00000000000E+00 0.  1.
          5    1    1    2  502    0  0.36277408004E+02 -0.11572025341E+02  0.64337120608E+02  0.74908725727E+02  0.47000000000E+01 0.  1.
         -5    1    1    2    0  502 -0.10569977582E+03 -0.12454525181E+02  0.19583698678E+03  0.22293894500E+03  0.47000000000E+01 0.  1.
        -11    1    1    2    0    0  0.81005135587E+02 -0.24147225306E+01 -0.81649631278E+01  0.81451393476E+02  0.00000000000E+00 0.  1.
         11    1    1    2    0    0 -0.11582767768E+02  0.26441273053E+02  0.21299760871E+02  0.35874520805E+02  0.00000000000E+00 0. -1.
<mgrwt>
<rscale>  0 0.13730038E+03</rscale>
<asrwt>0</asrwt>
<pdfrwt beam="1">  1        2 0.52960191E-01 0.14499196E+03</pdfrwt>
<pdfrwt beam="2">  1       -2 0.10912668E-01 0.14499196E+03</pdfrwt>
<totfact> 0.52254432E+03</totfact>
</mgrwt>
</event>
<event>
 6    1  0.8353100E-006  0.1374765E+03  0.7546771E-02  0.1228324E+00
          1   -1    0    0  501    0  0.00000000000E+00  0.00000000000E+00  0.26147918196E+03  0.26147918196E+03  0.00000000000E+00 0. -1.
         -1   -1    0    0    0  501 -0.00000000000E+00 -0.00000000000E+00 -0.57680127859E+02  0.57680127859E+02  0.00000000000E+00 0.  1.
          5    1    1    2  502    0  0.13220568470E+02  0.45177413607E+02  0.75565135561E+02  0.89151342352E+02  0.47000000000E+01 0. -1.
         -5    1    1    2    0  502 -0.70362272931E+02 -0.42064439378E+02  0.44616609846E+02  0.93450513034E+02  0.47000000000E+01 0. -1.
        -11    1    1    2    0    0 -0.60307455639E+01 -0.16322158600E+02  0.67952326453E+02  0.70144860280E+02  0.00000000000E+00 0. -1.
         11    1    1    2    0    0  0.63172450025E+02  0.13209184371E+02  0.15664982244E+02  0.66412594156E+02  0.00000000000E+00 0.  1.
<mgrwt>
<rscale>  0 0.12941673E+03</rscale>
<asrwt>0</asrwt>
<pdfrwt beam="1">  1        1 0.40227566E-01 0.13747649E+03</pdfrwt>
<pdfrwt beam="2">  1       -1 0.88738660E-02 0.13747649E+03</pdfrwt>
<totfact> 0.72821757E+03</totfact>
</mgrwt>
</event>
<event>
 6    1  0.8353100E-006  0.2664081E+03  0.7546771E-02  0.1105483E+00
         -1   -1    0    0    0  501 -0.00000000000E+00  0.00000000000E+00  0.38112706710E+03  0.38112706710E+03  0.00000000000E+00 0.  1.
          1   -1    0    0  501    0  0.00000000000E+00 -0.00000000000E+00 -0.30607688027E+03  0.30607688027E+03  0.00000000000E+00 0. -1.
          5    1    1    2  502    0 -0.48859212898E+02  0.11413876340E+03 -0.67562626770E+02  0.14142729061E+03  0.47000000000E+01 0.  1.
         -5    1    1    2    0  502 -0.13677610545E+03  0.30404950817E+02 -0.11790490391E+03  0.18318247848E+03  0.47000000000E+01 0.  1.
        -11    1    1    2    0    0  0.99843005662E+02 -0.57244211712E+02  0.18769400573E+03  0.22016940146E+03  0.00000000000E+00 0.  1.
         11    1    1    2    0    0  0.85792312683E+02 -0.87299502501E+02  0.72823711779E+02  0.14242477681E+03  0.00000000000E+00 0. -1.
<mgrwt>
<rscale>  0 0.26278288E+03</rscale>
<asrwt>0</asrwt>
<pdfrwt beam="2">  1        1 0.47088751E-01 0.26640814E+03</pdfrwt>
<pdfrwt beam="1">  1       -1 0.58634933E-01 0.26640814E+03</pdfrwt>
<totfact> 0.26155282E+02</totfact>
</mgrwt>
</event>
<event>
 6    1  0.8353100E-006  0.1556319E+03  0.7546771E-02  0.1202171E+00
         -2   -1    0    0    0  501 -0.00000000000E+00  0.00000000000E+00  0.87428997426E+03  0.87428997426E+03  0.00000000000E+00 0.  1.
          2   -1    0    0  501    0  0.00000000000E+00 -0.00000000000E+00 -0.23255505282E+02  0.23255505282E+02  0.00000000000E+00 0. -1.
          5    1    1    2  502    0  0.98886516325E+02 -0.37191478805E+02  0.35947017218E+03  0.37470340791E+03  0.47000000000E+01 0.  1.
         -5    1    1    2    0  502 -0.65222573228E+01  0.45368271584E+02  0.93070002455E+02  0.10385054292E+03  0.47000000000E+01 0.  1.
        -11    1    1    2    0    0 -0.15106412122E+02  0.36200214791E+02  0.14857308070E+03  0.15366398259E+03  0.00000000000E+00 0.  1.
         11    1    1    2    0    0 -0.77257846880E+02 -0.44377007570E+02  0.24992121364E+03  0.26532754613E+03  0.00000000000E+00 0. -1.
<mgrwt>
<rscale>  0 0.14862635E+03</rscale>
<asrwt>0</asrwt>
<pdfrwt beam="2">  1        2 0.35777707E-02 0.15563185E+03</pdfrwt>
<pdfrwt beam="1">  1       -2 0.13450612E+00 0.15563185E+03</pdfrwt>
<totfact> 0.10069345E+03</totfact>
</mgrwt>
</event>
<event>
 6    1  0.8353100E-006  0.1902171E+03  0.7546771E-02  0.1164410E+00
         -1   -1    0    0    0  501 -0.00000000000E+00  0.00000000000E+00  0.89257232814E+03  0.89257232814E+03  0.00000000000E+00 0.  1.
          1   -1    0    0  501    0  0.00000000000E+00 -0.00000000000E+00 -0.39370373475E+02  0.39370373475E+02  0.00000000000E+00 0. -1.
          5    1    1    2  502    0  0.51111588055E+01  0.78203280456E+02  0.17839027109E+03  0.19490268300E+03  0.47000000000E+01 0. -1.
         -5    1    1    2    0  502 -0.10108952224E+03  0.28324034023E+02  0.12646221129E+03  0.16442665020E+03  0.47000000000E+01 0. -1.
        -11    1    1    2    0    0  0.54399657192E+02 -0.86811306597E+02  0.47577448157E+03  0.48667944580E+03  0.00000000000E+00 0.  1.
         11    1    1    2    0    0  0.41578706245E+02 -0.19716007882E+02  0.72574990719E+02  0.85933922625E+02  0.00000000000E+00 0. -1.
<mgrwt>
<rscale>  0 0.18355072E+03</rscale>
<asrwt>0</asrwt>
<pdfrwt beam="2">  1        1 0.60569812E-02 0.19021707E+03</pdfrwt>
<pdfrwt beam="1">  1       -1 0.13731880E+00 0.19021707E+03</pdfrwt>
<totfact> 0.60367736E+02</totfact>
</mgrwt>
</event>
<event>
 6    1  0.8353100E-006  0.1518961E+03  0.7546771E-02  0.1204846E+00
         -1   -1    0    0    0  501 -0.00000000000E+00  0.00000000000E+00  0.56526099541E+02  0.56526099541E+02  0.00000000000E+00 0.  1.
          1   -1    0    0  501    0  0.00000000000E+00 -0.00000000000E+00 -0.46957270162E+03  0.46957270162E+03  0.00000000000E+00 0. -1.
          5    1    1    2  502    0 -0.41726996894E+02  0.33815030879E+02 -0.29232353357E+03  0.29725365744E+03  0.47000000000E+01 0. -1.
         -5    1    1    2    0  502  0.31136985507E+02  0.51829266788E+02 -0.55159520949E+02  0.81978335635E+02  0.47000000000E+01 0. -1.
        -11    1    1    2    0    0 -0.23850404673E+02 -0.78072923218E+02 -0.11673790278E+02  0.82465147319E+02  0.00000000000E+00 0.  1.
         11    1    1    2    0    0  0.34440416061E+02 -0.75713744484E+01 -0.53889757274E+02  0.64401660759E+02  0.00000000000E+00 0. -1.
<mgrwt>
<rscale>  0 0.14649594E+03</rscale>
<asrwt>0</asrwt>
<pdfrwt beam="2">  1        1 0.72241953E-01 0.15189612E+03</pdfrwt>
<pdfrwt beam="1">  1       -1 0.86963232E-02 0.15189612E+03</pdfrwt>
<totfact> 0.36221953E+03</totfact>
</mgrwt>
</event>
<event>
 6    1  0.8353100E-006  0.2800971E+03  0.7546771E-02  0.1097454E+00
         -4   -1    0    0    0  501 -0.00000000000E+00  0.00000000000E+00  0.99380771255E+02  0.99380771255E+02  0.00000000000E+00 0.  1.
          4   -1    0    0  501    0  0.00000000000E+00 -0.00000000000E+00 -0.79654813777E+03  0.79654813777E+03  0.00000000000E+00 0. -1.
          5    1    1    2  502    0  0.22479111950E+03 -0.25812802933E+02 -0.45825643502E+03  0.51109529292E+03  0.47000000000E+01 0.  1.
         -5    1    1    2    0  502  0.22291318928E+02 -0.16370856994E+02 -0.25611181904E+01  0.28170147048E+02  0.47000000000E+01 0.  1.
        -11    1    1    2    0    0 -0.13625384266E+03 -0.21955783383E+02 -0.13833590484E+03  0.19540723792E+03  0.00000000000E+00 0.  1.
         11    1    1    2    0    0 -0.11082859577E+03  0.64139443311E+02 -0.98013908462E+02  0.16125623114E+03  0.00000000000E+00 0. -1.
<mgrwt>
<rscale>  0 0.27679223E+03</rscale>
<asrwt>0</asrwt>
<pdfrwt beam="2">  1        4 0.12254586E+00 0.28009712E+03</pdfrwt>
<pdfrwt beam="1">  1       -4 0.15289350E-01 0.28009712E+03</pdfrwt>
<totfact> 0.35274410E+01</totfact>
</mgrwt>
</event>
<event>
 6    1  0.8353100E-006  0.1252845E+03  0.7546771E-02  0.1249272E+00
          2   -1    0    0  501    0  0.00000000000E+00  0.00000000000E+00  0.61972025165E+03  0.61972025165E+03  0.00000000000E+00 0. -1.
         -2   -1    0    0    0  501 -0.00000000000E+00 -0.00000000000E+00 -0.21035982234E+02  0.21035982234E+02  0.00000000000E+00 0.  1.
          5    1    1    2  502    0  0.27423859154E+02  0.22029533287E+02  0.30070986280E+02  0.46515831753E+02  0.47000000000E+01 0. -1.
         -5    1    1    2    0  502 -0.29666100471E+02 -0.13556093775E+02  0.40211364000E+03  0.40346166444E+03  0.47000000000E+01 0. -1.
        -11    1    1    2    0    0  0.30028301792E+02 -0.67364126473E+01  0.15899326968E+03  0.16194424339E+03  0.00000000000E+00 0. -1.
         11    1    1    2    0    0 -0.27786060476E+02 -0.17370268641E+01  0.75063734488E+01  0.28834494298E+02  0.00000000000E+00 0.  1.
<mgrwt>
<rscale>  0 0.11633297E+03</rscale>
<asrwt>0</asrwt>
<pdfrwt beam="1">  1        2 0.95341563E-01 0.12528446E+03</pdfrwt>
<pdfrwt beam="2">  1       -2 0.32363054E-02 0.12528446E+03</pdfrwt>
<totfact> 0.17267453E+04</totfact>
</mgrwt>
</event>
<event>
 6    1  0.8353100E-006  0.1277438E+03  0.7546771E-02  0.1233717E+00
          2   -1    0    0  501    0  0.00000000000E+00  0.00000000000E+00  0.31175550551E+03  0.31175550551E+03  0.00000000000E+00 0. -1.
         -2   -1    0    0    0  501 -0.00000000000E+00 -0.00000000000E+00 -0.70526542875E+02  0.70526542875E+02  0.00000000000E+00 0.  1.
          5    1    1    2  502    0  0.26269154064E+02 -0.53887780332E+01 -0.48445732020E+01  0.27652617841E+02  0.47000000000E+01 0.  1.
         -5    1    1    2    0  502 -0.11271844456E+02 -0.16207760506E+02  0.23258293632E+03  0.23346661056E+03  0.47000000000E+01 0.  1.
        -11    1    1    2    0    0  0.24781354354E+02 -0.35177544810E+02  0.26633085388E+02  0.50605300313E+02  0.00000000000E+00 0. -1.
         11    1    1    2    0    0 -0.39778663962E+02  0.56774083349E+02 -0.13142485876E+02  0.70557519668E+02  0.00000000000E+00 0.  1.
<mgrwt>
<rscale>  0 0.12586939E+03</rscale>
<asrwt>0</asrwt>
<pdfrwt beam="1">  1        2 0.47962385E-01 0.12774384E+03</pdfrwt>
<pdfrwt beam="2">  1       -2 0.10850238E-01 0.12774384E+03</pdfrwt>
<totfact> 0.58141844E+03</totfact>
</mgrwt>
</event>
<event>
 6    1  0.9051628E-006  0.3157661E+03  0.7546771E-02  0.1077615E+00
         -1   -1    0    0    0  501 -0.00000000000E+00  0.00000000000E+00  0.40068830354E+02  0.40068830354E+02  0.00000000000E+00 0.  1.
          1   -1    0    0  501    0  0.00000000000E+00 -0.00000000000E+00 -0.62210595941E+03  0.62210595941E+03  0.00000000000E+00 0. -1.
          5    1    1    2  502    0 -0.10194370483E+03 -0.73643410623E+02 -0.29663509810E+03  0.32222715948E+03  0.47000000000E+01 0. -1.
         -5    1    1    2    0  502  0.36132490738E+00  0.38683500885E+02 -0.93420344147E+02  0.10122249995E+03  0.47000000000E+01 0. -1.
        -11    1    1    2    0    0  0.65024798660E+02 -0.23643860678E+02 -0.69248261190E+02  0.97890644427E+02  0.00000000000E+00 0.  1.
         11    1    1    2    0    0  0.36557581264E+02  0.58603770417E+02 -0.12273342562E+03  0.14083448590E+03  0.00000000000E+00 0. -1.
<mgrwt>
<rscale>  0 0.31576610E+03</rscale>
<asrwt>0</asrwt>
<pdfrwt beam="2">  1        1 0.95708615E-01 0.31576610E+03</pdfrwt>
<pdfrwt beam="1">  1       -1 0.61644350E-02 0.31576610E+03</pdfrwt>
<totfact> 0.42907556E+03</totfact>
</mgrwt>
</event>
<event>
 6    1  0.8353100E-006  0.1303132E+03  0.7546771E-02  0.1237682E+00
          1   -1    0    0  501    0  0.00000000000E+00  0.00000000000E+00  0.37260855991E+03  0.37260855991E+03  0.00000000000E+00 0. -1.
         -1   -1    0    0    0  501 -0.00000000000E+00 -0.00000000000E+00 -0.38573944166E+02  0.38573944166E+02  0.00000000000E+00 0.  1.
          5    1    1    2  502    0  0.48133972348E+02 -0.37719570518E+02  0.76549047009E+02  0.98089203749E+02  0.47000000000E+01 0.  1.
         -5    1    1    2    0  502 -0.19835258036E+02  0.61290966183E+02  0.14901232807E+03  0.16240930982E+03  0.47000000000E+01 0.  1.
        -11    1    1    2    0    0  0.86483145514E+00 -0.47034737754E+02  0.10250023790E+03  0.11277993287E+03  0.00000000000E+00 0. -1.
         11    1    1    2    0    0 -0.29163545768E+02  0.23463342089E+02  0.59730027644E+01  0.37904057642E+02  0.00000000000E+00 0.  1.
<mgrwt>
<rscale>  0 0.12334306E+03</rscale>
<asrwt>0</asrwt>
<pdfrwt beam="1">  1        1 0.57324391E-01 0.13031324E+03</pdfrwt>
<pdfrwt beam="2">  1       -1 0.59344532E-02 0.13031324E+03</pdfrwt>
<totfact> 0.85544960E+03</totfact>
</mgrwt>
</event>
<event>
 6    1  0.8353100E-006  0.1323866E+03  0.7546771E-02  0.1237946E+00
          2   -1    0    0  501    0  0.00000000000E+00  0.00000000000E+00  0.16484816525E+04  0.16484816525E+04  0.00000000000E+00 0.  1.
         -2   -1    0    0    0  501 -0.00000000000E+00 -0.00000000000E+00 -0.92117442927E+01  0.92117442927E+01  0.00000000000E+00 0. -1.
          5    1    1    2  502    0  0.64349830406E+02 -0.41752966269E+02  0.78275156238E+03  0.78651529500E+03  0.47000000000E+01 0.  1.
         -5    1    1    2    0  502 -0.54152683290E+02 -0.64925700491E+00  0.42136017499E+03  0.42485223515E+03  0.47000000000E+01 0.  1.
        -11    1    1    2    0    0 -0.48772498842E+02  0.30873603668E+02  0.22086310890E+03  0.22828151244E+03  0.00000000000E+00 0.  1.
         11    1    1    2    0    0  0.38575351725E+02  0.11528619606E+02  0.21429506193E+03  0.21804435420E+03  0.00000000000E+00 0. -1.
<mgrwt>
<rscale>  0 0.12317720E+03</rscale>
<asrwt>0</asrwt>
<pdfrwt beam="1">  1        2 0.25361233E+00 0.13238662E+03</pdfrwt>
<pdfrwt beam="2">  1       -2 0.14171927E-02 0.13238662E+03</pdfrwt>
<totfact> 0.14158189E+04</totfact>
</mgrwt>
</event>
<event>
 6    1  0.8353100E-006  0.2214070E+03  0.7546771E-02  0.1135498E+00
          2   -1    0    0  501    0  0.00000000000E+00  0.00000000000E+00  0.14613766513E+04  0.14613766513E+04  0.00000000000E+00 0. -1.
         -2   -1    0    0    0  501 -0.00000000000E+00 -0.00000000000E+00 -0.31658772671E+02  0.31658772671E+02  0.00000000000E+00 0.  1.
          5    1    1    2  502    0 -0.23702985403E+02  0.10243430701E+03  0.20801037633E+03  0.23312019524E+03  0.47000000000E+01 0.  1.
         -5    1    1    2    0  502 -0.12648895481E+02  0.76666083013E+02  0.58720691333E+03  0.59234426806E+03  0.47000000000E+01 0.  1.
        -11    1    1    2    0    0  0.74627345440E+01 -0.68298865615E+02  0.40829078427E+03  0.41403114856E+03  0.00000000000E+00 0. -1.
         11    1    1    2    0    0  0.28889146340E+02 -0.11080152441E+03  0.22620980474E+03  0.25353981215E+03  0.00000000000E+00 0.  1.
<mgrwt>
<rscale>  0 0.21784756E+03</rscale>
<asrwt>0</asrwt>
<pdfrwt beam="1">  1        2 0.22482712E+00 0.22140696E+03</pdfrwt>
<pdfrwt beam="2">  1       -2 0.48705815E-02 0.22140696E+03</pdfrwt>
<totfact> 0.29143068E+03</totfact>
</mgrwt>
</event>
<event>
 6    1  0.8353100E-006  0.1672134E+03  0.7546771E-02  0.1192024E+00
         -1   -1    0    0    0  501 -0.00000000000E+00  0.00000000000E+00  0.48101282851E+03  0.48101282851E+03  0.00000000000E+00 0.  1.
          1   -1    0    0  501    0  0.00000000000E+00 -0.00000000000E+00 -0.14155864481E+03  0.14155864481E+03  0.00000000000E+00 0. -1.
          5    1    1    2  502    0 -0.19052306185E+02  0.40907348727E+01 -0.96845134778E+02  0.98897899942E+02  0.47000000000E+01 0. -1.
         -5    1    1    2    0  502 -0.35597242149E+02 -0.75800938684E+02  0.18293667732E+02  0.85846923260E+02  0.47000000000E+01 0.  1.
        -11    1    1    2    0    0 -0.19095936312E+02 -0.87962019484E+01  0.63493322363E+02  0.66883704571E+02  0.00000000000E+00 0. -1.
         11    1    1    2    0    0  0.73745484646E+02  0.80506405760E+02  0.35451232838E+03  0.37094294555E+03  0.00000000000E+00 0.  1.
<mgrwt>
<rscale>  0 0.15708784E+03</rscale>
<asrwt>0</asrwt>
<pdfrwt beam="2">  1        1 0.21778253E-01 0.16721339E+03</pdfrwt>
<pdfrwt beam="1">  1       -1 0.74001973E-01 0.16721339E+03</pdfrwt>
<totfact> 0.44028753E+02</totfact>
</mgrwt>
</event>
<event>
 6    1  0.8353100E-006  0.2653582E+03  0.7546771E-02  0.1103966E+00
          1   -1    0    0  501    0  0.00000000000E+00  0.00000000000E+00  0.72718529459E+03  0.72718529459E+03  0.00000000000E+00 0. -1.
         -1   -1    0    0    0  501 -0.00000000000E+00 -0.00000000000E+00 -0.24208059076E+02  0.24208059076E+02  0.00000000000E+00 0.  1.
          5    1    1    2  502    0  0.51444655706E+01 -0.74479380759E+01  0.32109756409E+00  0.10204430961E+02  0.47000000000E+01 0. -1.
         -5    1    1    2    0  502 -0.23643722139E+02  0.46349968169E+02  0.58324617713E+03  0.58558136777E+03  0.47000000000E+01 0.  1.
        -11    1    1    2    0    0  0.40679987013E+01 -0.66085382586E+02  0.63243956271E+02  0.91562134148E+02  0.00000000000E+00 0. -1.
         11    1    1    2    0    0  0.14431257867E+02  0.27183352493E+02  0.56166004547E+02  0.64045420782E+02  0.00000000000E+00 0.  1.
<mgrwt>
<rscale>  0 0.26535821E+03</rscale>
<asrwt>0</asrwt>
<pdfrwt beam="1">  1        1 0.11187464E+00 0.26535821E+03</pdfrwt>
<pdfrwt beam="2">  1       -1 0.37243173E-02 0.26535821E+03</pdfrwt>
<totfact> 0.72593075E+03</totfact>
</mgrwt>
</event>
<event>
 6    1  0.8353100E-006  0.1694896E+03  0.7546771E-02  0.1183237E+00
         -1   -1    0    0    0  501 -0.00000000000E+00  0.00000000000E+00  0.22371493963E+02  0.22371493963E+02  0.00000000000E+00 0.  1.
          1   -1    0    0  501    0  0.00000000000E+00 -0.00000000000E+00 -0.13669731815E+04  0.13669731815E+04  0.00000000000E+00 0. -1.
          5    1    1    2  502    0 -0.63997021427E+02 -0.48158613292E+01 -0.75518183837E+03  0.75791853802E+03  0.47000000000E+01 0. -1.
         -5    1    1    2    0  502 -0.22980879232E+02 -0.69582504844E+02 -0.22132581521E+03  0.23318887681E+03  0.47000000000E+01 0. -1.
        -11    1    1    2    0    0  0.66779218010E+02  0.90772111772E+02 -0.34673487782E+03  0.36458759678E+03  0.00000000000E+00 0.  1.
         11    1    1    2    0    0  0.20198682649E+02 -0.16373745598E+02 -0.21359156129E+02  0.33649663835E+02  0.00000000000E+00 0. -1.
<mgrwt>
<rscale>  0 0.16493317E+03</rscale>
<asrwt>0</asrwt>
<pdfrwt beam="2">  1        1 0.21030356E+00 0.16948956E+03</pdfrwt>
<pdfrwt beam="1">  1       -1 0.34417683E-02 0.16948956E+03</pdfrwt>
<totfact> 0.26909752E+03</totfact>
</mgrwt>
</event>
<event>
 6    1  0.8353100E-006  0.1311943E+03  0.7546771E-02  0.1238910E+00
         -1   -1    0    0    0  501 -0.00000000000E+00  0.00000000000E+00  0.12634782663E+03  0.12634782663E+03  0.00000000000E+00 0.  1.
          1   -1    0    0  501    0  0.00000000000E+00 -0.00000000000E+00 -0.11907610907E+03  0.11907610907E+03  0.00000000000E+00 0. -1.
          5    1    1    2  502    0  0.40594450829E+02  0.39551953567E+02 -0.66686588285E+02  0.87643924640E+02  0.47000000000E+01 0. -1.
         -5    1    1    2    0  502 -0.37913032459E+02  0.19944729457E+00  0.30009417364E+02  0.48580787766E+02  0.47000000000E+01 0. -1.
        -11    1    1    2    0    0 -0.91208051061E+01 -0.47776467517E+02  0.67673472185E+02  0.83339539066E+02  0.00000000000E+00 0.  1.
         11    1    1    2    0    0  0.64393867355E+01  0.80250666557E+01 -0.23724583706E+02  0.25859684228E+02  0.00000000000E+00 0. -1.
<mgrwt>
<rscale>  0 0.12257394E+03</rscale>
<asrwt>0</asrwt>
<pdfrwt beam="2">  1        1 0.18319401E-01 0.13119435E+03</pdfrwt>
<pdfrwt beam="1">  1       -1 0.19438127E-01 0.13119435E+03</pdfrwt>
<totfact> 0.57453998E+03</totfact>
</mgrwt>
</event>
<event>
 6    1  0.8353100E-006  0.1289025E+03  0.7546771E-02  0.1248476E+00
          2   -1    0    0  501    0  0.00000000000E+00  0.00000000000E+00  0.64424846053E+03  0.64424846053E+03  0.00000000000E+00 0. -1.
         -2   -1    0    0    0  501 -0.00000000000E+00 -0.00000000000E+00 -0.18082942086E+02  0.18082942086E+02  0.00000000000E+00 0.  1.
          5    1    1    2  502    0 -0.34947600220E+02  0.56116889746E+02  0.17276335696E+03  0.18503974595E+03  0.47000000000E+01 0.  1.
         -5    1    1    2    0  502  0.40114142634E+01 -0.61902749234E+02  0.19234886397E+03  0.20215889117E+03  0.47000000000E+01 0.  1.
        -11    1    1    2    0    0  0.53287095242E+02 -0.65091705410E+01  0.22264123224E+03  0.22902183764E+03  0.00000000000E+00 0. -1.
         11    1    1    2    0    0 -0.22350909285E+02  0.12295030029E+02  0.38412065276E+02  0.46110927859E+02  0.00000000000E+00 0.  1.
<mgrwt>
<rscale>  0 0.11679754E+03</rscale>
<asrwt>0</asrwt>
<pdfrwt beam="1">  1        2 0.99115130E-01 0.12890249E+03</pdfrwt>
<pdfrwt beam="2">  1       -2 0.27819916E-02 0.12890249E+03</pdfrwt>
<totfact> 0.20666924E+04</totfact>
</mgrwt>
</event>
<event>
 6    1  0.8353100E-006  0.1279919E+03  0.7546771E-02  0.1245221E+00
          2   -1    0    0  501    0  0.00000000000E+00  0.00000000000E+00  0.98392993396E+02  0.98392993396E+02  0.00000000000E+00 0. -1.
         -2   -1    0    0    0  501 -0.00000000000E+00 -0.00000000000E+00 -0.13044916827E+03  0.13044916827E+03  0.00000000000E+00 0.  1.
          5    1    1    2  502    0  0.58285059701E+02  0.22043287718E+02  0.17969717147E+02  0.65023499230E+02  0.47000000000E+01 0.  1.
         -5    1    1    2    0  502 -0.41905104072E+02 -0.44137202292E+02 -0.15546282458E+02  0.62991326956E+02  0.47000000000E+01 0.  1.
        -11    1    1    2    0    0 -0.78632951589E+01 -0.87334746517E+01  0.28149862446E+02  0.30504421745E+02  0.00000000000E+00 0. -1.
         11    1    1    2    0    0 -0.85166604701E+01  0.30827389226E+02 -0.62629472013E+02  0.70322913738E+02  0.00000000000E+00 0.  1.
<mgrwt>
<rscale>  0 0.11872170E+03</rscale>
<asrwt>0</asrwt>
<pdfrwt beam="1">  1        2 0.15137384E-01 0.12799189E+03</pdfrwt>
<pdfrwt beam="2">  1       -2 0.20069103E-01 0.12799189E+03</pdfrwt>
<totfact> 0.75750355E+03</totfact>
</mgrwt>
</event>
<event>
 6    1  0.8353100E-006  0.1592560E+03  0.7546771E-02  0.1199599E+00
          1   -1    0    0  501    0  0.00000000000E+00  0.00000000000E+00  0.73079019442E+03  0.73079019442E+03  0.00000000000E+00 0. -1.
         -1   -1    0    0    0  501 -0.00000000000E+00 -0.00000000000E+00 -0.32896891161E+02  0.32896891161E+02  0.00000000000E+00 0.  1.
          5    1    1    2  502    0 -0.41864973524E+01 -0.61040631543E+02  0.51467245373E+03  0.51831776941E+03  0.47000000000E+01 0. -1.
         -5    1    1    2    0  502 -0.18557732072E+02 -0.21673771027E+02  0.10983612086E+02  0.30933339694E+02  0.47000000000E+01 0.  1.
        -11    1    1    2    0    0  0.54698926214E+02  0.35837640145E+02  0.12306235406E+03  0.13935799929E+03  0.00000000000E+00 0.  1.
         11    1    1    2    0    0 -0.31954696790E+02  0.46876762425E+02  0.49174883391E+02  0.75077977189E+02  0.00000000000E+00 0. -1.
<mgrwt>
<rscale>  0 0.15071357E+03</rscale>
<asrwt>0</asrwt>
<pdfrwt beam="1">  1        1 0.11242925E+00 0.15925602E+03</pdfrwt>
<pdfrwt beam="2">  1       -1 0.50610607E-02 0.15925602E+03</pdfrwt>
<totfact> 0.44726556E+03</totfact>
</mgrwt>
</event>
<event>
 6    1  0.8353100E-006  0.1359337E+03  0.7546771E-02  0.1231083E+00
         -1   -1    0    0    0  501 -0.00000000000E+00  0.00000000000E+00  0.15676072513E+03  0.15676072513E+03  0.00000000000E+00 0.  1.
          1   -1    0    0  501    0  0.00000000000E+00 -0.00000000000E+00 -0.12774797045E+03  0.12774797045E+03  0.00000000000E+00 0. -1.
          5    1    1    2  502    0 -0.31029092231E+02  0.86583431084E+02 -0.57286400946E+02  0.10845882553E+03  0.47000000000E+01 0.  1.
         -5    1    1    2    0  502  0.17377320504E+02 -0.34950821133E+02 -0.68528024796E+00  0.39320360817E+02  0.47000000000E+01 0.  1.
        -11    1    1    2    0    0  0.49592676087E+02 -0.41086446806E+02  0.37017005221E+02  0.74281816807E+02  0.00000000000E+00 0.  1.
         11    1    1    2    0    0 -0.35940904360E+02 -0.10546163145E+02  0.49967430647E+02  0.62447692421E+02  0.00000000000E+00 0. -1.
<mgrwt>
<rscale>  0 0.12758533E+03</rscale>
<asrwt>0</asrwt>
<pdfrwt beam="2">  1        1 0.19653534E-01 0.13593370E+03</pdfrwt>
<pdfrwt beam="1">  1       -1 0.24117035E-01 0.13593370E+03</pdfrwt>
<totfact> 0.37138305E+03</totfact>
</mgrwt>
</event>
<event>
 6    1  0.8353100E-006  0.1628999E+03  0.7546771E-02  0.1192670E+00
         -1   -1    0    0    0  501 -0.00000000000E+00  0.00000000000E+00  0.29469059553E+02  0.29469059553E+02  0.00000000000E+00 0.  1.
          1   -1    0    0  501    0  0.00000000000E+00 -0.00000000000E+00 -0.77273436378E+03  0.77273436378E+03  0.00000000000E+00 0. -1.
          5    1    1    2  502    0 -0.11004078642E+02  0.27905580507E+02 -0.61524865733E+02  0.68609112176E+02  0.47000000000E+01 0.  1.
         -5    1    1    2    0  502  0.90001559457E+02 -0.96250444590E+02 -0.34500803841E+03  0.36934680905E+03  0.47000000000E+01 0.  1.
        -11    1    1    2    0    0  0.15932368450E+01 -0.19552388086E+02 -0.45961668891E+02  0.49973085663E+02  0.00000000000E+00 0.  1.
         11    1    1    2    0    0 -0.80590717660E+02  0.87897252169E+02 -0.29077073120E+03  0.31427441645E+03  0.00000000000E+00 0. -1.
<mgrwt>
<rscale>  0 0.15653096E+03</rscale>
<asrwt>0</asrwt>
<pdfrwt beam="2">  1        1 0.11888222E+00 0.16289993E+03</pdfrwt>
<pdfrwt beam="1">  1       -1 0.45337010E-02 0.16289993E+03</pdfrwt>
<totfact> 0.48534758E+03</totfact>
</mgrwt>
</event>
<event>
 6    1  0.8353100E-006  0.1251086E+03  0.7546771E-02  0.1250049E+00
         -4   -1    0    0    0  501 -0.00000000000E+00  0.00000000000E+00  0.17222615540E+03  0.17222615540E+03  0.00000000000E+00 0.  1.
          4   -1    0    0  501    0  0.00000000000E+00 -0.00000000000E+00 -0.93718492395E+02  0.93718492395E+02  0.00000000000E+00 0. -1.
          5    1    1    2  502    0 -0.56052325068E+02 -0.11731451393E+02 -0.36583829948E+02  0.68117227711E+02  0.47000000000E+01 0. -1.
         -5    1    1    2    0  502  0.55573014962E+02  0.16807558887E+02  0.11775612202E+02  0.59427342785E+02  0.47000000000E+01 0. -1.
        -11    1    1    2    0    0  0.30790975282E+02  0.31602891027E+02  0.56027214157E+02  0.71315325185E+02  0.00000000000E+00 0. -1.
         11    1    1    2    0    0 -0.30311665175E+02 -0.36678998521E+02  0.47288666595E+02  0.67084752116E+02  0.00000000000E+00 0.  1.
<mgrwt>
<rscale>  0 0.11588242E+03</rscale>
<asrwt>0</asrwt>
<pdfrwt beam="2">  1        4 0.14418230E-01 0.12510863E+03</pdfrwt>
<pdfrwt beam="1">  1       -4 0.26496332E-01 0.12510863E+03</pdfrwt>
<totfact> 0.88187074E+02</totfact>
</mgrwt>
</event>
<event>
 6    1  0.8353100E-006  0.1465609E+03  0.7546771E-02  0.1214663E+00
          2   -1    0    0  501    0  0.00000000000E+00  0.00000000000E+00  0.14061524263E+04  0.14061524263E+04  0.00000000000E+00 0.  1.
         -2   -1    0    0    0  501 -0.00000000000E+00 -0.00000000000E+00 -0.15001146504E+02  0.15001146504E+02  0.00000000000E+00 0. -1.
          5    1    1    2  502    0 -0.28066421137E+02  0.48383362610E+02  0.57675749839E+03  0.57948250683E+03  0.47000000000E+01 0. -1.
         -5    1    1    2    0  502  0.83945021120E+02  0.38845362694E+01  0.46853282477E+03  0.47603251368E+03  0.47000000000E+01 0. -1.
        -11    1    1    2    0    0  0.23573432138E+02 -0.25198068054E+02  0.91784648099E+02  0.98056468236E+02  0.00000000000E+00 0. -1.
         11    1    1    2    0    0 -0.79452032120E+02 -0.27069830825E+02  0.25407630854E+03  0.26758208406E+03  0.00000000000E+00 0.  1.
<mgrwt>
<rscale>  0 0.13901354E+03</rscale>
<asrwt>0</asrwt>
<pdfrwt beam="1">  1        2 0.21633104E+00 0.14656090E+03</pdfrwt>
<pdfrwt beam="2">  1       -2 0.23078698E-02 0.14656090E+03</pdfrwt>
<totfact> 0.93787175E+03</totfact>
</mgrwt>
</event>
<event>
 6    1  0.8353100E-006  0.1256259E+03  0.7546771E-02  0.1249026E+00
         -2   -1    0    0    0  501 -0.00000000000E+00  0.00000000000E+00  0.46703297583E+03  0.46703297583E+03  0.00000000000E+00 0.  1.
          2   -1    0    0  501    0  0.00000000000E+00 -0.00000000000E+00 -0.25912799622E+02  0.25912799622E+02  0.00000000000E+00 0. -1.
          5    1    1    2  502    0  0.29890761476E+02 -0.28676896232E+01  0.25830676897E+03  0.26008875055E+03  0.47000000000E+01 0.  1.
         -5    1    1    2    0  502 -0.42272406951E+02  0.80556458329E+00  0.23847863564E+02  0.48769005734E+02  0.47000000000E+01 0.  1.
        -11    1    1    2    0    0  0.31785078194E+00  0.31202221712E+02  0.14712888027E+03  0.15040141981E+03  0.00000000000E+00 0.  1.
         11    1    1    2    0    0  0.12063794693E+02 -0.29140096672E+02  0.11836663403E+02  0.33686599367E+02  0.00000000000E+00 0. -1.
<mgrwt>
<rscale>  0 0.11647629E+03</rscale>
<asrwt>0</asrwt>
<pdfrwt beam="2">  1        2 0.39865849E-02 0.12562594E+03</pdfrwt>
<pdfrwt beam="1">  1       -2 0.71851221E-01 0.12562594E+03</pdfrwt>
<totfact> 0.36320626E+03</totfact>
</mgrwt>
</event>
<event>
 6    1  0.8353100E-006  0.1471618E+03  0.7546771E-02  0.1213497E+00
          2   -1    0    0  501    0  0.00000000000E+00  0.00000000000E+00  0.25649428605E+02  0.25649428605E+02  0.00000000000E+00 0. -1.
         -2   -1    0    0    0  501 -0.00000000000E+00 -0.00000000000E+00 -0.69754532212E+03  0.69754532212E+03  0.00000000000E+00 0.  1.
          5    1    1    2  502    0 -0.29041341509E+02  0.86573774948E+02 -0.35014542058E+03  0.36188716968E+03  0.47000000000E+01 0. -1.
         -5    1    1    2    0  502  0.18588129751E+02 -0.96160548201E+01 -0.42751815880E+01  0.21871311245E+02  0.47000000000E+01 0. -1.
        -11    1    1    2    0    0  0.45368688525E+02 -0.71631710759E+02 -0.22381407259E+03  0.23933691519E+03  0.00000000000E+00 0.  1.
         11    1    1    2    0    0 -0.34915476767E+02 -0.53260093694E+01 -0.93661218754E+02  0.10009935460E+03  0.00000000000E+00 0. -1.
<mgrwt>
<rscale>  0 0.13987537E+03</rscale>
<asrwt>0</asrwt>
<pdfrwt beam="1">  1        2 0.39460668E-02 0.14716184E+03</pdfrwt>
<pdfrwt beam="2">  1       -2 0.10731464E+00 0.14716184E+03</pdfrwt>
<totfact> 0.15178051E+03</totfact>
</mgrwt>
</event>
<event>
 6    1  0.8353100E-006  0.1232784E+03  0.7546771E-02  0.1245842E+00
          4   -1    0    0  501    0  0.00000000000E+00  0.00000000000E+00  0.83591130774E+03  0.83591130774E+03  0.00000000000E+00 0. -1.
         -4   -1    0    0    0  501 -0.00000000000E+00 -0.00000000000E+00 -0.33951064967E+02  0.33951064967E+02  0.00000000000E+00 0.  1.
          5    1    1    2  502    0  0.53636590238E+02 -0.51462897887E+02  0.41917810750E+03  0.42574368988E+03  0.47000000000E+01 0. -1.
         -5    1    1    2    0  502 -0.48185546791E+02  0.25797388158E+01  0.31648575753E+03  0.32017780481E+03  0.47000000000E+01 0.  1.
        -11    1    1    2    0    0 -0.62588680361E+01  0.76432518695E+02  0.43451398317E+02  0.88142653460E+02  0.00000000000E+00 0.  1.
         11    1    1    2    0    0  0.80782458901E+00 -0.27549359624E+02  0.22844979427E+02  0.35798224554E+02  0.00000000000E+00 0. -1.
<mgrwt>
<rscale>  0 0.11835097E+03</rscale>
<asrwt>0</asrwt>
<pdfrwt beam="1">  1        4 0.12860172E+00 0.12327836E+03</pdfrwt>
<pdfrwt beam="2">  1       -4 0.52232414E-02 0.12327836E+03</pdfrwt>
<totfact> 0.17169377E+02</totfact>
</mgrwt>
</event>
<event>
 6    1  0.8353100E-006  0.1318171E+03  0.7546771E-02  0.1234654E+00
         -3   -1    0    0    0  501 -0.00000000000E+00  0.00000000000E+00  0.67567639655E+02  0.67567639655E+02  0.00000000000E+00 0.  1.
          3   -1    0    0  501    0  0.00000000000E+00 -0.00000000000E+00 -0.22565669995E+03  0.22565669995E+03  0.00000000000E+00 0. -1.
          5    1    1    2  502    0  0.25329953454E+02  0.42780791114E+02 -0.15528026101E+02  0.52297344339E+02  0.47000000000E+01 0. -1.
         -5    1    1    2    0  502  0.70947260713E+01 -0.69109664977E+02 -0.10706211812E+03  0.12771400889E+03  0.47000000000E+01 0. -1.
        -11    1    1    2    0    0  0.13802762024E+02  0.35449643500E+01  0.28008228251E+02  0.31425210604E+02  0.00000000000E+00 0.  1.
         11    1    1    2    0    0 -0.46227441549E+02  0.22783909514E+02 -0.63507144328E+02  0.81787775771E+02  0.00000000000E+00 0. -1.
<mgrwt>
<rscale>  0 0.12526636E+03</rscale>
<asrwt>0</asrwt>
<pdfrwt beam="2">  1        3 0.34716416E-01 0.13181708E+03</pdfrwt>
<pdfrwt beam="1">  1       -3 0.10395021E-01 0.13181708E+03</pdfrwt>
<totfact> 0.12917911E+03</totfact>
</mgrwt>
</event>
<event>
 6    1  0.8353100E-006  0.1338582E+03  0.7546771E-02  0.1236154E+00
          2   -1    0    0  501    0  0.00000000000E+00  0.00000000000E+00  0.37208553013E+03  0.37208553013E+03  0.00000000000E+00 0. -1.
         -2   -1    0    0    0  501 -0.00000000000E+00 -0.00000000000E+00 -0.36606754750E+02  0.36606754750E+02  0.00000000000E+00 0.  1.
          5    1    1    2  502    0 -0.33493205804E+02 -0.23135062147E+02  0.92900167179E+02  0.10153598868E+03  0.47000000000E+01 0. -1.
         -5    1    1    2    0  502  0.78716524707E+02  0.38883328399E+02  0.98562288220E+02  0.13207883687E+03  0.47000000000E+01 0. -1.
        -11    1    1    2    0    0  0.82277447660E+01 -0.13661003803E+02 -0.50308285472E+01  0.16722082547E+02  0.00000000000E+00 0.  1.
         11    1    1    2    0    0 -0.53451063669E+02 -0.20872624493E+01  0.14904714852E+03  0.15835537678E+03  0.00000000000E+00 0. -1.
<mgrwt>
<rscale>  0 0.12430846E+03</rscale>
<asrwt>0</asrwt>
<pdfrwt beam="1">  1        2 0.57243925E-01 0.13385819E+03</pdfrwt>
<pdfrwt beam="2">  1       -2 0.56318087E-02 0.13385819E+03</pdfrwt>
<totfact> 0.13292926E+04</totfact>
</mgrwt>
</event>
<event>
 6    1  0.8353100E-006  0.1262014E+03  0.7546771E-02  0.1241273E+00
          1   -1    0    0  501    0  0.00000000000E+00  0.00000000000E+00  0.15592438771E+03  0.15592438771E+03  0.00000000000E+00 0. -1.
         -1   -1    0    0    0  501 -0.00000000000E+00 -0.00000000000E+00 -0.10108763124E+03  0.10108763124E+03  0.00000000000E+00 0.  1.
          5    1    1    2  502    0 -0.64160091804E+01  0.23208396681E+02  0.98178061425E+02  0.10119691989E+03  0.47000000000E+01 0. -1.
         -5    1    1    2    0  502  0.15047271252E+02 -0.38220797556E+02 -0.21369804042E+02  0.46540393883E+02  0.47000000000E+01 0. -1.
        -11    1    1    2    0    0 -0.32857243687E+02  0.39552675557E+02 -0.44568444203E+02  0.68046740003E+02  0.00000000000E+00 0.  1.
         11    1    1    2    0    0  0.24225981616E+02 -0.24540274681E+02  0.22596943286E+02  0.41227965176E+02  0.00000000000E+00 0. -1.
<mgrwt>
<rscale>  0 0.12111219E+03</rscale>
<asrwt>0</asrwt>
<pdfrwt beam="1">  1        1 0.23988368E-01 0.12620145E+03</pdfrwt>
<pdfrwt beam="2">  1       -1 0.15551943E-01 0.12620145E+03</pdfrwt>
<totfact> 0.57992435E+03</totfact>
</mgrwt>
</event>
<event>
 6    1  0.8353100E-006  0.2052990E+03  0.7546771E-02  0.1149212E+00
         -2   -1    0    0    0  501 -0.00000000000E+00  0.00000000000E+00  0.44427084042E+02  0.44427084042E+02  0.00000000000E+00 0.  1.
          2   -1    0    0  501    0  0.00000000000E+00 -0.00000000000E+00 -0.91714994059E+03  0.91714994059E+03  0.00000000000E+00 0. -1.
          5    1    1    2  502    0 -0.44699145047E+02  0.45911913678E+02 -0.76549795864E+02  0.99939374784E+02  0.47000000000E+01 0. -1.
         -5    1    1    2    0  502  0.40096858333E+01  0.11176957670E+03 -0.49105501371E+03  0.50365229310E+03  0.47000000000E+01 0. -1.
        -11    1    1    2    0    0 -0.10684824735E+02 -0.54339218703E+02 -0.17742865480E+03  0.18587050254E+03  0.00000000000E+00 0.  1.
         11    1    1    2    0    0  0.51374283948E+02 -0.10334227167E+03 -0.12768939217E+03  0.17211485420E+03  0.00000000000E+00 0. -1.
<mgrwt>
<rscale>  0 0.20062553E+03</rscale>
<asrwt>0</asrwt>
<pdfrwt beam="2">  1        2 0.14109997E+00 0.20529901E+03</pdfrwt>
<pdfrwt beam="1">  1       -2 0.68349368E-02 0.20529901E+03</pdfrwt>
<totfact> 0.35517065E+03</totfact>
</mgrwt>
</event>
<event>
 6    1  0.8353100E-006  0.1626944E+03  0.7546771E-02  0.1189333E+00
          1   -1    0    0  501    0  0.00000000000E+00  0.00000000000E+00  0.57394568919E+03  0.57394568919E+03  0.00000000000E+00 0. -1.
         -1   -1    0    0    0  501 -0.00000000000E+00 -0.00000000000E+00 -0.43560462255E+02  0.43560462255E+02  0.00000000000E+00 0.  1.
          5    1    1    2  502    0 -0.65024202970E+02 -0.20804297141E+02  0.63370804142E+02  0.93267971828E+02  0.47000000000E+01 0. -1.
         -5    1    1    2    0  502 -0.50703142927E+02  0.45818285219E+02  0.25799800349E+03  0.26693666621E+03  0.47000000000E+01 0.  1.
        -11    1    1    2    0    0  0.98443679156E+02 -0.54549157107E+02  0.13502424931E+03  0.17577916944E+03  0.00000000000E+00 0. -1.
         11    1    1    2    0    0  0.17283666741E+02  0.29535169028E+02  0.73992169998E+02  0.81522343971E+02  0.00000000000E+00 0.  1.
<mgrwt>
<rscale>  0 0.15943783E+03</rscale>
<asrwt>0</asrwt>
<pdfrwt beam="1">  1        1 0.88299332E-01 0.16269441E+03</pdfrwt>
<pdfrwt beam="2">  1       -1 0.67016100E-02 0.16269441E+03</pdfrwt>
<totfact> 0.41301413E+03</totfact>
</mgrwt>
</event>
<event>
 6    1  0.8353100E-006  0.1250638E+03  0.7546771E-02  0.1251752E+00
          2   -1    0    0  501    0  0.00000000000E+00  0.00000000000E+00  0.15856254188E+02  0.15856254188E+02  0.00000000000E+00 0. -1.
         -2   -1    0    0    0  501 -0.00000000000E+00 -0.00000000000E+00 -0.75812032467E+03  0.75812032467E+03  0.00000000000E+00 0.  1.
          5    1    1    2  502    0 -0.13256271986E+02 -0.52693827850E+02 -0.12308276321E+03  0.13462475567E+03  0.47000000000E+01 0. -1.
         -5    1    1    2    0  502  0.15864071566E+02  0.49620067843E+02 -0.38940239380E+03  0.39289964902E+03  0.47000000000E+01 0. -1.
        -11    1    1    2    0    0  0.38141345089E+02  0.76777046059E+01 -0.16695695423E+03  0.17143025964E+03  0.00000000000E+00 0.  1.
         11    1    1    2    0    0 -0.40749144668E+02 -0.46039445985E+01 -0.62821959238E+02  0.75021914529E+02  0.00000000000E+00 0. -1.
<mgrwt>
<rscale>  0 0.11490226E+03</rscale>
<asrwt>0</asrwt>
<pdfrwt beam="1">  1        2 0.24394238E-02 0.12506383E+03</pdfrwt>
<pdfrwt beam="2">  1       -2 0.11663389E+00 0.12506383E+03</pdfrwt>
<totfact> 0.23513395E+03</totfact>
</mgrwt>
</event>
<event>
 6    1  0.8353100E-006  0.2382872E+03  0.7546771E-02  0.1125693E+00
          2   -1    0    0  501    0  0.00000000000E+00  0.00000000000E+00  0.83558620601E+02  0.83558620601E+02  0.00000000000E+00 0. -1.
         -2   -1    0    0    0  501 -0.00000000000E+00 -0.00000000000E+00 -0.10130265106E+04  0.10130265106E+04  0.00000000000E+00 0.  1.
          5    1    1    2  502    0 -0.74050531647E+02  0.87920809032E+02 -0.82094032198E+01  0.11533878012E+03  0.47000000000E+01 0. -1.
         -5    1    1    2    0  502 -0.90554449606E+02  0.30658509388E+02 -0.12570467076E+03  0.15799938858E+03  0.47000000000E+01 0. -1.
        -11    1    1    2    0    0  0.81082137930E+02 -0.28128545094E+02 -0.26305278326E+03  0.27669892468E+03  0.00000000000E+00 0.  1.
         11    1    1    2    0    0  0.83522843323E+02 -0.90450773326E+02 -0.53250103277E+03  0.54654803783E+03  0.00000000000E+00 0. -1.
<mgrwt>
<rscale>  0 0.23135091E+03</rscale>
<asrwt>0</asrwt>
<pdfrwt beam="1">  1        2 0.12855171E-01 0.23828717E+03</pdfrwt>
<pdfrwt beam="2">  1       -2 0.15585025E+00 0.23828717E+03</pdfrwt>
<totfact> 0.13522506E+02</totfact>
</mgrwt>
</event>
<event>
 6    1  0.8353100E-006  0.2202285E+03  0.7546771E-02  0.1137063E+00
          2   -1    0    0  501    0  0.00000000000E+00  0.00000000000E+00  0.12979532371E+04  0.12979532371E+04  0.00000000000E+00 0. -1.
         -2   -1    0    0    0  501 -0.00000000000E+00 -0.00000000000E+00 -0.34505181704E+02  0.34505181704E+02  0.00000000000E+00 0.  1.
          5    1    1    2  502    0  0.34602321060E+02  0.30686725524E+02  0.29826348788E+03  0.30186452914E+03  0.47000000000E+01 0.  1.
         -5    1    1    2    0  502 -0.36579036953E+02  0.15062094125E+03  0.35087675617E+03  0.38361606054E+03  0.47000000000E+01 0.  1.
        -11    1    1    2    0    0  0.10611816165E+02 -0.29979205423E+02  0.31423397416E+02  0.44707866257E+02  0.00000000000E+00 0.  1.
         11    1    1    2    0    0 -0.86351002722E+01 -0.15132846135E+03  0.58288441393E+03  0.60226996287E+03  0.00000000000E+00 0. -1.
<mgrwt>
<rscale>  0 0.21578709E+03</rscale>
<asrwt>0</asrwt>
<pdfrwt beam="1">  1        2 0.19968508E+00 0.22022848E+03</pdfrwt>
<pdfrwt beam="2">  1       -2 0.53084905E-02 0.22022848E+03</pdfrwt>
<totfact> 0.31351457E+03</totfact>
</mgrwt>
</event>
<event>
 6    1  0.8353100E-006  0.2380465E+03  0.7546771E-02  0.1123950E+00
          4   -1    0    0  501    0  0.00000000000E+00  0.00000000000E+00  0.10014435575E+04  0.10014435575E+04  0.00000000000E+00 0.  1.
         -4   -1    0    0    0  501 -0.00000000000E+00 -0.00000000000E+00 -0.55410706550E+02  0.55410706550E+02  0.00000000000E+00 0. -1.
          5    1    1    2  502    0 -0.13599871812E+03  0.17047014037E+03  0.56386736928E+03  0.60458599077E+03  0.47000000000E+01 0. -1.
         -5    1    1    2    0  502  0.15837034562E+01 -0.18895504106E+02  0.40269824144E+02  0.44758205155E+02  0.47000000000E+01 0. -1.
        -11    1    1    2    0    0  0.89190036749E+01  0.12326341699E+02  0.26764923126E+02  0.30787147256E+02  0.00000000000E+00 0.  1.
         11    1    1    2    0    0  0.12549601099E+03 -0.16390097797E+03  0.31513073444E+03  0.37672292091E+03  0.00000000000E+00 0. -1.
<mgrwt>
<rscale>  0 0.23386266E+03</rscale>
<asrwt>0</asrwt>
<pdfrwt beam="1">  1        4 0.15406823E+00 0.23804650E+03</pdfrwt>
<pdfrwt beam="2">  1       -4 0.85247249E-02 0.23804650E+03</pdfrwt>
<totfact> 0.53302765E+01</totfact>
</mgrwt>
</event>
<event>
 6    1  0.8353100E-006  0.1560283E+03  0.7546771E-02  0.1201551E+00
         -1   -1    0    0    0  501 -0.00000000000E+00  0.00000000000E+00  0.33981973546E+03  0.33981973546E+03  0.00000000000E+00 0.  1.
          1   -1    0    0  501    0  0.00000000000E+00 -0.00000000000E+00 -0.61814050955E+02  0.61814050955E+02  0.00000000000E+00 0. -1.
          5    1    1    2  502    0 -0.23060332136E+02  0.31929296465E+01 -0.23111630380E+02  0.33139269406E+02  0.47000000000E+01 0.  1.
         -5    1    1    2    0  502 -0.29966803034E+02  0.73673828447E+02  0.14274331671E+03  0.16347350473E+03  0.47000000000E+01 0.  1.
        -11    1    1    2    0    0 -0.20063397716E+02 -0.60704230130E+01  0.59722486526E+02  0.63294275889E+02  0.00000000000E+00 0.  1.
         11    1    1    2    0    0  0.73090532886E+02 -0.70796335080E+02  0.98651511652E+02  0.14172673640E+03  0.00000000000E+00 0. -1.
<mgrwt>
<rscale>  0 0.14912586E+03</rscale>
<asrwt>0</asrwt>
<pdfrwt beam="2">  1        1 0.95098542E-02 0.15602834E+03</pdfrwt>
<pdfrwt beam="1">  1       -1 0.52279958E-01 0.15602834E+03</pdfrwt>
<totfact> 0.25288256E+03</totfact>
</mgrwt>
</event>
<event>
 6    1  0.8353100E-006  0.1616302E+03  0.7546771E-02  0.1212510E+00
          1   -1    0    0  501    0  0.00000000000E+00  0.00000000000E+00  0.88079597130E+02  0.88079597130E+02  0.00000000000E+00 0. -1.
         -1   -1    0    0    0  501 -0.00000000000E+00 -0.00000000000E+00 -0.18380994805E+03  0.18380994805E+03  0.00000000000E+00 0.  1.
          5    1    1    2  502    0 -0.53558836049E+02  0.58115512806E+02 -0.61692897348E+02  0.10036964347E+03  0.47000000000E+01 0. -1.
         -5    1    1    2    0  502  0.42435963164E+02 -0.55417408934E+02  0.68974643032E+01  0.70296267301E+02  0.47000000000E+01 0.  1.
        -11    1    1    2    0    0 -0.28118836641E+02  0.29476154994E+02 -0.25996020857E+02  0.48325001683E+02  0.00000000000E+00 0. -1.
         11    1    1    2    0    0  0.39241709526E+02 -0.32174258865E+02 -0.14938897019E+02  0.52898632725E+02  0.00000000000E+00 0.  1.
<mgrwt>
<rscale>  0 0.14061057E+03</rscale>
<asrwt>0</asrwt>
<pdfrwt beam="1">  1        1 0.13550707E-01 0.16163018E+03</pdfrwt>
<pdfrwt beam="2">  1       -1 0.28278453E-01 0.16163018E+03</pdfrwt>
<totfact> 0.46572850E+03</totfact>
</mgrwt>
</event>
<event>
 6    1  0.8353100E-006  0.1252080E+03  0.7546771E-02  0.1245589E+00
          1   -1    0    0  501    0  0.00000000000E+00  0.00000000000E+00  0.12362685717E+03  0.12362685717E+03  0.00000000000E+00 0. -1.
         -1   -1    0    0    0  501 -0.00000000000E+00 -0.00000000000E+00 -0.10637662332E+03  0.10637662332E+03  0.00000000000E+00 0.  1.
          5    1    1    2  502    0 -0.57054171808E+02 -0.48773006128E+01 -0.30904311958E+02  0.65239045667E+02  0.47000000000E+01 0. -1.
         -5    1    1    2    0  502  0.43077533976E+02 -0.37065596367E+02  0.20033967071E+02  0.60439905726E+02  0.47000000000E+01 0.  1.
        -11    1    1    2    0    0  0.47578167520E+02  0.19786964441E+01  0.75912654835E+01  0.48220582491E+02  0.00000000000E+00 0.  1.
         11    1    1    2    0    0 -0.33601529688E+02  0.39964200536E+02  0.20529313250E+02  0.56103946602E+02  0.00000000000E+00 0. -1.
<mgrwt>
<rscale>  0 0.11850199E+03</rscale>
<asrwt>0</asrwt>
<pdfrwt beam="1">  1        1 0.19019516E-01 0.12520796E+03</pdfrwt>
<pdfrwt beam="2">  1       -1 0.16365634E-01 0.12520796E+03</pdfrwt>
<totfact> 0.71723613E+03</totfact>
</mgrwt>
</event>
<event>
 6    1  0.8353100E-006  0.1260054E+03  0.7546771E-02  0.1248549E+00
          1   -1    0    0  501    0  0.00000000000E+00  0.00000000000E+00  0.10084130528E+03  0.10084130528E+03  0.00000000000E+00 0. -1.
         -1   -1    0    0    0  501 -0.00000000000E+00 -0.00000000000E+00 -0.12323120936E+03  0.12323120936E+03  0.00000000000E+00 0.  1.
          5    1    1    2  502    0  0.25998672690E+02 -0.13733422862E+02 -0.51544298256E+02  0.59526822256E+02  0.47000000000E+01 0.  1.
         -5    1    1    2    0  502 -0.29272309497E+02 -0.17988077366E+01  0.59774333502E+02  0.66747020594E+02  0.47000000000E+01 0.  1.
        -11    1    1    2    0    0 -0.35070240846E+02 -0.14554188359E+01  0.12866431187E+02  0.37384289327E+02  0.00000000000E+00 0. -1.
         11    1    1    2    0    0  0.38343877654E+02  0.16987649434E+02 -0.43486370516E+02  0.60414382455E+02  0.00000000000E+00 0.  1.
<mgrwt>
<rscale>  0 0.11675466E+03</rscale>
<asrwt>0</asrwt>
<pdfrwt beam="1">  1        1 0.15514047E-01 0.12600536E+03</pdfrwt>
<pdfrwt beam="2">  1       -1 0.18958647E-01 0.12600536E+03</pdfrwt>
<totfact> 0.73787098E+03</totfact>
</mgrwt>
</event>
<event>
 6    1  0.8353100E-006  0.1278291E+03  0.7546771E-02  0.1255049E+00
          2   -1    0    0  501    0  0.00000000000E+00  0.00000000000E+00  0.80635827433E+02  0.80635827433E+02  0.00000000000E+00 0. -1.
         -2   -1    0    0    0  501 -0.00000000000E+00 -0.00000000000E+00 -0.13177567570E+03  0.13177567570E+03  0.00000000000E+00 0.  1.
          5    1    1    2  502    0  0.44980128954E+02  0.37024796936E+02  0.91091817612E+01  0.59153315894E+02  0.47000000000E+01 0.  1.
         -5    1    1    2    0  502 -0.59608114417E+02 -0.14588560536E+02 -0.36570761918E+02  0.71592346170E+02  0.47000000000E+01 0.  1.
        -11    1    1    2    0    0 -0.87033062984E+00 -0.12207627299E+02 -0.48864691553E+02  0.50374018306E+02  0.00000000000E+00 0.  1.
         11    1    1    2    0    0  0.15498316093E+02 -0.10228609101E+02  0.25186423444E+02  0.31291822762E+02  0.00000000000E+00 0. -1.
<mgrwt>
<rscale>  0 0.11303568E+03</rscale>
<asrwt>0</asrwt>
<pdfrwt beam="1">  1        2 0.12405512E-01 0.12782914E+03</pdfrwt>
<pdfrwt beam="2">  1       -2 0.20273181E-01 0.12782914E+03</pdfrwt>
<totfact> 0.94191228E+03</totfact>
</mgrwt>
</event>
<event>
 6    1  0.8353100E-006  0.1431191E+03  0.7546771E-02  0.1218172E+00
         -2   -1    0    0    0  501 -0.00000000000E+00  0.00000000000E+00  0.13203229145E+02  0.13203229145E+02  0.00000000000E+00 0.  1.
          2   -1    0    0  501    0  0.00000000000E+00 -0.00000000000E+00 -0.22133279705E+04  0.22133279705E+04  0.00000000000E+00 0. -1.
          5    1    1    2  502    0  0.44929993157E+02 -0.85688707061E+02 -0.96454776942E+03  0.96939968450E+03  0.47000000000E+01 0. -1.
         -5    1    1    2    0  502  0.37820444388E+00  0.32673920836E+02 -0.91223483427E+03  0.91283197304E+03  0.47000000000E+01 0. -1.
        -11    1    1    2    0    0  0.28160555621E+02  0.16936232784E+02 -0.58496171489E+02  0.67094373480E+02  0.00000000000E+00 0.  1.
         11    1    1    2    0    0 -0.73468753222E+02  0.36078553441E+02 -0.26484596618E+03  0.27720516864E+03  0.00000000000E+00 0. -1.
<mgrwt>
<rscale>  0 0.13646091E+03</rscale>
<asrwt>0</asrwt>
<pdfrwt beam="2">  1        2 0.34051154E+00 0.14311908E+03</pdfrwt>
<pdfrwt beam="1">  1       -2 0.20312688E-02 0.14311908E+03</pdfrwt>
<totfact> 0.43256524E+03</totfact>
</mgrwt>
</event>
<event>
 6    1  0.8353100E-006  0.1457149E+03  0.7546771E-02  0.1215230E+00
         -1   -1    0    0    0  501 -0.00000000000E+00  0.00000000000E+00  0.32878357143E+03  0.32878357143E+03  0.00000000000E+00 0.  1.
          1   -1    0    0  501    0  0.00000000000E+00 -0.00000000000E+00 -0.12529540096E+03  0.12529540096E+03  0.00000000000E+00 0. -1.
          5    1    1    2  502    0 -0.51707591120E+02 -0.29549961143E+02  0.22808996604E+02  0.63946974198E+02  0.47000000000E+01 0.  1.
         -5    1    1    2    0  502 -0.23164623442E+02  0.28583955803E+02 -0.88368392237E+02  0.95836866889E+02  0.47000000000E+01 0.  1.
        -11    1    1    2    0    0  0.28908145748E+02 -0.95965064065E+01  0.11647978434E+02  0.32610569259E+02  0.00000000000E+00 0. -1.
         11    1    1    2    0    0  0.45964068814E+02  0.10562511746E+02  0.25739958768E+03  0.26168456204E+03  0.00000000000E+00 0.  1.
<mgrwt>
<rscale>  0 0.13859644E+03</rscale>
<asrwt>0</asrwt>
<pdfrwt beam="2">  1        1 0.19276216E-01 0.14571493E+03</pdfrwt>
<pdfrwt beam="1">  1       -1 0.50582088E-01 0.14571493E+03</pdfrwt>
<totfact> 0.10652657E+03</totfact>
</mgrwt>
</event>
<event>
 6    1  0.8353100E-006  0.2140289E+03  0.7546771E-02  0.1141984E+00
         -2   -1    0    0    0  501 -0.00000000000E+00  0.00000000000E+00  0.80831009594E+02  0.80831009594E+02  0.00000000000E+00 0.  1.
          2   -1    0    0  501    0  0.00000000000E+00 -0.00000000000E+00 -0.65328377105E+03  0.65328377105E+03  0.00000000000E+00 0. -1.
          5    1    1    2  502    0 -0.10406152943E+03 -0.12092843444E+03 -0.41033133760E+03  0.44027989368E+03  0.47000000000E+01 0.  1.
         -5    1    1    2    0  502  0.28074812109E+02 -0.35305884011E+02 -0.50789685262E+02  0.68090988022E+02  0.47000000000E+01 0.  1.
        -11    1    1    2    0    0 -0.14522783469E+02  0.43879913422E+02 -0.52465237230E+02  0.69921092377E+02  0.00000000000E+00 0.  1.
         11    1    1    2    0    0  0.90509500793E+02  0.11235440503E+03 -0.58866501365E+02  0.15582280656E+03  0.00000000000E+00 0. -1.
<mgrwt>
<rscale>  0 0.20947356E+03</rscale>
<asrwt>0</asrwt>
<pdfrwt beam="2">  1        2 0.10050520E+00 0.21402887E+03</pdfrwt>
<pdfrwt beam="1">  1       -2 0.12435539E-01 0.21402887E+03</pdfrwt>
<totfact> 0.21154430E+03</totfact>
</mgrwt>
</event>
<event>
 6    1  0.8353100E-006  0.1287789E+03  0.7546771E-02  0.1242920E+00
          1   -1    0    0  501    0  0.00000000000E+00  0.00000000000E+00  0.16373181402E+03  0.16373181402E+03  0.00000000000E+00 0. -1.
         -1   -1    0    0    0  501 -0.00000000000E+00 -0.00000000000E+00 -0.80010930266E+02  0.80010930266E+02  0.00000000000E+00 0.  1.
          5    1    1    2  502    0 -0.99066186430E+01  0.28892831836E+02 -0.28437212262E+02  0.41996450632E+02  0.47000000000E+01 0.  1.
         -5    1    1    2    0  502  0.37383386133E+02 -0.14577171165E+02  0.94425478078E+02  0.10270478269E+03  0.47000000000E+01 0.  1.
        -11    1    1    2    0    0  0.98854386751E+00 -0.21198957320E+02 -0.33717622877E+02  0.39840320065E+02  0.00000000000E+00 0.  1.
         11    1    1    2    0    0 -0.28465311357E+02  0.68832966489E+01  0.51450240815E+02  0.59201190894E+02  0.00000000000E+00 0. -1.
<mgrwt>
<rscale>  0 0.12010720E+03</rscale>
<asrwt>0</asrwt>
<pdfrwt beam="1">  1        1 0.25189510E-01 0.12877886E+03</pdfrwt>
<pdfrwt beam="2">  1       -1 0.12309374E-01 0.12877886E+03</pdfrwt>
<totfact> 0.78587705E+03</totfact>
</mgrwt>
</event>
<event>
 6    1  0.8353100E-006  0.1252346E+03  0.7546771E-02  0.1251327E+00
         -4   -1    0    0    0  501 -0.00000000000E+00  0.00000000000E+00  0.42386001078E+02  0.42386001078E+02  0.00000000000E+00 0.  1.
          4   -1    0    0  501    0  0.00000000000E+00 -0.00000000000E+00 -0.27732664922E+03  0.27732664922E+03  0.00000000000E+00 0. -1.
          5    1    1    2  502    0  0.14098691487E+02  0.52850164747E+00 -0.17730021974E+03  0.17792276508E+03  0.47000000000E+01 0. -1.
         -5    1    1    2    0  502 -0.12702890116E+02  0.68688549149E+01  0.18745331638E+02  0.24125133023E+02  0.47000000000E+01 0. -1.
        -11    1    1    2    0    0 -0.14429055564E+02 -0.45122478980E+02 -0.28339935569E+02  0.55203149383E+02  0.00000000000E+00 0.  1.
         11    1    1    2    0    0  0.13033254193E+02  0.37725122418E+02 -0.48045824477E+02  0.62461602813E+02  0.00000000000E+00 0. -1.
<mgrwt>
<rscale>  0 0.11514596E+03</rscale>
<asrwt>0</asrwt>
<pdfrwt beam="2">  1        4 0.42665637E-01 0.12523458E+03</pdfrwt>
<pdfrwt beam="1">  1       -4 0.65209234E-02 0.12523458E+03</pdfrwt>
<totfact> 0.13418036E+03</totfact>
</mgrwt>
</event>
<event>
 6    1  0.8353100E-006  0.1381016E+03  0.7546771E-02  0.1226057E+00
         -2   -1    0    0    0  501 -0.00000000000E+00  0.00000000000E+00  0.72702232581E+02  0.72702232581E+02  0.00000000000E+00 0.  1.
          2   -1    0    0  501    0  0.00000000000E+00 -0.00000000000E+00 -0.21581238712E+03  0.21581238712E+03  0.00000000000E+00 0. -1.
          5    1    1    2  502    0  0.84690214011E+01 -0.84662989213E+02 -0.10447889868E+03  0.13482387153E+03  0.47000000000E+01 0.  1.
         -5    1    1    2    0  502 -0.21070746037E+01  0.26301418402E+02  0.14039790389E+02  0.30255744703E+02  0.47000000000E+01 0.  1.
        -11    1    1    2    0    0 -0.32560660863E+02  0.64056300786E+02 -0.62142669216E+02  0.95000619175E+02  0.00000000000E+00 0. -1.
         11    1    1    2    0    0  0.26198714065E+02 -0.56947299760E+01  0.94716229693E+01  0.28434384288E+02  0.00000000000E+00 0.  1.
<mgrwt>
<rscale>  0 0.13094752E+03</rscale>
<asrwt>0</asrwt>
<pdfrwt beam="2">  1        2 0.33201905E-01 0.13810158E+03</pdfrwt>
<pdfrwt beam="1">  1       -2 0.11184959E-01 0.13810158E+03</pdfrwt>
<totfact> 0.82374006E+03</totfact>
</mgrwt>
</event>
<event>
 6    1  0.8353100E-006  0.1274336E+03  0.7546771E-02  0.1243409E+00
         -4   -1    0    0    0  501 -0.00000000000E+00  0.00000000000E+00  0.34583925142E+02  0.34583925142E+02  0.00000000000E+00 0.  1.
          4   -1    0    0  501    0  0.00000000000E+00 -0.00000000000E+00 -0.43513469485E+03  0.43513469485E+03  0.00000000000E+00 0. -1.
          5    1    1    2  502    0 -0.63337841544E+02 -0.13575785357E+02 -0.27792825129E+03  0.28541581418E+03  0.47000000000E+01 0. -1.
         -5    1    1    2    0  502  0.31077320256E+02 -0.21322058942E+02 -0.31913344294E+02  0.49608281324E+02  0.47000000000E+01 0.  1.
        -11    1    1    2    0    0  0.57101073068E+02  0.38965579130E+02 -0.44917224155E+02  0.82440317371E+02  0.00000000000E+00 0.  1.
         11    1    1    2    0    0 -0.24840551780E+02 -0.40677348315E+01 -0.45791949963E+02  0.52254207111E+02  0.00000000000E+00 0. -1.
<mgrwt>
<rscale>  0 0.11981100E+03</rscale>
<asrwt>0</asrwt>
<pdfrwt beam="2">  1        4 0.66943795E-01 0.12743363E+03</pdfrwt>
<pdfrwt beam="1">  1       -4 0.53206042E-02 0.12743363E+03</pdfrwt>
<totfact> 0.74133351E+02</totfact>
</mgrwt>
</event>
<event>
 6    1  0.8353100E-006  0.2950195E+03  0.7546771E-02  0.1087757E+00
         -2   -1    0    0    0  501 -0.00000000000E+00  0.00000000000E+00  0.30497348482E+02  0.30497348482E+02  0.00000000000E+00 0.  1.
          2   -1    0    0  501    0  0.00000000000E+00 -0.00000000000E+00 -0.71347611410E+03  0.71347611410E+03  0.00000000000E+00 0. -1.
          5    1    1    2  502    0 -0.44388756832E+02 -0.25612203234E+02 -0.19950441488E+03  0.20603506557E+03  0.47000000000E+01 0. -1.
         -5    1    1    2    0  502  0.43651710403E+02  0.66214619358E+02 -0.37138092971E+03  0.37978379716E+03  0.47000000000E+01 0. -1.
        -11    1    1    2    0    0 -0.49305693284E+02 -0.26114454687E+02 -0.77968640963E+02  0.95875570963E+02  0.00000000000E+00 0.  1.
         11    1    1    2    0    0  0.50042739713E+02 -0.14487961437E+02 -0.34124780072E+02  0.62279028891E+02  0.00000000000E+00 0. -1.
<mgrwt>
<rscale>  0 0.29501952E+03</rscale>
<asrwt>0</asrwt>
<pdfrwt beam="2">  1        2 0.10976555E+00 0.29501952E+03</pdfrwt>
<pdfrwt beam="1">  1       -2 0.46918999E-02 0.29501952E+03</pdfrwt>
<totfact> 0.88326745E+03</totfact>
</mgrwt>
</event>
<event>
 6    1  0.8353100E-006  0.1563833E+03  0.7546771E-02  0.1200825E+00
          2   -1    0    0  501    0  0.00000000000E+00  0.00000000000E+00  0.18510161280E+04  0.18510161280E+04  0.00000000000E+00 0. -1.
         -2   -1    0    0    0  501 -0.00000000000E+00 -0.00000000000E+00 -0.14435591479E+02  0.14435591479E+02  0.00000000000E+00 0.  1.
          5    1    1    2  502    0 -0.66554714938E+02 -0.10244048446E+03  0.12663957811E+04  0.12722829667E+04  0.47000000000E+01 0.  1.
         -5    1    1    2    0  502  0.19058930717E+02  0.21362910564E+02  0.15519462004E+03  0.15788311143E+03  0.47000000000E+01 0.  1.
        -11    1    1    2    0    0  0.11768177145E+02  0.84197386099E+02  0.35795284152E+03  0.36791021536E+03  0.00000000000E+00 0. -1.
         11    1    1    2    0    0  0.35727607075E+02 -0.31198121991E+01  0.57037293853E+02  0.67375425977E+02  0.00000000000E+00 0.  1.
<mgrwt>
<rscale>  0 0.14971413E+03</rscale>
<asrwt>0</asrwt>
<pdfrwt beam="1">  1        2 0.28477152E+00 0.15638332E+03</pdfrwt>
<pdfrwt beam="2">  1       -2 0.22208617E-02 0.15638332E+03</pdfrwt>
<totfact> 0.58437466E+03</totfact>
</mgrwt>
</event>
<event>
 6    1  0.8353100E-006  0.1636569E+03  0.7546771E-02  0.1191684E+00
         -1   -1    0    0    0  501 -0.00000000000E+00  0.00000000000E+00  0.49616506170E+03  0.49616506170E+03  0.00000000000E+00 0.  1.
          1   -1    0    0  501    0  0.00000000000E+00 -0.00000000000E+00 -0.48699329342E+02  0.48699329342E+02  0.00000000000E+00 0. -1.
          5    1    1    2  502    0  0.47609374240E+02  0.31502340007E+02  0.24087016537E+02  0.62139555092E+02  0.47000000000E+01 0. -1.
         -5    1    1    2    0  502  0.46895444413E+02 -0.78693826194E+02  0.15790907791E+03  0.18261781916E+03  0.47000000000E+01 0. -1.
        -11    1    1    2    0    0 -0.67078484229E+02  0.49864632591E+02  0.25850883571E+03  0.27168515375E+03  0.00000000000E+00 0.  1.
         11    1    1    2    0    0 -0.27426334424E+02 -0.26731464036E+01  0.69608022106E+01  0.28421863047E+02  0.00000000000E+00 0. -1.
<mgrwt>
<rscale>  0 0.15738212E+03</rscale>
<asrwt>0</asrwt>
<pdfrwt beam="2">  1        1 0.74922048E-02 0.16365694E+03</pdfrwt>
<pdfrwt beam="1">  1       -1 0.76333083E-01 0.16365694E+03</pdfrwt>
<totfact> 0.16794785E+03</totfact>
</mgrwt>
</event>
<event>
 6    1  0.8353100E-006  0.3785048E+03  0.7546771E-02  0.1051488E+00
          2   -1    0    0  501    0  0.00000000000E+00  0.00000000000E+00  0.15994545226E+03  0.15994545226E+03  0.00000000000E+00 0.  1.
         -2   -1    0    0    0  501 -0.00000000000E+00 -0.00000000000E+00 -0.22392930189E+03  0.22392930189E+03  0.00000000000E+00 0. -1.
          5    1    1    2  502    0 -0.95498140678E+02 -0.11043308757E+03  0.22903883975E+02  0.14785817395E+03  0.47000000000E+01 0. -1.
         -5    1    1    2    0  502  0.37822610638E+02 -0.18611353023E+02  0.11434685353E+02  0.43929197192E+02  0.47000000000E+01 0. -1.
        -11    1    1    2    0    0 -0.37258079711E+01  0.70341691081E+02 -0.77292422353E+02  0.10457511034E+03  0.00000000000E+00 0. -1.
         11    1    1    2    0    0  0.61401338011E+02  0.58702749512E+02 -0.21029996605E+02  0.87512272665E+02  0.00000000000E+00 0.  1.
<mgrwt>
<rscale>  0 0.37850481E+03</rscale>
<asrwt>0</asrwt>
<pdfrwt beam="1">  1        2 0.24606993E-01 0.37850481E+03</pdfrwt>
<pdfrwt beam="2">  1       -2 0.34450662E-01 0.37850481E+03</pdfrwt>
<totfact> 0.17439977E+03</totfact>
</mgrwt>
</event>
<event>
 6    1  0.8353100E-006  0.1824299E+03  0.7546771E-02  0.1171230E+00
         -1   -1    0    0    0  501 -0.00000000000E+00  0.00000000000E+00  0.27850970878E+02  0.27850970878E+02  0.00000000000E+00 0.  1.
          1   -1    0    0  501    0  0.00000000000E+00 -0.00000000000E+00 -0.11913570536E+04  0.11913570536E+04  0.00000000000E+00 0. -1.
          5    1    1    2  502    0  0.23976798237E+02  0.10048579273E+03 -0.64255224923E+03  0.65082083893E+03  0.47000000000E+01 0. -1.
         -5    1    1    2    0  502 -0.60026059595E+02  0.27405437390E+02 -0.18141444339E+03  0.19309965329E+03  0.47000000000E+01 0. -1.
        -11    1    1    2    0    0  0.34555971105E+02 -0.89801359096E+02 -0.31637160599E+03  0.33068019643E+03  0.00000000000E+00 0. -1.
         11    1    1    2    0    0  0.14932902528E+01 -0.38089871020E+02 -0.23167784129E+02  0.44607335849E+02  0.00000000000E+00 0.  1.
<mgrwt>
<rscale>  0 0.17650374E+03</rscale>
<asrwt>0</asrwt>
<pdfrwt beam="2">  1        1 0.18328564E+00 0.18242995E+03</pdfrwt>
<pdfrwt beam="1">  1       -1 0.42847661E-02 0.18242995E+03</pdfrwt>
<totfact> 0.25645779E+03</totfact>
</mgrwt>
</event>
<event>
 6    1  0.8353100E-006  0.1268665E+03  0.7546771E-02  0.1247797E+00
          2   -1    0    0  501    0  0.00000000000E+00  0.00000000000E+00  0.29136975284E+03  0.29136975284E+03  0.00000000000E+00 0. -1.
         -2   -1    0    0    0  501 -0.00000000000E+00 -0.00000000000E+00 -0.49070661360E+02  0.49070661360E+02  0.00000000000E+00 0.  1.
          5    1    1    2  502    0 -0.45200343235E+02 -0.26838851856E+01  0.14152612555E+03  0.14866744257E+03  0.47000000000E+01 0.  1.
         -5    1    1    2    0  502  0.66849819795E+02  0.17356576003E+01  0.62901448007E+02  0.91927107401E+02  0.47000000000E+01 0.  1.
        -11    1    1    2    0    0 -0.50163675405E+02 -0.22466854143E+02  0.17413207020E+02  0.57657381521E+02  0.00000000000E+00 0.  1.
         11    1    1    2    0    0  0.28514198845E+02  0.23415081728E+02  0.20458310911E+02  0.42188482711E+02  0.00000000000E+00 0. -1.
<mgrwt>
<rscale>  0 0.11719532E+03</rscale>
<asrwt>0</asrwt>
<pdfrwt beam="1">  1        2 0.44826115E-01 0.12686648E+03</pdfrwt>
<pdfrwt beam="2">  1       -2 0.75493327E-02 0.12686648E+03</pdfrwt>
<totfact> 0.10978351E+04</totfact>
</mgrwt>
</event>
<event>
 6    1  0.8353100E-006  0.1273629E+03  0.7546771E-02  0.1246080E+00
         -1   -1    0    0    0  501 -0.00000000000E+00  0.00000000000E+00  0.58704426703E+03  0.58704426703E+03  0.00000000000E+00 0.  1.
          1   -1    0    0  501    0  0.00000000000E+00 -0.00000000000E+00 -0.20992382069E+02  0.20992382069E+02  0.00000000000E+00 0. -1.
          5    1    1    2  502    0  0.59770711383E+02 -0.26563540363E+02  0.27001758551E+03  0.27786641773E+03  0.47000000000E+01 0.  1.
         -5    1    1    2    0  502 -0.35787695045E+02  0.21893014773E+02  0.43901535561E+02  0.60905648647E+02  0.47000000000E+01 0.  1.
        -11    1    1    2    0    0  0.86462429080E+01  0.32173963597E+02  0.36371032801E+02  0.49323153559E+02  0.00000000000E+00 0. -1.
         11    1    1    2    0    0 -0.32629259247E+02 -0.27503438007E+02  0.21576173109E+03  0.21994142917E+03  0.00000000000E+00 0.  1.
<mgrwt>
<rscale>  0 0.11820984E+03</rscale>
<asrwt>0</asrwt>
<pdfrwt beam="2">  1        1 0.32295977E-02 0.12736286E+03</pdfrwt>
<pdfrwt beam="1">  1       -1 0.90314490E-01 0.12736286E+03</pdfrwt>
<totfact> 0.37021770E+03</totfact>
</mgrwt>
</event>
<event>
 6    1  0.8353100E-006  0.1664768E+03  0.7546771E-02  0.1188066E+00
          1   -1    0    0  501    0  0.00000000000E+00  0.00000000000E+00  0.18596161095E+03  0.18596161095E+03  0.00000000000E+00 0. -1.
         -1   -1    0    0    0  501 -0.00000000000E+00 -0.00000000000E+00 -0.14272573066E+03  0.14272573066E+03  0.00000000000E+00 0.  1.
          5    1    1    2  502    0  0.50000775425E+02 -0.91408260615E+02  0.17222169985E+02  0.10570828156E+03  0.47000000000E+01 0.  1.
         -5    1    1    2    0  502 -0.40972590578E+02 -0.18170937130E+02 -0.43859327725E+02  0.62886141266E+02  0.47000000000E+01 0.  1.
        -11    1    1    2    0    0  0.26064598423E+02  0.10137502891E+03  0.36156425632E+02  0.11074089982E+03  0.00000000000E+00 0.  1.
         11    1    1    2    0    0 -0.35092783269E+02  0.82041688343E+01  0.33716612398E+02  0.49352018960E+02  0.00000000000E+00 0. -1.
<mgrwt>
<rscale>  0 0.16055954E+03</rscale>
<asrwt>0</asrwt>
<pdfrwt beam="1">  1        1 0.28609479E-01 0.16647685E+03</pdfrwt>
<pdfrwt beam="2">  1       -1 0.21957805E-01 0.16647685E+03</pdfrwt>
<totfact> 0.27203249E+03</totfact>
</mgrwt>
</event>
<event>
 6    1  0.8353100E-006  0.1360385E+03  0.7546771E-02  0.1229355E+00
          1   -1    0    0  501    0  0.00000000000E+00  0.00000000000E+00  0.15101186016E+03  0.15101186016E+03  0.00000000000E+00 0. -1.
         -1   -1    0    0    0  501 -0.00000000000E+00 -0.00000000000E+00 -0.11016013165E+03  0.11016013165E+03  0.00000000000E+00 0.  1.
          5    1    1    2  502    0  0.41780052154E+02  0.13829882205E+02  0.96991044900E+01  0.45310054377E+02  0.47000000000E+01 0.  1.
         -5    1    1    2    0  502 -0.64764174276E+02 -0.62343760364E+02  0.53229082651E+02  0.10457804725E+03  0.47000000000E+01 0.  1.
        -11    1    1    2    0    0  0.16894387555E+00  0.57885111838E+02 -0.48222411203E+02  0.75340000377E+02  0.00000000000E+00 0.  1.
         11    1    1    2    0    0  0.22815178247E+02 -0.93712336788E+01  0.26145952573E+02  0.35943889815E+02  0.00000000000E+00 0. -1.
<mgrwt>
<rscale>  0 0.12872857E+03</rscale>
<asrwt>0</asrwt>
<pdfrwt beam="1">  1        1 0.23232594E-01 0.13603855E+03</pdfrwt>
<pdfrwt beam="2">  1       -1 0.16947713E-01 0.13603855E+03</pdfrwt>
<totfact> 0.52990507E+03</totfact>
</mgrwt>
</event>
<event>
 6    1  0.8353100E-006  0.1282968E+03  0.7546771E-02  0.1237775E+00
          2   -1    0    0  501    0  0.00000000000E+00  0.00000000000E+00  0.39760499174E+03  0.39760499174E+03  0.00000000000E+00 0. -1.
         -2   -1    0    0    0  501 -0.00000000000E+00 -0.00000000000E+00 -0.39852356273E+02  0.39852356273E+02  0.00000000000E+00 0.  1.
          5    1    1    2  502    0  0.46609932066E+01 -0.32895446382E+02  0.10747074996E+02  0.35233859728E+02  0.47000000000E+01 0.  1.
         -5    1    1    2    0  502 -0.32998771488E+02  0.38582794157E+02  0.25270065400E+03  0.25779305937E+03  0.47000000000E+01 0.  1.
        -11    1    1    2    0    0  0.66389667413E+02 -0.32767255852E+01  0.38411859720E+02  0.76771061195E+02  0.00000000000E+00 0.  1.
         11    1    1    2    0    0 -0.38051889132E+02 -0.24106221902E+01  0.55893046745E+02  0.67659367721E+02  0.00000000000E+00 0. -1.
<mgrwt>
<rscale>  0 0.12328460E+03</rscale>
<asrwt>0</asrwt>
<pdfrwt beam="1">  1        2 0.61169996E-01 0.12829680E+03</pdfrwt>
<pdfrwt beam="2">  1       -2 0.61311320E-02 0.12829680E+03</pdfrwt>
<totfact> 0.10856605E+04</totfact>
</mgrwt>
</event>
<event>
 6    1  0.8353100E-006  0.1392933E+03  0.7546771E-02  0.1225542E+00
          2   -1    0    0  501    0  0.00000000000E+00  0.00000000000E+00  0.34384435496E+03  0.34384435496E+03  0.00000000000E+00 0. -1.
         -2   -1    0    0    0  501 -0.00000000000E+00 -0.00000000000E+00 -0.48215586951E+02  0.48215586951E+02  0.00000000000E+00 0.  1.
          5    1    1    2  502    0  0.12430417762E+02 -0.12734839408E+02  0.20229548206E+03  0.20313109925E+03  0.47000000000E+01 0. -1.
         -5    1    1    2    0  502 -0.11486665696E+02 -0.48715402223E+02  0.10747375062E+02  0.51407489467E+02  0.47000000000E+01 0. -1.
        -11    1    1    2    0    0 -0.30207933171E+02  0.62581445659E+02  0.82978063059E+02  0.10823269153E+03  0.00000000000E+00 0. -1.
         11    1    1    2    0    0  0.29264181106E+02 -0.11312040286E+01 -0.39215217774E+00  0.29288661657E+02  0.00000000000E+00 0.  1.
<mgrwt>
<rscale>  0 0.13129816E+03</rscale>
<asrwt>0</asrwt>
<pdfrwt beam="1">  1        2 0.52899130E-01 0.13929334E+03</pdfrwt>
<pdfrwt beam="2">  1       -2 0.74177828E-02 0.13929334E+03</pdfrwt>
<totfact> 0.95309933E+03</totfact>
</mgrwt>
</event>
<event>
 6    1  0.8353100E-006  0.1619226E+03  0.7546771E-02  0.1199114E+00
          2   -1    0    0  501    0  0.00000000000E+00  0.00000000000E+00  0.71246781159E+03  0.71246781159E+03  0.00000000000E+00 0. -1.
         -2   -1    0    0    0  501 -0.00000000000E+00 -0.00000000000E+00 -0.29298634189E+02  0.29298634189E+02  0.00000000000E+00 0.  1.
          5    1    1    2  502    0 -0.80196867800E+02  0.10967770088E+01  0.36970175727E+03  0.37833083386E+03  0.47000000000E+01 0.  1.
         -5    1    1    2    0  502 -0.32830162704E+01  0.59108246091E+02  0.79988246429E+02  0.99623152523E+02  0.47000000000E+01 0.  1.
        -11    1    1    2    0    0  0.80799817842E+02 -0.42054169068E+02  0.22659113279E+03  0.24421446549E+03  0.00000000000E+00 0. -1.
         11    1    1    2    0    0  0.26800662278E+01 -0.18150854032E+02  0.68880409138E+01  0.19597993895E+02  0.00000000000E+00 0.  1.
<mgrwt>
<rscale>  0 0.15111126E+03</rscale>
<asrwt>0</asrwt>
<pdfrwt beam="1">  1        2 0.10961042E+00 0.16192255E+03</pdfrwt>
<pdfrwt beam="2">  1       -2 0.45074827E-02 0.16192255E+03</pdfrwt>
<totfact> 0.91254328E+03</totfact>
</mgrwt>
</event>
<event>
 6    1  0.8353100E-006  0.1311604E+03  0.7546771E-02  0.1232243E+00
          1   -1    0    0  501    0  0.00000000000E+00  0.00000000000E+00  0.28525789315E+03  0.28525789315E+03  0.00000000000E+00 0. -1.
         -1   -1    0    0    0  501 -0.00000000000E+00 -0.00000000000E+00 -0.53043955511E+02  0.53043955511E+02  0.00000000000E+00 0.  1.
          5    1    1    2  502    0 -0.26602116607E+02  0.29221227710E+02  0.75300443577E+01  0.40501164488E+02  0.47000000000E+01 0. -1.
         -5    1    1    2    0  502  0.65236947032E+02 -0.38496255663E+02  0.12308588574E+03  0.14460306437E+03  0.47000000000E+01 0. -1.
        -11    1    1    2    0    0 -0.56200317369E+02  0.83414519486E+01  0.73117203427E+01  0.57284524501E+02  0.00000000000E+00 0.  1.
         11    1    1    2    0    0  0.17565486944E+02  0.93357600464E+00  0.94286287206E+02  0.95913095305E+02  0.00000000000E+00 0. -1.
<mgrwt>
<rscale>  0 0.12682559E+03</rscale>
<asrwt>0</asrwt>
<pdfrwt beam="1">  1        1 0.43885829E-01 0.13116041E+03</pdfrwt>
<pdfrwt beam="2">  1       -1 0.81606087E-02 0.13116041E+03</pdfrwt>
<totfact> 0.74001179E+03</totfact>
</mgrwt>
</event>
<event>
 6    1  0.8353100E-006  0.1395608E+03  0.7546771E-02  0.1224781E+00
         -2   -1    0    0    0  501 -0.00000000000E+00  0.00000000000E+00  0.77488752933E+02  0.77488752933E+02  0.00000000000E+00 0.  1.
          2   -1    0    0  501    0  0.00000000000E+00 -0.00000000000E+00 -0.24822163447E+03  0.24822163447E+03  0.00000000000E+00 0. -1.
          5    1    1    2  502    0 -0.35924524959E+02 -0.13510862043E+02 -0.75867412064E+02  0.85153209569E+02  0.47000000000E+01 0. -1.
         -5    1    1    2    0  502  0.69194260113E+02  0.65902086544E+02 -0.86812749329E+02  0.12918774744E+03  0.47000000000E+01 0. -1.
        -11    1    1    2    0    0  0.54139476443E+01 -0.13854427762E+02  0.37447485717E+02  0.40293550157E+02  0.00000000000E+00 0.  1.
         11    1    1    2    0    0 -0.38683682798E+02 -0.38536796739E+02 -0.45500205862E+02  0.71075880235E+02  0.00000000000E+00 0. -1.
<mgrwt>
<rscale>  0 0.13181944E+03</rscale>
<asrwt>0</asrwt>
<pdfrwt beam="2">  1        2 0.38187944E-01 0.13956078E+03</pdfrwt>
<pdfrwt beam="1">  1       -2 0.11921346E-01 0.13956078E+03</pdfrwt>
<totfact> 0.64112673E+03</totfact>
</mgrwt>
</event>
<event>
 6    1  0.8353100E-006  0.1323062E+03  0.7546771E-02  0.1237327E+00
          2   -1    0    0  501    0  0.00000000000E+00  0.00000000000E+00  0.20452145918E+03  0.20452145918E+03  0.00000000000E+00 0. -1.
         -2   -1    0    0    0  501 -0.00000000000E+00 -0.00000000000E+00 -0.78442040710E+02  0.78442040710E+02  0.00000000000E+00 0.  1.
          5    1    1    2  502    0 -0.45657138038E+02 -0.21449153931E+02  0.13959083419E+03  0.14850027424E+03  0.47000000000E+01 0. -1.
         -5    1    1    2    0  502  0.31513596050E+01  0.30156101979E+02 -0.14177998497E+02  0.33799810581E+02  0.47000000000E+01 0. -1.
        -11    1    1    2    0    0 -0.18640024274E+02  0.23416642649E+01  0.27234719828E+02  0.33085704776E+02  0.00000000000E+00 0. -1.
         11    1    1    2    0    0  0.61145802707E+02 -0.11048612313E+02 -0.26568137051E+02  0.67577710297E+02  0.00000000000E+00 0.  1.
<mgrwt>
<rscale>  0 0.12356651E+03</rscale>
<asrwt>0</asrwt>
<pdfrwt beam="1">  1        2 0.31464840E-01 0.13230624E+03</pdfrwt>
<pdfrwt beam="2">  1       -2 0.12068006E-01 0.13230624E+03</pdfrwt>
<totfact> 0.77103581E+03</totfact>
</mgrwt>
</event>
<event>
 6    1  0.8353100E-006  0.4118630E+03  0.7546771E-02  0.1039748E+00
         -1   -1    0    0    0  501 -0.00000000000E+00  0.00000000000E+00  0.76994359292E+02  0.76994359292E+02  0.00000000000E+00 0.  1.
          1   -1    0    0  501    0  0.00000000000E+00 -0.00000000000E+00 -0.55079077668E+03  0.55079077668E+03  0.00000000000E+00 0. -1.
          5    1    1    2  502    0  0.14320095656E+02  0.50857373304E+02 -0.51231335373E+02  0.73744676304E+02  0.47000000000E+01 0.  1.
         -5    1    1    2    0  502 -0.10219809187E+03  0.59622350728E+02 -0.35218434345E+03  0.37155777002E+03  0.47000000000E+01 0.  1.
        -11    1    1    2    0    0  0.13238134309E+02 -0.71501658582E+02 -0.65938323587E+02  0.98161081378E+02  0.00000000000E+00 0. -1.
         11    1    1    2    0    0  0.74639861901E+02 -0.38978065450E+02 -0.44424149752E+01  0.84321608272E+02  0.00000000000E+00 0.  1.
<mgrwt>
<rscale>  0 0.41186300E+03</rscale>
<asrwt>0</asrwt>
<pdfrwt beam="2">  1        1 0.84737041E-01 0.41186300E+03</pdfrwt>
<pdfrwt beam="1">  1       -1 0.11845286E-01 0.41186300E+03</pdfrwt>
<totfact> 0.18587309E+03</totfact>
</mgrwt>
</event>
<event>
 6    1  0.8353100E-006  0.1307282E+03  0.7546771E-02  0.1237808E+00
         -1   -1    0    0    0  501 -0.00000000000E+00  0.00000000000E+00  0.44533981409E+02  0.44533981409E+02  0.00000000000E+00 0.  1.
          1   -1    0    0  501    0  0.00000000000E+00 -0.00000000000E+00 -0.44916861574E+03  0.44916861574E+03  0.00000000000E+00 0. -1.
          5    1    1    2  502    0 -0.13125186522E+02 -0.50313005674E+02 -0.22641558725E+03  0.23235700379E+03  0.47000000000E+01 0. -1.
         -5    1    1    2    0  502  0.51196686638E+02  0.46352532632E+02 -0.13007583171E+03  0.14734812520E+03  0.47000000000E+01 0. -1.
        -11    1    1    2    0    0 -0.16700324539E+02  0.35722466827E+02 -0.61836253793E+02  0.73339742016E+02  0.00000000000E+00 0. -1.
         11    1    1    2    0    0 -0.21371175578E+02 -0.31761993784E+02  0.13693038416E+02  0.40657726151E+02  0.00000000000E+00 0.  1.
<mgrwt>
<rscale>  0 0.12326403E+03</rscale>
<asrwt>0</asrwt>
<pdfrwt beam="2">  1        1 0.69102864E-01 0.13072817E+03</pdfrwt>
<pdfrwt beam="1">  1       -1 0.68513818E-02 0.13072817E+03</pdfrwt>
<totfact> 0.54538571E+03</totfact>
</mgrwt>
</event>
<event>
 6    1  0.8353100E-006  0.2001396E+03  0.7546771E-02  0.1153941E+00
         -1   -1    0    0    0  501 -0.00000000000E+00  0.00000000000E+00  0.86765631489E+02  0.86765631489E+02  0.00000000000E+00 0. -1.
          1   -1    0    0  501    0  0.00000000000E+00 -0.00000000000E+00 -0.97964758250E+03  0.97964758250E+03  0.00000000000E+00 0.  1.
          5    1    1    2  502    0  0.69997184278E+02 -0.61168685648E+02 -0.47598325772E+03  0.48499831498E+03  0.47000000000E+01 0. -1.
         -5    1    1    2    0  502 -0.46651817063E+02 -0.93384532284E+02 -0.38368601819E+03  0.39766080202E+03  0.47000000000E+01 0. -1.
        -11    1    1    2    0    0 -0.47056117943E+02  0.48444230739E+02 -0.32678970937E+02  0.75026907635E+02  0.00000000000E+00 0.  1.
         11    1    1    2    0    0  0.23710750728E+02  0.10610898719E+03 -0.53370416061E+00  0.10872718935E+03  0.00000000000E+00 0. -1.
<mgrwt>
<rscale>  0 0.19509938E+03</rscale>
<asrwt>0</asrwt>
<pdfrwt beam="2">  1        1 0.15071502E+00 0.20013958E+03</pdfrwt>
<pdfrwt beam="1">  1       -1 0.13348558E-01 0.20013958E+03</pdfrwt>
<totfact> 0.64699056E+02</totfact>
</mgrwt>
</event>
<event>
 6    1  0.8353100E-006  0.1359782E+03  0.7546771E-02  0.1226582E+00
          2   -1    0    0  501    0  0.00000000000E+00  0.00000000000E+00  0.17353780641E+03  0.17353780641E+03  0.00000000000E+00 0. -1.
         -2   -1    0    0    0  501 -0.00000000000E+00 -0.00000000000E+00 -0.92398981902E+02  0.92398981902E+02  0.00000000000E+00 0.  1.
          5    1    1    2  502    0  0.36331704340E+02 -0.13636483147E+01  0.45527054219E+02  0.58452159436E+02  0.47000000000E+01 0. -1.
         -5    1    1    2    0  502 -0.37839717886E+02 -0.68996339822E+02 -0.16620241588E+02  0.80564642300E+02  0.47000000000E+01 0.  1.
        -11    1    1    2    0    0 -0.33224347861E+02  0.62702800132E+02  0.99293073580E+01  0.71652561571E+02  0.00000000000E+00 0. -1.
         11    1    1    2    0    0  0.34732361407E+02  0.76571880050E+01  0.42302704519E+02  0.55267425005E+02  0.00000000000E+00 0.  1.
<mgrwt>
<rscale>  0 0.13059032E+03</rscale>
<asrwt>0</asrwt>
<pdfrwt beam="1">  1        2 0.26698124E-01 0.13597819E+03</pdfrwt>
<pdfrwt beam="2">  1       -2 0.14215228E-01 0.13597819E+03</pdfrwt>
<totfact> 0.70937054E+03</totfact>
</mgrwt>
</event>
<event>
 6    1  0.8353100E-006  0.1400381E+03  0.7546771E-02  0.1224226E+00
          1   -1    0    0  501    0  0.00000000000E+00  0.00000000000E+00  0.52440443328E+03  0.52440443328E+03  0.00000000000E+00 0. -1.
         -1   -1    0    0    0  501 -0.00000000000E+00 -0.00000000000E+00 -0.30097911475E+02  0.30097911475E+02  0.00000000000E+00 0.  1.
          5    1    1    2  502    0 -0.17575120933E+02 -0.20937618542E+02  0.19204871272E+03  0.19404140487E+03  0.47000000000E+01 0.  1.
         -5    1    1    2    0  502 -0.73710433148E+01  0.78932513877E+02  0.84616578649E+02  0.11604623824E+03  0.47000000000E+01 0.  1.
        -11    1    1    2    0    0 -0.27993718986E+02 -0.21823354165E+02  0.13627531030E+03  0.14082211221E+03  0.00000000000E+00 0. -1.
         11    1    1    2    0    0  0.52939883234E+02 -0.36171541170E+02  0.81365920137E+02  0.10359258944E+03  0.00000000000E+00 0.  1.
<mgrwt>
<rscale>  0 0.13220093E+03</rscale>
<asrwt>0</asrwt>
<pdfrwt beam="1">  1        1 0.80677598E-01 0.14003808E+03</pdfrwt>
<pdfrwt beam="2">  1       -1 0.46304483E-02 0.14003808E+03</pdfrwt>
<totfact> 0.80182212E+03</totfact>
</mgrwt>
</event>
<event>
 6    1  0.8353100E-006  0.4034610E+03  0.7546771E-02  0.1082821E+00
          2   -1    0    0  501    0  0.00000000000E+00  0.00000000000E+00  0.88627992113E+03  0.88627992113E+03  0.00000000000E+00 0. -1.
         -2   -1    0    0    0  501 -0.00000000000E+00 -0.00000000000E+00 -0.85345022054E+02  0.85345022054E+02  0.00000000000E+00 0.  1.
          5    1    1    2  502    0  0.11284331096E+03  0.19064698545E+03  0.46643877270E+03  0.51639820349E+03  0.47000000000E+01 0. -1.
         -5    1    1    2    0  502 -0.11823964423E+03 -0.12685774989E+03  0.22457431656E+03  0.28377670065E+03  0.47000000000E+01 0.  1.
        -11    1    1    2    0    0 -0.88236077418E+01  0.23767197725E+02 -0.54386236915E+01  0.25929025607E+02  0.00000000000E+00 0.  1.
         11    1    1    2    0    0  0.14219941013E+02 -0.87556433289E+02  0.11536043351E+03  0.14552101344E+03  0.00000000000E+00 0. -1.
<mgrwt>
<rscale>  0 0.30489167E+03</rscale>
<asrwt>0</asrwt>
<pdfrwt beam="1">  1        2 0.13635075E+00 0.40346101E+03</pdfrwt>
<pdfrwt beam="2">  1       -2 0.13130004E-01 0.40346101E+03</pdfrwt>
<totfact> 0.13228372E+03</totfact>
</mgrwt>
</event>
<event>
 6    1  0.8353100E-006  0.1301756E+03  0.7546771E-02  0.1241329E+00
          3   -1    0    0  501    0  0.00000000000E+00  0.00000000000E+00  0.70288372765E+02  0.70288372765E+02  0.00000000000E+00 0. -1.
         -3   -1    0    0    0  501 -0.00000000000E+00 -0.00000000000E+00 -0.19793047960E+03  0.19793047960E+03  0.00000000000E+00 0.  1.
          5    1    1    2  502    0  0.44573358938E+02  0.45738885735E+02  0.11101937393E+02  0.64993638221E+02  0.47000000000E+01 0.  1.
         -5    1    1    2    0  502 -0.49894244690E+02 -0.97881633800E+01 -0.48556145321E+02  0.70462990598E+02  0.47000000000E+01 0.  1.
        -11    1    1    2    0    0  0.45435809720E+02 -0.30343618992E+02 -0.65623231962E+02  0.85390611847E+02  0.00000000000E+00 0.  1.
         11    1    1    2    0    0 -0.40114923968E+02 -0.56071033632E+01 -0.24564666948E+02  0.47371611703E+02  0.00000000000E+00 0. -1.
<mgrwt>
<rscale>  0 0.12107837E+03</rscale>
<asrwt>0</asrwt>
<pdfrwt beam="1">  1        3 0.10813596E-01 0.13017558E+03</pdfrwt>
<pdfrwt beam="2">  1       -3 0.30450843E-01 0.13017558E+03</pdfrwt>
<totfact> 0.15420203E+03</totfact>
</mgrwt>
</event>
<event>
 6    1  0.8353100E-006  0.1368448E+03  0.7546771E-02  0.1228205E+00
          2   -1    0    0  501    0  0.00000000000E+00  0.00000000000E+00  0.34991428778E+03  0.34991428778E+03  0.00000000000E+00 0. -1.
         -2   -1    0    0    0  501 -0.00000000000E+00 -0.00000000000E+00 -0.46821669655E+02  0.46821669655E+02  0.00000000000E+00 0.  1.
          5    1    1    2  502    0  0.11495234490E+02  0.19808115720E+02  0.15668071383E+03  0.15841539683E+03  0.47000000000E+01 0. -1.
         -5    1    1    2    0  502 -0.50106358757E+02 -0.59945462895E+02  0.63332723015E+02  0.10068380959E+03  0.47000000000E+01 0. -1.
        -11    1    1    2    0    0  0.25872514516E+02  0.71404822128E+02  0.56165202783E+02  0.94459333229E+02  0.00000000000E+00 0.  1.
         11    1    1    2    0    0  0.12738609751E+02 -0.31267474953E+02  0.26913978496E+02  0.43177417788E+02  0.00000000000E+00 0. -1.
<mgrwt>
<rscale>  0 0.12949625E+03</rscale>
<asrwt>0</asrwt>
<pdfrwt beam="1">  1        2 0.53832966E-01 0.13684475E+03</pdfrwt>
<pdfrwt beam="2">  1       -2 0.72033340E-02 0.13684475E+03</pdfrwt>
<totfact> 0.97741504E+03</totfact>
</mgrwt>
</event>
<event>
 6    1  0.8353100E-006  0.1363626E+03  0.7546771E-02  0.1230536E+00
         -1   -1    0    0    0  501 -0.00000000000E+00  0.00000000000E+00  0.74455828418E+02  0.74455828418E+02  0.00000000000E+00 0.  1.
          1   -1    0    0  501    0  0.00000000000E+00 -0.00000000000E+00 -0.19763044216E+03  0.19763044216E+03  0.00000000000E+00 0. -1.
          5    1    1    2  502    0  0.29117852774E+02  0.81339747390E+02 -0.61875423184E+02  0.10637039931E+03  0.47000000000E+01 0.  1.
         -5    1    1    2    0  502  0.12524054710E+02 -0.46295936153E+02 -0.16645080856E+02  0.50983471511E+02  0.47000000000E+01 0.  1.
        -11    1    1    2    0    0 -0.36613377509E+02  0.13361592999E+02  0.11295435252E+02  0.40579039388E+02  0.00000000000E+00 0. -1.
         11    1    1    2    0    0 -0.50285299748E+01 -0.48405404237E+02 -0.55949544954E+02  0.74153360366E+02  0.00000000000E+00 0.  1.
<mgrwt>
<rscale>  0 0.12794577E+03</rscale>
<asrwt>0</asrwt>
<pdfrwt beam="2">  1        1 0.30404684E-01 0.13636265E+03</pdfrwt>
<pdfrwt beam="1">  1       -1 0.11454743E-01 0.13636265E+03</pdfrwt>
<totfact> 0.69715681E+03</totfact>
</mgrwt>
</event>
<event>
 6    1  0.8353100E-006  0.2117238E+03  0.7546771E-02  0.1143991E+00
          2   -1    0    0  501    0  0.00000000000E+00  0.00000000000E+00  0.67709955175E+03  0.67709955175E+03  0.00000000000E+00 0. -1.
         -2   -1    0    0    0  501 -0.00000000000E+00 -0.00000000000E+00 -0.62726068491E+02  0.62726068491E+02  0.00000000000E+00 0.  1.
          5    1    1    2  502    0 -0.12625715242E+03 -0.80606044408E+02  0.22533488948E+03  0.27062170155E+03  0.47000000000E+01 0.  1.
         -5    1    1    2    0  502  0.15560361025E+02 -0.49576143649E+02  0.26914663216E+02  0.58706115102E+02  0.47000000000E+01 0.  1.
        -11    1    1    2    0    0  0.85383641663E+02  0.87372619075E+02  0.32845782737E+03  0.35044098674E+03  0.00000000000E+00 0. -1.
         11    1    1    2    0    0  0.25313149731E+02  0.42809568982E+02  0.33666103191E+02  0.60056816847E+02  0.00000000000E+00 0.  1.
<mgrwt>
<rscale>  0 0.20696624E+03</rscale>
<asrwt>0</asrwt>
<pdfrwt beam="1">  1        2 0.10416916E+00 0.21172382E+03</pdfrwt>
<pdfrwt beam="2">  1       -2 0.96501648E-02 0.21172382E+03</pdfrwt>
<totfact> 0.30412152E+03</totfact>
</mgrwt>
</event>
<event>
 6    1  0.8353100E-006  0.1271575E+03  0.7546771E-02  0.1246926E+00
         -2   -1    0    0    0  501 -0.00000000000E+00  0.00000000000E+00  0.17830991819E+02  0.17830991819E+02  0.00000000000E+00 0.  1.
          2   -1    0    0  501    0  0.00000000000E+00 -0.00000000000E+00 -0.68741190828E+03  0.68741190828E+03  0.00000000000E+00 0. -1.
          5    1    1    2  502    0  0.39344234922E+02 -0.34184225928E+02 -0.25928220198E+03  0.26451064324E+03  0.47000000000E+01 0.  1.
         -5    1    1    2    0  502 -0.61474903082E+02  0.26791523040E+02 -0.15773966134E+03  0.17146673198E+03  0.47000000000E+01 0.  1.
        -11    1    1    2    0    0 -0.28268813770E+02  0.21175617598E+02 -0.58871568032E+02  0.68654163276E+02  0.00000000000E+00 0.  1.
         11    1    1    2    0    0  0.50399481930E+02 -0.13782914710E+02 -0.19368748511E+03  0.20061136160E+03  0.00000000000E+00 0. -1.
<mgrwt>
<rscale>  0 0.11770847E+03</rscale>
<asrwt>0</asrwt>
<pdfrwt beam="2">  1        2 0.10575566E+00 0.12715753E+03</pdfrwt>
<pdfrwt beam="1">  1       -2 0.27432300E-02 0.12715753E+03</pdfrwt>
<totfact> 0.19535994E+04</totfact>
</mgrwt>
</event>
<event>
 6    1  0.8353100E-006  0.1820204E+03  0.7546771E-02  0.1170801E+00
          2   -1    0    0  501    0  0.00000000000E+00  0.00000000000E+00  0.33622813222E+03  0.33622813222E+03  0.00000000000E+00 0. -1.
         -2   -1    0    0    0  501 -0.00000000000E+00 -0.00000000000E+00 -0.90373754180E+02  0.90373754180E+02  0.00000000000E+00 0.  1.
          5    1    1    2  502    0 -0.99422296891E+01  0.49428765775E+02  0.68959933514E+02  0.85554738311E+02  0.47000000000E+01 0. -1.
         -5    1    1    2    0  502 -0.12190501625E+03 -0.38307603295E+02  0.93296280034E+02  0.15828642180E+03  0.47000000000E+01 0. -1.
        -11    1    1    2    0    0  0.89283051502E+01 -0.99685987816E+01 -0.18591685762E+02  0.22907168616E+02  0.00000000000E+00 0.  1.
         11    1    1    2    0    0  0.12291894079E+03 -0.11525636987E+01  0.10218985026E+03  0.15985355768E+03  0.00000000000E+00 0. -1.
<mgrwt>
<rscale>  0 0.17693630E+03</rscale>
<asrwt>0</asrwt>
<pdfrwt beam="1">  1        2 0.51727405E-01 0.18202042E+03</pdfrwt>
<pdfrwt beam="2">  1       -2 0.13903655E-01 0.18202042E+03</pdfrwt>
<totfact> 0.36709293E+03</totfact>
</mgrwt>
</event>
<event>
 6    1  0.8353100E-006  0.1280959E+03  0.7546771E-02  0.1244642E+00
         -1   -1    0    0    0  501 -0.00000000000E+00  0.00000000000E+00  0.12016084179E+03  0.12016084179E+03  0.00000000000E+00 0.  1.
          1   -1    0    0  501    0  0.00000000000E+00 -0.00000000000E+00 -0.19515066750E+03  0.19515066750E+03  0.00000000000E+00 0. -1.
          5    1    1    2  502    0  0.33366761727E+02  0.27075625890E+02 -0.15330507042E+02  0.45864417053E+02  0.47000000000E+01 0. -1.
         -5    1    1    2    0  502 -0.46888936842E+02 -0.51580246789E+02 -0.13212866094E+03  0.14946292951E+03  0.47000000000E+01 0. -1.
        -11    1    1    2    0    0  0.19460173697E+02  0.46286917295E+02  0.81452613843E+02  0.95685450173E+02  0.00000000000E+00 0.  1.
         11    1    1    2    0    0 -0.59379985821E+01 -0.21782296397E+02 -0.89832715694E+01  0.24298712550E+02  0.00000000000E+00 0. -1.
<mgrwt>
<rscale>  0 0.11906822E+03</rscale>
<asrwt>0</asrwt>
<pdfrwt beam="2">  1        1 0.30023180E-01 0.12809593E+03</pdfrwt>
<pdfrwt beam="1">  1       -1 0.18486283E-01 0.12809593E+03</pdfrwt>
<totfact> 0.33385819E+03</totfact>
</mgrwt>
</event>
<event>
 6    1  0.8353100E-006  0.2799441E+03  0.7546771E-02  0.1095719E+00
          1   -1    0    0  501    0  0.00000000000E+00  0.00000000000E+00  0.68202073616E+02  0.68202073616E+02  0.00000000000E+00 0. -1.
         -1   -1    0    0    0  501 -0.00000000000E+00 -0.00000000000E+00 -0.28726655195E+03  0.28726655195E+03  0.00000000000E+00 0.  1.
          5    1    1    2  502    0  0.20908357341E+02 -0.32120963159E+02 -0.99793927508E+01  0.39882251198E+02  0.47000000000E+01 0.  1.
         -5    1    1    2    0  502 -0.68887317125E+01  0.10654813341E+03 -0.52362239562E+02  0.11901198885E+03  0.47000000000E+01 0.  1.
        -11    1    1    2    0    0 -0.27757450314E+02 -0.25369028121E+02 -0.13679627640E+03  0.14187066248E+03  0.00000000000E+00 0.  1.
         11    1    1    2    0    0  0.13737824686E+02 -0.49058142135E+02 -0.19926569620E+02  0.54703723033E+02  0.00000000000E+00 0. -1.
<mgrwt>
<rscale>  0 0.27994410E+03</rscale>
<asrwt>0</asrwt>
<pdfrwt beam="1">  1        1 0.10492627E-01 0.27994410E+03</pdfrwt>
<pdfrwt beam="2">  1       -1 0.44194854E-01 0.27994410E+03</pdfrwt>
<totfact> 0.30896349E+03</totfact>
</mgrwt>
</event>
<event>
 6    1  0.8353100E-006  0.2799085E+03  0.7546771E-02  0.1095739E+00
          2   -1    0    0  501    0  0.00000000000E+00  0.00000000000E+00  0.29501859415E+03  0.29501859415E+03  0.00000000000E+00 0.  1.
         -2   -1    0    0    0  501 -0.00000000000E+00 -0.00000000000E+00 -0.66393085168E+02  0.66393085168E+02  0.00000000000E+00 0. -1.
          5    1    1    2  502    0  0.58232524839E+02 -0.75581576869E+02  0.20037528095E+02  0.97607347282E+02  0.47000000000E+01 0. -1.
         -5    1    1    2    0  502 -0.16513315124E+02 -0.11522338444E+01  0.87044612650E+02  0.88729204948E+02  0.47000000000E+01 0. -1.
        -11    1    1    2    0    0 -0.47346699228E+02  0.19245494849E+02  0.10201281679E+03  0.11409957839E+03  0.00000000000E+00 0.  1.
         11    1    1    2    0    0  0.56274895132E+01  0.57488315865E+02  0.19530551447E+02  0.60975548698E+02  0.00000000000E+00 0. -1.
<mgrwt>
<rscale>  0 0.27990852E+03</rscale>
<asrwt>0</asrwt>
<pdfrwt beam="1">  1        2 0.45387475E-01 0.27990852E+03</pdfrwt>
<pdfrwt beam="2">  1       -2 0.10214321E-01 0.27990852E+03</pdfrwt>
<totfact> 0.70959930E+03</totfact>
</mgrwt>
</event>
<event>
 6    1  0.8353100E-006  0.1367049E+03  0.7546771E-02  0.1229482E+00
          3   -1    0    0  501    0  0.00000000000E+00  0.00000000000E+00  0.29298588806E+02  0.29298588806E+02  0.00000000000E+00 0. -1.
         -3   -1    0    0    0  501 -0.00000000000E+00 -0.00000000000E+00 -0.56840823840E+03  0.56840823840E+03  0.00000000000E+00 0.  1.
          5    1    1    2  502    0  0.82474339471E+02 -0.17256660940E+02 -0.15457307824E+03  0.17611000975E+03  0.47000000000E+01 0. -1.
         -5    1    1    2    0  502 -0.30772738450E+02  0.37029798944E+02 -0.47010200211E+02  0.67455291604E+02  0.47000000000E+01 0. -1.
        -11    1    1    2    0    0 -0.61736237957E+02 -0.44989778041E+02 -0.28444962473E+03  0.29452849134E+03  0.00000000000E+00 0.  1.
         11    1    1    2    0    0  0.10034636936E+02  0.25216640037E+02 -0.53076746420E+02  0.59613034512E+02  0.00000000000E+00 0. -1.
<mgrwt>
<rscale>  0 0.12864366E+03</rscale>
<asrwt>0</asrwt>
<pdfrwt beam="1">  1        3 0.45074752E-02 0.13670493E+03</pdfrwt>
<pdfrwt beam="2">  1       -3 0.87447422E-01 0.13670493E+03</pdfrwt>
<totfact> 0.76236322E+02</totfact>
</mgrwt>
</event>
<event>
 6    1  0.8353100E-006  0.1397914E+03  0.7546771E-02  0.1225086E+00
          1   -1    0    0  501    0  0.00000000000E+00  0.00000000000E+00  0.15028090948E+03  0.15028090948E+03  0.00000000000E+00 0. -1.
         -1   -1    0    0    0  501 -0.00000000000E+00 -0.00000000000E+00 -0.10706856183E+03  0.10706856183E+03  0.00000000000E+00 0.  1.
          5    1    1    2  502    0  0.65174850231E+02  0.21263732120E+02  0.63181307822E+02  0.93348139052E+02  0.47000000000E+01 0.  1.
         -5    1    1    2    0  502 -0.98799692169E+01 -0.50437636133E+02 -0.16254160822E+02  0.54109672651E+02  0.47000000000E+01 0.  1.
        -11    1    1    2    0    0 -0.25940607981E+02 -0.24674452649E+02  0.23468370212E+02  0.42807804854E+02  0.00000000000E+00 0. -1.
         11    1    1    2    0    0 -0.29354273033E+02  0.53848356663E+02 -0.27183169564E+02  0.67083854750E+02  0.00000000000E+00 0.  1.
<mgrwt>
<rscale>  0 0.13161021E+03</rscale>
<asrwt>0</asrwt>
<pdfrwt beam="1">  1        1 0.23120140E-01 0.13979145E+03</pdfrwt>
<pdfrwt beam="2">  1       -1 0.16472086E-01 0.13979145E+03</pdfrwt>
<totfact> 0.55864553E+03</totfact>
</mgrwt>
</event>
<event>
 6    1  0.8353100E-006  0.1282636E+03  0.7546771E-02  0.1245033E+00
          2   -1    0    0  501    0  0.00000000000E+00  0.00000000000E+00  0.73297563416E+03  0.73297563416E+03  0.00000000000E+00 0. -1.
         -2   -1    0    0    0  501 -0.00000000000E+00 -0.00000000000E+00 -0.16975772560E+02  0.16975772560E+02  0.00000000000E+00 0.  1.
          5    1    1    2  502    0  0.81823838323E+01 -0.57072717259E+02  0.34034492613E+03  0.34522602046E+03  0.47000000000E+01 0.  1.
         -5    1    1    2    0  502 -0.25641346372E+02  0.34236319341E+02  0.51687224178E+02  0.67255210572E+02  0.47000000000E+01 0.  1.
        -11    1    1    2    0    0 -0.29717277972E+02  0.17780465285E+02  0.60037484154E+02  0.69309170096E+02  0.00000000000E+00 0.  1.
         11    1    1    2    0    0  0.47176240512E+02  0.50559326335E+01  0.26393022713E+03  0.26816100559E+03  0.00000000000E+00 0. -1.
<mgrwt>
<rscale>  0 0.11883392E+03</rscale>
<asrwt>0</asrwt>
<pdfrwt beam="1">  1        2 0.11276546E+00 0.12826363E+03</pdfrwt>
<pdfrwt beam="2">  1       -2 0.26116579E-02 0.12826363E+03</pdfrwt>
<totfact> 0.19462363E+04</totfact>
</mgrwt>
</event>
<event>
 6    1  0.8353100E-006  0.1366604E+03  0.7546771E-02  0.1230006E+00
          1   -1    0    0  501    0  0.00000000000E+00  0.00000000000E+00  0.20850530119E+03  0.20850530119E+03  0.00000000000E+00 0. -1.
         -1   -1    0    0    0  501 -0.00000000000E+00 -0.00000000000E+00 -0.86092476685E+02  0.86092476685E+02  0.00000000000E+00 0.  1.
          5    1    1    2  502    0  0.34305545954E+02  0.54306393187E+02  0.11793500033E+03  0.13437562698E+03  0.47000000000E+01 0. -1.
         -5    1    1    2    0  502  0.20612991377E+02 -0.48164232392E+02  0.11481153897E+02  0.53838606875E+02  0.47000000000E+01 0. -1.
        -11    1    1    2    0    0 -0.49250456481E+02  0.34785898435E+02 -0.19238710914E+02  0.63291343730E+02  0.00000000000E+00 0.  1.
         11    1    1    2    0    0 -0.56680808504E+01 -0.40928059230E+02  0.12235381195E+02  0.43092200290E+02  0.00000000000E+00 0. -1.
<mgrwt>
<rscale>  0 0.12829649E+03</rscale>
<asrwt>0</asrwt>
<pdfrwt beam="1">  1        1 0.32077738E-01 0.13666037E+03</pdfrwt>
<pdfrwt beam="2">  1       -1 0.13244997E-01 0.13666037E+03</pdfrwt>
<totfact> 0.52120315E+03</totfact>
</mgrwt>
</event>
<event>
 6    1  0.8353100E-006  0.2068850E+03  0.7546771E-02  0.1148165E+00
         -2   -1    0    0    0  501 -0.00000000000E+00  0.00000000000E+00  0.23864275744E+03  0.23864275744E+03  0.00000000000E+00 0.  1.
          2   -1    0    0  501    0  0.00000000000E+00 -0.00000000000E+00 -0.16847150782E+03  0.16847150782E+03  0.00000000000E+00 0. -1.
          5    1    1    2  502    0 -0.39294812373E+01 -0.38996936911E+02  0.52637444735E+02  0.65795079599E+02  0.47000000000E+01 0. -1.
         -5    1    1    2    0  502 -0.82160125008E+02 -0.10185427520E+03 -0.52532756455E+02  0.14108990048E+03  0.47000000000E+01 0. -1.
        -11    1    1    2    0    0  0.38519830929E+02  0.15106187597E+02  0.49023194630E+02  0.64150197898E+02  0.00000000000E+00 0.  1.
         11    1    1    2    0    0  0.47569775316E+02  0.12574502451E+03  0.21043366709E+02  0.13607908728E+03  0.00000000000E+00 0. -1.
<mgrwt>
<rscale>  0 0.20187727E+03</rscale>
<asrwt>0</asrwt>
<pdfrwt beam="2">  1        2 0.25918694E-01 0.20688495E+03</pdfrwt>
<pdfrwt beam="1">  1       -2 0.36714270E-01 0.20688495E+03</pdfrwt>
<totfact> 0.14377507E+03</totfact>
</mgrwt>
</event>
<event>
 6    1  0.8353100E-006  0.1456334E+03  0.7546771E-02  0.1215674E+00
          1   -1    0    0  501    0  0.00000000000E+00  0.00000000000E+00  0.22240368606E+03  0.22240368606E+03  0.00000000000E+00 0. -1.
         -1   -1    0    0    0  501 -0.00000000000E+00 -0.00000000000E+00 -0.78571886697E+02  0.78571886697E+02  0.00000000000E+00 0.  1.
          5    1    1    2  502    0 -0.46594944138E+01  0.56037297315E+02 -0.12848997950E+02  0.57871204644E+02  0.47000000000E+01 0. -1.
         -5    1    1    2    0  502  0.49319308118E+02  0.38840748541E+01  0.10047214134E+03  0.11209023765E+03  0.47000000000E+01 0. -1.
        -11    1    1    2    0    0 -0.61294305040E+02 -0.28544881508E+02  0.65675577754E+02  0.94260721428E+02  0.00000000000E+00 0. -1.
         11    1    1    2    0    0  0.16634491336E+02 -0.31376490661E+02 -0.94669217774E+01  0.36753409041E+02  0.00000000000E+00 0.  1.
<mgrwt>
<rscale>  0 0.13827134E+03</rscale>
<asrwt>0</asrwt>
<pdfrwt beam="1">  1        1 0.34215951E-01 0.14563336E+03</pdfrwt>
<pdfrwt beam="2">  1       -1 0.12087983E-01 0.14563336E+03</pdfrwt>
<totfact> 0.55641801E+03</totfact>
</mgrwt>
</event>
<event>
 6    1  0.8353100E-006  0.1270821E+03  0.7546771E-02  0.1246499E+00
          1   -1    0    0  501    0  0.00000000000E+00  0.00000000000E+00  0.12876893441E+03  0.12876893441E+03  0.00000000000E+00 0. -1.
         -1   -1    0    0    0  501 -0.00000000000E+00 -0.00000000000E+00 -0.23083495591E+03  0.23083495591E+03  0.00000000000E+00 0.  1.
          5    1    1    2  502    0 -0.38632170870E+02 -0.75357885084E+01  0.81504104424E+02  0.90632454300E+02  0.47000000000E+01 0.  1.
         -5    1    1    2    0  502  0.57314990091E+02  0.20844788884E+02  0.15606367988E+01  0.61188552033E+02  0.47000000000E+01 0.  1.
        -11    1    1    2    0    0 -0.35396328588E+02  0.30924248728E+02 -0.95795249841E+02  0.10670491614E+03  0.00000000000E+00 0. -1.
         11    1    1    2    0    0  0.16713509367E+02 -0.44233249104E+02 -0.89335512880E+02  0.10107796784E+03  0.00000000000E+00 0.  1.
<mgrwt>
<rscale>  0 0.11796118E+03</rscale>
<asrwt>0</asrwt>
<pdfrwt beam="1">  1        1 0.19810605E-01 0.12708213E+03</pdfrwt>
<pdfrwt beam="2">  1       -1 0.35513070E-01 0.12708213E+03</pdfrwt>
<totfact> 0.19172398E+03</totfact>
</mgrwt>
</event>
<event>
 6    1  0.8353100E-006  0.1380522E+03  0.7546771E-02  0.1234342E+00
          1   -1    0    0  501    0  0.00000000000E+00  0.00000000000E+00  0.25380386794E+03  0.25380386794E+03  0.00000000000E+00 0. -1.
         -1   -1    0    0    0  501 -0.00000000000E+00 -0.00000000000E+00 -0.55293745798E+02  0.55293745798E+02  0.00000000000E+00 0.  1.
          5    1    1    2  502    0  0.48705386386E+02 -0.17770508173E+02  0.24357797593E+02  0.57475194017E+02  0.47000000000E+01 0. -1.
         -5    1    1    2    0  502 -0.58256933305E+02  0.48172806401E+02  0.12298490082E+03  0.14443637141E+03  0.47000000000E+01 0.  1.
        -11    1    1    2    0    0  0.17897878688E+02  0.42028657208E+01  0.66081004339E+02  0.68590795857E+02  0.00000000000E+00 0. -1.
         11    1    1    2    0    0 -0.83463317689E+01 -0.34605163949E+02 -0.14913580609E+02  0.38595252460E+02  0.00000000000E+00 0.  1.
<mgrwt>
<rscale>  0 0.12546642E+03</rscale>
<asrwt>0</asrwt>
<pdfrwt beam="1">  1        1 0.39046748E-01 0.13805220E+03</pdfrwt>
<pdfrwt beam="2">  1       -1 0.85067303E-02 0.13805220E+03</pdfrwt>
<totfact> 0.80572145E+03</totfact>
</mgrwt>
</event>
<event>
 6    1  0.8353100E-006  0.1312190E+03  0.7546771E-02  0.1239542E+00
         -2   -1    0    0    0  501 -0.00000000000E+00  0.00000000000E+00  0.64093983824E+02  0.64093983824E+02  0.00000000000E+00 0.  1.
          2   -1    0    0  501    0  0.00000000000E+00 -0.00000000000E+00 -0.22008046774E+03  0.22008046774E+03  0.00000000000E+00 0. -1.
          5    1    1    2  502    0  0.49237727624E+02 -0.58856983776E+02 -0.78656287034E+02  0.10998818050E+03  0.47000000000E+01 0.  1.
         -5    1    1    2    0  502 -0.50394056374E+02  0.18943368920E+02 -0.45200336219E+02  0.70452626198E+02  0.47000000000E+01 0.  1.
        -11    1    1    2    0    0 -0.26901262371E+02 -0.16283687224E+02  0.32995473023E+01  0.31618402856E+02  0.00000000000E+00 0. -1.
         11    1    1    2    0    0  0.28057591122E+02  0.56197302080E+02 -0.35429407962E+02  0.72115242003E+02  0.00000000000E+00 0.  1.
<mgrwt>
<rscale>  0 0.12218063E+03</rscale>
<asrwt>0</asrwt>
<pdfrwt beam="2">  1        2 0.33858533E-01 0.13121898E+03</pdfrwt>
<pdfrwt beam="1">  1       -2 0.98606131E-02 0.13121898E+03</pdfrwt>
<totfact> 0.98028741E+03</totfact>
</mgrwt>
</event>
<event>
 6    1  0.8353100E-006  0.1565433E+03  0.7546771E-02  0.1209485E+00
         -1   -1    0    0    0  501 -0.00000000000E+00  0.00000000000E+00  0.22789538512E+02  0.22789538512E+02  0.00000000000E+00 0.  1.
          1   -1    0    0  501    0  0.00000000000E+00 -0.00000000000E+00 -0.82542008457E+03  0.82542008457E+03  0.00000000000E+00 0. -1.
          5    1    1    2  502    0  0.41822947855E+02  0.18094639010E+02 -0.50839728739E+03  0.51045711549E+03  0.47000000000E+01 0. -1.
         -5    1    1    2    0  502 -0.34987055877E+02  0.40506995394E+02 -0.67156657401E+02  0.86005914843E+02  0.47000000000E+01 0.  1.
        -11    1    1    2    0    0 -0.26777868996E+02 -0.75776432123E+02 -0.18980973076E+03  0.20612339951E+03  0.00000000000E+00 0.  1.
         11    1    1    2    0    0  0.19941977017E+02  0.17174797719E+02 -0.37266870500E+02  0.45623193235E+02  0.00000000000E+00 0. -1.
<mgrwt>
<rscale>  0 0.14289561E+03</rscale>
<asrwt>0</asrwt>
<pdfrwt beam="2">  1        1 0.12698771E+00 0.15654329E+03</pdfrwt>
<pdfrwt beam="1">  1       -1 0.35060826E-02 0.15654329E+03</pdfrwt>
<totfact> 0.64041229E+03</totfact>
</mgrwt>
</event>
<event>
 6    1  0.8353100E-006  0.1169262E+03  0.7546771E-02  0.1257173E+00
         -4   -1    0    0    0  501 -0.00000000000E+00  0.00000000000E+00  0.12935892571E+02  0.12935892571E+02  0.00000000000E+00 0.  1.
          4   -1    0    0  501    0  0.00000000000E+00 -0.00000000000E+00 -0.10955904756E+04  0.10955904756E+04  0.00000000000E+00 0. -1.
          5    1    1    2  502    0 -0.10633903278E+02  0.20274032789E+02 -0.80985664253E+03  0.81019379641E+03  0.47000000000E+01 0. -1.
         -5    1    1    2    0  502  0.40500113098E+01  0.12713780278E+02 -0.85638200899E+01  0.16536983252E+02  0.47000000000E+01 0.  1.
        -11    1    1    2    0    0  0.35159960696E+02 -0.31991266531E+02 -0.23893164902E+03  0.24361444308E+03  0.00000000000E+00 0.  1.
         11    1    1    2    0    0 -0.28576068727E+02 -0.99654653576E+00 -0.25302471433E+02  0.38181145472E+02  0.00000000000E+00 0. -1.
<mgrwt>
<rscale>  0 0.11185513E+03</rscale>
<asrwt>0</asrwt>
<pdfrwt beam="2">  1        4 0.16855242E+00 0.11692617E+03</pdfrwt>
<pdfrwt beam="1">  1       -4 0.19901368E-02 0.11692617E+03</pdfrwt>
<totfact> 0.38997530E+02</totfact>
</mgrwt>
</event>
<event>
 6    1  0.1068037E-005  0.3138234E+03  0.7546771E-02  0.1078528E+00
          1   -1    0    0  501    0  0.00000000000E+00  0.00000000000E+00  0.24285041082E+03  0.24285041082E+03  0.00000000000E+00 0. -1.
         -1   -1    0    0    0  501 -0.00000000000E+00 -0.00000000000E+00 -0.10138454581E+03  0.10138454581E+03  0.00000000000E+00 0.  1.
          5    1    1    2  502    0 -0.68944443239E+02 -0.79389534770E+02 -0.45351468161E+00  0.10525364678E+03  0.47000000000E+01 0.  1.
         -5    1    1    2    0  502 -0.13011509097E+02  0.14136913320E+01  0.79930264987E+02  0.81130975300E+02  0.47000000000E+01 0.  1.
        -11    1    1    2    0    0 -0.37722611773E+01  0.25106684256E+02  0.50441774004E+02  0.56470772205E+02  0.00000000000E+00 0.  1.
         11    1    1    2    0    0  0.85728213513E+02  0.52869159181E+02  0.11547340701E+02  0.10137956235E+03  0.00000000000E+00 0. -1.
<mgrwt>
<rscale>  0 0.31382338E+03</rscale>
<asrwt>0</asrwt>
<pdfrwt beam="1">  1        1 0.37361602E-01 0.31382338E+03</pdfrwt>
<pdfrwt beam="2">  1       -1 0.15597622E-01 0.31382338E+03</pdfrwt>
<totfact> 0.34575767E+03</totfact>
</mgrwt>
</event>
<event>
 6    1  0.8353100E-006  0.1324479E+03  0.7546771E-02  0.1236379E+00
         -1   -1    0    0    0  501 -0.00000000000E+00  0.00000000000E+00  0.25683576835E+02  0.25683576835E+02  0.00000000000E+00 0.  1.
          1   -1    0    0  501    0  0.00000000000E+00 -0.00000000000E+00 -0.63110576025E+03  0.63110576025E+03  0.00000000000E+00 0. -1.
          5    1    1    2  502    0  0.52776633563E+02  0.32921233132E+02 -0.27110735038E+03  0.27819141984E+03  0.47000000000E+01 0.  1.
         -5    1    1    2    0  502 -0.21578269708E+02 -0.63610979955E+02 -0.19097269109E+03  0.20249601783E+03  0.47000000000E+01 0.  1.
        -11    1    1    2    0    0 -0.59927655526E+02  0.23190786326E+02 -0.12670174654E+03  0.14206501696E+03  0.00000000000E+00 0. -1.
         11    1    1    2    0    0  0.28729291671E+02  0.74989604964E+01 -0.16640395410E+02  0.34036882464E+02  0.00000000000E+00 0.  1.
<mgrwt>
<rscale>  0 0.12416545E+03</rscale>
<asrwt>0</asrwt>
<pdfrwt beam="2">  1        1 0.97093189E-01 0.13244791E+03</pdfrwt>
<pdfrwt beam="1">  1       -1 0.39513197E-02 0.13244791E+03</pdfrwt>
<totfact> 0.78632093E+03</totfact>
</mgrwt>
</event>
<event>
 6    1  0.8353100E-006  0.1284929E+03  0.7546771E-02  0.1246032E+00
         -1   -1    0    0    0  501 -0.00000000000E+00  0.00000000000E+00  0.91541710641E+02  0.91541710641E+02  0.00000000000E+00 0.  1.
          1   -1    0    0  501    0  0.00000000000E+00 -0.00000000000E+00 -0.14118437420E+03  0.14118437420E+03  0.00000000000E+00 0. -1.
          5    1    1    2  502    0 -0.65740849639E+02 -0.22898252547E+02 -0.39817071543E+02  0.80334789894E+02  0.47000000000E+01 0. -1.
         -5    1    1    2    0  502  0.57088241752E+02 -0.65999307542E+01 -0.16633586496E+02  0.60011604145E+02  0.47000000000E+01 0. -1.
        -11    1    1    2    0    0 -0.22588058993E+02  0.14875746277E+02  0.37481320961E+02  0.46220749208E+02  0.00000000000E+00 0.  1.
         11    1    1    2    0    0  0.31240666880E+02  0.14622437025E+02 -0.30673326479E+02  0.46158941592E+02  0.00000000000E+00 0. -1.
<mgrwt>
<rscale>  0 0.11823823E+03</rscale>
<asrwt>0</asrwt>
<pdfrwt beam="2">  1        1 0.21720673E-01 0.12849293E+03</pdfrwt>
<pdfrwt beam="1">  1       -1 0.14083340E-01 0.12849293E+03</pdfrwt>
<totfact> 0.76834642E+03</totfact>
</mgrwt>
</event>
<event>
 6    1  0.8353100E-006  0.1325151E+03  0.7546771E-02  0.1234796E+00
         -2   -1    0    0    0  501 -0.00000000000E+00  0.00000000000E+00  0.13999895623E+02  0.13999895623E+02  0.00000000000E+00 0.  1.
          2   -1    0    0  501    0  0.00000000000E+00 -0.00000000000E+00 -0.10160507744E+04  0.10160507744E+04  0.00000000000E+00 0. -1.
          5    1    1    2  502    0 -0.11219125673E+01  0.53388860097E+02 -0.37665145617E+03  0.38044715600E+03  0.47000000000E+01 0. -1.
         -5    1    1    2    0  502 -0.51420044349E+02 -0.35205615684E+02 -0.14743883187E+03  0.16013667750E+03  0.47000000000E+01 0.  1.
        -11    1    1    2    0    0  0.67538287201E+02  0.75427182081E+01 -0.40502445805E+03  0.41068616297E+03  0.00000000000E+00 0. -1.
         11    1    1    2    0    0 -0.14996330284E+02 -0.25725962622E+02 -0.72936132646E+02  0.78780673519E+02  0.00000000000E+00 0.  1.
<mgrwt>
<rscale>  0 0.12517512E+03</rscale>
<asrwt>0</asrwt>
<pdfrwt beam="2">  1        2 0.15631555E+00 0.13251510E+03</pdfrwt>
<pdfrwt beam="1">  1       -2 0.21538295E-02 0.13251510E+03</pdfrwt>
<totfact> 0.16983549E+04</totfact>
</mgrwt>
</event>
<event>
 6    1  0.8353100E-006  0.3009751E+03  0.7546771E-02  0.1084754E+00
         -4   -1    0    0    0  501 -0.00000000000E+00  0.00000000000E+00  0.89690862786E+03  0.89690862786E+03  0.00000000000E+00 0.  1.
          4   -1    0    0  501    0  0.00000000000E+00 -0.00000000000E+00 -0.25249514992E+02  0.25249514992E+02  0.00000000000E+00 0. -1.
          5    1    1    2  502    0 -0.25894229948E+02 -0.89375837731E+01  0.40690009106E+02  0.49276347160E+02  0.47000000000E+01 0.  1.
         -5    1    1    2    0  502  0.12023047460E+03  0.54429156750E+02  0.34868152871E+03  0.37285224767E+03  0.47000000000E+01 0.  1.
        -11    1    1    2    0    0 -0.42580707866E+02  0.16772855040E+02  0.11192234048E+03  0.12091755724E+03  0.00000000000E+00 0. -1.
         11    1    1    2    0    0 -0.51755536784E+02 -0.62264428017E+02  0.37036523456E+03  0.37911199078E+03  0.00000000000E+00 0.  1.
<mgrwt>
<rscale>  0 0.30097513E+03</rscale>
<asrwt>0</asrwt>
<pdfrwt beam="2">  1        4 0.38845415E-02 0.30097513E+03</pdfrwt>
<pdfrwt beam="1">  1       -4 0.13798592E+00 0.30097513E+03</pdfrwt>
<totfact> 0.26484504E+02</totfact>
</mgrwt>
</event>
<event>
 6    1  0.8353100E-006  0.1710000E+03  0.7546771E-02  0.1183364E+00
         -3   -1    0    0    0  501 -0.00000000000E+00  0.00000000000E+00  0.28491230610E+03  0.28491230610E+03  0.00000000000E+00 0.  1.
          3   -1    0    0  501    0  0.00000000000E+00 -0.00000000000E+00 -0.89136295813E+02  0.89136295813E+02  0.00000000000E+00 0. -1.
          5    1    1    2  502    0 -0.16843153622E+02 -0.19746996811E+02  0.51389300937E+01  0.26872556810E+02  0.47000000000E+01 0. -1.
         -5    1    1    2    0  502  0.10227413501E+03  0.99224509948E+02  0.94288195482E+02  0.17093231372E+03  0.47000000000E+01 0. -1.
        -11    1    1    2    0    0 -0.53175158887E+02 -0.80315803728E+02  0.27442062397E+02  0.10015634099E+03  0.00000000000E+00 0. -1.
         11    1    1    2    0    0 -0.32255822500E+02  0.83829059209E+00  0.68906822315E+02  0.76087390399E+02  0.00000000000E+00 0.  1.
<mgrwt>
<rscale>  0 0.16481672E+03</rscale>
<asrwt>0</asrwt>
<pdfrwt beam="2">  1        3 0.13713276E-01 0.17100004E+03</pdfrwt>
<pdfrwt beam="1">  1       -3 0.43832662E-01 0.17100004E+03</pdfrwt>
<totfact> 0.53809711E+02</totfact>
</mgrwt>
</event>
<event>
 6    1  0.8353100E-006  0.1394610E+03  0.7546771E-02  0.1224888E+00
         -2   -1    0    0    0  501 -0.00000000000E+00  0.00000000000E+00  0.16378299750E+02  0.16378299750E+02  0.00000000000E+00 0.  1.
          2   -1    0    0  501    0  0.00000000000E+00 -0.00000000000E+00 -0.10198735056E+04  0.10198735056E+04  0.00000000000E+00 0. -1.
          5    1    1    2  502    0  0.14361532706E+02  0.20578769723E+02 -0.32140171957E+02  0.41046559398E+02  0.47000000000E+01 0.  1.
         -5    1    1    2    0  502 -0.74519729718E+02 -0.34921765159E+02 -0.64982819574E+03  0.65503549047E+03  0.47000000000E+01 0.  1.
        -11    1    1    2    0    0  0.12345854583E+01 -0.33852216564E+02 -0.78425767893E+02  0.85428905162E+02  0.00000000000E+00 0.  1.
         11    1    1    2    0    0  0.58923611554E+02  0.48195211999E+02 -0.24310107023E+03  0.25474085028E+03  0.00000000000E+00 0. -1.
<mgrwt>
<rscale>  0 0.13174561E+03</rscale>
<asrwt>0</asrwt>
<pdfrwt beam="2">  1        2 0.15690358E+00 0.13946098E+03</pdfrwt>
<pdfrwt beam="1">  1       -2 0.25197390E-02 0.13946098E+03</pdfrwt>
<totfact> 0.13484683E+04</totfact>
</mgrwt>
</event>
<event>
 6    1  0.8353100E-006  0.1357506E+03  0.7546771E-02  0.1231148E+00
         -2   -1    0    0    0  501 -0.00000000000E+00  0.00000000000E+00  0.13661865694E+03  0.13661865694E+03  0.00000000000E+00 0.  1.
          2   -1    0    0  501    0  0.00000000000E+00 -0.00000000000E+00 -0.12041232126E+03  0.12041232126E+03  0.00000000000E+00 0. -1.
          5    1    1    2  502    0  0.56624563074E+02 -0.28564911136E+02 -0.30217469215E+02  0.70409379612E+02  0.47000000000E+01 0. -1.
         -5    1    1    2    0  502 -0.65091780963E+02 -0.23697801600E+02 -0.37792308303E+01  0.69533433219E+02  0.47000000000E+01 0. -1.
        -11    1    1    2    0    0  0.16735273052E+02 -0.18996724891E+02  0.35915629127E+02  0.43941749354E+02  0.00000000000E+00 0.  1.
         11    1    1    2    0    0 -0.82680551633E+01  0.71259437628E+02  0.14287406599E+02  0.73146416006E+02  0.00000000000E+00 0. -1.
<mgrwt>
<rscale>  0 0.12754298E+03</rscale>
<asrwt>0</asrwt>
<pdfrwt beam="2">  1        2 0.18524973E-01 0.13575056E+03</pdfrwt>
<pdfrwt beam="1">  1       -2 0.21018255E-01 0.13575056E+03</pdfrwt>
<totfact> 0.55710267E+03</totfact>
</mgrwt>
</event>
<event>
 6    1  0.8353100E-006  0.2008847E+03  0.7546771E-02  0.1153708E+00
          1   -1    0    0  501    0  0.00000000000E+00  0.00000000000E+00  0.36186774271E+02  0.36186774271E+02  0.00000000000E+00 0. -1.
         -1   -1    0    0    0  501 -0.00000000000E+00 -0.00000000000E+00 -0.11763990033E+04  0.11763990033E+04  0.00000000000E+00 0.  1.
          5    1    1    2  502    0 -0.83382609892E+02 -0.16416491759E+02 -0.15433326015E+03  0.17624700287E+03  0.47000000000E+01 0. -1.
         -5    1    1    2    0  502 -0.45686106954E+02  0.10627138838E+03 -0.20876504071E+03  0.23871690468E+03  0.47000000000E+01 0. -1.
        -11    1    1    2    0    0  0.18672535378E+02 -0.57777680105E+02 -0.19388519976E+03  0.20317085072E+03  0.00000000000E+00 0.  1.
         11    1    1    2    0    0  0.11039618147E+03 -0.32077216518E+02 -0.58322872846E+03  0.59445101935E+03  0.00000000000E+00 0. -1.
<mgrwt>
<rscale>  0 0.19536708E+03</rscale>
<asrwt>0</asrwt>
<pdfrwt beam="1">  1        1 0.55671964E-02 0.20088471E+03</pdfrwt>
<pdfrwt beam="2">  1       -1 0.18098445E+00 0.20088471E+03</pdfrwt>
<totfact> 0.32328567E+02</totfact>
</mgrwt>
</event>
<event>
 6    1  0.8353100E-006  0.1294188E+03  0.7546771E-02  0.1242191E+00
          1   -1    0    0  501    0  0.00000000000E+00  0.00000000000E+00  0.72432086751E+03  0.72432086751E+03  0.00000000000E+00 0. -1.
         -1   -1    0    0    0  501 -0.00000000000E+00 -0.00000000000E+00 -0.18592705755E+02  0.18592705755E+02  0.00000000000E+00 0.  1.
          5    1    1    2  502    0  0.27022604985E+01 -0.32144430837E+02  0.30223297382E+02  0.44453395262E+02  0.47000000000E+01 0. -1.
         -5    1    1    2    0  502  0.29242945536E+02  0.42373700563E+02  0.44797529835E+03  0.45094859828E+03  0.47000000000E+01 0. -1.
        -11    1    1    2    0    0 -0.44698360765E+02  0.24825152873E+02  0.17983509406E+03  0.18696227622E+03  0.00000000000E+00 0. -1.
         11    1    1    2    0    0  0.12753154731E+02 -0.35054422599E+02  0.47694471955E+02  0.60549303500E+02  0.00000000000E+00 0.  1.
<mgrwt>
<rscale>  0 0.12055062E+03</rscale>
<asrwt>0</asrwt>
<pdfrwt beam="1">  1        1 0.11143396E+00 0.12941885E+03</pdfrwt>
<pdfrwt beam="2">  1       -1 0.28604168E-02 0.12941885E+03</pdfrwt>
<totfact> 0.10358811E+04</totfact>
</mgrwt>
</event>
<event>
 6    1  0.8353100E-006  0.1324845E+03  0.7546771E-02  0.1236271E+00
          2   -1    0    0  501    0  0.00000000000E+00  0.00000000000E+00  0.37128145794E+03  0.37128145794E+03  0.00000000000E+00 0. -1.
         -2   -1    0    0    0  501 -0.00000000000E+00 -0.00000000000E+00 -0.40017331903E+02  0.40017331903E+02  0.00000000000E+00 0.  1.
          5    1    1    2  502    0 -0.43933243857E+02 -0.31210949204E+01  0.99246210747E+02  0.10868197411E+03  0.47000000000E+01 0.  1.
         -5    1    1    2    0  502  0.84595756726E+02  0.19605916944E+02  0.14057791258E+03  0.16530297499E+03  0.47000000000E+01 0.  1.
        -11    1    1    2    0    0 -0.39278409791E+02 -0.46675564875E+01  0.10908341222E+03  0.11603348819E+03  0.00000000000E+00 0. -1.
         11    1    1    2    0    0 -0.13841030779E+01 -0.11817265536E+02 -0.17643409504E+02  0.21280352558E+02  0.00000000000E+00 0.  1.
<mgrwt>
<rscale>  0 0.12423400E+03</rscale>
<asrwt>0</asrwt>
<pdfrwt beam="1">  1        2 0.57120222E-01 0.13248450E+03</pdfrwt>
<pdfrwt beam="2">  1       -2 0.61565128E-02 0.13248450E+03</pdfrwt>
<totfact> 0.11633559E+04</totfact>
</mgrwt>
</event>
<event>
 6    1  0.9181853E-006  0.2654250E+03  0.7546771E-02  0.1103927E+00
         -1   -1    0    0    0  501 -0.00000000000E+00  0.00000000000E+00  0.94857727766E+02  0.94857727766E+02  0.00000000000E+00 0.  1.
          1   -1    0    0  501    0  0.00000000000E+00 -0.00000000000E+00 -0.18567394028E+03  0.18567394028E+03  0.00000000000E+00 0. -1.
          5    1    1    2  502    0 -0.14019716635E+02 -0.83623380675E+01  0.37822075394E+02  0.41461796146E+02  0.47000000000E+01 0.  1.
         -5    1    1    2    0  502 -0.61241296681E+02  0.50746364106E+00 -0.99961634342E+02  0.11732507097E+03  0.47000000000E+01 0.  1.
        -11    1    1    2    0    0  0.37377118434E+02  0.49415405616E+02 -0.17817720195E+02  0.64470167113E+02  0.00000000000E+00 0.  1.
         11    1    1    2    0    0  0.37883894883E+02 -0.41560531190E+02 -0.10858933368E+02  0.57274633811E+02  0.00000000000E+00 0. -1.
<mgrwt>
<rscale>  0 0.26542500E+03</rscale>
<asrwt>0</asrwt>
<pdfrwt beam="2">  1        1 0.28565221E-01 0.26542500E+03</pdfrwt>
<pdfrwt beam="1">  1       -1 0.14593497E-01 0.26542500E+03</pdfrwt>
<totfact> 0.53668076E+03</totfact>
</mgrwt>
</event>
<event>
 6    1  0.8353100E-006  0.4236088E+03  0.7546771E-02  0.1035898E+00
          1   -1    0    0  501    0  0.00000000000E+00  0.00000000000E+00  0.54770615437E+03  0.54770615437E+03  0.00000000000E+00 0. -1.
         -1   -1    0    0    0  501 -0.00000000000E+00 -0.00000000000E+00 -0.81907259819E+02  0.81907259819E+02  0.00000000000E+00 0.  1.
          5    1    1    2  502    0 -0.38831273895E+02 -0.16262160087E+00  0.41377186950E+02  0.56939054067E+02  0.47000000000E+01 0. -1.
         -5    1    1    2    0  502  0.13274373957E+02  0.10989616320E+03  0.41288741085E+03  0.42749442070E+03  0.47000000000E+01 0. -1.
        -11    1    1    2    0    0  0.41183931341E+02 -0.40948091589E+02 -0.27831308197E+02  0.64400653114E+02  0.00000000000E+00 0.  1.
         11    1    1    2    0    0 -0.15627031402E+02 -0.68785450013E+02  0.39365604952E+02  0.80779286313E+02  0.00000000000E+00 0. -1.
<mgrwt>
<rscale>  0 0.42360883E+03</rscale>
<asrwt>0</asrwt>
<pdfrwt beam="1">  1        1 0.84262483E-01 0.42360883E+03</pdfrwt>
<pdfrwt beam="2">  1       -1 0.12601117E-01 0.42360883E+03</pdfrwt>
<totfact> 0.16986466E+03</totfact>
</mgrwt>
</event>
<event>
 6    1  0.8353100E-006  0.1362742E+03  0.7546771E-02  0.1231555E+00
          2   -1    0    0  501    0  0.00000000000E+00  0.00000000000E+00  0.66396620051E+03  0.66396620051E+03  0.00000000000E+00 0. -1.
         -2   -1    0    0    0  501 -0.00000000000E+00 -0.00000000000E+00 -0.23117833397E+02  0.23117833397E+02  0.00000000000E+00 0.  1.
          5    1    1    2  502    0  0.10439474816E+02 -0.11991551374E+02  0.28524339864E+00  0.16581655604E+02  0.47000000000E+01 0. -1.
         -5    1    1    2    0  502 -0.58673449983E+02 -0.12882871679E+02  0.44582622962E+03  0.44987960515E+03  0.47000000000E+01 0. -1.
        -11    1    1    2    0    0  0.18099492162E+02 -0.18879125810E+01 -0.33275873706E+01  0.18499423454E+02  0.00000000000E+00 0.  1.
         11    1    1    2    0    0  0.30134483005E+02  0.26762335633E+02  0.19806448146E+03  0.20212334970E+03  0.00000000000E+00 0. -1.
<mgrwt>
<rscale>  0 0.12727590E+03</rscale>
<asrwt>0</asrwt>
<pdfrwt beam="1">  1        2 0.10214863E+00 0.13627421E+03</pdfrwt>
<pdfrwt beam="2">  1       -2 0.35565903E-02 0.13627421E+03</pdfrwt>
<totfact> 0.13963428E+04</totfact>
</mgrwt>
</event>
<event>
 6    1  0.8353100E-006  0.1586402E+03  0.7546771E-02  0.1198012E+00
         -2   -1    0    0    0  501 -0.00000000000E+00  0.00000000000E+00  0.11703094496E+03  0.11703094496E+03  0.00000000000E+00 0.  1.
          2   -1    0    0  501    0  0.00000000000E+00 -0.00000000000E+00 -0.20176311611E+03  0.20176311611E+03  0.00000000000E+00 0. -1.
          5    1    1    2  502    0  0.28966655969E+02 -0.57986090556E+02 -0.34754018142E+02  0.73697935066E+02  0.47000000000E+01 0.  1.
         -5    1    1    2    0  502 -0.91859350264E+02 -0.16770037026E+02 -0.59765562247E+02  0.11096570102E+03  0.47000000000E+01 0.  1.
        -11    1    1    2    0    0  0.85617790303E+02  0.46874629884E+02  0.39434325616E+01  0.97689239958E+02  0.00000000000E+00 0.  1.
         11    1    1    2    0    0 -0.22725096008E+02  0.27881497698E+02  0.58439766708E+01  0.36441185021E+02  0.00000000000E+00 0. -1.
<mgrwt>
<rscale>  0 0.15202041E+03</rscale>
<asrwt>0</asrwt>
<pdfrwt beam="2">  1        2 0.31040479E-01 0.15864018E+03</pdfrwt>
<pdfrwt beam="1">  1       -2 0.18004761E-01 0.15864018E+03</pdfrwt>
<totfact> 0.41156202E+03</totfact>
</mgrwt>
</event>
<event>
 6    1  0.8353100E-006  0.1570357E+03  0.7546771E-02  0.1200195E+00
         -1   -1    0    0    0  501 -0.00000000000E+00  0.00000000000E+00  0.17980296139E+03  0.17980296139E+03  0.00000000000E+00 0.  1.
          1   -1    0    0  501    0  0.00000000000E+00 -0.00000000000E+00 -0.12294674200E+03  0.12294674200E+03  0.00000000000E+00 0. -1.
          5    1    1    2  502    0  0.63854520807E+02 -0.35180866282E+02  0.29360112004E+02  0.78734994487E+02  0.47000000000E+01 0.  1.
         -5    1    1    2    0  502  0.26476500775E+02  0.64799121894E+02 -0.34997695850E+02  0.78401913282E+02  0.47000000000E+01 0.  1.
        -11    1    1    2    0    0 -0.53811522573E+02  0.10279085662E+02 -0.94619372245E+01  0.55595573742E+02  0.00000000000E+00 0. -1.
         11    1    1    2    0    0 -0.36519499009E+02 -0.39897341274E+02  0.71955740462E+02  0.90017221874E+02  0.00000000000E+00 0.  1.
<mgrwt>
<rscale>  0 0.15022671E+03</rscale>
<asrwt>0</asrwt>
<pdfrwt beam="2">  1        1 0.18914883E-01 0.15703575E+03</pdfrwt>
<pdfrwt beam="1">  1       -1 0.27661994E-01 0.15703575E+03</pdfrwt>
<totfact> 0.31324632E+03</totfact>
</mgrwt>
</event>
<event>
 6    1  0.8353100E-006  0.1381990E+03  0.7546771E-02  0.1226917E+00
         -1   -1    0    0    0  501 -0.00000000000E+00  0.00000000000E+00  0.44136996964E+02  0.44136996964E+02  0.00000000000E+00 0.  1.
          1   -1    0    0  501    0  0.00000000000E+00 -0.00000000000E+00 -0.69410583863E+03  0.69410583863E+03  0.00000000000E+00 0. -1.
          5    1    1    2  502    0  0.46299476157E+02 -0.69928647581E+02 -0.31198751857E+03  0.32309744504E+03  0.47000000000E+01 0.  1.
         -5    1    1    2    0  502  0.93267466329E+01  0.50389483975E+02 -0.29192285366E+03  0.29642390387E+03  0.47000000000E+01 0.  1.
        -11    1    1    2    0    0 -0.50448460365E+02  0.35134479762E+02 -0.67765165674E+02  0.91496428893E+02  0.00000000000E+00 0. -1.
         11    1    1    2    0    0 -0.51777624244E+01 -0.15595316156E+02  0.21706696244E+02  0.27225057788E+02  0.00000000000E+00 0.  1.
<mgrwt>
<rscale>  0 0.13036347E+03</rscale>
<asrwt>0</asrwt>
<pdfrwt beam="2">  1        1 0.10678551E+00 0.13819900E+03</pdfrwt>
<pdfrwt beam="1">  1       -1 0.67903073E-02 0.13819900E+03</pdfrwt>
<totfact> 0.30912511E+03</totfact>
</mgrwt>
</event>
<event>
 6    1  0.8353100E-006  0.2437670E+03  0.7546771E-02  0.1117309E+00
         -1   -1    0    0    0  501 -0.00000000000E+00  0.00000000000E+00  0.24267316775E+03  0.24267316775E+03  0.00000000000E+00 0.  1.
          1   -1    0    0  501    0  0.00000000000E+00 -0.00000000000E+00 -0.61216439096E+02  0.61216439096E+02  0.00000000000E+00 0. -1.
          5    1    1    2  502    0  0.57627406016E+01  0.24899993687E+01  0.10818094731E+03  0.10846481751E+03  0.47000000000E+01 0.  1.
         -5    1    1    2    0  502  0.40095049523E+02 -0.33635167607E+02 -0.17760832633E+02  0.55465977608E+02  0.47000000000E+01 0.  1.
        -11    1    1    2    0    0 -0.65706675257E+02  0.68739112349E+01  0.32665421662E+02  0.73699712355E+02  0.00000000000E+00 0. -1.
         11    1    1    2    0    0  0.19848885132E+02  0.24271257004E+02  0.58371192312E+02  0.66259099371E+02  0.00000000000E+00 0.  1.
<mgrwt>
<rscale>  0 0.24376700E+03</rscale>
<asrwt>0</asrwt>
<pdfrwt beam="2">  1        1 0.94179138E-02 0.24376700E+03</pdfrwt>
<pdfrwt beam="1">  1       -1 0.37334333E-01 0.24376700E+03</pdfrwt>
<totfact> 0.48008058E+03</totfact>
</mgrwt>
</event>
<event>
 6    1  0.8353100E-006  0.1432741E+03  0.7546771E-02  0.1219323E+00
          2   -1    0    0  501    0  0.00000000000E+00  0.00000000000E+00  0.28996395120E+03  0.28996395120E+03  0.00000000000E+00 0. -1.
         -2   -1    0    0    0  501 -0.00000000000E+00 -0.00000000000E+00 -0.63473280177E+02  0.63473280177E+02  0.00000000000E+00 0.  1.
          5    1    1    2  502    0  0.74590339430E+02 -0.79275191873E+01  0.13497975264E+03  0.15449332646E+03  0.47000000000E+01 0. -1.
         -5    1    1    2    0  502 -0.23143600958E+02  0.55430559166E+02  0.43166443266E+02  0.74118857108E+02  0.47000000000E+01 0. -1.
        -11    1    1    2    0    0 -0.42327974836E+02  0.30348441699E+01  0.58704231707E+02  0.72436555365E+02  0.00000000000E+00 0.  1.
         11    1    1    2    0    0 -0.91187636361E+01 -0.50537884149E+02 -0.10359756589E+02  0.52388492449E+02  0.00000000000E+00 0. -1.
<mgrwt>
<rscale>  0 0.13563712E+03</rscale>
<asrwt>0</asrwt>
<pdfrwt beam="1">  1        2 0.44609838E-01 0.14327408E+03</pdfrwt>
<pdfrwt beam="2">  1       -2 0.97651202E-02 0.14327408E+03</pdfrwt>
<totfact> 0.74660012E+03</totfact>
</mgrwt>
</event>
<event>
 6    1  0.8353100E-006  0.1279971E+03  0.7546771E-02  0.1245894E+00
         -2   -1    0    0    0  501 -0.00000000000E+00  0.00000000000E+00  0.42274432127E+03  0.42274432127E+03  0.00000000000E+00 0. -1.
          2   -1    0    0  501    0  0.00000000000E+00 -0.00000000000E+00 -0.29754828374E+02  0.29754828374E+02  0.00000000000E+00 0.  1.
          5    1    1    2  502    0  0.46181044832E+02  0.13901684003E+02  0.19693140532E+03  0.20280536019E+03  0.47000000000E+01 0. -1.
         -5    1    1    2    0  502 -0.18910999220E+02 -0.17637752848E+02 -0.60953919719E+01  0.26980734244E+02  0.47000000000E+01 0. -1.
        -11    1    1    2    0    0 -0.39494841977E+02 -0.23497992605E+02  0.51047498732E+02  0.68686573113E+02  0.00000000000E+00 0.  1.
         11    1    1    2    0    0  0.12224796365E+02  0.27234061450E+02  0.15110598081E+03  0.15402648210E+03  0.00000000000E+00 0. -1.
<mgrwt>
<rscale>  0 0.11832009E+03</rscale>
<asrwt>0</asrwt>
<pdfrwt beam="2">  1        2 0.45776662E-02 0.12799713E+03</pdfrwt>
<pdfrwt beam="1">  1       -2 0.65037584E-01 0.12799713E+03</pdfrwt>
<totfact> 0.37416165E+03</totfact>
</mgrwt>
</event>
<event>
 6    1  0.8353100E-006  0.3865897E+03  0.7546771E-02  0.1048525E+00
          1   -1    0    0  501    0  0.00000000000E+00  0.00000000000E+00  0.45132841845E+03  0.45132841845E+03  0.00000000000E+00 0. -1.
         -1   -1    0    0    0  501 -0.00000000000E+00 -0.00000000000E+00 -0.82784287613E+02  0.82784287613E+02  0.00000000000E+00 0.  1.
          5    1    1    2  502    0 -0.22559701069E+02  0.14093713992E+02  0.28689150906E+01  0.27164196292E+02  0.47000000000E+01 0. -1.
         -5    1    1    2    0  502 -0.38356484655E+02 -0.16114138457E+03  0.19456032383E+03  0.25556520762E+03  0.47000000000E+01 0. -1.
        -11    1    1    2    0    0  0.36497011045E+02  0.63439309483E+02  0.14163687346E+03  0.15942892374E+03  0.00000000000E+00 0. -1.
         11    1    1    2    0    0  0.24419174679E+02  0.83608361092E+02  0.29478018455E+02  0.91954378409E+02  0.00000000000E+00 0.  1.
<mgrwt>
<rscale>  0 0.38658971E+03</rscale>
<asrwt>0</asrwt>
<pdfrwt beam="1">  1        1 0.69435140E-01 0.38658971E+03</pdfrwt>
<pdfrwt beam="2">  1       -1 0.12736045E-01 0.38658971E+03</pdfrwt>
<totfact> 0.21667752E+03</totfact>
</mgrwt>
</event>
<event>
 6    1  0.8353100E-006  0.4674347E+03  0.7546771E-02  0.1022647E+00
         -2   -1    0    0    0  501 -0.00000000000E+00  0.00000000000E+00  0.38576247121E+02  0.38576247121E+02  0.00000000000E+00 0.  1.
          2   -1    0    0  501    0  0.00000000000E+00 -0.00000000000E+00 -0.14159955218E+04  0.14159955218E+04  0.00000000000E+00 0. -1.
          5    1    1    2  502    0  0.24936855538E+01 -0.41675155295E+02 -0.17297646064E+03  0.17800557006E+03  0.47000000000E+01 0. -1.
         -5    1    1    2    0  502  0.16941246638E+03  0.20508597482E+02 -0.88696186497E+03  0.90324117833E+03  0.47000000000E+01 0. -1.
        -11    1    1    2    0    0 -0.10073501576E+03 -0.20851622276E+02 -0.23514781426E+03  0.25666481665E+03  0.00000000000E+00 0. -1.
         11    1    1    2    0    0 -0.71171136182E+02  0.42018180090E+02 -0.82333134835E+02  0.11666020391E+03  0.00000000000E+00 0.  1.
<mgrwt>
<rscale>  0 0.46743467E+03</rscale>
<asrwt>0</asrwt>
<pdfrwt beam="2">  1        2 0.21784548E+00 0.46743467E+03</pdfrwt>
<pdfrwt beam="1">  1       -2 0.59348069E-02 0.46743467E+03</pdfrwt>
<totfact> 0.22737569E+03</totfact>
</mgrwt>
</event>
<event>
 6    1  0.8353100E-006  0.1332552E+03  0.7546771E-02  0.1234527E+00
          1   -1    0    0  501    0  0.00000000000E+00  0.00000000000E+00  0.58809669447E+03  0.58809669447E+03  0.00000000000E+00 0. -1.
         -1   -1    0    0    0  501 -0.00000000000E+00 -0.00000000000E+00 -0.24067012879E+02  0.24067012879E+02  0.00000000000E+00 0.  1.
          5    1    1    2  502    0 -0.48240196018E+02 -0.17498047088E+02  0.16517349693E+03  0.17302506250E+03  0.47000000000E+01 0. -1.
         -5    1    1    2    0  502  0.47156637032E+02  0.63650608245E+02  0.16760801965E+03  0.18544456475E+03  0.47000000000E+01 0. -1.
        -11    1    1    2    0    0  0.41041968272E+01  0.91671352484E+01 -0.48706828068E+01  0.11162631915E+02  0.00000000000E+00 0.  1.
         11    1    1    2    0    0 -0.30206378413E+01 -0.55319696406E+02  0.23611884782E+03  0.24253144819E+03  0.00000000000E+00 0. -1.
<mgrwt>
<rscale>  0 0.12534772E+03</rscale>
<asrwt>0</asrwt>
<pdfrwt beam="1">  1        1 0.90476404E-01 0.13325515E+03</pdfrwt>
<pdfrwt beam="2">  1       -1 0.37026178E-02 0.13325515E+03</pdfrwt>
<totfact> 0.95282536E+03</totfact>
</mgrwt>
</event>
<event>
 6    1  0.8353100E-006  0.1329949E+03  0.7546771E-02  0.1236142E+00
          2   -1    0    0  501    0  0.00000000000E+00  0.00000000000E+00  0.79690122066E+03  0.79690122066E+03  0.00000000000E+00 0. -1.
         -2   -1    0    0    0  501 -0.00000000000E+00 -0.00000000000E+00 -0.18211666837E+02  0.18211666837E+02  0.00000000000E+00 0.  1.
          5    1    1    2  502    0  0.51173764755E+02  0.12411360464E+02  0.10288534674E+03  0.11567316302E+03  0.47000000000E+01 0. -1.
         -5    1    1    2    0  502 -0.24995998838E+02 -0.49523979763E+02  0.42853686590E+03  0.43213812603E+03  0.47000000000E+01 0. -1.
        -11    1    1    2    0    0 -0.45286268306E+02  0.47322897696E+02  0.23127973334E+03  0.24037599256E+03  0.00000000000E+00 0. -1.
         11    1    1    2    0    0  0.19108502388E+02 -0.10210278397E+02  0.15987607836E+02  0.26925605895E+02  0.00000000000E+00 0.  1.
<mgrwt>
<rscale>  0 0.12431637E+03</rscale>
<asrwt>0</asrwt>
<pdfrwt beam="1">  1        2 0.12260016E+00 0.13299489E+03</pdfrwt>
<pdfrwt beam="2">  1       -2 0.28017955E-02 0.13299489E+03</pdfrwt>
<totfact> 0.15901083E+04</totfact>
</mgrwt>
</event>
<event>
 6    1  0.8353100E-006  0.1699002E+03  0.7546771E-02  0.1186367E+00
         -1   -1    0    0    0  501 -0.00000000000E+00  0.00000000000E+00  0.68692778849E+02  0.68692778849E+02  0.00000000000E+00 0. -1.
          1   -1    0    0  501    0  0.00000000000E+00 -0.00000000000E+00 -0.36521286154E+03  0.36521286154E+03  0.00000000000E+00 0.  1.
          5    1    1    2  502    0 -0.11002519276E+02 -0.46542859521E+02 -0.17988415349E+03  0.18619262037E+03  0.47000000000E+01 0. -1.
         -5    1    1    2    0  502 -0.62836760798E+02 -0.41709519187E+02 -0.24178111422E+02  0.79339861169E+02  0.47000000000E+01 0. -1.
        -11    1    1    2    0    0  0.39343698268E+02  0.52981732224E+02 -0.98611248124E+02  0.11865567327E+03  0.00000000000E+00 0.  1.
         11    1    1    2    0    0  0.34495581805E+02  0.35270646483E+02  0.61534303458E+01  0.49717485580E+02  0.00000000000E+00 0. -1.
<mgrwt>
<rscale>  0 0.16208080E+03</rscale>
<asrwt>0</asrwt>
<pdfrwt beam="2">  1        1 0.56186594E-01 0.16990024E+03</pdfrwt>
<pdfrwt beam="1">  1       -1 0.10568120E-01 0.16990024E+03</pdfrwt>
<totfact> 0.37213511E+03</totfact>
</mgrwt>
</event>
<event>
 6    1  0.8353100E-006  0.1266325E+03  0.7546771E-02  0.1248774E+00
          1   -1    0    0  501    0  0.00000000000E+00  0.00000000000E+00  0.10435575980E+04  0.10435575980E+04  0.00000000000E+00 0. -1.
         -1   -1    0    0    0  501 -0.00000000000E+00 -0.00000000000E+00 -0.11469366083E+02  0.11469366083E+02  0.00000000000E+00 0.  1.
          5    1    1    2  502    0 -0.11233553380E+02 -0.70230646851E+01  0.61424721302E+03  0.61440804426E+03  0.47000000000E+01 0.  1.
         -5    1    1    2    0  502  0.18049194791E+02  0.26107686894E+02  0.36725876413E+02  0.48767455806E+02  0.47000000000E+01 0.  1.
        -11    1    1    2    0    0  0.28301575335E+02  0.22793543038E+02  0.14306343143E+03  0.14760647066E+03  0.00000000000E+00 0.  1.
         11    1    1    2    0    0 -0.35117216745E+02 -0.41878165246E+02  0.23805171107E+03  0.24424499336E+03  0.00000000000E+00 0. -1.
<mgrwt>
<rscale>  0 0.11662343E+03</rscale>
<asrwt>0</asrwt>
<pdfrwt beam="1">  1        1 0.16054725E+00 0.12663246E+03</pdfrwt>
<pdfrwt beam="2">  1       -1 0.17645187E-02 0.12663246E+03</pdfrwt>
<totfact> 0.11717372E+04</totfact>
</mgrwt>
</event>
<event>
 6    1  0.8353100E-006  0.1654259E+03  0.7546771E-02  0.1188921E+00
         -1   -1    0    0    0  501 -0.00000000000E+00  0.00000000000E+00  0.43101539019E+03  0.43101539019E+03  0.00000000000E+00 0.  1.
          1   -1    0    0  501    0  0.00000000000E+00 -0.00000000000E+00 -0.63435260505E+02  0.63435260505E+02  0.00000000000E+00 0. -1.
          5    1    1    2  502    0 -0.10032404131E+03  0.36204498695E+01  0.99944009828E+02  0.14173537322E+03  0.47000000000E+01 0.  1.
         -5    1    1    2    0  502  0.48178398952E+01 -0.54802855323E+02  0.79942869190E+01  0.55790350028E+02  0.47000000000E+01 0.  1.
        -11    1    1    2    0    0  0.74839471784E+02 -0.63284577354E+01  0.18980704628E+03  0.20412670264E+03  0.00000000000E+00 0.  1.
         11    1    1    2    0    0  0.20666729633E+02  0.57510863189E+02  0.69834786660E+02  0.92798224802E+02  0.00000000000E+00 0. -1.
<mgrwt>
<rscale>  0 0.15980167E+03</rscale>
<asrwt>0</asrwt>
<pdfrwt beam="2">  1        1 0.97592711E-02 0.16542592E+03</pdfrwt>
<pdfrwt beam="1">  1       -1 0.66310058E-01 0.16542592E+03</pdfrwt>
<totfact> 0.15587176E+03</totfact>
</mgrwt>
</event>
<event>
 6    1  0.8353100E-006  0.1606067E+03  0.7546771E-02  0.1196027E+00
          2   -1    0    0  501    0  0.00000000000E+00  0.00000000000E+00  0.14226402927E+04  0.14226402927E+04  0.00000000000E+00 0. -1.
         -2   -1    0    0    0  501 -0.00000000000E+00 -0.00000000000E+00 -0.15711918132E+02  0.15711918132E+02  0.00000000000E+00 0.  1.
          5    1    1    2  502    0  0.32303827759E+02 -0.40447656964E+02  0.14850243695E+03  0.15733599087E+03  0.47000000000E+01 0.  1.
         -5    1    1    2    0  502  0.65861670071E+02  0.63626836371E+02  0.72885234191E+03  0.73459782208E+03  0.47000000000E+01 0.  1.
        -11    1    1    2    0    0 -0.12070655457E+02 -0.41387512307E+02  0.12031395072E+03  0.12780482634E+03  0.00000000000E+00 0.  1.
         11    1    1    2    0    0 -0.86094842372E+02  0.18208332900E+02  0.40925964500E+03  0.41861357156E+03  0.00000000000E+00 0. -1.
<mgrwt>
<rscale>  0 0.15367639E+03</rscale>
<asrwt>0</asrwt>
<pdfrwt beam="1">  1        2 0.21886764E+00 0.16060672E+03</pdfrwt>
<pdfrwt beam="2">  1       -2 0.24172193E-02 0.16060672E+03</pdfrwt>
<totfact> 0.86209124E+03</totfact>
</mgrwt>
</event>
<event>
 6    1  0.8353100E-006  0.1346522E+03  0.7546771E-02  0.1232587E+00
          3   -1    0    0  501    0  0.00000000000E+00  0.00000000000E+00  0.75378370470E+02  0.75378370470E+02  0.00000000000E+00 0. -1.
         -3   -1    0    0    0  501 -0.00000000000E+00 -0.00000000000E+00 -0.19448539514E+03  0.19448539514E+03  0.00000000000E+00 0.  1.
          5    1    1    2  502    0  0.37937057920E+02  0.11034843072E+02  0.77627129260E+01  0.40538103523E+02  0.47000000000E+01 0. -1.
         -5    1    1    2    0  502 -0.85565204352E+02  0.43725021521E+01 -0.56147092766E+02  0.10254320551E+03  0.47000000000E+01 0. -1.
        -11    1    1    2    0    0  0.60030169077E+02  0.19135732143E+02 -0.24126307844E+02  0.67467593512E+02  0.00000000000E+00 0. -1.
         11    1    1    2    0    0 -0.12402022645E+02 -0.34543077367E+02 -0.46596336987E+02  0.59314863064E+02  0.00000000000E+00 0.  1.
<mgrwt>
<rscale>  0 0.12660149E+03</rscale>
<asrwt>0</asrwt>
<pdfrwt beam="1">  1        3 0.11596672E-01 0.13465219E+03</pdfrwt>
<pdfrwt beam="2">  1       -3 0.29920830E-01 0.13465219E+03</pdfrwt>
<totfact> 0.14258693E+03</totfact>
</mgrwt>
</event>
<event>
 6    1  0.8353100E-006  0.3223958E+03  0.7546771E-02  0.1074552E+00
          2   -1    0    0  501    0  0.00000000000E+00  0.00000000000E+00  0.14006084623E+03  0.14006084623E+03  0.00000000000E+00 0. -1.
         -2   -1    0    0    0  501 -0.00000000000E+00 -0.00000000000E+00 -0.18552480774E+03  0.18552480774E+03  0.00000000000E+00 0.  1.
          5    1    1    2  502    0  0.70593023876E+01 -0.28398667450E+02 -0.24088806620E+02  0.38192652009E+02  0.47000000000E+01 0.  1.
         -5    1    1    2    0  502 -0.10963206703E+03  0.24560932170E+02  0.60215689589E+02  0.12755566935E+03  0.47000000000E+01 0.  1.
        -11    1    1    2    0    0  0.23897629378E+02  0.33330825671E+02 -0.60701722567E+02  0.73258035412E+02  0.00000000000E+00 0.  1.
         11    1    1    2    0    0  0.78675135264E+02 -0.29493090392E+02 -0.20889121908E+02  0.86579297201E+02  0.00000000000E+00 0. -1.
<mgrwt>
<rscale>  0 0.32239579E+03</rscale>
<asrwt>0</asrwt>
<pdfrwt beam="1">  1        2 0.21547822E-01 0.32239579E+03</pdfrwt>
<pdfrwt beam="2">  1       -2 0.28542278E-01 0.32239579E+03</pdfrwt>
<totfact> 0.28586373E+03</totfact>
</mgrwt>
</event>
<event>
 6    1  0.8353100E-006  0.1703996E+03  0.7546771E-02  0.1183510E+00
          1   -1    0    0  501    0  0.00000000000E+00  0.00000000000E+00  0.48192207187E+03  0.48192207187E+03  0.00000000000E+00 0. -1.
         -1   -1    0    0    0  501 -0.00000000000E+00 -0.00000000000E+00 -0.15496339224E+03  0.15496339224E+03  0.00000000000E+00 0.  1.
          5    1    1    2  502    0  0.50253899747E+02  0.63304838669E+02  0.38266768790E+03  0.39113885821E+03  0.47000000000E+01 0. -1.
         -5    1    1    2    0  502  0.51195209338E+02 -0.66924210796E+01  0.42956869450E+02  0.67328453064E+02  0.47000000000E+01 0.  1.
        -11    1    1    2    0    0 -0.44065794979E+02 -0.62539822220E+02 -0.93040890335E+02  0.12045592939E+03  0.00000000000E+00 0.  1.
         11    1    1    2    0    0 -0.57383314106E+02  0.59274046310E+01 -0.56249873894E+01  0.57962223444E+02  0.00000000000E+00 0. -1.
<mgrwt>
<rscale>  0 0.16468183E+03</rscale>
<asrwt>0</asrwt>
<pdfrwt beam="1">  1        1 0.74141857E-01 0.17039956E+03</pdfrwt>
<pdfrwt beam="2">  1       -1 0.23840522E-01 0.17039956E+03</pdfrwt>
<totfact> 0.71847521E+02</totfact>
</mgrwt>
</event>
<event>
 6    1  0.8353100E-006  0.2667696E+03  0.7546771E-02  0.1105047E+00
         -1   -1    0    0    0  501 -0.00000000000E+00  0.00000000000E+00  0.14181355085E+03  0.14181355085E+03  0.00000000000E+00 0.  1.
          1   -1    0    0  501    0  0.00000000000E+00 -0.00000000000E+00 -0.48575090445E+03  0.48575090445E+03  0.00000000000E+00 0. -1.
          5    1    1    2  502    0 -0.12390766470E+03  0.31633011741E+02 -0.72842767806E+02  0.14724780346E+03  0.47000000000E+01 0. -1.
         -5    1    1    2    0  502 -0.10647880301E+03 -0.81142774407E+02 -0.14264405786E+03  0.19568163575E+03  0.47000000000E+01 0. -1.
        -11    1    1    2    0    0  0.10714253966E+03 -0.57872633595E+01 -0.99826113525E+02  0.14655466272E+03  0.00000000000E+00 0. -1.
         11    1    1    2    0    0  0.12324392804E+03  0.55297026026E+02 -0.28624414416E+02  0.13808035337E+03  0.00000000000E+00 0.  1.
<mgrwt>
<rscale>  0 0.26351905E+03</rscale>
<asrwt>0</asrwt>
<pdfrwt beam="2">  1        1 0.74730908E-01 0.26676962E+03</pdfrwt>
<pdfrwt beam="1">  1       -1 0.21817469E-01 0.26676962E+03</pdfrwt>
<totfact> 0.82236821E+02</totfact>
</mgrwt>
</event>
<event>
 6    1  0.8353100E-006  0.1663104E+03  0.7546771E-02  0.1188741E+00
          1   -1    0    0  501    0  0.00000000000E+00  0.00000000000E+00  0.43048166659E+03  0.43048166659E+03  0.00000000000E+00 0. -1.
         -1   -1    0    0    0  501 -0.00000000000E+00 -0.00000000000E+00 -0.56123710038E+02  0.56123710038E+02  0.00000000000E+00 0.  1.
          5    1    1    2  502    0  0.24907550235E+02 -0.20146376834E+02  0.78724119668E+02  0.85122497471E+02  0.47000000000E+01 0. -1.
         -5    1    1    2    0  502 -0.11523474421E+03 -0.42108833580E+02  0.93782977961E+02  0.15449769284E+03  0.47000000000E+01 0. -1.
        -11    1    1    2    0    0  0.48890339571E+02  0.74617591943E+02  0.17404403754E+03  0.19557448028E+03  0.00000000000E+00 0. -1.
         11    1    1    2    0    0  0.41436854404E+02 -0.12362381528E+02  0.27806821377E+02  0.51410706035E+02  0.00000000000E+00 0.  1.
<mgrwt>
<rscale>  0 0.15996089E+03</rscale>
<asrwt>0</asrwt>
<pdfrwt beam="1">  1        1 0.66227947E-01 0.16631036E+03</pdfrwt>
<pdfrwt beam="2">  1       -1 0.86344172E-02 0.16631036E+03</pdfrwt>
<totfact> 0.41115030E+03</totfact>
</mgrwt>
</event>
<event>
 6    1  0.8353100E-006  0.2959476E+03  0.7546771E-02  0.1087284E+00
         -2   -1    0    0    0  501 -0.00000000000E+00  0.00000000000E+00  0.85351994431E+02  0.85351994431E+02  0.00000000000E+00 0.  1.
          2   -1    0    0  501    0  0.00000000000E+00 -0.00000000000E+00 -0.25654047850E+03  0.25654047850E+03  0.00000000000E+00 0. -1.
          5    1    1    2  502    0 -0.26542590061E+02 -0.11393511372E+03 -0.13907252456E+03  0.18179377414E+03  0.47000000000E+01 0. -1.
         -5    1    1    2    0  502  0.56533563603E+01  0.23097042836E+02  0.39017224639E+01  0.24550911675E+02  0.47000000000E+01 0. -1.
        -11    1    1    2    0    0 -0.29050365662E+01  0.56476481997E+02  0.24802350225E+02  0.61751022930E+02  0.00000000000E+00 0.  1.
         11    1    1    2    0    0  0.23794270266E+02  0.34361588891E+02 -0.60820032201E+02  0.73796764194E+02  0.00000000000E+00 0. -1.
<mgrwt>
<rscale>  0 0.29594757E+03</rscale>
<asrwt>0</asrwt>
<pdfrwt beam="2">  1        2 0.39467766E-01 0.29594757E+03</pdfrwt>
<pdfrwt beam="1">  1       -2 0.13131076E-01 0.29594757E+03</pdfrwt>
<totfact> 0.55131594E+03</totfact>
</mgrwt>
</event>
<event>
 6    1  0.8353100E-006  0.1384747E+03  0.7546771E-02  0.1227576E+00
          1   -1    0    0  501    0  0.00000000000E+00  0.00000000000E+00  0.13394565387E+02  0.13394565387E+02  0.00000000000E+00 0. -1.
         -1   -1    0    0    0  501 -0.00000000000E+00 -0.00000000000E+00 -0.11323453332E+04  0.11323453332E+04  0.00000000000E+00 0.  1.
          5    1    1    2  502    0 -0.27466163025E+02 -0.48468096550E+02 -0.10501004390E+03  0.11896531349E+03  0.47000000000E+01 0. -1.
         -5    1    1    2    0  502  0.43168314340E+02 -0.88835107740E+01 -0.48751045768E+03  0.48952115018E+03  0.47000000000E+01 0. -1.
        -11    1    1    2    0    0 -0.41389686628E+02  0.66821712955E+02 -0.42419771043E+03  0.43141852651E+03  0.00000000000E+00 0.  1.
         11    1    1    2    0    0  0.25687535313E+02 -0.94701056317E+01 -0.10223255583E+03  0.10583490843E+03  0.00000000000E+00 0. -1.
<mgrwt>
<rscale>  0 0.12991928E+03</rscale>
<asrwt>0</asrwt>
<pdfrwt beam="1">  1        1 0.20607017E-02 0.13847466E+03</pdfrwt>
<pdfrwt beam="2">  1       -1 0.17420703E+00 0.13847466E+03</pdfrwt>
<totfact> 0.14215717E+03</totfact>
</mgrwt>
</event>
<event>
 6    1  0.8353100E-006  0.1883119E+03  0.7546771E-02  0.1165101E+00
         -1   -1    0    0    0  501 -0.00000000000E+00  0.00000000000E+00  0.33331205527E+02  0.33331205527E+02  0.00000000000E+00 0.  1.
          1   -1    0    0  501    0  0.00000000000E+00 -0.00000000000E+00 -0.97799216956E+03  0.97799216956E+03  0.00000000000E+00 0. -1.
          5    1    1    2  502    0 -0.26519328430E+02 -0.23590524286E+02 -0.27758979632E+02  0.45303847151E+02  0.47000000000E+01 0.  1.
         -5    1    1    2    0  502  0.62603096155E+01 -0.11579824342E+03 -0.55941026885E+03  0.57132334413E+03  0.47000000000E+01 0.  1.
        -11    1    1    2    0    0 -0.84112315860E+01  0.36245837707E+02 -0.20517690334E+03  0.20852355079E+03  0.00000000000E+00 0. -1.
         11    1    1    2    0    0  0.28670250401E+02  0.10314293000E+03 -0.15231481222E+03  0.18617263302E+03  0.00000000000E+00 0.  1.
<mgrwt>
<rscale>  0 0.18281991E+03</rscale>
<asrwt>0</asrwt>
<pdfrwt beam="2">  1        1 0.15046033E+00 0.18831189E+03</pdfrwt>
<pdfrwt beam="1">  1       -1 0.51278778E-02 0.18831189E+03</pdfrwt>
<totfact> 0.27950621E+03</totfact>
</mgrwt>
</event>
<event>
 6    1  0.8353100E-006  0.2153981E+03  0.7546771E-02  0.1141079E+00
         -1   -1    0    0    0  501 -0.00000000000E+00  0.00000000000E+00  0.77706836370E+02  0.77706836370E+02  0.00000000000E+00 0.  1.
          1   -1    0    0  501    0  0.00000000000E+00 -0.00000000000E+00 -0.58127755483E+03  0.58127755483E+03  0.00000000000E+00 0. -1.
          5    1    1    2  502    0 -0.86292865196E+02  0.11485168136E+03 -0.14866296037E+03  0.20678523419E+03  0.47000000000E+01 0.  1.
         -5    1    1    2    0  502 -0.38236213133E+02  0.86889732841E+01 -0.19381789230E+03  0.19780033272E+03  0.47000000000E+01 0.  1.
        -11    1    1    2    0    0 -0.94395580170E+01 -0.16652981669E+02  0.71563938307E-01  0.19142418223E+02  0.00000000000E+00 0.  1.
         11    1    1    2    0    0  0.13396863635E+03 -0.10688767298E+03 -0.16116142974E+03  0.23525640606E+03  0.00000000000E+00 0. -1.
<mgrwt>
<rscale>  0 0.21061618E+03</rscale>
<asrwt>0</asrwt>
<pdfrwt beam="2">  1        1 0.89427322E-01 0.21539811E+03</pdfrwt>
<pdfrwt beam="1">  1       -1 0.11954897E-01 0.21539811E+03</pdfrwt>
<totfact> 0.16875107E+03</totfact>
</mgrwt>
</event>
<event>
 6    1  0.8353100E-006  0.3416957E+03  0.7546771E-02  0.1066076E+00
         -2   -1    0    0    0  501 -0.00000000000E+00  0.00000000000E+00  0.26248091660E+03  0.26248091660E+03  0.00000000000E+00 0.  1.
          2   -1    0    0  501    0  0.00000000000E+00 -0.00000000000E+00 -0.11120424446E+03  0.11120424446E+03  0.00000000000E+00 0. -1.
          5    1    1    2  502    0 -0.33311067573E+02 -0.85659420875E+02 -0.50061589453E+02  0.10476362129E+03  0.47000000000E+01 0.  1.
         -5    1    1    2    0  502 -0.37086061056E+01 -0.22804152024E+02  0.60748221782E+02  0.65163022938E+02  0.47000000000E+01 0.  1.
        -11    1    1    2    0    0  0.52881829384E+02  0.30828101679E+02  0.31256788391E+02  0.68730244817E+02  0.00000000000E+00 0. -1.
         11    1    1    2    0    0 -0.15862155705E+02  0.77635471221E+02  0.10933325142E+03  0.13502827201E+03  0.00000000000E+00 0.  1.
<mgrwt>
<rscale>  0 0.34169572E+03</rscale>
<asrwt>0</asrwt>
<pdfrwt beam="2">  1        2 0.17108345E-01 0.34169572E+03</pdfrwt>
<pdfrwt beam="1">  1       -2 0.40381679E-01 0.34169572E+03</pdfrwt>
<totfact> 0.19581956E+03</totfact>
</mgrwt>
</event>
<event>
 6    1  0.8353100E-006  0.2764627E+03  0.7546771E-02  0.1099562E+00
          2   -1    0    0  501    0  0.00000000000E+00  0.00000000000E+00  0.96834691055E+02  0.96834691055E+02  0.00000000000E+00 0. -1.
         -2   -1    0    0    0  501 -0.00000000000E+00 -0.00000000000E+00 -0.75597786436E+03  0.75597786436E+03  0.00000000000E+00 0.  1.
          5    1    1    2  502    0 -0.16596510396E+03 -0.19009805566E+03 -0.28252291399E+03  0.37884426012E+03  0.47000000000E+01 0.  1.
         -5    1    1    2    0  502 -0.12363403332E+02  0.19790458565E+02 -0.21391711156E+02  0.32003301366E+02  0.47000000000E+01 0.  1.
        -11    1    1    2    0    0  0.12076155405E+03  0.93777956380E+02 -0.14395755479E+03  0.21000341812E+03  0.00000000000E+00 0.  1.
         11    1    1    2    0    0  0.57566953245E+02  0.76529640712E+02 -0.21127099336E+03  0.23196157581E+03  0.00000000000E+00 0. -1.
<mgrwt>
<rscale>  0 0.27302227E+03</rscale>
<asrwt>0</asrwt>
<pdfrwt beam="1">  1        2 0.14897645E-01 0.27646269E+03</pdfrwt>
<pdfrwt beam="2">  1       -2 0.11630429E+00 0.27646269E+03</pdfrwt>
<totfact> 0.23597121E+02</totfact>
</mgrwt>
</event>
<event>
 6    1  0.8353100E-006  0.1315507E+03  0.7546771E-02  0.1237897E+00
          2   -1    0    0  501    0  0.00000000000E+00  0.00000000000E+00  0.93539285167E+03  0.93539285167E+03  0.00000000000E+00 0. -1.
         -2   -1    0    0    0  501 -0.00000000000E+00 -0.00000000000E+00 -0.17029555233E+02  0.17029555233E+02  0.00000000000E+00 0.  1.
          5    1    1    2  502    0 -0.23793172524E+02  0.19727981428E+02  0.42609763398E+02  0.52848748773E+02  0.47000000000E+01 0.  1.
         -5    1    1    2    0  502 -0.76600409728E+00 -0.52557922183E+02  0.65032002346E+03  0.65245777247E+03  0.47000000000E+01 0.  1.
        -11    1    1    2    0    0  0.35626592156E+02 -0.24111556555E+02  0.88447368091E+02  0.98354248257E+02  0.00000000000E+00 0. -1.
         11    1    1    2    0    0 -0.11067415535E+02  0.56941497310E+02  0.13698614149E+03  0.14876163740E+03  0.00000000000E+00 0.  1.
<mgrwt>
<rscale>  0 0.12320810E+03</rscale>
<asrwt>0</asrwt>
<pdfrwt beam="1">  1        2 0.14390655E+00 0.13155075E+03</pdfrwt>
<pdfrwt beam="2">  1       -2 0.26199323E-02 0.13155075E+03</pdfrwt>
<totfact> 0.14272631E+04</totfact>
</mgrwt>
</event>
<event>
 6    1  0.8353100E-006  0.1707762E+03  0.7546771E-02  0.1183451E+00
          1   -1    0    0  501    0  0.00000000000E+00  0.00000000000E+00  0.75262428462E+03  0.75262428462E+03  0.00000000000E+00 0. -1.
         -1   -1    0    0    0  501 -0.00000000000E+00 -0.00000000000E+00 -0.36092731575E+02  0.36092731575E+02  0.00000000000E+00 0.  1.
          5    1    1    2  502    0  0.97886405195E+02  0.47587503501E+02  0.28383065941E+03  0.30402015070E+03  0.47000000000E+01 0.  1.
         -5    1    1    2    0  502  0.17992964671E+02 -0.58024046031E+02  0.19923220239E+03  0.20834129971E+03  0.47000000000E+01 0.  1.
        -11    1    1    2    0    0 -0.70886154899E+02 -0.79503081650E+01  0.51425738019E+02  0.87935549620E+02  0.00000000000E+00 0.  1.
         11    1    1    2    0    0 -0.44993214967E+02  0.18386850695E+02  0.18204295322E+03  0.18842001616E+03  0.00000000000E+00 0. -1.
<mgrwt>
<rscale>  0 0.16473608E+03</rscale>
<asrwt>0</asrwt>
<pdfrwt beam="1">  1        1 0.11578834E+00 0.17077625E+03</pdfrwt>
<pdfrwt beam="2">  1       -1 0.55527285E-02 0.17077625E+03</pdfrwt>
<totfact> 0.37400396E+03</totfact>
</mgrwt>
</event>
<event>
 6    1  0.8353100E-006  0.3142346E+03  0.7546771E-02  0.1079757E+00
         -2   -1    0    0    0  501 -0.00000000000E+00  0.00000000000E+00  0.20646387369E+03  0.20646387369E+03  0.00000000000E+00 0.  1.
          2   -1    0    0  501    0  0.00000000000E+00 -0.00000000000E+00 -0.46140818480E+03  0.46140818480E+03  0.00000000000E+00 0. -1.
          5    1    1    2  502    0 -0.18963364475E+03 -0.23616515932E+02 -0.45202779183E+02  0.19642820646E+03  0.47000000000E+01 0. -1.
         -5    1    1    2    0  502 -0.97021456702E+02  0.54439809197E+02 -0.10028016027E+03  0.14985011321E+03  0.47000000000E+01 0. -1.
        -11    1    1    2    0    0  0.91606966610E+02 -0.53409735547E+02 -0.38139098082E+02  0.11268995956E+03  0.00000000000E+00 0. -1.
         11    1    1    2    0    0  0.19504813484E+03  0.22586442283E+02 -0.71322273575E+02  0.20890377926E+03  0.00000000000E+00 0.  1.
<mgrwt>
<rscale>  0 0.31123109E+03</rscale>
<asrwt>0</asrwt>
<pdfrwt beam="2">  1        2 0.70985874E-01 0.31423461E+03</pdfrwt>
<pdfrwt beam="1">  1       -2 0.31763673E-01 0.31423461E+03</pdfrwt>
<totfact> 0.62942852E+02</totfact>
</mgrwt>
</event>
<event>
 6    1  0.8353100E-006  0.1488439E+03  0.7546771E-02  0.1210813E+00
          1   -1    0    0  501    0  0.00000000000E+00  0.00000000000E+00  0.13684448886E+04  0.13684448886E+04  0.00000000000E+00 0. -1.
         -1   -1    0    0    0  501 -0.00000000000E+00 -0.00000000000E+00 -0.19177413045E+02  0.19177413045E+02  0.00000000000E+00 0.  1.
          5    1    1    2  502    0 -0.24923059681E+02 -0.23838279439E+02  0.61705875920E+03  0.61803966278E+03  0.47000000000E+01 0. -1.
         -5    1    1    2    0  502 -0.19002700504E+02  0.91660131718E+02  0.47946333546E+03  0.48853849636E+03  0.47000000000E+01 0. -1.
        -11    1    1    2    0    0 -0.19278047225E+01 -0.75537440052E+02  0.14007231264E+03  0.15915361777E+03  0.00000000000E+00 0.  1.
         11    1    1    2    0    0  0.45853564907E+02  0.77155877732E+01  0.11267306824E+03  0.12189052472E+03  0.00000000000E+00 0. -1.
<mgrwt>
<rscale>  0 0.14188633E+03</rscale>
<asrwt>0</asrwt>
<pdfrwt beam="1">  1        1 0.21052991E+00 0.14884394E+03</pdfrwt>
<pdfrwt beam="2">  1       -1 0.29503723E-02 0.14884394E+03</pdfrwt>
<totfact> 0.33572428E+03</totfact>
</mgrwt>
</event>
<event>
 6    1  0.8353100E-006  0.1363033E+03  0.7546771E-02  0.1230553E+00
         -1   -1    0    0    0  501 -0.00000000000E+00  0.00000000000E+00  0.22460952235E+02  0.22460952235E+02  0.00000000000E+00 0.  1.
          1   -1    0    0  501    0  0.00000000000E+00 -0.00000000000E+00 -0.11843223533E+04  0.11843223533E+04  0.00000000000E+00 0. -1.
          5    1    1    2  502    0 -0.37063671636E+02  0.77213368602E+02 -0.58192817184E+03  0.58821603789E+03  0.47000000000E+01 0. -1.
         -5    1    1    2    0  502  0.43256403777E+02 -0.23249755103E+02 -0.44196579623E+03  0.44471060547E+03  0.47000000000E+01 0. -1.
        -11    1    1    2    0    0  0.98913756471E+01 -0.76737157320E+02 -0.10881322282E+03  0.13351684570E+03  0.00000000000E+00 0.  1.
         11    1    1    2    0    0 -0.16084107787E+02  0.22773543820E+02 -0.29154210134E+02  0.40339816434E+02  0.00000000000E+00 0. -1.
<mgrwt>
<rscale>  0 0.12793490E+03</rscale>
<asrwt>0</asrwt>
<pdfrwt beam="2">  1        1 0.18220344E+00 0.13630331E+03</pdfrwt>
<pdfrwt beam="1">  1       -1 0.34555311E-02 0.13630331E+03</pdfrwt>
<totfact> 0.35386580E+03</totfact>
</mgrwt>
</event>
<event>
 6    1  0.1248894E-005  0.3323158E+03  0.7546771E-02  0.1070117E+00
         -1   -1    0    0    0  501 -0.00000000000E+00  0.00000000000E+00  0.87160954618E+02  0.87160954618E+02  0.00000000000E+00 0.  1.
          1   -1    0    0  501    0  0.00000000000E+00 -0.00000000000E+00 -0.31675248334E+03  0.31675248334E+03  0.00000000000E+00 0. -1.
          5    1    1    2  502    0 -0.90317579352E+01  0.14898216973E+02  0.10583099700E+02  0.20919405337E+02  0.47000000000E+01 0. -1.
         -5    1    1    2    0  502  0.62272119491E+02 -0.12789404703E+03 -0.12653210298E+03  0.19043940562E+03  0.47000000000E+01 0. -1.
        -11    1    1    2    0    0 -0.46058308391E+02  0.43320753270E+02 -0.10419005494E+03  0.12187544045E+03  0.00000000000E+00 0.  1.
         11    1    1    2    0    0 -0.71820531644E+01  0.69675076784E+02 -0.94524705036E+01  0.70679186548E+02  0.00000000000E+00 0. -1.
<mgrwt>
<rscale>  0 0.33231581E+03</rscale>
<asrwt>0</asrwt>
<pdfrwt beam="2">  1        1 0.48731151E-01 0.33231581E+03</pdfrwt>
<pdfrwt beam="1">  1       -1 0.13409378E-01 0.33231581E+03</pdfrwt>
<totfact> 0.31471627E+03</totfact>
</mgrwt>
</event>
<event>
 6    1  0.8353100E-006  0.2655070E+03  0.7546771E-02  0.1103879E+00
         -2   -1    0    0    0  501 -0.00000000000E+00  0.00000000000E+00  0.12011819469E+02  0.12011819469E+02  0.00000000000E+00 0.  1.
          2   -1    0    0  501    0  0.00000000000E+00 -0.00000000000E+00 -0.14671796311E+04  0.14671796311E+04  0.00000000000E+00 0. -1.
          5    1    1    2  502    0  0.30528315803E+02 -0.42004524876E+01 -0.59497005396E+03  0.59578610002E+03  0.47000000000E+01 0. -1.
         -5    1    1    2    0  502 -0.15439851344E+02  0.77579406081E+02 -0.27050692765E+03  0.28187415838E+03  0.47000000000E+01 0. -1.
        -11    1    1    2    0    0 -0.53774333449E+02 -0.35298765077E+02 -0.33500223559E+03  0.34112194242E+03  0.00000000000E+00 0.  1.
         11    1    1    2    0    0  0.38685868990E+02 -0.38080188517E+02 -0.25468859439E+03  0.26040924970E+03  0.00000000000E+00 0. -1.
<mgrwt>
<rscale>  0 0.26550704E+03</rscale>
<asrwt>0</asrwt>
<pdfrwt beam="2">  1        2 0.22571983E+00 0.26550704E+03</pdfrwt>
<pdfrwt beam="1">  1       -2 0.18479731E-02 0.26550704E+03</pdfrwt>
<totfact> 0.12327726E+04</totfact>
</mgrwt>
</event>
<event>
 6    1  0.8353100E-006  0.2148624E+03  0.7546771E-02  0.1141351E+00
          2   -1    0    0  501    0  0.00000000000E+00  0.00000000000E+00  0.50406468736E+02  0.50406468736E+02  0.00000000000E+00 0. -1.
         -2   -1    0    0    0  501 -0.00000000000E+00 -0.00000000000E+00 -0.86371880981E+03  0.86371880981E+03  0.00000000000E+00 0.  1.
          5    1    1    2  502    0 -0.41612653038E+02 -0.15648252052E+02 -0.33226665650E+02  0.55700825805E+02  0.47000000000E+01 0. -1.
         -5    1    1    2    0  502  0.24229827648E+02 -0.15824416173E+03 -0.31751663968E+03  0.35562227959E+03  0.47000000000E+01 0. -1.
        -11    1    1    2    0    0  0.79019200717E+01  0.18309015656E+03 -0.44021257139E+03  0.47683493347E+03  0.00000000000E+00 0.  1.
         11    1    1    2    0    0  0.94809053187E+01 -0.91977427838E+01 -0.22356464355E+02  0.25967239677E+02  0.00000000000E+00 0. -1.
<mgrwt>
<rscale>  0 0.21027131E+03</rscale>
<asrwt>0</asrwt>
<pdfrwt beam="1">  1        2 0.77548418E-02 0.21486235E+03</pdfrwt>
<pdfrwt beam="2">  1       -2 0.13287981E+00 0.21486235E+03</pdfrwt>
<totfact> 0.38074128E+02</totfact>
</mgrwt>
</event>
<event>
 6    1  0.8353100E-006  0.2394465E+03  0.7546771E-02  0.1123045E+00
          4   -1    0    0  501    0  0.00000000000E+00  0.00000000000E+00  0.66312977497E+03  0.66312977497E+03  0.00000000000E+00 0. -1.
         -4   -1    0    0    0  501 -0.00000000000E+00 -0.00000000000E+00 -0.87780356255E+02  0.87780356255E+02  0.00000000000E+00 0.  1.
          5    1    1    2  502    0  0.76600840969E+02 -0.87112451068E+02  0.15760969343E+03  0.19575283761E+03  0.47000000000E+01 0. -1.
         -5    1    1    2    0  502  0.10454558517E+03 -0.71925427904E+01  0.31984507521E+02  0.10966590524E+03  0.47000000000E+01 0. -1.
        -11    1    1    2    0    0 -0.58773151810E+02  0.99106352202E+01  0.19348645371E+03  0.20245866698E+03  0.00000000000E+00 0. -1.
         11    1    1    2    0    0 -0.12237327433E+03  0.84394358638E+02  0.19226876404E+03  0.24303272139E+03  0.00000000000E+00 0.  1.
<mgrwt>
<rscale>  0 0.23518106E+03</rscale>
<asrwt>0</asrwt>
<pdfrwt beam="1">  1        4 0.10201996E+00 0.23944654E+03</pdfrwt>
<pdfrwt beam="2">  1       -4 0.13504671E-01 0.23944654E+03</pdfrwt>
<totfact> 0.67095256E+01</totfact>
</mgrwt>
</event>
<event>
 6    1  0.8353100E-006  0.3596590E+03  0.7546771E-02  0.1059777E+00
         -1   -1    0    0    0  501 -0.00000000000E+00  0.00000000000E+00  0.12056042799E+04  0.12056042799E+04  0.00000000000E+00 0.  1.
          1   -1    0    0  501    0  0.00000000000E+00 -0.00000000000E+00 -0.11672637526E+03  0.11672637526E+03  0.00000000000E+00 0. -1.
          5    1    1    2  502    0 -0.10340603728E+03 -0.13756271956E+03  0.86180637655E+02  0.19252403140E+03  0.47000000000E+01 0.  1.
         -5    1    1    2    0  502 -0.83352956720E+02 -0.14324061798E+03  0.24873418758E+03  0.29892536879E+03  0.47000000000E+01 0.  1.
        -11    1    1    2    0    0  0.41188685633E+02  0.11549668154E+03  0.19825458878E+03  0.23311128939E+03  0.00000000000E+00 0. -1.
         11    1    1    2    0    0  0.14557030837E+03  0.16530665600E+03  0.55570849060E+03  0.59776996556E+03  0.00000000000E+00 0.  1.
<mgrwt>
<rscale>  0 0.35700156E+03</rscale>
<asrwt>0</asrwt>
<pdfrwt beam="2">  1        1 0.17957905E-01 0.35965897E+03</pdfrwt>
<pdfrwt beam="1">  1       -1 0.18547757E+00 0.35965897E+03</pdfrwt>
<totfact> 0.61043097E+01</totfact>
</mgrwt>
</event>
<event>
 6    1  0.8353100E-006  0.2225858E+03  0.7546771E-02  0.1167831E+00
         -2   -1    0    0    0  501 -0.00000000000E+00  0.00000000000E+00  0.18288891559E+03  0.18288891559E+03  0.00000000000E+00 0.  1.
          2   -1    0    0  501    0  0.00000000000E+00 -0.00000000000E+00 -0.31431884878E+03  0.31431884878E+03  0.00000000000E+00 0. -1.
          5    1    1    2  502    0 -0.46623300974E+02  0.38279394349E+02 -0.15747218235E+03  0.16869683589E+03  0.47000000000E+01 0. -1.
         -5    1    1    2    0  502  0.59550791065E+02 -0.12591667974E+03 -0.99322900657E+02  0.17113864423E+03  0.47000000000E+01 0.  1.
        -11    1    1    2    0    0 -0.16029064104E+02  0.20405448341E+02  0.49981116527E+02  0.56315408436E+02  0.00000000000E+00 0. -1.
         11    1    1    2    0    0  0.31015740139E+01  0.67231837050E+02  0.75384033291E+02  0.10105687582E+03  0.00000000000E+00 0.  1.
<mgrwt>
<rscale>  0 0.17997072E+03</rscale>
<asrwt>0</asrwt>
<pdfrwt beam="2">  1        2 0.48356745E-01 0.22258580E+03</pdfrwt>
<pdfrwt beam="1">  1       -2 0.28136757E-01 0.22258580E+03</pdfrwt>
<totfact> 0.11913061E+03</totfact>
</mgrwt>
</event>
<event>
 6    1  0.8353100E-006  0.1489239E+03  0.7546771E-02  0.1211481E+00
         -1   -1    0    0    0  501 -0.00000000000E+00  0.00000000000E+00  0.50515206714E+03  0.50515206714E+03  0.00000000000E+00 0.  1.
          1   -1    0    0  501    0  0.00000000000E+00 -0.00000000000E+00 -0.36106776301E+02  0.36106776301E+02  0.00000000000E+00 0. -1.
          5    1    1    2  502    0 -0.18519121911E+02  0.67960454883E+02  0.13889404339E+03  0.15580509168E+03  0.47000000000E+01 0. -1.
         -5    1    1    2    0  502 -0.59904296225E+02 -0.47982029091E+02  0.10926781733E+03  0.13361267053E+03  0.47000000000E+01 0. -1.
        -11    1    1    2    0    0  0.22789552922E+02  0.34702628404E+02  0.96051832464E+02  0.10464029176E+03  0.00000000000E+00 0.  1.
         11    1    1    2    0    0  0.55633865215E+02 -0.54681054196E+02  0.12483159765E+03  0.14720078947E+03  0.00000000000E+00 0. -1.
<mgrwt>
<rscale>  0 0.14138240E+03</rscale>
<asrwt>0</asrwt>
<pdfrwt beam="2">  1        1 0.55548890E-02 0.14892391E+03</pdfrwt>
<pdfrwt beam="1">  1       -1 0.77715697E-01 0.14892391E+03</pdfrwt>
<totfact> 0.24220662E+03</totfact>
</mgrwt>
</event>
<event>
 6    1  0.8353100E-006  0.1636157E+03  0.7546771E-02  0.1191332E+00
         -3   -1    0    0    0  501 -0.00000000000E+00  0.00000000000E+00  0.72127195709E+02  0.72127195709E+02  0.00000000000E+00 0.  1.
          3   -1    0    0  501    0  0.00000000000E+00 -0.00000000000E+00 -0.35099804868E+03  0.35099804868E+03  0.00000000000E+00 0. -1.
          5    1    1    2  502    0  0.10940419686E+02 -0.24281154676E+02 -0.25630111406E+02  0.37259359441E+02  0.47000000000E+01 0.  1.
         -5    1    1    2    0  502 -0.72741574140E+02  0.11453421470E+03 -0.18391962997E+03  0.22859996332E+03  0.47000000000E+01 0. -1.
        -11    1    1    2    0    0  0.49966930958E+02 -0.10337777921E+03 -0.37361559018E+02  0.12074578881E+03  0.00000000000E+00 0.  1.
         11    1    1    2    0    0  0.11834223496E+02  0.13124719186E+02 -0.31959552578E+02  0.36520132810E+02  0.00000000000E+00 0. -1.
<mgrwt>
<rscale>  0 0.15768824E+03</rscale>
<asrwt>0</asrwt>
<pdfrwt beam="2">  1        3 0.53999700E-01 0.16361566E+03</pdfrwt>
<pdfrwt beam="1">  1       -3 0.11096492E-01 0.16361566E+03</pdfrwt>
<totfact> 0.50475137E+02</totfact>
</mgrwt>
</event>
<event>
 6    1  0.9472070E-006  0.3703248E+03  0.7546771E-02  0.1054569E+00
         -1   -1    0    0    0  501 -0.00000000000E+00  0.00000000000E+00  0.47804000640E+03  0.47804000640E+03  0.00000000000E+00 0.  1.
          1   -1    0    0  501    0  0.00000000000E+00 -0.00000000000E+00 -0.71720196170E+02  0.71720196170E+02  0.00000000000E+00 0. -1.
          5    1    1    2  502    0 -0.39258489495E+02  0.14571844913E+03  0.15311966012E+03  0.21504142794E+03  0.47000000000E+01 0.  1.
         -5    1    1    2    0  502 -0.14644570545E+02 -0.14104167562E+02 -0.91868353262E+01  0.22800853764E+02  0.47000000000E+01 0.  1.
        -11    1    1    2    0    0  0.17641670071E+02 -0.27613809666E+02  0.66008247856E+01  0.33426365268E+02  0.00000000000E+00 0. -1.
         11    1    1    2    0    0  0.36261389968E+02 -0.10400047191E+03  0.25578616065E+03  0.27849155560E+03  0.00000000000E+00 0.  1.
<mgrwt>
<rscale>  0 0.37032485E+03</rscale>
<asrwt>0</asrwt>
<pdfrwt beam="2">  1        1 0.11033877E-01 0.37032485E+03</pdfrwt>
<pdfrwt beam="1">  1       -1 0.73544614E-01 0.37032485E+03</pdfrwt>
<totfact> 0.10935757E+03</totfact>
</mgrwt>
</event>
<event>
 6    1  0.8353100E-006  0.1717758E+03  0.7546771E-02  0.1182212E+00
         -2   -1    0    0    0  501 -0.00000000000E+00  0.00000000000E+00  0.97585280903E+01  0.97585280903E+01  0.00000000000E+00 0.  1.
          2   -1    0    0  501    0  0.00000000000E+00 -0.00000000000E+00 -0.43847937643E+04  0.43847937643E+04  0.00000000000E+00 0. -1.
          5    1    1    2  502    0 -0.93192728608E+02 -0.15239650519E+02 -0.26246229400E+04  0.26263253414E+04  0.47000000000E+01 0. -1.
         -5    1    1    2    0  502 -0.12016070256E+02  0.68280501768E+02 -0.10378813851E+04  0.10402050146E+04  0.47000000000E+01 0. -1.
        -11    1    1    2    0    0  0.29762254319E+02  0.22231899400E+02 -0.10908210779E+03  0.11523434980E+03  0.00000000000E+00 0. -1.
         11    1    1    2    0    0  0.75446544544E+02 -0.75272750650E+02 -0.60344880329E+03  0.61278758658E+03  0.00000000000E+00 0.  1.
<mgrwt>
<rscale>  0 0.16588137E+03</rscale>
<asrwt>0</asrwt>
<pdfrwt beam="2">  1        2 0.67458466E+00 0.17177578E+03</pdfrwt>
<pdfrwt beam="1">  1       -2 0.15013098E-02 0.17177578E+03</pdfrwt>
<totfact> 0.26649588E+02</totfact>
</mgrwt>
</event>
<event>
 6    1  0.8353100E-006  0.1297951E+03  0.7546771E-02  0.1242009E+00
         -2   -1    0    0    0  501 -0.00000000000E+00  0.00000000000E+00  0.12085533864E+03  0.12085533864E+03  0.00000000000E+00 0.  1.
          2   -1    0    0  501    0  0.00000000000E+00 -0.00000000000E+00 -0.11326453661E+03  0.11326453661E+03  0.00000000000E+00 0. -1.
          5    1    1    2  502    0  0.54645400756E+02 -0.65302581698E+01  0.37567144548E+02  0.66799284764E+02  0.47000000000E+01 0. -1.
         -5    1    1    2    0  502 -0.20057426140E+02  0.14417533577E+01 -0.61903887107E+02  0.65257645031E+02  0.47000000000E+01 0. -1.
        -11    1    1    2    0    0 -0.54896408683E+02  0.23632754053E+02  0.41700276247E+02  0.72876853593E+02  0.00000000000E+00 0.  1.
         11    1    1    2    0    0  0.20308434067E+02 -0.18544249241E+02 -0.97727316524E+01  0.29186091861E+02  0.00000000000E+00 0. -1.
<mgrwt>
<rscale>  0 0.12066186E+03</rscale>
<asrwt>0</asrwt>
<pdfrwt beam="2">  1        2 0.17425313E-01 0.12979505E+03</pdfrwt>
<pdfrwt beam="1">  1       -2 0.18593129E-01 0.12979505E+03</pdfrwt>
<totfact> 0.73265475E+03</totfact>
</mgrwt>
</event>
<event>
 6    1  0.8353100E-006  0.2651887E+03  0.7546771E-02  0.1104065E+00
          2   -1    0    0  501    0  0.00000000000E+00  0.00000000000E+00  0.48098128604E+03  0.48098128604E+03  0.00000000000E+00 0. -1.
         -2   -1    0    0    0  501 -0.00000000000E+00 -0.00000000000E+00 -0.36552909625E+02  0.36552909625E+02  0.00000000000E+00 0.  1.
          5    1    1    2  502    0 -0.28039372630E+02 -0.99147888707E+01  0.24857607782E+03  0.25039302291E+03  0.47000000000E+01 0. -1.
         -5    1    1    2    0  502  0.73658587132E+02  0.78253780118E+01  0.11600721006E+03  0.13771923172E+03  0.47000000000E+01 0. -1.
        -11    1    1    2    0    0 -0.29152210796E+02  0.44625497904E+02  0.58243325198E+02  0.78952969467E+02  0.00000000000E+00 0. -1.
         11    1    1    2    0    0 -0.16467003706E+02 -0.42536087045E+02  0.21601763333E+02  0.50468971569E+02  0.00000000000E+00 0.  1.
<mgrwt>
<rscale>  0 0.26518873E+03</rscale>
<asrwt>0</asrwt>
<pdfrwt beam="1">  1        2 0.73997116E-01 0.26518873E+03</pdfrwt>
<pdfrwt beam="2">  1       -2 0.56235249E-02 0.26518873E+03</pdfrwt>
<totfact> 0.10550382E+04</totfact>
</mgrwt>
</event>
<event>
 6    1  0.8353100E-006  0.3848627E+03  0.7546771E-02  0.1049151E+00
         -2   -1    0    0    0  501 -0.00000000000E+00  0.00000000000E+00  0.50250488122E+02  0.50250488122E+02  0.00000000000E+00 0.  1.
          2   -1    0    0  501    0  0.00000000000E+00 -0.00000000000E+00 -0.73690488162E+03  0.73690488162E+03  0.00000000000E+00 0. -1.
          5    1    1    2  502    0  0.12987660966E+02  0.30182607684E+02 -0.15253078550E+03  0.15610060753E+03  0.47000000000E+01 0.  1.
         -5    1    1    2    0  502 -0.60852726374E+02  0.10908681350E+03 -0.90387605017E+02  0.15425626836E+03  0.47000000000E+01 0.  1.
        -11    1    1    2    0    0  0.42445189563E+02 -0.34387733456E+02 -0.71196629259E+02  0.89738900969E+02  0.00000000000E+00 0.  1.
         11    1    1    2    0    0  0.54198758446E+01 -0.10488168773E+03 -0.37253937372E+03  0.38705959289E+03  0.00000000000E+00 0. -1.
<mgrwt>
<rscale>  0 0.38486273E+03</rscale>
<asrwt>0</asrwt>
<pdfrwt beam="2">  1        2 0.11336999E+00 0.38486273E+03</pdfrwt>
<pdfrwt beam="1">  1       -2 0.77308440E-02 0.38486273E+03</pdfrwt>
<totfact> 0.39476887E+03</totfact>
</mgrwt>
</event>
<event>
 6    1  0.8353100E-006  0.1290838E+03  0.7546771E-02  0.1243447E+00
          2   -1    0    0  501    0  0.00000000000E+00  0.00000000000E+00  0.26590449441E+03  0.26590449441E+03  0.00000000000E+00 0. -1.
         -2   -1    0    0    0  501 -0.00000000000E+00 -0.00000000000E+00 -0.48130521083E+02  0.48130521083E+02  0.00000000000E+00 0.  1.
          5    1    1    2  502    0  0.49435679200E+02  0.30080939805E+02  0.42155376366E+02  0.71748972634E+02  0.47000000000E+01 0.  1.
         -5    1    1    2    0  502 -0.66559603897E+02 -0.27807041017E+01  0.10020709145E+03  0.12042202607E+03  0.47000000000E+01 0.  1.
        -11    1    1    2    0    0 -0.32288889260E+02 -0.83279240996E+01  0.49103914272E+01  0.33705172206E+02  0.00000000000E+00 0.  1.
         11    1    1    2    0    0  0.49412813958E+02 -0.18972311603E+02  0.70501114084E+02  0.88158844581E+02  0.00000000000E+00 0. -1.
<mgrwt>
<rscale>  0 0.11978820E+03</rscale>
<asrwt>0</asrwt>
<pdfrwt beam="1">  1        2 0.40908383E-01 0.12908377E+03</pdfrwt>
<pdfrwt beam="2">  1       -2 0.74046957E-02 0.12908377E+03</pdfrwt>
<totfact> 0.12476107E+04</totfact>
</mgrwt>
</event>
<event>
 6    1  0.8353100E-006  0.1514544E+03  0.7546771E-02  0.1208026E+00
         -1   -1    0    0    0  501 -0.00000000000E+00  0.00000000000E+00  0.23300783960E+02  0.23300783960E+02  0.00000000000E+00 0.  1.
          1   -1    0    0  501    0  0.00000000000E+00 -0.00000000000E+00 -0.85403498914E+03  0.85403498914E+03  0.00000000000E+00 0. -1.
          5    1    1    2  502    0 -0.50781307990E+02 -0.80274437490E+02 -0.22422468395E+03  0.24356010644E+03  0.47000000000E+01 0.  1.
         -5    1    1    2    0  502 -0.12894857215E+02  0.23188980098E+02 -0.32652058764E+03  0.32763056984E+03  0.47000000000E+01 0.  1.
        -11    1    1    2    0    0  0.75199109669E+02  0.53415335295E+02 -0.27918190016E+03  0.29402489268E+03  0.00000000000E+00 0. -1.
         11    1    1    2    0    0 -0.11522944464E+02  0.36701220972E+01 -0.80703342352E+00  0.12120204135E+02  0.00000000000E+00 0.  1.
<mgrwt>
<rscale>  0 0.14401502E+03</rscale>
<asrwt>0</asrwt>
<pdfrwt beam="2">  1        1 0.13138996E+00 0.15145440E+03</pdfrwt>
<pdfrwt beam="1">  1       -1 0.35847370E-02 0.15145440E+03</pdfrwt>
<totfact> 0.58715654E+03</totfact>
</mgrwt>
</event>
<event>
 6    1  0.8353100E-006  0.2003192E+03  0.7546771E-02  0.1153999E+00
         -2   -1    0    0    0  501 -0.00000000000E+00  0.00000000000E+00  0.89093928834E+02  0.89093928834E+02  0.00000000000E+00 0. -1.
          2   -1    0    0  501    0  0.00000000000E+00 -0.00000000000E+00 -0.40658115398E+03  0.40658115398E+03  0.00000000000E+00 0.  1.
          5    1    1    2  502    0  0.61602759012E+02 -0.64780457274E+02 -0.21357799829E+02  0.92030718655E+02  0.47000000000E+01 0.  1.
         -5    1    1    2    0  502  0.53095751060E+02  0.46493550137E+01 -0.13934481128E+03  0.14926433503E+03  0.47000000000E+01 0.  1.
        -11    1    1    2    0    0 -0.13675779512E+03  0.65878200004E+02 -0.17009722646E+03  0.22798179360E+03  0.00000000000E+00 0.  1.
         11    1    1    2    0    0  0.22059285050E+02 -0.57470977441E+01  0.13312612423E+02  0.26398235526E+02  0.00000000000E+00 0. -1.
<mgrwt>
<rscale>  0 0.19503236E+03</rscale>
<asrwt>0</asrwt>
<pdfrwt beam="2">  1        2 0.62550946E-01 0.20031921E+03</pdfrwt>
<pdfrwt beam="1">  1       -2 0.13706758E-01 0.20031921E+03</pdfrwt>
<totfact> 0.30736244E+03</totfact>
</mgrwt>
</event>
<event>
 6    1  0.8353100E-006  0.1417810E+03  0.7546771E-02  0.1221505E+00
         -3   -1    0    0    0  501 -0.00000000000E+00  0.00000000000E+00  0.12740713279E+03  0.12740713279E+03  0.00000000000E+00 0. -1.
          3   -1    0    0  501    0  0.00000000000E+00 -0.00000000000E+00 -0.16439006827E+03  0.16439006827E+03  0.00000000000E+00 0.  1.
          5    1    1    2  502    0  0.15566100328E+02 -0.87799987952E+02 -0.87136571799E+02  0.12476383093E+03  0.47000000000E+01 0. -1.
         -5    1    1    2    0  502 -0.34821326807E+02  0.23705751495E+02 -0.14376343560E+01  0.42410426160E+02  0.47000000000E+01 0. -1.
        -11    1    1    2    0    0 -0.32003636130E+02  0.49946644106E+01  0.28259859933E+02  0.42986033564E+02  0.00000000000E+00 0.  1.
         11    1    1    2    0    0  0.51258862610E+02  0.59099572046E+02  0.23331410745E+02  0.81636910399E+02  0.00000000000E+00 0. -1.
<mgrwt>
<rscale>  0 0.13409342E+03</rscale>
<asrwt>0</asrwt>
<pdfrwt beam="2">  1        3 0.25290780E-01 0.14178097E+03</pdfrwt>
<pdfrwt beam="1">  1       -3 0.19601097E-01 0.14178097E+03</pdfrwt>
<totfact> 0.79569293E+02</totfact>
</mgrwt>
</event>
<event>
 6    1  0.8353100E-006  0.1335795E+03  0.7546771E-02  0.1234389E+00
          1   -1    0    0  501    0  0.00000000000E+00  0.00000000000E+00  0.10263974962E+03  0.10263974962E+03  0.00000000000E+00 0. -1.
         -1   -1    0    0    0  501 -0.00000000000E+00 -0.00000000000E+00 -0.13820667438E+03  0.13820667438E+03  0.00000000000E+00 0.  1.
          5    1    1    2  502    0 -0.10408243859E+02  0.28762731813E+02 -0.52105440998E+02  0.60602749634E+02  0.47000000000E+01 0.  1.
         -5    1    1    2    0  502  0.52262122754E+02 -0.50442294770E+02  0.22565596209E+02  0.76204007169E+02  0.47000000000E+01 0.  1.
        -11    1    1    2    0    0 -0.53785044198E+02  0.19633700644E+01  0.29740150515E+02  0.61491156714E+02  0.00000000000E+00 0.  1.
         11    1    1    2    0    0  0.11931165303E+02  0.19716192893E+02 -0.35767230491E+02  0.42548510487E+02  0.00000000000E+00 0. -1.
<mgrwt>
<rscale>  0 0.12543598E+03</rscale>
<asrwt>0</asrwt>
<pdfrwt beam="1">  1        1 0.15790731E-01 0.13357951E+03</pdfrwt>
<pdfrwt beam="2">  1       -1 0.21262565E-01 0.13357951E+03</pdfrwt>
<totfact> 0.60259915E+03</totfact>
</mgrwt>
</event>
<event>
 6    1  0.8353100E-006  0.1308042E+03  0.7546771E-02  0.1239613E+00
          3   -1    0    0  501    0  0.00000000000E+00  0.00000000000E+00  0.10866886397E+04  0.10866886397E+04  0.00000000000E+00 0. -1.
         -3   -1    0    0    0  501 -0.00000000000E+00 -0.00000000000E+00 -0.14239631070E+02  0.14239631070E+02  0.00000000000E+00 0.  1.
          5    1    1    2  502    0  0.76104497751E+02 -0.10134589939E+02  0.65216329143E+03  0.65668383045E+03  0.47000000000E+01 0. -1.
         -5    1    1    2    0  502 -0.38663930515E+02  0.19253069272E+02  0.15356056371E+03  0.15958858646E+03  0.47000000000E+01 0. -1.
        -11    1    1    2    0    0  0.21080613779E+02  0.23195632255E+02  0.10724464776E+03  0.11173112416E+03  0.00000000000E+00 0. -1.
         11    1    1    2    0    0 -0.58521181015E+02 -0.32314111588E+02  0.15948050575E+03  0.17292472972E+03  0.00000000000E+00 0.  1.
<mgrwt>
<rscale>  0 0.12213701E+03</rscale>
<asrwt>0</asrwt>
<pdfrwt beam="1">  1        3 0.16718280E+00 0.13080416E+03</pdfrwt>
<pdfrwt beam="2">  1       -3 0.21907133E-02 0.13080416E+03</pdfrwt>
<totfact> 0.50048273E+02</totfact>
</mgrwt>
</event>
<event>
 6    1  0.8353100E-006  0.1449738E+03  0.7546771E-02  0.1216461E+00
         -4   -1    0    0    0  501 -0.00000000000E+00  0.00000000000E+00  0.85189358484E+02  0.85189358484E+02  0.00000000000E+00 0.  1.
          4   -1    0    0  501    0  0.00000000000E+00 -0.00000000000E+00 -0.20960904425E+03  0.20960904425E+03  0.00000000000E+00 0. -1.
          5    1    1    2  502    0 -0.23831801900E+02 -0.47659178818E+02 -0.71973399737E+02  0.89675037648E+02  0.47000000000E+01 0.  1.
         -5    1    1    2    0  502  0.48954741693E+02 -0.21340438150E+02  0.29763825683E+02  0.61318482972E+02  0.47000000000E+01 0.  1.
        -11    1    1    2    0    0  0.10402359025E+02 -0.77415789722E+01 -0.52648310829E+02  0.54221635455E+02  0.00000000000E+00 0. -1.
         11    1    1    2    0    0 -0.35525298818E+02  0.76741195940E+02 -0.29561800881E+02  0.89583246658E+02  0.00000000000E+00 0.  1.
<mgrwt>
<rscale>  0 0.13769787E+03</rscale>
<asrwt>0</asrwt>
<pdfrwt beam="2">  1        4 0.32247545E-01 0.14497377E+03</pdfrwt>
<pdfrwt beam="1">  1       -4 0.13106055E-01 0.14497377E+03</pdfrwt>
<totfact> 0.74069794E+02</totfact>
</mgrwt>
</event>
<event>
 6    1  0.8353100E-006  0.2051747E+03  0.7546771E-02  0.1149513E+00
         -2   -1    0    0    0  501 -0.00000000000E+00  0.00000000000E+00  0.71258574787E+02  0.71258574787E+02  0.00000000000E+00 0. -1.
          2   -1    0    0  501    0  0.00000000000E+00 -0.00000000000E+00 -0.56210942813E+03  0.56210942813E+03  0.00000000000E+00 0.  1.
          5    1    1    2  502    0 -0.56548606041E+02 -0.98938378468E+02 -0.10982827615E+03  0.15833789130E+03  0.47000000000E+01 0.  1.
         -5    1    1    2    0  502 -0.69579750536E+02 -0.38421942593E+01 -0.21313542732E+03  0.22428754874E+03  0.47000000000E+01 0.  1.
        -11    1    1    2    0    0  0.19486402603E+02  0.54719435151E+02 -0.18400415506E+02  0.60930384542E+02  0.00000000000E+00 0. -1.
         11    1    1    2    0    0  0.10664195397E+03  0.48061137576E+02 -0.14948673437E+03  0.18981217834E+03  0.00000000000E+00 0.  1.
<mgrwt>
<rscale>  0 0.20026810E+03</rscale>
<asrwt>0</asrwt>
<pdfrwt beam="2">  1        2 0.86478373E-01 0.20517474E+03</pdfrwt>
<pdfrwt beam="1">  1       -2 0.10962858E-01 0.20517474E+03</pdfrwt>
<totfact> 0.30816143E+03</totfact>
</mgrwt>
</event>
<event>
 6    1  0.8353100E-006  0.1334766E+03  0.7546771E-02  0.1238439E+00
         -2   -1    0    0    0  501 -0.00000000000E+00  0.00000000000E+00  0.18620575042E+02  0.18620575042E+02  0.00000000000E+00 0.  1.
          2   -1    0    0  501    0  0.00000000000E+00 -0.00000000000E+00 -0.70713283354E+03  0.70713283354E+03  0.00000000000E+00 0. -1.
          5    1    1    2  502    0  0.10420733032E+02  0.58574781182E+02 -0.15634214530E+03  0.16734560964E+03  0.47000000000E+01 0. -1.
         -5    1    1    2    0  502 -0.40368686152E+02 -0.59886038358E+02 -0.25854801257E+03  0.26848674681E+03  0.47000000000E+01 0.  1.
        -11    1    1    2    0    0 -0.10128473252E+01 -0.38824625427E+02 -0.69667750690E+02  0.79761976439E+02  0.00000000000E+00 0.  1.
         11    1    1    2    0    0  0.30960800445E+02  0.40135882602E+02 -0.20395434994E+03  0.21015907569E+03  0.00000000000E+00 0. -1.
<mgrwt>
<rscale>  0 0.12286825E+03</rscale>
<asrwt>0</asrwt>
<pdfrwt beam="2">  1        2 0.10878964E+00 0.13347659E+03</pdfrwt>
<pdfrwt beam="1">  1       -2 0.28647045E-02 0.13347659E+03</pdfrwt>
<totfact> 0.17800840E+04</totfact>
</mgrwt>
</event>
<event>
 6    1  0.8353100E-006  0.1710260E+03  0.7546771E-02  0.1187330E+00
          2   -1    0    0  501    0  0.00000000000E+00  0.00000000000E+00  0.18154287064E+04  0.18154287064E+04  0.00000000000E+00 0. -1.
         -2   -1    0    0    0  501 -0.00000000000E+00 -0.00000000000E+00 -0.32252276013E+02  0.32252276013E+02  0.00000000000E+00 0.  1.
          5    1    1    2  502    0 -0.11788408430E+01  0.52595105352E+02  0.29744845103E+03  0.30210148261E+03  0.47000000000E+01 0. -1.
         -5    1    1    2    0  502 -0.97642235647E+02 -0.42481399728E+02  0.13497115202E+04  0.13539135694E+04  0.47000000000E+01 0.  1.
        -11    1    1    2    0    0  0.27558224248E+02  0.10555571959E+02 -0.71939304897E+01  0.30374799735E+02  0.00000000000E+00 0.  1.
         11    1    1    2    0    0  0.71262852242E+02 -0.20669277583E+02  0.14321038961E+03  0.16129113068E+03  0.00000000000E+00 0. -1.
<mgrwt>
<rscale>  0 0.16121699E+03</rscale>
<asrwt>0</asrwt>
<pdfrwt beam="1">  1        2 0.27929664E+00 0.17102597E+03</pdfrwt>
<pdfrwt beam="2">  1       -2 0.49618900E-02 0.17102597E+03</pdfrwt>
<totfact> 0.18509158E+03</totfact>
</mgrwt>
</event>
<event>
 6    1  0.8353100E-006  0.1313393E+03  0.7546771E-02  0.1239986E+00
          2   -1    0    0  501    0  0.00000000000E+00  0.00000000000E+00  0.11244360558E+03  0.11244360558E+03  0.00000000000E+00 0.  1.
         -2   -1    0    0    0  501 -0.00000000000E+00 -0.00000000000E+00 -0.12187013752E+03  0.12187013752E+03  0.00000000000E+00 0. -1.
          5    1    1    2  502    0 -0.31969621469E+02  0.18064005565E+02  0.41335837453E+02  0.55489696808E+02  0.47000000000E+01 0.  1.
         -5    1    1    2    0  502  0.50541961289E+02 -0.53830387208E+02 -0.22174665226E+02  0.77239926306E+02  0.47000000000E+01 0.  1.
        -11    1    1    2    0    0 -0.34395871076E+02 -0.13156720432E+02  0.89780927069E+01  0.37904899264E+02  0.00000000000E+00 0.  1.
         11    1    1    2    0    0  0.15823531256E+02  0.48923102074E+02 -0.37565796870E+02  0.63679220727E+02  0.00000000000E+00 0. -1.
<mgrwt>
<rscale>  0 0.12190549E+03</rscale>
<asrwt>0</asrwt>
<pdfrwt beam="1">  1        2 0.17299016E-01 0.13133926E+03</pdfrwt>
<pdfrwt beam="2">  1       -2 0.18749252E-01 0.13133926E+03</pdfrwt>
<totfact> 0.72919128E+03</totfact>
</mgrwt>
</event>
<event>
 6    1  0.8353100E-006  0.1298844E+03  0.7546771E-02  0.1241656E+00
          2   -1    0    0  501    0  0.00000000000E+00  0.00000000000E+00  0.90925548874E+03  0.90925548874E+03  0.00000000000E+00 0. -1.
         -2   -1    0    0    0  501 -0.00000000000E+00 -0.00000000000E+00 -0.15061290537E+02  0.15061290537E+02  0.00000000000E+00 0.  1.
          5    1    1    2  502    0 -0.66359768621E+02  0.29445414758E+02  0.30733435199E+03  0.31582771451E+03  0.47000000000E+01 0.  1.
         -5    1    1    2    0  502  0.55704351668E+02  0.41973978423E+01  0.30892898094E+03  0.31397419991E+03  0.47000000000E+01 0.  1.
        -11    1    1    2    0    0  0.42138291959E+02  0.57635160005E+01  0.84280877161E+02  0.94404025449E+02  0.00000000000E+00 0.  1.
         11    1    1    2    0    0 -0.31482875006E+02 -0.39406328601E+02  0.19364998811E+03  0.20011083940E+03  0.00000000000E+00 0. -1.
<mgrwt>
<rscale>  0 0.12087756E+03</rscale>
<asrwt>0</asrwt>
<pdfrwt beam="1">  1        2 0.13988542E+00 0.12988439E+03</pdfrwt>
<pdfrwt beam="2">  1       -2 0.23171223E-02 0.12988439E+03</pdfrwt>
<totfact> 0.17708109E+04</totfact>
</mgrwt>
</event>
<event>
 6    1  0.8353100E-006  0.1433077E+03  0.7546771E-02  0.1218679E+00
         -2   -1    0    0    0  501 -0.00000000000E+00  0.00000000000E+00  0.28573513327E+02  0.28573513327E+02  0.00000000000E+00 0.  1.
          2   -1    0    0  501    0  0.00000000000E+00 -0.00000000000E+00 -0.88587358798E+03  0.88587358798E+03  0.00000000000E+00 0. -1.
          5    1    1    2  502    0 -0.72448706370E+01  0.38409781023E+02 -0.60676402072E+02  0.72329213995E+02  0.47000000000E+01 0.  1.
         -5    1    1    2    0  502  0.55349925821E+02  0.12582833893E+02 -0.66029008299E+03  0.66274205064E+03  0.47000000000E+01 0.  1.
        -11    1    1    2    0    0  0.41153683103E+01 -0.10097089236E+02  0.12406491168E+02  0.16516915283E+02  0.00000000000E+00 0.  1.
         11    1    1    2    0    0 -0.52220423494E+02 -0.40895525680E+02 -0.14874008076E+03  0.16285892138E+03  0.00000000000E+00 0. -1.
<mgrwt>
<rscale>  0 0.13609743E+03</rscale>
<asrwt>0</asrwt>
<pdfrwt beam="2">  1        2 0.13628822E+00 0.14330768E+03</pdfrwt>
<pdfrwt beam="1">  1       -2 0.43959259E-02 0.14330768E+03</pdfrwt>
<totfact> 0.71724283E+03</totfact>
</mgrwt>
</event>
<event>
 6    1  0.8353100E-006  0.1423433E+03  0.7546771E-02  0.1217955E+00
          2   -1    0    0  501    0  0.00000000000E+00  0.00000000000E+00  0.37760188323E+02  0.37760188323E+02  0.00000000000E+00 0. -1.
         -2   -1    0    0    0  501 -0.00000000000E+00 -0.00000000000E+00 -0.49014131776E+03  0.49014131776E+03  0.00000000000E+00 0.  1.
          5    1    1    2  502    0 -0.50812041098E+02  0.35953168850E+01 -0.61641370698E+02  0.80103298344E+02  0.47000000000E+01 0. -1.
         -5    1    1    2    0  502  0.49371786628E+02  0.76497862484E+02 -0.11491071313E+03  0.14668353102E+03  0.47000000000E+01 0.  1.
        -11    1    1    2    0    0 -0.29155747127E+02 -0.52509525503E+02 -0.74902928749E+02  0.96009148493E+02  0.00000000000E+00 0.  1.
         11    1    1    2    0    0  0.30596001596E+02 -0.27583653866E+02 -0.20092611686E+03  0.20510552823E+03  0.00000000000E+00 0. -1.
<mgrwt>
<rscale>  0 0.13661670E+03</rscale>
<asrwt>0</asrwt>
<pdfrwt beam="1">  1        2 0.58092601E-02 0.14234334E+03</pdfrwt>
<pdfrwt beam="2">  1       -2 0.75406351E-01 0.14234334E+03</pdfrwt>
<totfact> 0.20180705E+03</totfact>
</mgrwt>
</event>
<event>
 6    1  0.8353100E-006  0.2271762E+03  0.7546771E-02  0.1131887E+00
          2   -1    0    0  501    0  0.00000000000E+00  0.00000000000E+00  0.38348022405E+03  0.38348022405E+03  0.00000000000E+00 0. -1.
         -2   -1    0    0    0  501 -0.00000000000E+00 -0.00000000000E+00 -0.12647105623E+03  0.12647105623E+03  0.00000000000E+00 0.  1.
          5    1    1    2  502    0 -0.76848985407E+02  0.25249885415E+01  0.14360646215E+03  0.16296333360E+03  0.47000000000E+01 0. -1.
         -5    1    1    2    0  502 -0.10890278091E+03 -0.39865113623E+02  0.21911652108E+02  0.11811542436E+03  0.47000000000E+01 0.  1.
        -11    1    1    2    0    0  0.17212396787E+03  0.70670443396E+01  0.92748041998E+02  0.19564969391E+03  0.00000000000E+00 0. -1.
         11    1    1    2    0    0  0.13627798442E+02  0.30273080742E+02 -0.12569884436E+01  0.33222828416E+02  0.00000000000E+00 0.  1.
<mgrwt>
<rscale>  0 0.22269913E+03</rscale>
<asrwt>0</asrwt>
<pdfrwt beam="1">  1        2 0.58996957E-01 0.22717619E+03</pdfrwt>
<pdfrwt beam="2">  1       -2 0.19457086E-01 0.22717619E+03</pdfrwt>
<totfact> 0.18328560E+03</totfact>
</mgrwt>
</event>
<event>
 6    1  0.8353100E-006  0.2361680E+03  0.7546771E-02  0.1122372E+00
          2   -1    0    0  501    0  0.00000000000E+00  0.00000000000E+00  0.14062794354E+04  0.14062794354E+04  0.00000000000E+00 0. -1.
         -2   -1    0    0    0  501 -0.00000000000E+00 -0.00000000000E+00 -0.99154041373E+01  0.99154041373E+01  0.00000000000E+00 0.  1.
          5    1    1    2  502    0 -0.65763400560E+01  0.82807191450E+01  0.73956083943E+03  0.73965136637E+03  0.47000000000E+01 0.  1.
         -5    1    1    2    0  502  0.28080854031E+02 -0.38597329754E+02  0.11199550460E+03  0.12183337506E+03  0.47000000000E+01 0.  1.
        -11    1    1    2    0    0 -0.60108585146E+02  0.14295935850E+02  0.35707309327E+03  0.36237909671E+03  0.00000000000E+00 0. -1.
         11    1    1    2    0    0  0.38604071171E+02  0.16020674759E+02  0.18773459394E+03  0.19233100138E+03  0.00000000000E+00 0.  1.
<mgrwt>
<rscale>  0 0.23616798E+03</rscale>
<asrwt>0</asrwt>
<pdfrwt beam="1">  1        2 0.21635052E+00 0.23616798E+03</pdfrwt>
<pdfrwt beam="2">  1       -2 0.15254479E-02 0.23616798E+03</pdfrwt>
<totfact> 0.17533846E+04</totfact>
</mgrwt>
</event>
<event>
 6    1  0.8353100E-006  0.1337199E+03  0.7546771E-02  0.1232476E+00
         -3   -1    0    0    0  501 -0.00000000000E+00  0.00000000000E+00  0.42448249967E+03  0.42448249967E+03  0.00000000000E+00 0.  1.
          3   -1    0    0  501    0  0.00000000000E+00 -0.00000000000E+00 -0.34334380600E+02  0.34334380600E+02  0.00000000000E+00 0. -1.
          5    1    1    2  502    0  0.26287143771E+02 -0.30377936200E+00  0.23010935752E+03  0.23165386383E+03  0.47000000000E+01 0.  1.
         -5    1    1    2    0  502  0.19289919094E+02  0.13717106754E+02 -0.98126658424E+01  0.26050689190E+02  0.47000000000E+01 0.  1.
        -11    1    1    2    0    0 -0.41682619669E+02  0.37749963512E+01  0.17715728468E+03  0.18203404872E+03  0.00000000000E+00 0.  1.
         11    1    1    2    0    0 -0.38944431968E+01 -0.17188323743E+02 -0.73058572844E+01  0.19078278527E+02  0.00000000000E+00 0. -1.
<mgrwt>
<rscale>  0 0.12667432E+03</rscale>
<asrwt>0</asrwt>
<pdfrwt beam="2">  1        3 0.52822127E-02 0.13371987E+03</pdfrwt>
<pdfrwt beam="1">  1       -3 0.65304996E-01 0.13371987E+03</pdfrwt>
<totfact> 0.11071593E+03</totfact>
</mgrwt>
</event>
<event>
 6    1  0.8353100E-006  0.1373043E+03  0.7546771E-02  0.1227700E+00
          2   -1    0    0  501    0  0.00000000000E+00  0.00000000000E+00  0.44816849171E+03  0.44816849171E+03  0.00000000000E+00 0. -1.
         -2   -1    0    0    0  501 -0.00000000000E+00 -0.00000000000E+00 -0.61034822712E+02  0.61034822712E+02  0.00000000000E+00 0.  1.
          5    1    1    2  502    0 -0.36889300586E+02 -0.24294467825E+02  0.30181368509E+03  0.30506496386E+03  0.47000000000E+01 0. -1.
         -5    1    1    2    0  502  0.50336725188E+02 -0.30900288200E+02  0.72470162835E+02  0.93608910980E+02  0.47000000000E+01 0. -1.
        -11    1    1    2    0    0  0.25364591143E+02  0.80782885076E+01 -0.26772264121E+02  0.37754143551E+02  0.00000000000E+00 0.  1.
         11    1    1    2    0    0 -0.38812015746E+02  0.47116467517E+02  0.39622085187E+02  0.72775296029E+02  0.00000000000E+00 0. -1.
<mgrwt>
<rscale>  0 0.12983559E+03</rscale>
<asrwt>0</asrwt>
<pdfrwt beam="1">  1        2 0.68948997E-01 0.13730426E+03</pdfrwt>
<pdfrwt beam="2">  1       -2 0.93899730E-02 0.13730426E+03</pdfrwt>
<totfact> 0.49769676E+03</totfact>
</mgrwt>
</event>
<event>
 6    1  0.8353100E-006  0.1803676E+03  0.7546771E-02  0.1173014E+00
         -1   -1    0    0    0  501 -0.00000000000E+00  0.00000000000E+00  0.40630980503E+03  0.40630980503E+03  0.00000000000E+00 0.  1.
          1   -1    0    0  501    0  0.00000000000E+00 -0.00000000000E+00 -0.71054570947E+02  0.71054570947E+02  0.00000000000E+00 0. -1.
          5    1    1    2  502    0 -0.21935197085E+02  0.35436710785E+02 -0.13303317957E+02  0.43999791035E+02  0.47000000000E+01 0.  1.
         -5    1    1    2    0  502 -0.35044960921E+01  0.92072271136E+02  0.17688133188E+03  0.19949606555E+03  0.47000000000E+01 0.  1.
        -11    1    1    2    0    0  0.30418081954E+02 -0.54841995318E+01  0.63913168700E+02  0.70994572240E+02  0.00000000000E+00 0.  1.
         11    1    1    2    0    0 -0.49783887768E+01 -0.12202478239E+03  0.10776405146E+03  0.16287394715E+03  0.00000000000E+00 0. -1.
<mgrwt>
<rscale>  0 0.17471897E+03</rscale>
<asrwt>0</asrwt>
<pdfrwt beam="2">  1        1 0.10931473E-01 0.18036758E+03</pdfrwt>
<pdfrwt beam="1">  1       -1 0.62509199E-01 0.18036758E+03</pdfrwt>
<totfact> 0.15070113E+03</totfact>
</mgrwt>
</event>
<event>
 6    1  0.8353100E-006  0.2398724E+03  0.7546771E-02  0.1119878E+00
         -2   -1    0    0    0  501 -0.00000000000E+00  0.00000000000E+00  0.25764705895E+03  0.25764705895E+03  0.00000000000E+00 0.  1.
          2   -1    0    0  501    0  0.00000000000E+00 -0.00000000000E+00 -0.55830981710E+02  0.55830981710E+02  0.00000000000E+00 0. -1.
          5    1    1    2  502    0 -0.13560666136E+02  0.12958106882E+01 -0.35716361926E+02  0.38513884518E+02  0.47000000000E+01 0. -1.
         -5    1    1    2    0  502  0.41622960635E+02  0.13982913113E+02  0.92382418833E+02  0.10239430658E+03  0.47000000000E+01 0. -1.
        -11    1    1    2    0    0 -0.37481352480E+02  0.29337906826E+02  0.69416927732E+02  0.84168131834E+02  0.00000000000E+00 0.  1.
         11    1    1    2    0    0  0.94190579809E+01 -0.44616630627E+02  0.75733092596E+02  0.88401717721E+02  0.00000000000E+00 0. -1.
<mgrwt>
<rscale>  0 0.23987237E+03</rscale>
<asrwt>0</asrwt>
<pdfrwt beam="2">  1        2 0.85893820E-02 0.23987237E+03</pdfrwt>
<pdfrwt beam="1">  1       -2 0.39638008E-01 0.23987237E+03</pdfrwt>
<totfact> 0.46472723E+03</totfact>
</mgrwt>
</event>
<event>
 6    1  0.8353100E-006  0.1258783E+03  0.7546771E-02  0.1249787E+00
          4   -1    0    0  501    0  0.00000000000E+00  0.00000000000E+00  0.17434137328E+03  0.17434137328E+03  0.00000000000E+00 0. -1.
         -4   -1    0    0    0  501 -0.00000000000E+00 -0.00000000000E+00 -0.67888106998E+02  0.67888106998E+02  0.00000000000E+00 0.  1.
          5    1    1    2  502    0  0.26787211571E+02 -0.57573425736E+02  0.47937138792E+02  0.79701401056E+02  0.47000000000E+01 0.  1.
         -5    1    1    2    0  502 -0.37656439455E+02  0.47423209566E+02  0.24195992697E+02  0.65379693334E+02  0.47000000000E+01 0.  1.
        -11    1    1    2    0    0  0.36018150047E+02  0.19623924404E+02 -0.12744560277E+02  0.42951476791E+02  0.00000000000E+00 0.  1.
         11    1    1    2    0    0 -0.25148922163E+02 -0.94737082336E+01  0.47064695068E+02  0.54196909096E+02  0.00000000000E+00 0. -1.
<mgrwt>
<rscale>  0 0.11603396E+03</rscale>
<asrwt>0</asrwt>
<pdfrwt beam="1">  1        4 0.26821750E-01 0.12587826E+03</pdfrwt>
<pdfrwt beam="2">  1       -4 0.10444324E-01 0.12587826E+03</pdfrwt>
<totfact> 0.14989964E+03</totfact>
</mgrwt>
</event>
<event>
 6    1  0.8353100E-006  0.1258235E+03  0.7546771E-02  0.1251029E+00
         -2   -1    0    0    0  501 -0.00000000000E+00  0.00000000000E+00  0.11209914107E+02  0.11209914107E+02  0.00000000000E+00 0.  1.
          2   -1    0    0  501    0  0.00000000000E+00 -0.00000000000E+00 -0.13252638109E+04  0.13252638109E+04  0.00000000000E+00 0. -1.
          5    1    1    2  502    0  0.35952525050E+01 -0.56822818291E+02 -0.74619856633E+03  0.74838235476E+03  0.47000000000E+01 0.  1.
         -5    1    1    2    0  502  0.10757348408E+02  0.56382700447E+02 -0.31205271214E+03  0.31732272943E+03  0.47000000000E+01 0.  1.
        -11    1    1    2    0    0 -0.47220170223E+02  0.75988678058E+01 -0.93564523016E+02  0.10508000397E+03  0.00000000000E+00 0.  1.
         11    1    1    2    0    0  0.32867569310E+02 -0.71587499623E+01 -0.16223809526E+03  0.16568863681E+03  0.00000000000E+00 0. -1.
<mgrwt>
<rscale>  0 0.11531660E+03</rscale>
<asrwt>0</asrwt>
<pdfrwt beam="2">  1        2 0.20388665E+00 0.12582352E+03</pdfrwt>
<pdfrwt beam="1">  1       -2 0.17246030E-02 0.12582352E+03</pdfrwt>
<totfact> 0.15685149E+04</totfact>
</mgrwt>
</event>
<event>
 6    1  0.8353100E-006  0.1862757E+03  0.7546771E-02  0.1167128E+00
          2   -1    0    0  501    0  0.00000000000E+00  0.00000000000E+00  0.10528411706E+04  0.10528411706E+04  0.00000000000E+00 0. -1.
         -2   -1    0    0    0  501 -0.00000000000E+00 -0.00000000000E+00 -0.30805468211E+02  0.30805468211E+02  0.00000000000E+00 0.  1.
          5    1    1    2  502    0  0.44474863557E+02 -0.49051452201E+02  0.11734867983E+03  0.13482158992E+03  0.47000000000E+01 0. -1.
         -5    1    1    2    0  502  0.91639132643E+02  0.25672265397E+02  0.54302940982E+03  0.55132551707E+03  0.47000000000E+01 0. -1.
        -11    1    1    2    0    0 -0.10290757184E+03  0.40040396312E+02  0.17313279591E+03  0.20534889018E+03  0.00000000000E+00 0.  1.
         11    1    1    2    0    0 -0.33206424356E+02 -0.16661209509E+02  0.18852481687E+03  0.19215064167E+03  0.00000000000E+00 0. -1.
<mgrwt>
<rscale>  0 0.18069973E+03</rscale>
<asrwt>0</asrwt>
<pdfrwt beam="1">  1        2 0.16197554E+00 0.18627569E+03</pdfrwt>
<pdfrwt beam="2">  1       -2 0.47393036E-02 0.18627569E+03</pdfrwt>
<totfact> 0.51150673E+03</totfact>
</mgrwt>
</event>
<event>
 6    1  0.8353100E-006  0.2950863E+03  0.7546771E-02  0.1089470E+00
          1   -1    0    0  501    0  0.00000000000E+00  0.00000000000E+00  0.91153800064E+03  0.91153800064E+03  0.00000000000E+00 0. -1.
         -1   -1    0    0    0  501 -0.00000000000E+00 -0.00000000000E+00 -0.11534596790E+03  0.11534596790E+03  0.00000000000E+00 0.  1.
          5    1    1    2  502    0  0.91990984817E+02 -0.25927949448E+02  0.33773645390E+03  0.35103077094E+03  0.47000000000E+01 0. -1.
         -5    1    1    2    0  502  0.17285274298E+03  0.62093471107E+02  0.30226458867E+03  0.35372254872E+03  0.47000000000E+01 0. -1.
        -11    1    1    2    0    0 -0.13550204957E+03  0.25550313963E+02  0.86470104220E+02  0.16275964765E+03  0.00000000000E+00 0.  1.
         11    1    1    2    0    0 -0.12934167823E+03 -0.61715835622E+02  0.69720885945E+02  0.15937100122E+03  0.00000000000E+00 0. -1.
<mgrwt>
<rscale>  0 0.29168932E+03</rscale>
<asrwt>0</asrwt>
<pdfrwt beam="1">  1        1 0.14023661E+00 0.29508627E+03</pdfrwt>
<pdfrwt beam="2">  1       -1 0.17745534E-01 0.29508627E+03</pdfrwt>
<totfact> 0.45989878E+02</totfact>
</mgrwt>
</event>
<event>
 6    1  0.8353100E-006  0.3087076E+03  0.7546771E-02  0.1080967E+00
         -1   -1    0    0    0  501 -0.00000000000E+00  0.00000000000E+00  0.26063902187E+02  0.26063902187E+02  0.00000000000E+00 0.  1.
          1   -1    0    0  501    0  0.00000000000E+00 -0.00000000000E+00 -0.91410289634E+03  0.91410289634E+03  0.00000000000E+00 0. -1.
          5    1    1    2  502    0  0.50685414251E+02 -0.90956445243E+00 -0.78210999712E+03  0.78376525575E+03  0.47000000000E+01 0.  1.
         -5    1    1    2    0  502 -0.39129156773E+01 -0.32243909059E+00  0.29106198485E+01  0.67806035105E+01  0.47000000000E+01 0.  1.
        -11    1    1    2    0    0 -0.17764296986E+02 -0.35770616746E+02 -0.11565539320E+02  0.41579670147E+02  0.00000000000E+00 0.  1.
         11    1    1    2    0    0 -0.29008201587E+02  0.37002620289E+02 -0.97274077565E+02  0.10804126912E+03  0.00000000000E+00 0. -1.
<mgrwt>
<rscale>  0 0.30870755E+03</rscale>
<asrwt>0</asrwt>
<pdfrwt beam="2">  1        1 0.14063123E+00 0.30870755E+03</pdfrwt>
<pdfrwt beam="1">  1       -1 0.40098307E-02 0.30870755E+03</pdfrwt>
<totfact> 0.45690676E+03</totfact>
</mgrwt>
</event>
<event>
 6    1  0.8353100E-006  0.1276870E+03  0.7546771E-02  0.1245220E+00
          1   -1    0    0  501    0  0.00000000000E+00  0.00000000000E+00  0.37339312327E+03  0.37339312327E+03  0.00000000000E+00 0. -1.
         -1   -1    0    0    0  501 -0.00000000000E+00 -0.00000000000E+00 -0.34074817842E+02  0.34074817842E+02  0.00000000000E+00 0.  1.
          5    1    1    2  502    0 -0.45226686773E+02  0.25762709855E+02  0.11175773501E+03  0.12337362664E+03  0.47000000000E+01 0. -1.
         -5    1    1    2    0  502  0.72874381503E+02 -0.12011116028E+02  0.11169236995E+03  0.13398588691E+03  0.47000000000E+01 0.  1.
        -11    1    1    2    0    0  0.30812907606E+02 -0.19365629041E+02  0.50279738436E+02  0.62068631051E+02  0.00000000000E+00 0.  1.
         11    1    1    2    0    0 -0.58460602336E+02  0.56140352146E+01  0.65588462028E+02  0.88039796502E+02  0.00000000000E+00 0. -1.
<mgrwt>
<rscale>  0 0.11872236E+03</rscale>
<asrwt>0</asrwt>
<pdfrwt beam="1">  1        1 0.57445093E-01 0.12768700E+03</pdfrwt>
<pdfrwt beam="2">  1       -1 0.52422799E-02 0.12768700E+03</pdfrwt>
<totfact> 0.10239719E+04</totfact>
</mgrwt>
</event>
<event>
 6    1  0.8353100E-006  0.2654487E+03  0.7546771E-02  0.1103913E+00
         -2   -1    0    0    0  501 -0.00000000000E+00  0.00000000000E+00  0.68885675823E+02  0.68885675823E+02  0.00000000000E+00 0.  1.
          2   -1    0    0  501    0  0.00000000000E+00 -0.00000000000E+00 -0.25572455434E+03  0.25572455434E+03  0.00000000000E+00 0. -1.
          5    1    1    2  502    0  0.43074703023E+02 -0.74795957831E+02 -0.44441551041E+02  0.97195713935E+02  0.47000000000E+01 0. -1.
         -5    1    1    2    0  502 -0.69067394646E+01  0.23086364572E+02 -0.10402552729E+03  0.10688350484E+03  0.47000000000E+01 0. -1.
        -11    1    1    2    0    0 -0.40928409069E+02  0.95337658055E+01  0.21449919195E+02  0.47181843890E+02  0.00000000000E+00 0.  1.
         11    1    1    2    0    0  0.47604455101E+01  0.42175827453E+02 -0.59821719385E+02  0.73349167500E+02  0.00000000000E+00 0. -1.
<mgrwt>
<rscale>  0 0.26544874E+03</rscale>
<asrwt>0</asrwt>
<pdfrwt beam="2">  1        2 0.39342240E-01 0.26544874E+03</pdfrwt>
<pdfrwt beam="1">  1       -2 0.10597796E-01 0.26544874E+03</pdfrwt>
<totfact> 0.77876153E+03</totfact>
</mgrwt>
</event>
<event>
 6    1  0.8353100E-006  0.1467849E+03  0.7546771E-02  0.1215231E+00
         -1   -1    0    0    0  501 -0.00000000000E+00  0.00000000000E+00  0.65545719996E+02  0.65545719996E+02  0.00000000000E+00 0.  1.
          1   -1    0    0  501    0  0.00000000000E+00 -0.00000000000E+00 -0.43233413141E+03  0.43233413141E+03  0.00000000000E+00 0. -1.
          5    1    1    2  502    0  0.41751176261E+02  0.41397127257E+02 -0.13241098898E+03  0.14495393361E+03  0.47000000000E+01 0.  1.
         -5    1    1    2    0  502  0.21829517498E+02 -0.84749647800E+02 -0.21819569031E+03  0.23513927768E+03  0.47000000000E+01 0.  1.
        -11    1    1    2    0    0  0.21731938274E+02  0.73761870817E+01  0.32583463102E+01  0.23179777774E+02  0.00000000000E+00 0.  1.
         11    1    1    2    0    0 -0.85312632033E+02  0.35976333462E+02 -0.19440078428E+02  0.94606862346E+02  0.00000000000E+00 0. -1.
<mgrwt>
<rscale>  0 0.13859598E+03</rscale>
<asrwt>0</asrwt>
<pdfrwt beam="2">  1        1 0.66512944E-01 0.14678490E+03</pdfrwt>
<pdfrwt beam="1">  1       -1 0.10083957E-01 0.14678490E+03</pdfrwt>
<totfact> 0.32095396E+03</totfact>
</mgrwt>
</event>
<event>
 6    1  0.8353100E-006  0.1423919E+03  0.7546771E-02  0.1220327E+00
          2   -1    0    0  501    0  0.00000000000E+00  0.00000000000E+00  0.10510364201E+04  0.10510364201E+04  0.00000000000E+00 0. -1.
         -2   -1    0    0    0  501 -0.00000000000E+00 -0.00000000000E+00 -0.17024350392E+02  0.17024350392E+02  0.00000000000E+00 0.  1.
          5    1    1    2  502    0  0.55306124028E+02  0.83402800045E+02  0.52876082089E+03  0.53816808723E+03  0.47000000000E+01 0. -1.
         -5    1    1    2    0  502 -0.37641975577E+02 -0.17537720707E+02  0.18584021791E+03  0.19048140740E+03  0.47000000000E+01 0. -1.
        -11    1    1    2    0    0  0.15677313490E+02  0.16708825056E+02  0.39363242342E+02  0.45545887198E+02  0.00000000000E+00 0. -1.
         11    1    1    2    0    0 -0.33341461941E+02 -0.82573904393E+02  0.28004778861E+03  0.29386538870E+03  0.00000000000E+00 0.  1.
<mgrwt>
<rscale>  0 0.13492403E+03</rscale>
<asrwt>0</asrwt>
<pdfrwt beam="1">  1        2 0.16169786E+00 0.14239186E+03</pdfrwt>
<pdfrwt beam="2">  1       -2 0.26191316E-02 0.14239186E+03</pdfrwt>
<totfact> 0.12230433E+04</totfact>
</mgrwt>
</event>
<event>
 6    1  0.8353100E-006  0.1425646E+03  0.7546771E-02  0.1214996E+00
          1   -1    0    0  501    0  0.00000000000E+00  0.00000000000E+00  0.41938413154E+03  0.41938413154E+03  0.00000000000E+00 0. -1.
         -1   -1    0    0    0  501 -0.00000000000E+00 -0.00000000000E+00 -0.56482241842E+02  0.56482241842E+02  0.00000000000E+00 0.  1.
          5    1    1    2  502    0  0.20985914207E+01 -0.66938003571E+02  0.25635326596E+03  0.26499846675E+03  0.47000000000E+01 0. -1.
         -5    1    1    2    0  502 -0.51252748179E+02 -0.59743293891E+01  0.46026903151E+02  0.69304419926E+02  0.47000000000E+01 0.  1.
        -11    1    1    2    0    0  0.76794321937E+02  0.54310118134E+02  0.38537101405E+02  0.10164676580E+03  0.00000000000E+00 0.  1.
         11    1    1    2    0    0 -0.27640165178E+02  0.18602214825E+02  0.21984619179E+02  0.39916720907E+02  0.00000000000E+00 0. -1.
<mgrwt>
<rscale>  0 0.13876793E+03</rscale>
<asrwt>0</asrwt>
<pdfrwt beam="1">  1        1 0.64520634E-01 0.14256456E+03</pdfrwt>
<pdfrwt beam="2">  1       -1 0.86895760E-02 0.14256456E+03</pdfrwt>
<totfact> 0.41796764E+03</totfact>
</mgrwt>
</event>
<event>
 6    1  0.8353100E-006  0.1293265E+03  0.7546771E-02  0.1244183E+00
         -1   -1    0    0    0  501 -0.00000000000E+00  0.00000000000E+00  0.73157082118E+02  0.73157082118E+02  0.00000000000E+00 0.  1.
          1   -1    0    0  501    0  0.00000000000E+00 -0.00000000000E+00 -0.17179931695E+03  0.17179931695E+03  0.00000000000E+00 0. -1.
          5    1    1    2  502    0 -0.31099676722E+02 -0.49967470890E+02  0.12933589123E+00  0.59042736785E+02  0.47000000000E+01 0.  1.
         -5    1    1    2    0  502  0.48764482799E+02  0.21898581542E+02 -0.69213108582E+02  0.87578919015E+02  0.47000000000E+01 0.  1.
        -11    1    1    2    0    0  0.80214688478E+01  0.54099935678E+02 -0.64388689514E+01  0.55069102374E+02  0.00000000000E+00 0.  1.
         11    1    1    2    0    0 -0.25686274925E+02 -0.26031046331E+02 -0.23119593186E+02  0.43265640891E+02  0.00000000000E+00 0. -1.
<mgrwt>
<rscale>  0 0.11934422E+03</rscale>
<asrwt>0</asrwt>
<pdfrwt beam="2">  1        1 0.26430664E-01 0.12932649E+03</pdfrwt>
<pdfrwt beam="1">  1       -1 0.11254936E-01 0.12932649E+03</pdfrwt>
<totfact> 0.84959846E+03</totfact>
</mgrwt>
</event>
<event>
 6    1  0.8353100E-006  0.1945416E+03  0.7546771E-02  0.1159079E+00
          2   -1    0    0  501    0  0.00000000000E+00  0.00000000000E+00  0.41308031248E+03  0.41308031248E+03  0.00000000000E+00 0. -1.
         -2   -1    0    0    0  501 -0.00000000000E+00 -0.00000000000E+00 -0.11145764674E+03  0.11145764674E+03  0.00000000000E+00 0.  1.
          5    1    1    2  502    0 -0.64321368951E+02  0.22711303839E+02  0.69850286207E+02  0.97745559025E+02  0.47000000000E+01 0. -1.
         -5    1    1    2    0  502 -0.59438398205E+02 -0.10582323235E+03  0.22076865618E+03  0.25197692203E+03  0.47000000000E+01 0. -1.
        -11    1    1    2    0    0  0.60069928908E+02  0.53440695123E+02  0.49779508516E+02  0.94563754802E+02  0.00000000000E+00 0.  1.
         11    1    1    2    0    0  0.63689838248E+02  0.29671233388E+02 -0.38775785159E+02  0.80251723356E+02  0.00000000000E+00 0. -1.
<mgrwt>
<rscale>  0 0.18931667E+03</rscale>
<asrwt>0</asrwt>
<pdfrwt beam="1">  1        2 0.63550817E-01 0.19454163E+03</pdfrwt>
<pdfrwt beam="2">  1       -2 0.17147330E-01 0.19454163E+03</pdfrwt>
<totfact> 0.20849880E+03</totfact>
</mgrwt>
</event>
<event>
 6    1  0.8353100E-006  0.1539156E+03  0.7546771E-02  0.1204021E+00
          1   -1    0    0  501    0  0.00000000000E+00  0.00000000000E+00  0.33606176305E+03  0.33606176305E+03  0.00000000000E+00 0. -1.
         -1   -1    0    0    0  501 -0.00000000000E+00 -0.00000000000E+00 -0.66070500650E+02  0.66070500650E+02  0.00000000000E+00 0.  1.
          5    1    1    2  502    0 -0.83898261612E+02  0.70873144596E+02  0.15625073018E+03  0.19104528680E+03  0.47000000000E+01 0. -1.
         -5    1    1    2    0  502 -0.16322623198E+01 -0.43475599955E+02  0.53436408889E+02  0.69067589118E+02  0.47000000000E+01 0. -1.
        -11    1    1    2    0    0  0.45559376890E+02 -0.41334065217E+02  0.75189491682E+02  0.97147421115E+02  0.00000000000E+00 0. -1.
         11    1    1    2    0    0  0.39971147043E+02  0.13936520576E+02 -0.14885368350E+02  0.44871966667E+02  0.00000000000E+00 0.  1.
<mgrwt>
<rscale>  0 0.14714844E+03</rscale>
<asrwt>0</asrwt>
<pdfrwt beam="1">  1        1 0.51701809E-01 0.15391560E+03</pdfrwt>
<pdfrwt beam="2">  1       -1 0.10164693E-01 0.15391560E+03</pdfrwt>
<totfact> 0.43650756E+03</totfact>
</mgrwt>
</event>
<event>
 6    1  0.8353100E-006  0.3765976E+03  0.7546771E-02  0.1052199E+00
          2   -1    0    0  501    0  0.00000000000E+00  0.00000000000E+00  0.24798110528E+03  0.24798110528E+03  0.00000000000E+00 0.  1.
         -2   -1    0    0    0  501 -0.00000000000E+00 -0.00000000000E+00 -0.14298036403E+03  0.14298036403E+03  0.00000000000E+00 0. -1.
          5    1    1    2  502    0 -0.14371700382E+03  0.32014960871E+02  0.92997711490E+02  0.17421308576E+03  0.47000000000E+01 0. -1.
         -5    1    1    2    0  502 -0.65258876681E+01  0.46923078306E+01 -0.32370200957E+02  0.33682708808E+02  0.47000000000E+01 0. -1.
        -11    1    1    2    0    0  0.32454538930E+02 -0.40550714859E+02  0.39253062011E+02  0.65103459585E+02  0.00000000000E+00 0.  1.
         11    1    1    2    0    0  0.11778835256E+03  0.38434461569E+01  0.51201687061E+01  0.11796221516E+03  0.00000000000E+00 0. -1.
<mgrwt>
<rscale>  0 0.37659755E+03</rscale>
<asrwt>0</asrwt>
<pdfrwt beam="1">  1        2 0.38150939E-01 0.37659755E+03</pdfrwt>
<pdfrwt beam="2">  1       -2 0.21996979E-01 0.37659755E+03</pdfrwt>
<totfact> 0.24108986E+03</totfact>
</mgrwt>
</event>
<event>
 6    1  0.8353100E-006  0.2435964E+03  0.7546771E-02  0.1120058E+00
         -1   -1    0    0    0  501 -0.00000000000E+00  0.00000000000E+00  0.75047964401E+03  0.75047964401E+03  0.00000000000E+00 0.  1.
          1   -1    0    0  501    0  0.00000000000E+00 -0.00000000000E+00 -0.10587140444E+03  0.10587140444E+03  0.00000000000E+00 0. -1.
          5    1    1    2  502    0  0.28316320435E+02 -0.15599190320E+03  0.60323452926E+01  0.15872544553E+03  0.47000000000E+01 0.  1.
         -5    1    1    2    0  502  0.20514374463E+01 -0.50868803369E+02  0.89222402067E+02  0.10283273108E+03  0.47000000000E+01 0.  1.
        -11    1    1    2    0    0 -0.54907302521E+02  0.18419699581E+03  0.49485411324E+03  0.53087092455E+03  0.00000000000E+00 0. -1.
         11    1    1    2    0    0  0.24539544640E+02  0.22663710766E+02  0.54499378974E+02  0.63921947290E+02  0.00000000000E+00 0.  1.
<mgrwt>
<rscale>  0 0.23960309E+03</rscale>
<asrwt>0</asrwt>
<pdfrwt beam="2">  1        1 0.16287909E-01 0.24359641E+03</pdfrwt>
<pdfrwt beam="1">  1       -1 0.11545840E+00 0.24359641E+03</pdfrwt>
<totfact> 0.24346047E+02</totfact>
</mgrwt>
</event>
<event>
 6    1  0.8353100E-006  0.2347915E+03  0.7546771E-02  0.1123312E+00
          3   -1    0    0  501    0  0.00000000000E+00  0.00000000000E+00  0.90369448957E+02  0.90369448957E+02  0.00000000000E+00 0. -1.
         -3   -1    0    0    0  501 -0.00000000000E+00 -0.00000000000E+00 -0.15250469636E+03  0.15250469636E+03  0.00000000000E+00 0.  1.
          5    1    1    2  502    0  0.40402350770E+02 -0.41759525197E+02  0.42698088964E+02  0.72259426330E+02  0.47000000000E+01 0.  1.
         -5    1    1    2    0  502 -0.61452284153E+01  0.14838394028E+02 -0.58750680351E+02  0.61087430878E+02  0.47000000000E+01 0.  1.
        -11    1    1    2    0    0 -0.55424235107E+02 -0.96896486144E+01 -0.33151005847E+02  0.65304856757E+02  0.00000000000E+00 0.  1.
         11    1    1    2    0    0  0.21167112752E+02  0.36610779784E+02 -0.12931650172E+02  0.44222431353E+02  0.00000000000E+00 0. -1.
<mgrwt>
<rscale>  0 0.23479153E+03</rscale>
<asrwt>0</asrwt>
<pdfrwt beam="1">  1        3 0.13902992E-01 0.23479153E+03</pdfrwt>
<pdfrwt beam="2">  1       -3 0.23462261E-01 0.23479153E+03</pdfrwt>
<totfact> 0.17811710E+03</totfact>
</mgrwt>
</event>
<event>
 6    1  0.8353100E-006  0.1421316E+03  0.7546771E-02  0.1221730E+00
          2   -1    0    0  501    0  0.00000000000E+00  0.00000000000E+00  0.69434830726E+03  0.69434830726E+03  0.00000000000E+00 0. -1.
         -2   -1    0    0    0  501 -0.00000000000E+00 -0.00000000000E+00 -0.23600649962E+02  0.23600649962E+02  0.00000000000E+00 0.  1.
          5    1    1    2  502    0 -0.41248710575E+02 -0.65410208367E+02  0.16773197889E+03  0.18475946044E+03  0.47000000000E+01 0.  1.
         -5    1    1    2    0  502  0.57250858136E+02 -0.31772412225E+00  0.24912404053E+03  0.25566118062E+03  0.47000000000E+01 0.  1.
        -11    1    1    2    0    0  0.29076043446E+02 -0.36616292682E+01  0.63911226765E+02  0.70309805418E+02  0.00000000000E+00 0.  1.
         11    1    1    2    0    0 -0.45078191007E+02  0.69389561757E+02  0.18998041112E+03  0.20721851074E+03  0.00000000000E+00 0. -1.
<mgrwt>
<rscale>  0 0.13393562E+03</rscale>
<asrwt>0</asrwt>
<pdfrwt beam="1">  1        2 0.10682280E+00 0.14213163E+03</pdfrwt>
<pdfrwt beam="2">  1       -2 0.36308697E-02 0.14213163E+03</pdfrwt>
<totfact> 0.12885496E+04</totfact>
</mgrwt>
</event>
<event>
 6    1  0.8353100E-006  0.2847106E+03  0.7546771E-02  0.1094975E+00
          2   -1    0    0  501    0  0.00000000000E+00  0.00000000000E+00  0.20004974377E+03  0.20004974377E+03  0.00000000000E+00 0. -1.
         -2   -1    0    0    0  501 -0.00000000000E+00 -0.00000000000E+00 -0.58306492266E+03  0.58306492266E+03  0.00000000000E+00 0.  1.
          5    1    1    2  502    0  0.72960104067E+02 -0.23999033163E+02 -0.20509649973E+02  0.79635834397E+02  0.47000000000E+01 0. -1.
         -5    1    1    2    0  502  0.16915152722E+03  0.10656233873E+03  0.53306071746E+02  0.20695747989E+03  0.47000000000E+01 0. -1.
        -11    1    1    2    0    0 -0.81788625279E+02 -0.44278610312E+02 -0.23024333463E+03  0.24831827902E+03  0.00000000000E+00 0.  1.
         11    1    1    2    0    0 -0.16032300601E+03 -0.38284695258E+02 -0.18556826603E+03  0.24820307312E+03  0.00000000000E+00 0. -1.
<mgrwt>
<rscale>  0 0.28131160E+03</rscale>
<asrwt>0</asrwt>
<pdfrwt beam="1">  1        2 0.30776885E-01 0.28471059E+03</pdfrwt>
<pdfrwt beam="2">  1       -2 0.89702292E-01 0.28471059E+03</pdfrwt>
<totfact> 0.18876286E+02</totfact>
</mgrwt>
</event>
<event>
 6    1  0.8353100E-006  0.1271133E+03  0.7546771E-02  0.1245922E+00
          2   -1    0    0  501    0  0.00000000000E+00  0.00000000000E+00  0.12074080885E+04  0.12074080885E+04  0.00000000000E+00 0. -1.
         -2   -1    0    0    0  501 -0.00000000000E+00 -0.00000000000E+00 -0.14403720040E+02  0.14403720040E+02  0.00000000000E+00 0.  1.
          5    1    1    2  502    0  0.32286881418E+02 -0.43844203703E+02  0.87952442033E+03  0.88122077420E+03  0.47000000000E+01 0.  1.
         -5    1    1    2    0  502 -0.10868026559E+02  0.35243210168E+02  0.10324760897E+03  0.10973767185E+03  0.47000000000E+01 0.  1.
        -11    1    1    2    0    0 -0.24545935475E+02 -0.38938891117E+02  0.12505530209E+03  0.13325752801E+03  0.00000000000E+00 0. -1.
         11    1    1    2    0    0  0.31270806163E+01  0.47539884652E+02  0.85177037032E+02  0.97595834457E+02  0.00000000000E+00 0.  1.
<mgrwt>
<rscale>  0 0.11830342E+03</rscale>
<asrwt>0</asrwt>
<pdfrwt beam="1">  1        2 0.18575501E+00 0.12711326E+03</pdfrwt>
<pdfrwt beam="2">  1       -2 0.22159579E-02 0.12711326E+03</pdfrwt>
<totfact> 0.12645401E+04</totfact>
</mgrwt>
</event>
<event>
 6    1  0.8353100E-006  0.1283626E+03  0.7546771E-02  0.1244256E+00
          2   -1    0    0  501    0  0.00000000000E+00  0.00000000000E+00  0.45036662875E+03  0.45036662875E+03  0.00000000000E+00 0. -1.
         -2   -1    0    0    0  501 -0.00000000000E+00 -0.00000000000E+00 -0.34079256176E+02  0.34079256176E+02  0.00000000000E+00 0.  1.
          5    1    1    2  502    0  0.37626132930E+02 -0.26977512737E+02  0.40834499112E+02  0.61911698333E+02  0.47000000000E+01 0. -1.
         -5    1    1    2    0  502 -0.10559234577E+02  0.37914019051E+02  0.29442768746E+03  0.29708369766E+03  0.47000000000E+01 0. -1.
        -11    1    1    2    0    0 -0.20670816126E+02  0.38573185518E+02  0.24957129774E+02  0.50378880564E+02  0.00000000000E+00 0.  1.
         11    1    1    2    0    0 -0.63960822274E+01 -0.49509691832E+02  0.56068056230E+02  0.75071608365E+02  0.00000000000E+00 0. -1.
<mgrwt>
<rscale>  0 0.11930024E+03</rscale>
<asrwt>0</asrwt>
<pdfrwt beam="1">  1        2 0.69287170E-01 0.12836261E+03</pdfrwt>
<pdfrwt beam="2">  1       -2 0.52429628E-02 0.12836261E+03</pdfrwt>
<totfact> 0.12029708E+04</totfact>
</mgrwt>
</event>
<event>
 6    1  0.8353100E-006  0.1988229E+03  0.7546771E-02  0.1155034E+00
          2   -1    0    0  501    0  0.00000000000E+00  0.00000000000E+00  0.23727870573E+03  0.23727870573E+03  0.00000000000E+00 0. -1.
         -2   -1    0    0    0  501 -0.00000000000E+00 -0.00000000000E+00 -0.15235190673E+03  0.15235190673E+03  0.00000000000E+00 0.  1.
          5    1    1    2  502    0  0.58065225015E+02  0.59051476039E+02 -0.48513522044E+02  0.96095260026E+02  0.47000000000E+01 0. -1.
         -5    1    1    2    0  502  0.63107477390E+02  0.36993337497E+02  0.74334771818E+02  0.10439736119E+03  0.47000000000E+01 0. -1.
        -11    1    1    2    0    0 -0.37253056795E+02  0.11607133849E+02 -0.30845017777E+01  0.39141154147E+02  0.00000000000E+00 0.  1.
         11    1    1    2    0    0 -0.83919645610E+02 -0.10765194739E+03  0.62190051008E+02  0.14999683710E+03  0.00000000000E+00 0. -1.
<mgrwt>
<rscale>  0 0.19385011E+03</rscale>
<asrwt>0</asrwt>
<pdfrwt beam="1">  1        2 0.36504416E-01 0.19882292E+03</pdfrwt>
<pdfrwt beam="2">  1       -2 0.23438755E-01 0.19882292E+03</pdfrwt>
<totfact> 0.22217512E+03</totfact>
</mgrwt>
</event>
<event>
 6    1  0.8353100E-006  0.1403013E+03  0.7546771E-02  0.1230845E+00
          2   -1    0    0  501    0  0.00000000000E+00  0.00000000000E+00  0.69665495653E+03  0.69665495653E+03  0.00000000000E+00 0. -1.
         -2   -1    0    0    0  501 -0.00000000000E+00 -0.00000000000E+00 -0.25347002973E+02  0.25347002973E+02  0.00000000000E+00 0.  1.
          5    1    1    2  502    0 -0.37129667132E+02  0.64298858842E+01  0.12261869789E+03  0.12836428899E+03  0.47000000000E+01 0. -1.
         -5    1    1    2    0  502  0.10022411104E+03 -0.15116882528E+02  0.42425770957E+03  0.43622251971E+03  0.47000000000E+01 0. -1.
        -11    1    1    2    0    0 -0.18665738765E+02 -0.24887829025E+02  0.81076302865E+02  0.86839971922E+02  0.00000000000E+00 0. -1.
         11    1    1    2    0    0 -0.44428705144E+02  0.33574825669E+02  0.43355243229E+02  0.70575178887E+02  0.00000000000E+00 0.  1.
<mgrwt>
<rscale>  0 0.12774244E+03</rscale>
<asrwt>0</asrwt>
<pdfrwt beam="1">  1        2 0.10717767E+00 0.14030132E+03</pdfrwt>
<pdfrwt beam="2">  1       -2 0.38995394E-02 0.14030132E+03</pdfrwt>
<totfact> 0.11534954E+04</totfact>
</mgrwt>
</event>
<event>
 6    1  0.8353100E-006  0.1250839E+03  0.7546771E-02  0.1250416E+00
         -2   -1    0    0    0  501 -0.00000000000E+00  0.00000000000E+00  0.15412159461E+02  0.15412159461E+02  0.00000000000E+00 0.  1.
          2   -1    0    0  501    0  0.00000000000E+00 -0.00000000000E+00 -0.80638628914E+03  0.80638628914E+03  0.00000000000E+00 0. -1.
          5    1    1    2  502    0  0.41959326358E+02 -0.28136872932E+02 -0.10466735721E+03  0.11631687045E+03  0.47000000000E+01 0.  1.
         -5    1    1    2    0  502 -0.38489888701E+02  0.25171417789E+02 -0.44542019375E+03  0.44781280778E+03  0.47000000000E+01 0.  1.
        -11    1    1    2    0    0  0.33519826237E+02 -0.11486137858E+02 -0.18919192784E+03  0.19248141644E+03  0.00000000000E+00 0. -1.
         11    1    1    2    0    0 -0.36989263894E+02  0.14451593000E+02 -0.51694650870E+02  0.65187353928E+02  0.00000000000E+00 0.  1.
<mgrwt>
<rscale>  0 0.11567015E+03</rscale>
<asrwt>0</asrwt>
<pdfrwt beam="2">  1        2 0.12405943E+00 0.12508389E+03</pdfrwt>
<pdfrwt beam="1">  1       -2 0.23711014E-02 0.12508389E+03</pdfrwt>
<totfact> 0.19899868E+04</totfact>
</mgrwt>
</event>
<event>
 6    1  0.8353100E-006  0.2394417E+03  0.7546771E-02  0.1120165E+00
         -1   -1    0    0    0  501 -0.00000000000E+00  0.00000000000E+00  0.13381189754E+02  0.13381189754E+02  0.00000000000E+00 0.  1.
          1   -1    0    0  501    0  0.00000000000E+00 -0.00000000000E+00 -0.10711361887E+04  0.10711361887E+04  0.00000000000E+00 0. -1.
          5    1    1    2  502    0 -0.45367999017E+01  0.53053467121E+02 -0.69679987008E+03  0.69884719494E+03  0.47000000000E+01 0.  1.
         -5    1    1    2    0  502 -0.32073129767E+01 -0.72527481292E+01  0.13092800842E+01  0.93109304742E+01  0.47000000000E+01 0.  1.
        -11    1    1    2    0    0 -0.39888785258E+02 -0.19639059590E+02 -0.21087670800E+03  0.21551286232E+03  0.00000000000E+00 0. -1.
         11    1    1    2    0    0  0.47632898136E+02 -0.26161659402E+02 -0.15138770092E+03  0.16084639069E+03  0.00000000000E+00 0.  1.
<mgrwt>
<rscale>  0 0.23944166E+03</rscale>
<asrwt>0</asrwt>
<pdfrwt beam="2">  1        1 0.16479015E+00 0.23944166E+03</pdfrwt>
<pdfrwt beam="1">  1       -1 0.20586450E-02 0.23944166E+03</pdfrwt>
<totfact> 0.92507304E+03</totfact>
</mgrwt>
</event>
<event>
 6    1  0.8353100E-006  0.3551442E+03  0.7546771E-02  0.1060523E+00
         -2   -1    0    0    0  501 -0.00000000000E+00  0.00000000000E+00  0.51266532716E+02  0.51266532716E+02  0.00000000000E+00 0. -1.
          2   -1    0    0  501    0  0.00000000000E+00 -0.00000000000E+00 -0.61505720184E+03  0.61505720184E+03  0.00000000000E+00 0.  1.
          5    1    1    2  502    0  0.18717334215E+02 -0.31354303573E+02 -0.21662976990E+03  0.21973615578E+03  0.47000000000E+01 0. -1.
         -5    1    1    2    0  502  0.96099937443E+02  0.69360065973E+02 -0.21377224316E+03  0.24447224520E+03  0.47000000000E+01 0. -1.
        -11    1    1    2    0    0 -0.56442553965E+02 -0.30616315646E+02 -0.12778200936E+03  0.14300826059E+03  0.00000000000E+00 0.  1.
         11    1    1    2    0    0 -0.58374717693E+02 -0.73894467547E+01 -0.56066467118E+01  0.59107072982E+02  0.00000000000E+00 0. -1.
<mgrwt>
<rscale>  0 0.35514420E+03</rscale>
<asrwt>0</asrwt>
<pdfrwt beam="2">  1        2 0.94624188E-01 0.35514420E+03</pdfrwt>
<pdfrwt beam="1">  1       -2 0.78871586E-02 0.35514420E+03</pdfrwt>
<totfact> 0.47585034E+03</totfact>
</mgrwt>
</event>
<event>
 6    1  0.8353100E-006  0.1253923E+03  0.7546771E-02  0.1247709E+00
          2   -1    0    0  501    0  0.00000000000E+00  0.00000000000E+00  0.31185156351E+03  0.31185156351E+03  0.00000000000E+00 0.  1.
         -2   -1    0    0    0  501 -0.00000000000E+00 -0.00000000000E+00 -0.47067326915E+02  0.47067326915E+02  0.00000000000E+00 0. -1.
          5    1    1    2  502    0  0.14523367111E+02 -0.56260014930E+02  0.87091529048E+02  0.10480048618E+03  0.47000000000E+01 0. -1.
         -5    1    1    2    0  502 -0.22614105884E+02  0.61917114484E+02  0.13267494531E+03  0.14822232614E+03  0.47000000000E+01 0. -1.
        -11    1    1    2    0    0 -0.27293827948E+02  0.28322254719E+02  0.40776486508E+02  0.56655317565E+02  0.00000000000E+00 0. -1.
         11    1    1    2    0    0  0.35384566721E+02 -0.33979354273E+02  0.42412757240E+01  0.49240760541E+02  0.00000000000E+00 0.  1.
<mgrwt>
<rscale>  0 0.11724713E+03</rscale>
<asrwt>0</asrwt>
<pdfrwt beam="1">  1        2 0.47977162E-01 0.12539235E+03</pdfrwt>
<pdfrwt beam="2">  1       -2 0.72411274E-02 0.12539235E+03</pdfrwt>
<totfact> 0.10881997E+04</totfact>
</mgrwt>
</event>
<event>
 6    1  0.8353100E-006  0.4133686E+03  0.7546771E-02  0.1039246E+00
         -2   -1    0    0    0  501 -0.00000000000E+00  0.00000000000E+00  0.64667762195E+02  0.64667762195E+02  0.00000000000E+00 0.  1.
          2   -1    0    0  501    0  0.00000000000E+00 -0.00000000000E+00 -0.66058260647E+03  0.66058260647E+03  0.00000000000E+00 0. -1.
          5    1    1    2  502    0 -0.15013368638E+02  0.24608710320E+02 -0.19550970356E+03  0.19767934653E+03  0.47000000000E+01 0. -1.
         -5    1    1    2    0  502  0.48311446628E+02  0.14237310028E+03 -0.19476240033E+03  0.24608652572E+03  0.47000000000E+01 0. -1.
        -11    1    1    2    0    0 -0.46086231527E+02 -0.94530127935E+02 -0.67478575211E+02  0.12495296690E+03  0.00000000000E+00 0.  1.
         11    1    1    2    0    0  0.12788153537E+02 -0.72451682668E+02 -0.13816416517E+03  0.15653152951E+03  0.00000000000E+00 0. -1.
<mgrwt>
<rscale>  0 0.41336860E+03</rscale>
<asrwt>0</asrwt>
<pdfrwt beam="2">  1        2 0.10162810E+00 0.41336860E+03</pdfrwt>
<pdfrwt beam="1">  1       -2 0.99488862E-02 0.41336860E+03</pdfrwt>
<totfact> 0.30278656E+03</totfact>
</mgrwt>
</event>
<event>
 6    1  0.8353100E-006  0.2593968E+03  0.7546771E-02  0.1107506E+00
         -2   -1    0    0    0  501 -0.00000000000E+00  0.00000000000E+00  0.12029883978E+02  0.12029883978E+02  0.00000000000E+00 0.  1.
          2   -1    0    0  501    0  0.00000000000E+00 -0.00000000000E+00 -0.13983243236E+04  0.13983243236E+04  0.00000000000E+00 0. -1.
          5    1    1    2  502    0 -0.52833535622E+02  0.27743777644E+02 -0.62284146430E+03  0.62571133867E+03  0.47000000000E+01 0. -1.
         -5    1    1    2    0  502  0.37339211948E+02 -0.35369070349E+02 -0.19119369925E+03  0.19804622823E+03  0.47000000000E+01 0. -1.
        -11    1    1    2    0    0 -0.25889805914E+02  0.57031703291E+02 -0.23308556624E+03  0.24135405201E+03  0.00000000000E+00 0.  1.
         11    1    1    2    0    0  0.41384129588E+02 -0.49406410585E+02 -0.33917370982E+03  0.34524258866E+03  0.00000000000E+00 0. -1.
<mgrwt>
<rscale>  0 0.25939683E+03</rscale>
<asrwt>0</asrwt>
<pdfrwt beam="2">  1        2 0.21512680E+00 0.25939683E+03</pdfrwt>
<pdfrwt beam="1">  1       -2 0.18507516E-02 0.25939683E+03</pdfrwt>
<totfact> 0.13390299E+04</totfact>
</mgrwt>
</event>
<event>
 6    1  0.8353100E-006  0.2966568E+03  0.7546771E-02  0.1088592E+00
          2   -1    0    0  501    0  0.00000000000E+00  0.00000000000E+00  0.14897747128E+04  0.14897747128E+04  0.00000000000E+00 0. -1.
         -2   -1    0    0    0  501 -0.00000000000E+00 -0.00000000000E+00 -0.13757885451E+03  0.13757885451E+03  0.00000000000E+00 0.  1.
          5    1    1    2  502    0 -0.10369222920E+03 -0.38420187724E+02  0.52558336777E+03  0.53711093425E+03  0.47000000000E+01 0.  1.
         -5    1    1    2    0  502 -0.15936347955E+03  0.94820380984E+02  0.78107866947E+03  0.80280358816E+03  0.47000000000E+01 0.  1.
        -11    1    1    2    0    0  0.19027642732E+03 -0.80254911565E+02  0.24120161770E+02  0.20791284671E+03  0.00000000000E+00 0.  1.
         11    1    1    2    0    0  0.72779281435E+02  0.23854718305E+02  0.21413659250E+02  0.79526198162E+02  0.00000000000E+00 0. -1.
<mgrwt>
<rscale>  0 0.29339146E+03</rscale>
<asrwt>0</asrwt>
<pdfrwt beam="1">  1        2 0.22919610E+00 0.29665678E+03</pdfrwt>
<pdfrwt beam="2">  1       -2 0.21165979E-01 0.29665678E+03</pdfrwt>
<totfact> 0.26407042E+02</totfact>
</mgrwt>
</event>
<event>
 6    1  0.8353100E-006  0.3345451E+03  0.7546771E-02  0.1070400E+00
         -2   -1    0    0    0  501 -0.00000000000E+00  0.00000000000E+00  0.50432787373E+02  0.50432787373E+02  0.00000000000E+00 0.  1.
          2   -1    0    0  501    0  0.00000000000E+00 -0.00000000000E+00 -0.21669614747E+04  0.21669614747E+04  0.00000000000E+00 0. -1.
          5    1    1    2  502    0  0.59176779905E+02 -0.44326556507E+02 -0.15246557097E+03  0.16951275829E+03  0.47000000000E+01 0.  1.
         -5    1    1    2    0  502  0.24079333006E+02 -0.25461023617E+03 -0.81107304479E+03  0.85045150399E+03  0.47000000000E+01 0.  1.
        -11    1    1    2    0    0 -0.11279339509E+02 -0.14566588521E+01 -0.19211908264E+02  0.22325831987E+02  0.00000000000E+00 0.  1.
         11    1    1    2    0    0 -0.71976773402E+02  0.30039345153E+03 -0.11337781633E+04  0.11751041678E+04  0.00000000000E+00 0. -1.
<mgrwt>
<rscale>  0 0.33166976E+03</rscale>
<asrwt>0</asrwt>
<pdfrwt beam="2">  1        2 0.33337866E+00 0.33454511E+03</pdfrwt>
<pdfrwt beam="1">  1       -2 0.77588910E-02 0.33454511E+03</pdfrwt>
<totfact> 0.59605094E+02</totfact>
</mgrwt>
</event>
<event>
 6    1  0.8353100E-006  0.1269753E+03  0.7546771E-02  0.1246907E+00
         -2   -1    0    0    0  501 -0.00000000000E+00  0.00000000000E+00  0.15679562778E+02  0.15679562778E+02  0.00000000000E+00 0. -1.
          2   -1    0    0  501    0  0.00000000000E+00 -0.00000000000E+00 -0.85390191680E+03  0.85390191680E+03  0.00000000000E+00 0.  1.
          5    1    1    2  502    0 -0.43716253467E+02  0.35889023331E+02 -0.17178483099E+03  0.18091780170E+03  0.47000000000E+01 0. -1.
         -5    1    1    2    0  502  0.28216239993E+02 -0.51976410946E+02 -0.43358657407E+03  0.43762667961E+03  0.47000000000E+01 0. -1.
        -11    1    1    2    0    0  0.43635692351E+02 -0.17801709349E+02 -0.14966493813E+03  0.15690942677E+03  0.00000000000E+00 0.  1.
         11    1    1    2    0    0 -0.28135678877E+02  0.33889096965E+02 -0.83186010835E+02  0.94127571505E+02  0.00000000000E+00 0. -1.
<mgrwt>
<rscale>  0 0.11771991E+03</rscale>
<asrwt>0</asrwt>
<pdfrwt beam="2">  1        2 0.13136954E+00 0.12697534E+03</pdfrwt>
<pdfrwt beam="1">  1       -2 0.24122401E-02 0.12697534E+03</pdfrwt>
<totfact> 0.18080367E+04</totfact>
</mgrwt>
</event>
<event>
 6    1  0.8353100E-006  0.3062552E+03  0.7546771E-02  0.1082155E+00
         -2   -1    0    0    0  501 -0.00000000000E+00  0.00000000000E+00  0.71393255731E+02  0.71393255731E+02  0.00000000000E+00 0. -1.
          2   -1    0    0  501    0  0.00000000000E+00 -0.00000000000E+00 -0.32843517997E+03  0.32843517997E+03  0.00000000000E+00 0.  1.
          5    1    1    2  502    0  0.34556409088E+02 -0.48671456459E+02 -0.15454558037E+02  0.61838414008E+02  0.47000000000E+01 0.  1.
         -5    1    1    2    0  502  0.27930228920E+02 -0.43464197708E+01 -0.19046320243E+03  0.19260662121E+03  0.47000000000E+01 0.  1.
        -11    1    1    2    0    0 -0.39565042613E+02 -0.89817555946E+00 -0.72844362133E+02  0.82900545299E+02  0.00000000000E+00 0.  1.
         11    1    1    2    0    0 -0.22921595395E+02  0.53916051790E+02  0.21720198358E+02  0.62482855190E+02  0.00000000000E+00 0. -1.
<mgrwt>
<rscale>  0 0.30625517E+03</rscale>
<asrwt>0</asrwt>
<pdfrwt beam="2">  1        2 0.50528490E-01 0.30625517E+03</pdfrwt>
<pdfrwt beam="1">  1       -2 0.10983578E-01 0.30625517E+03</pdfrwt>
<totfact> 0.56438688E+03</totfact>
</mgrwt>
</event>
<event>
 6    1  0.8353100E-006  0.1307311E+03  0.7546771E-02  0.1240085E+00
          1   -1    0    0  501    0  0.00000000000E+00  0.00000000000E+00  0.83383614372E+03  0.83383614372E+03  0.00000000000E+00 0. -1.
         -1   -1    0    0    0  501 -0.00000000000E+00 -0.00000000000E+00 -0.16693952722E+02  0.16693952722E+02  0.00000000000E+00 0.  1.
          5    1    1    2  502    0  0.38909947839E+02  0.37957155624E+02  0.37467146008E+03  0.37862319356E+03  0.47000000000E+01 0. -1.
         -5    1    1    2    0  502 -0.64391868914E+02 -0.93931627057E+01  0.18676339207E+03  0.19783123844E+03  0.47000000000E+01 0. -1.
        -11    1    1    2    0    0 -0.32954735025E+02 -0.99688122435E+01  0.12571820182E+03  0.13034745124E+03  0.00000000000E+00 0. -1.
         11    1    1    2    0    0  0.58436656100E+02 -0.18595180675E+02  0.12998913704E+03  0.14372821319E+03  0.00000000000E+00 0.  1.
<mgrwt>
<rscale>  0 0.12184427E+03</rscale>
<asrwt>0</asrwt>
<pdfrwt beam="1">  1        1 0.12828245E+00 0.13073109E+03</pdfrwt>
<pdfrwt beam="2">  1       -1 0.25683011E-02 0.13073109E+03</pdfrwt>
<totfact> 0.98301515E+03</totfact>
</mgrwt>
</event>
<event>
 6    1  0.8353100E-006  0.1253398E+03  0.7546771E-02  0.1251303E+00
          2   -1    0    0  501    0  0.00000000000E+00  0.00000000000E+00  0.96197740676E+02  0.96197740676E+02  0.00000000000E+00 0. -1.
         -2   -1    0    0    0  501 -0.00000000000E+00 -0.00000000000E+00 -0.13771080006E+03  0.13771080006E+03  0.00000000000E+00 0.  1.
          5    1    1    2  502    0  0.46803471960E+02  0.28327276840E+02  0.46979908760E+02  0.72264800752E+02  0.47000000000E+01 0.  1.
         -5    1    1    2    0  502 -0.39966729274E+02 -0.22160423027E+02 -0.29044646546E+02  0.54351681580E+02  0.47000000000E+01 0.  1.
        -11    1    1    2    0    0  0.94385016717E+01  0.48176330034E+01  0.21514283747E+02  0.23982479161E+02  0.00000000000E+00 0. -1.
         11    1    1    2    0    0 -0.16275244358E+02 -0.10984486817E+02 -0.80962605341E+02  0.83309579240E+02  0.00000000000E+00 0.  1.
<mgrwt>
<rscale>  0 0.11515954E+03</rscale>
<asrwt>0</asrwt>
<pdfrwt beam="1">  1        2 0.14799652E-01 0.12533978E+03</pdfrwt>
<pdfrwt beam="2">  1       -2 0.21186277E-01 0.12533978E+03</pdfrwt>
<totfact> 0.70829203E+03</totfact>
</mgrwt>
</event>
<event>
 6    1  0.8353100E-006  0.2022529E+03  0.7546771E-02  0.1151778E+00
         -2   -1    0    0    0  501 -0.00000000000E+00  0.00000000000E+00  0.33490141710E+02  0.33490141710E+02  0.00000000000E+00 0.  1.
          2   -1    0    0  501    0  0.00000000000E+00 -0.00000000000E+00 -0.12235107963E+04  0.12235107963E+04  0.00000000000E+00 0. -1.
          5    1    1    2  502    0 -0.10143978196E+03  0.98402703278E+02 -0.78420545962E+03  0.79685219098E+03  0.47000000000E+01 0.  1.
         -5    1    1    2    0  502  0.25675962647E+01  0.26127537044E+02 -0.22726010017E+02  0.35040009615E+02  0.47000000000E+01 0.  1.
        -11    1    1    2    0    0 -0.15805930119E+02 -0.25201731707E+02 -0.94482130140E+02  0.99054669874E+02  0.00000000000E+00 0. -1.
         11    1    1    2    0    0  0.11467811582E+03 -0.99328508614E+02 -0.28860705481E+03  0.32605406754E+03  0.00000000000E+00 0.  1.
<mgrwt>
<rscale>  0 0.19760240E+03</rscale>
<asrwt>0</asrwt>
<pdfrwt beam="2">  1        2 0.18823243E+00 0.20225290E+03</pdfrwt>
<pdfrwt beam="1">  1       -2 0.51523296E-02 0.20225290E+03</pdfrwt>
<totfact> 0.36040229E+03</totfact>
</mgrwt>
</event>
<event>
 6    1  0.8353100E-006  0.1449515E+03  0.7546771E-02  0.1217054E+00
          2   -1    0    0  501    0  0.00000000000E+00  0.00000000000E+00  0.27115037227E+03  0.27115037227E+03  0.00000000000E+00 0. -1.
         -2   -1    0    0    0  501 -0.00000000000E+00 -0.00000000000E+00 -0.71344004987E+02  0.71344004987E+02  0.00000000000E+00 0.  1.
          5    1    1    2  502    0  0.56800446635E+02 -0.14064269526E+02  0.19385118307E+02  0.61822061006E+02  0.47000000000E+01 0. -1.
         -5    1    1    2    0  502 -0.27016972814E+02 -0.52998131747E+02  0.14814731888E+03  0.15971360894E+03  0.47000000000E+01 0. -1.
        -11    1    1    2    0    0 -0.36154475378E+02  0.14516897230E+02 -0.22334664519E+02  0.44907946226E+02  0.00000000000E+00 0.  1.
         11    1    1    2    0    0  0.63710015564E+01  0.52545504044E+02  0.54608594615E+02  0.76050761087E+02  0.00000000000E+00 0. -1.
<mgrwt>
<rscale>  0 0.13726729E+03</rscale>
<asrwt>0</asrwt>
<pdfrwt beam="1">  1        2 0.41715441E-01 0.14495149E+03</pdfrwt>
<pdfrwt beam="2">  1       -2 0.10976001E-01 0.14495149E+03</pdfrwt>
<totfact> 0.66717957E+03</totfact>
</mgrwt>
</event>
<event>
 6    1  0.8353100E-006  0.3012130E+03  0.7546771E-02  0.1084636E+00
         -2   -1    0    0    0  501 -0.00000000000E+00  0.00000000000E+00  0.34754479108E+02  0.34754479108E+02  0.00000000000E+00 0.  1.
          2   -1    0    0  501    0  0.00000000000E+00 -0.00000000000E+00 -0.65264453888E+03  0.65264453888E+03  0.00000000000E+00 0. -1.
          5    1    1    2  502    0  0.92037227098E+02  0.83733937892E+02 -0.27015256894E+03  0.29746718144E+03  0.47000000000E+01 0. -1.
         -5    1    1    2    0  502 -0.36120044101E+02  0.31042009582E+01 -0.56064769117E+02  0.66930127637E+02  0.47000000000E+01 0. -1.
        -11    1    1    2    0    0  0.20323898764E+02 -0.45513735936E+02 -0.80058347999E+02  0.94307476396E+02  0.00000000000E+00 0.  1.
         11    1    1    2    0    0 -0.76241081761E+02 -0.41324402914E+02 -0.21161437372E+03  0.22869423252E+03  0.00000000000E+00 0. -1.
<mgrwt>
<rscale>  0 0.30121302E+03</rscale>
<asrwt>0</asrwt>
<pdfrwt beam="2">  1        2 0.10040684E+00 0.30121302E+03</pdfrwt>
<pdfrwt beam="1">  1       -2 0.53468434E-02 0.30121302E+03</pdfrwt>
<totfact> 0.80664176E+03</totfact>
</mgrwt>
</event>
<event>
 6    1  0.8353100E-006  0.2238994E+03  0.7546771E-02  0.1137957E+00
          1   -1    0    0  501    0  0.00000000000E+00  0.00000000000E+00  0.79106637649E+03  0.79106637649E+03  0.00000000000E+00 0. -1.
         -1   -1    0    0    0  501 -0.00000000000E+00 -0.00000000000E+00 -0.22550382489E+03  0.22550382489E+03  0.00000000000E+00 0.  1.
          5    1    1    2  502    0 -0.31609123592E+02  0.66772583281E+02  0.62239523066E+03  0.62678196187E+03  0.47000000000E+01 0. -1.
         -5    1    1    2    0  502 -0.13323082492E+02  0.83674864609E+02  0.10912701216E+03  0.13823813612E+03  0.47000000000E+01 0.  1.
        -11    1    1    2    0    0  0.36303985689E+01 -0.14483281292E+03 -0.14468778574E+03  0.20475419125E+03  0.00000000000E+00 0.  1.
         11    1    1    2    0    0  0.41301807515E+02 -0.56146349670E+01 -0.21271905481E+02  0.46795912136E+02  0.00000000000E+00 0. -1.
<mgrwt>
<rscale>  0 0.21462298E+03</rscale>
<asrwt>0</asrwt>
<pdfrwt beam="1">  1        1 0.12170252E+00 0.22389944E+03</pdfrwt>
<pdfrwt beam="2">  1       -1 0.34692896E-01 0.22389944E+03</pdfrwt>
<totfact> 0.18968741E+02</totfact>
</mgrwt>
</event>
<event>
 6    1  0.8353100E-006  0.2735948E+03  0.7546771E-02  0.1099240E+00
         -2   -1    0    0    0  501 -0.00000000000E+00  0.00000000000E+00  0.24552559937E+02  0.24552559937E+02  0.00000000000E+00 0. -1.
          2   -1    0    0  501    0  0.00000000000E+00 -0.00000000000E+00 -0.76218218572E+03  0.76218218572E+03  0.00000000000E+00 0.  1.
          5    1    1    2  502    0 -0.55158216550E+02 -0.45429644529E+02 -0.16473894300E+03  0.17963098507E+03  0.47000000000E+01 0.  1.
         -5    1    1    2    0  502  0.25242613772E+02  0.11166323995E+01 -0.41668502385E+03  0.41747686824E+03  0.47000000000E+01 0.  1.
        -11    1    1    2    0    0  0.37863318705E+02 -0.19817846287E+02 -0.67148035124E+02  0.79594199260E+02  0.00000000000E+00 0. -1.
         11    1    1    2    0    0 -0.79477159265E+01  0.64130858417E+02 -0.89057623811E+02  0.11003269309E+03  0.00000000000E+00 0.  1.
<mgrwt>
<rscale>  0 0.27359476E+03</rscale>
<asrwt>0</asrwt>
<pdfrwt beam="2">  1        2 0.11725880E+00 0.27359476E+03</pdfrwt>
<pdfrwt beam="1">  1       -2 0.37773168E-02 0.27359476E+03</pdfrwt>
<totfact> 0.11263003E+04</totfact>
</mgrwt>
</event>
<event>
 6    1  0.8353100E-006  0.1512976E+03  0.7546771E-02  0.1207767E+00
         -1   -1    0    0    0  501 -0.00000000000E+00  0.00000000000E+00  0.16347671518E+03  0.16347671518E+03  0.00000000000E+00 0.  1.
          1   -1    0    0  501    0  0.00000000000E+00 -0.00000000000E+00 -0.14061345085E+03  0.14061345085E+03  0.00000000000E+00 0. -1.
          5    1    1    2  502    0 -0.90015092797E+02  0.25729807973E+02 -0.31117761093E+02  0.98768137600E+02  0.47000000000E+01 0.  1.
         -5    1    1    2    0  502  0.10461428314E+02 -0.56405325330E+02 -0.19064858512E+02  0.60634652123E+02  0.47000000000E+01 0.  1.
        -11    1    1    2    0    0  0.26501760924E+02  0.11276810061E+01 -0.20248305540E+02  0.33370778741E+02  0.00000000000E+00 0. -1.
         11    1    1    2    0    0  0.53051903558E+02  0.29547836351E+02  0.93294189474E+02  0.11131659757E+03  0.00000000000E+00 0.  1.
<mgrwt>
<rscale>  0 0.14421490E+03</rscale>
<asrwt>0</asrwt>
<pdfrwt beam="2">  1        1 0.21632838E-01 0.15129757E+03</pdfrwt>
<pdfrwt beam="1">  1       -1 0.25150264E-01 0.15129757E+03</pdfrwt>
<totfact> 0.30854218E+03</totfact>
</mgrwt>
</event>
<event>
 6    1  0.8353100E-006  0.1175998E+03  0.7546771E-02  0.1256875E+00
          3   -1    0    0  501    0  0.00000000000E+00  0.00000000000E+00  0.46881368538E+02  0.46881368538E+02  0.00000000000E+00 0. -1.
         -3   -1    0    0    0  501 -0.00000000000E+00 -0.00000000000E+00 -0.30611523440E+03  0.30611523440E+03  0.00000000000E+00 0.  1.
          5    1    1    2  502    0  0.25077314283E+02  0.27221604974E+02  0.14042978540E+02  0.39864554623E+02  0.47000000000E+01 0. -1.
         -5    1    1    2    0  502 -0.53424675555E+02 -0.74498049751E+01 -0.75262195703E+02  0.92715606315E+02  0.47000000000E+01 0.  1.
        -11    1    1    2    0    0 -0.30607373594E+02 -0.62776084779E+01 -0.37055213716E+02  0.48469666288E+02  0.00000000000E+00 0. -1.
         11    1    1    2    0    0  0.58954734865E+02 -0.13494191521E+02 -0.16095943498E+03  0.17194677571E+03  0.00000000000E+00 0.  1.
<mgrwt>
<rscale>  0 0.11201939E+03</rscale>
<asrwt>0</asrwt>
<pdfrwt beam="1">  1        3 0.72125181E-02 0.11759977E+03</pdfrwt>
<pdfrwt beam="2">  1       -3 0.47094652E-01 0.11759977E+03</pdfrwt>
<totfact> 0.12783212E+03</totfact>
</mgrwt>
</event>
<event>
 6    1  0.8353100E-006  0.1534338E+03  0.7546771E-02  0.1205293E+00
         -2   -1    0    0    0  501 -0.00000000000E+00  0.00000000000E+00  0.56235216125E+02  0.56235216125E+02  0.00000000000E+00 0.  1.
          2   -1    0    0  501    0  0.00000000000E+00 -0.00000000000E+00 -0.52347483213E+03  0.52347483213E+03  0.00000000000E+00 0. -1.
          5    1    1    2  502    0 -0.16179107916E+02 -0.50633713606E+02 -0.42796397259E+02  0.68404371971E+02  0.47000000000E+01 0.  1.
         -5    1    1    2    0  502 -0.17394748031E+02 -0.31767558498E+02 -0.37325488030E+03  0.37503739907E+03  0.47000000000E+01 0.  1.
        -11    1    1    2    0    0  0.14848205511E+02  0.55009737375E+02  0.17817825706E+02  0.59699374585E+02  0.00000000000E+00 0.  1.
         11    1    1    2    0    0  0.18725650436E+02  0.27391534728E+02 -0.69006164153E+02  0.76568902631E+02  0.00000000000E+00 0. -1.
<mgrwt>
<rscale>  0 0.14614428E+03</rscale>
<asrwt>0</asrwt>
<pdfrwt beam="2">  1        2 0.80534587E-01 0.15343383E+03</pdfrwt>
<pdfrwt beam="1">  1       -2 0.86515720E-02 0.15343383E+03</pdfrwt>
<totfact> 0.47969294E+03</totfact>
</mgrwt>
</event>
<event>
 6    1  0.8353100E-006  0.1532160E+03  0.7546771E-02  0.1205038E+00
         -1   -1    0    0    0  501 -0.00000000000E+00  0.00000000000E+00  0.37439053563E+02  0.37439053563E+02  0.00000000000E+00 0.  1.
          1   -1    0    0  501    0  0.00000000000E+00 -0.00000000000E+00 -0.52942599757E+03  0.52942599757E+03  0.00000000000E+00 0. -1.
          5    1    1    2  502    0 -0.52775653357E+02  0.90712027929E+02 -0.11174660926E+03  0.15337319283E+03  0.47000000000E+01 0.  1.
         -5    1    1    2    0  502  0.22078509156E+02 -0.76000825287E+01 -0.13491135814E+03  0.13699776048E+03  0.47000000000E+01 0.  1.
        -11    1    1    2    0    0  0.29150510861E+02  0.83752880448E+01 -0.30607254691E+02  0.43089462436E+02  0.00000000000E+00 0.  1.
         11    1    1    2    0    0  0.15466333403E+01 -0.91487233445E+02 -0.21472172192E+03  0.23340463539E+03  0.00000000000E+00 0. -1.
<mgrwt>
<rscale>  0 0.14634472E+03</rscale>
<asrwt>0</asrwt>
<pdfrwt beam="2">  1        1 0.81450150E-01 0.15321598E+03</pdfrwt>
<pdfrwt beam="1">  1       -1 0.57598547E-02 0.15321598E+03</pdfrwt>
<totfact> 0.57569060E+03</totfact>
</mgrwt>
</event>
<event>
 6    1  0.8353100E-006  0.1368565E+03  0.7546771E-02  0.1228912E+00
         -1   -1    0    0    0  501 -0.00000000000E+00  0.00000000000E+00  0.14785761112E+03  0.14785761112E+03  0.00000000000E+00 0.  1.
          1   -1    0    0  501    0  0.00000000000E+00 -0.00000000000E+00 -0.10439294349E+03  0.10439294349E+03  0.00000000000E+00 0. -1.
          5    1    1    2  502    0 -0.40791803019E+00  0.53712277142E+02 -0.46116860364E+01  0.54115919663E+02  0.47000000000E+01 0.  1.
         -5    1    1    2    0  502 -0.54775146794E+02 -0.61387112473E+02  0.78441645978E+01  0.82778712253E+02  0.47000000000E+01 0.  1.
        -11    1    1    2    0    0 -0.24008217693E+02  0.31731950880E+00 -0.40151668989E+01  0.24343721443E+02  0.00000000000E+00 0. -1.
         11    1    1    2    0    0  0.79191282517E+02  0.73575158225E+01  0.44247355973E+02  0.91012201250E+02  0.00000000000E+00 0.  1.
<mgrwt>
<rscale>  0 0.12902331E+03</rscale>
<asrwt>0</asrwt>
<pdfrwt beam="2">  1        1 0.16060453E-01 0.13685646E+03</pdfrwt>
<pdfrwt beam="1">  1       -1 0.22747325E-01 0.13685646E+03</pdfrwt>
<totfact> 0.52933475E+03</totfact>
</mgrwt>
</event>
<event>
 6    1  0.8353100E-006  0.1578141E+03  0.7546771E-02  0.1199105E+00
         -3   -1    0    0    0  501 -0.00000000000E+00  0.00000000000E+00  0.32577403038E+02  0.32577403038E+02  0.00000000000E+00 0. -1.
          3   -1    0    0  501    0  0.00000000000E+00 -0.00000000000E+00 -0.74855288014E+03  0.74855288014E+03  0.00000000000E+00 0.  1.
          5    1    1    2  502    0 -0.23738447544E+02  0.78610281969E+02 -0.46423515364E+03  0.47146522480E+03  0.47000000000E+01 0.  1.
         -5    1    1    2    0  502 -0.45828839396E+02 -0.11971331226E+02 -0.63489894874E+02  0.79351446381E+02  0.47000000000E+01 0.  1.
        -11    1    1    2    0    0  0.19147466951E+02 -0.67639397874E+02 -0.15419097719E+03  0.16945964440E+03  0.00000000000E+00 0.  1.
         11    1    1    2    0    0  0.50419819988E+02  0.10004471317E+01 -0.34059451405E+02  0.60853967595E+02  0.00000000000E+00 0. -1.
<mgrwt>
<rscale>  0 0.15111838E+03</rscale>
<asrwt>0</asrwt>
<pdfrwt beam="2">  1        3 0.11516197E+00 0.15781406E+03</pdfrwt>
<pdfrwt beam="1">  1       -3 0.50119087E-02 0.15781406E+03</pdfrwt>
<totfact> 0.35242775E+02</totfact>
</mgrwt>
</event>
<event>
 6    1  0.8353100E-006  0.1620919E+03  0.7546771E-02  0.1193562E+00
          2   -1    0    0  501    0  0.00000000000E+00  0.00000000000E+00  0.14393285933E+03  0.14393285933E+03  0.00000000000E+00 0. -1.
         -2   -1    0    0    0  501 -0.00000000000E+00 -0.00000000000E+00 -0.22201778481E+03  0.22201778481E+03  0.00000000000E+00 0.  1.
          5    1    1    2  502    0 -0.71238946865E+02  0.16229892083E+01  0.94787537422E+02  0.11867766805E+03  0.47000000000E+01 0. -1.
         -5    1    1    2    0  502 -0.29377470690E+02 -0.24540325593E+02 -0.36963306293E+02  0.53419466269E+02  0.47000000000E+01 0. -1.
        -11    1    1    2    0    0  0.16280182805E+02 -0.29196016729E+02 -0.12813649254E+02  0.35800018885E+02  0.00000000000E+00 0.  1.
         11    1    1    2    0    0  0.84336234750E+02  0.52113353113E+02 -0.12309550735E+03  0.15805349093E+03  0.00000000000E+00 0. -1.
<mgrwt>
<rscale>  0 0.15576596E+03</rscale>
<asrwt>0</asrwt>
<pdfrwt beam="1">  1        2 0.22143517E-01 0.16209189E+03</pdfrwt>
<pdfrwt beam="2">  1       -2 0.34156582E-01 0.16209189E+03</pdfrwt>
<totfact> 0.19451365E+03</totfact>
</mgrwt>
</event>
<event>
 6    1  0.8353100E-006  0.1385158E+03  0.7546771E-02  0.1226646E+00
         -1   -1    0    0    0  501 -0.00000000000E+00  0.00000000000E+00  0.80567434746E+02  0.80567434746E+02  0.00000000000E+00 0.  1.
          1   -1    0    0  501    0  0.00000000000E+00 -0.00000000000E+00 -0.19060142713E+03  0.19060142713E+03  0.00000000000E+00 0. -1.
          5    1    1    2  502    0 -0.57199023348E+02  0.31049929028E+02 -0.15060287049E+02  0.66968116374E+02  0.47000000000E+01 0. -1.
         -5    1    1    2    0  502  0.11321049509E+02 -0.69211791005E+02 -0.48742276163E+02  0.85535592952E+02  0.47000000000E+01 0. -1.
        -11    1    1    2    0    0  0.20058020236E+02 -0.80825529609E+01  0.22952484742E+02  0.31535192943E+02  0.00000000000E+00 0.  1.
         11    1    1    2    0    0  0.25819953604E+02  0.46244414937E+02 -0.69183913918E+02  0.87129959612E+02  0.00000000000E+00 0. -1.
<mgrwt>
<rscale>  0 0.13054746E+03</rscale>
<asrwt>0</asrwt>
<pdfrwt beam="2">  1        1 0.29323296E-01 0.13851575E+03</pdfrwt>
<pdfrwt beam="1">  1       -1 0.12394990E-01 0.13851575E+03</pdfrwt>
<totfact> 0.64640255E+03</totfact>
</mgrwt>
</event>
<event>
 6    1  0.8353100E-006  0.1425791E+03  0.7546771E-02  0.1220254E+00
          1   -1    0    0  501    0  0.00000000000E+00  0.00000000000E+00  0.60534979126E+03  0.60534979126E+03  0.00000000000E+00 0. -1.
         -1   -1    0    0    0  501 -0.00000000000E+00 -0.00000000000E+00 -0.27573812144E+02  0.27573812144E+02  0.00000000000E+00 0.  1.
          5    1    1    2  502    0  0.83732918954E+02  0.26814668804E+02  0.18703814596E+03  0.20672587217E+03  0.47000000000E+01 0.  1.
         -5    1    1    2    0  502 -0.18834364283E+02 -0.48596982932E+02  0.16461075197E+03  0.17272865916E+03  0.47000000000E+01 0.  1.
        -11    1    1    2    0    0 -0.85816228570E+02  0.32059606551E+01  0.15817132967E+03  0.17998020113E+03  0.00000000000E+00 0.  1.
         11    1    1    2    0    0  0.20917673899E+02  0.18576353473E+02  0.67955751506E+02  0.73488870943E+02  0.00000000000E+00 0. -1.
<mgrwt>
<rscale>  0 0.13497554E+03</rscale>
<asrwt>0</asrwt>
<pdfrwt beam="1">  1        1 0.93130727E-01 0.14257908E+03</pdfrwt>
<pdfrwt beam="2">  1       -1 0.42421254E-02 0.14257908E+03</pdfrwt>
<totfact> 0.75338512E+03</totfact>
</mgrwt>
</event>
<event>
 6    1  0.8353100E-006  0.3188280E+03  0.7546771E-02  0.1076190E+00
          1   -1    0    0  501    0  0.00000000000E+00  0.00000000000E+00  0.33992416778E+03  0.33992416778E+03  0.00000000000E+00 0. -1.
         -1   -1    0    0    0  501 -0.00000000000E+00 -0.00000000000E+00 -0.74760254715E+02  0.74760254715E+02  0.00000000000E+00 0.  1.
          5    1    1    2  502    0  0.28813244563E+02  0.86851801765E+01  0.84298179760E+01  0.31603595493E+02  0.47000000000E+01 0.  1.
         -5    1    1    2    0  502 -0.77611317928E+02  0.63342375394E+02  0.23550807947E+03  0.25597249596E+03  0.47000000000E+01 0.  1.
        -11    1    1    2    0    0  0.62029077830E+02 -0.22578954344E+02 -0.10565881372E+02  0.66850979984E+02  0.00000000000E+00 0.  1.
         11    1    1    2    0    0 -0.13231004465E+02 -0.49448601226E+02  0.31791896990E+02  0.60257351059E+02  0.00000000000E+00 0. -1.
<mgrwt>
<rscale>  0 0.31882796E+03</rscale>
<asrwt>0</asrwt>
<pdfrwt beam="1">  1        1 0.52296025E-01 0.31882796E+03</pdfrwt>
<pdfrwt beam="2">  1       -1 0.11501578E-01 0.31882796E+03</pdfrwt>
<totfact> 0.36597136E+03</totfact>
</mgrwt>
</event>
<event>
 6    1  0.8353100E-006  0.2700088E+03  0.7546771E-02  0.1101275E+00
         -4   -1    0    0    0  501 -0.00000000000E+00  0.00000000000E+00  0.28943639108E+03  0.28943639108E+03  0.00000000000E+00 0.  1.
          4   -1    0    0  501    0  0.00000000000E+00 -0.00000000000E+00 -0.62971309695E+02  0.62971309695E+02  0.00000000000E+00 0. -1.
          5    1    1    2  502    0 -0.64677254088E+02 -0.87012318098E+02  0.66565671873E+02  0.12730816694E+03  0.47000000000E+01 0.  1.
         -5    1    1    2    0  502  0.39428921339E+01  0.36600972006E+02  0.42370567936E+02  0.56325239257E+02  0.47000000000E+01 0.  1.
        -11    1    1    2    0    0  0.37143488761E+01  0.48988348353E+02  0.95940124177E+02  0.10778757855E+03  0.00000000000E+00 0.  1.
         11    1    1    2    0    0  0.57020013078E+02  0.14229977394E+01  0.21588717403E+02  0.60986716038E+02  0.00000000000E+00 0. -1.
<mgrwt>
<rscale>  0 0.27000880E+03</rscale>
<asrwt>0</asrwt>
<pdfrwt beam="2">  1        4 0.96878940E-02 0.27000880E+03</pdfrwt>
<pdfrwt beam="1">  1       -4 0.44528675E-01 0.27000880E+03</pdfrwt>
<totfact> 0.73510496E+02</totfact>
</mgrwt>
</event>
<event>
 6    1  0.8353100E-006  0.1329627E+03  0.7546771E-02  0.1236023E+00
         -1   -1    0    0    0  501 -0.00000000000E+00  0.00000000000E+00  0.79160906159E+01  0.79160906159E+01  0.00000000000E+00 0.  1.
          1   -1    0    0  501    0  0.00000000000E+00 -0.00000000000E+00 -0.22966351007E+04  0.22966351007E+04  0.00000000000E+00 0. -1.
          5    1    1    2  502    0 -0.60107065628E+02  0.24281579275E+02 -0.13497483650E+04  0.13513123966E+04  0.47000000000E+01 0. -1.
         -5    1    1    2    0  502  0.23158429420E+02 -0.50515790901E+02 -0.47237154482E+03  0.47565231455E+03  0.47000000000E+01 0. -1.
        -11    1    1    2    0    0  0.39840050675E+02  0.57765025580E+02 -0.32574942413E+03  0.33322172069E+03  0.00000000000E+00 0.  1.
         11    1    1    2    0    0 -0.28914144666E+01 -0.31530813954E+02 -0.14084967616E+03  0.14436475948E+03  0.00000000000E+00 0. -1.
<mgrwt>
<rscale>  0 0.12439170E+03</rscale>
<asrwt>0</asrwt>
<pdfrwt beam="2">  1        1 0.35332829E+00 0.13296274E+03</pdfrwt>
<pdfrwt beam="1">  1       -1 0.12178607E-02 0.13296274E+03</pdfrwt>
<totfact> 0.30496140E+03</totfact>
</mgrwt>
</event>
<event>
 6    1  0.8353100E-006  0.1469011E+03  0.7546771E-02  0.1212424E+00
         -1   -1    0    0    0  501 -0.00000000000E+00  0.00000000000E+00  0.63201048718E+02  0.63201048718E+02  0.00000000000E+00 0.  1.
          1   -1    0    0  501    0  0.00000000000E+00 -0.00000000000E+00 -0.30025870751E+03  0.30025870751E+03  0.00000000000E+00 0. -1.
          5    1    1    2  502    0  0.42806612825E+02  0.35741273412E+02 -0.80259839208E+02  0.97844655022E+02  0.47000000000E+01 0. -1.
         -5    1    1    2    0  502  0.14133648546E+02 -0.87833984862E+02 -0.82735380432E+02  0.12158043466E+03  0.47000000000E+01 0. -1.
        -11    1    1    2    0    0 -0.27170923563E+02 -0.26328513104E+02 -0.12007255014E+02  0.39694128816E+02  0.00000000000E+00 0.  1.
         11    1    1    2    0    0 -0.29769337808E+02  0.78421224554E+02 -0.62055184136E+02  0.10434053772E+03  0.00000000000E+00 0. -1.
<mgrwt>
<rscale>  0 0.14067460E+03</rscale>
<asrwt>0</asrwt>
<pdfrwt beam="2">  1        1 0.46193648E-01 0.14690108E+03</pdfrwt>
<pdfrwt beam="1">  1       -1 0.97232381E-02 0.14690108E+03</pdfrwt>
<totfact> 0.53615316E+03</totfact>
</mgrwt>
</event>
<event>
 6    1  0.8353100E-006  0.2482436E+03  0.7546771E-02  0.1114420E+00
          2   -1    0    0  501    0  0.00000000000E+00  0.00000000000E+00  0.12049330797E+04  0.12049330797E+04  0.00000000000E+00 0. -1.
         -2   -1    0    0    0  501 -0.00000000000E+00 -0.00000000000E+00 -0.12785953272E+02  0.12785953272E+02  0.00000000000E+00 0.  1.
          5    1    1    2  502    0 -0.33552955849E+02 -0.59657099248E+02  0.16552560291E+03  0.17918031576E+03  0.47000000000E+01 0.  1.
         -5    1    1    2    0  502 -0.36217910829E+01  0.12386757181E+02  0.52293995360E+03  0.52312028654E+03  0.47000000000E+01 0.  1.
        -11    1    1    2    0    0  0.15251196262E+02 -0.27049502536E+02  0.11707448768E+03  0.12112270737E+03  0.00000000000E+00 0.  1.
         11    1    1    2    0    0  0.21923550669E+02  0.74319844602E+02  0.38660708225E+03  0.39429572331E+03  0.00000000000E+00 0. -1.
<mgrwt>
<rscale>  0 0.24824357E+03</rscale>
<asrwt>0</asrwt>
<pdfrwt beam="1">  1        2 0.18537423E+00 0.24824357E+03</pdfrwt>
<pdfrwt beam="2">  1       -2 0.19670707E-02 0.24824357E+03</pdfrwt>
<totfact> 0.15638338E+04</totfact>
</mgrwt>
</event>
<event>
 6    1  0.8353100E-006  0.2521934E+03  0.7546771E-02  0.1146744E+00
          2   -1    0    0  501    0  0.00000000000E+00  0.00000000000E+00  0.15178178405E+03  0.15178178405E+03  0.00000000000E+00 0. -1.
         -2   -1    0    0    0  501 -0.00000000000E+00 -0.00000000000E+00 -0.23817805882E+03  0.23817805882E+03  0.00000000000E+00 0.  1.
          5    1    1    2  502    0  0.57544478534E+02 -0.34684678296E+01  0.11165451519E+03  0.12574664227E+03  0.47000000000E+01 0. -1.
         -5    1    1    2    0  502 -0.28771546760E+02  0.52216678201E+02 -0.11141072254E+03  0.12644691567E+03  0.47000000000E+01 0.  1.
        -11    1    1    2    0    0  0.24796904822E+02 -0.59515802214E+01 -0.58189535987E+02  0.63532117029E+02  0.00000000000E+00 0.  1.
         11    1    1    2    0    0 -0.53569836596E+02 -0.42796630150E+02 -0.28450531437E+02  0.74234167902E+02  0.00000000000E+00 0. -1.
<mgrwt>
<rscale>  0 0.20359176E+03</rscale>
<asrwt>0</asrwt>
<pdfrwt beam="1">  1        2 0.23351044E-01 0.25219344E+03</pdfrwt>
<pdfrwt beam="2">  1       -2 0.36642778E-01 0.25219344E+03</pdfrwt>
<totfact> 0.16310794E+03</totfact>
</mgrwt>
</event>
<event>
 6    1  0.8353100E-006  0.4356983E+03  0.7546771E-02  0.1032075E+00
         -2   -1    0    0    0  501 -0.00000000000E+00  0.00000000000E+00  0.37833882212E+02  0.37833882212E+02  0.00000000000E+00 0. -1.
          2   -1    0    0  501    0  0.00000000000E+00 -0.00000000000E+00 -0.12543847351E+04  0.12543847351E+04  0.00000000000E+00 0.  1.
          5    1    1    2  502    0  0.17864536019E+02 -0.14500168483E+03 -0.48543575579E+03  0.50696606716E+03  0.47000000000E+01 0. -1.
         -5    1    1    2    0  502 -0.34866380436E+02  0.46187376902E+01 -0.24053584638E+03  0.24313901501E+03  0.47000000000E+01 0. -1.
        -11    1    1    2    0    0  0.89568453767E+01  0.18327346142E+03 -0.35396179503E+03  0.39869579767E+03  0.00000000000E+00 0.  1.
         11    1    1    2    0    0  0.80449990397E+01 -0.42890514279E+02 -0.13661745566E+03  0.14341773745E+03  0.00000000000E+00 0. -1.
<mgrwt>
<rscale>  0 0.43569826E+03</rscale>
<asrwt>0</asrwt>
<pdfrwt beam="2">  1        2 0.19298228E+00 0.43569826E+03</pdfrwt>
<pdfrwt beam="1">  1       -2 0.58205968E-02 0.43569826E+03</pdfrwt>
<totfact> 0.28897555E+03</totfact>
</mgrwt>
</event>
<event>
 6    1  0.8353100E-006  0.1858912E+03  0.7546771E-02  0.1184512E+00
         -3   -1    0    0    0  501 -0.00000000000E+00  0.00000000000E+00  0.63219085843E+02  0.63219085843E+02  0.00000000000E+00 0.  1.
          3   -1    0    0  501    0  0.00000000000E+00 -0.00000000000E+00 -0.45249201017E+03  0.45249201017E+03  0.00000000000E+00 0. -1.
          5    1    1    2  502    0  0.85701001515E+01 -0.57002966998E+02 -0.35304383689E+03  0.35774966895E+03  0.47000000000E+01 0. -1.
         -5    1    1    2    0  502 -0.39406062535E+02 -0.14244025339E+01  0.16921449249E+01  0.39746950091E+02  0.47000000000E+01 0.  1.
        -11    1    1    2    0    0 -0.28308614597E+02 -0.63779824383E+00 -0.78628719367E+01  0.29387228554E+02  0.00000000000E+00 0. -1.
         11    1    1    2    0    0  0.59144576980E+02  0.59065167775E+02 -0.30058360418E+02  0.88827248418E+02  0.00000000000E+00 0.  1.
<mgrwt>
<rscale>  0 0.16376340E+03</rscale>
<asrwt>0</asrwt>
<pdfrwt beam="2">  1        3 0.69614156E-01 0.18589123E+03</pdfrwt>
<pdfrwt beam="1">  1       -3 0.97260131E-02 0.18589123E+03</pdfrwt>
<totfact> 0.37705313E+02</totfact>
</mgrwt>
</event>
<event>
 6    1  0.8353100E-006  0.1282669E+03  0.7546771E-02  0.1244444E+00
          2   -1    0    0  501    0  0.00000000000E+00  0.00000000000E+00  0.38649845342E+03  0.38649845342E+03  0.00000000000E+00 0.  1.
         -2   -1    0    0    0  501 -0.00000000000E+00 -0.00000000000E+00 -0.33835922935E+02  0.33835922935E+02  0.00000000000E+00 0. -1.
          5    1    1    2  502    0  0.35364446176E+02  0.15845258596E+02  0.17421845849E+03  0.17853816833E+03  0.47000000000E+01 0. -1.
         -5    1    1    2    0  502 -0.59173353326E+02 -0.31968053664E+02  0.69237781559E+02  0.96640584611E+02  0.47000000000E+01 0. -1.
        -11    1    1    2    0    0  0.39980617011E+02 -0.25975764927E+02  0.73610878499E+02  0.87702631281E+02  0.00000000000E+00 0.  1.
         11    1    1    2    0    0 -0.16171709861E+02  0.42098559996E+02  0.35595411934E+02  0.57452992127E+02  0.00000000000E+00 0. -1.
<mgrwt>
<rscale>  0 0.11918700E+03</rscale>
<asrwt>0</asrwt>
<pdfrwt beam="1">  1        2 0.59461297E-01 0.12826693E+03</pdfrwt>
<pdfrwt beam="2">  1       -2 0.52055269E-02 0.12826693E+03</pdfrwt>
<totfact> 0.14323090E+04</totfact>
</mgrwt>
</event>
<event>
 6    1  0.8353100E-006  0.1285558E+03  0.7546771E-02  0.1239856E+00
         -1   -1    0    0    0  501 -0.00000000000E+00  0.00000000000E+00  0.60915267967E+03  0.60915267967E+03  0.00000000000E+00 0.  1.
          1   -1    0    0  501    0  0.00000000000E+00 -0.00000000000E+00 -0.32087985548E+02  0.32087985548E+02  0.00000000000E+00 0. -1.
          5    1    1    2  502    0  0.26338252913E+02 -0.51507174830E+02  0.13732086096E+02  0.59643547966E+02  0.47000000000E+01 0. -1.
         -5    1    1    2    0  502 -0.38539484476E+02  0.25108814053E+01  0.11874144283E+03  0.12495285765E+03  0.47000000000E+01 0.  1.
        -11    1    1    2    0    0  0.28222924492E+02  0.71178266205E+02  0.31190399604E+03  0.32116503825E+03  0.00000000000E+00 0.  1.
         11    1    1    2    0    0 -0.16021692930E+02 -0.22181972780E+02  0.13268716915E+03  0.13547922136E+03  0.00000000000E+00 0. -1.
<mgrwt>
<rscale>  0 0.12198625E+03</rscale>
<asrwt>0</asrwt>
<pdfrwt beam="2">  1        1 0.49366136E-02 0.12855581E+03</pdfrwt>
<pdfrwt beam="1">  1       -1 0.93715788E-01 0.12855581E+03</pdfrwt>
<totfact> 0.19112598E+03</totfact>
</mgrwt>
</event>
<event>
 6    1  0.8353100E-006  0.3565802E+03  0.7546771E-02  0.1059946E+00
          1   -1    0    0  501    0  0.00000000000E+00  0.00000000000E+00  0.37870729996E+03  0.37870729996E+03  0.00000000000E+00 0. -1.
         -1   -1    0    0    0  501 -0.00000000000E+00 -0.00000000000E+00 -0.83936463572E+02  0.83936463572E+02  0.00000000000E+00 0.  1.
          5    1    1    2  502    0 -0.33412867879E+02  0.48151823535E+02  0.56725356850E+01  0.59070174459E+02  0.47000000000E+01 0. -1.
         -5    1    1    2    0  502 -0.10084741859E+03 -0.55892644164E+02  0.10049649015E+03  0.15302229916E+03  0.47000000000E+01 0. -1.
        -11    1    1    2    0    0  0.66592557557E+02 -0.11040940249E+02  0.24079563783E+02  0.71667959895E+02  0.00000000000E+00 0.  1.
         11    1    1    2    0    0  0.67667728907E+02  0.18781760879E+02  0.16452224677E+03  0.17888333002E+03  0.00000000000E+00 0. -1.
<mgrwt>
<rscale>  0 0.35658015E+03</rscale>
<asrwt>0</asrwt>
<pdfrwt beam="1">  1        1 0.58262660E-01 0.35658015E+03</pdfrwt>
<pdfrwt beam="2">  1       -1 0.12913302E-01 0.35658015E+03</pdfrwt>
<totfact> 0.26618554E+03</totfact>
</mgrwt>
</event>
<event>
 6    1  0.8353100E-006  0.1396119E+03  0.7546771E-02  0.1224332E+00
          1   -1    0    0  501    0  0.00000000000E+00  0.00000000000E+00  0.40400667678E+03  0.40400667678E+03  0.00000000000E+00 0. -1.
         -1   -1    0    0    0  501 -0.00000000000E+00 -0.00000000000E+00 -0.41383148630E+02  0.41383148630E+02  0.00000000000E+00 0.  1.
          5    1    1    2  502    0 -0.27830680544E+02 -0.92220516911E+01  0.99227215104E+01  0.31307242278E+02  0.47000000000E+01 0.  1.
         -5    1    1    2    0  502  0.56524527759E+02  0.64368004833E+02  0.24136968892E+03  0.25616338344E+03  0.47000000000E+01 0.  1.
        -11    1    1    2    0    0 -0.23158877418E+02  0.19032805978E+02  0.61409333703E+02  0.68335112296E+02  0.00000000000E+00 0.  1.
         11    1    1    2    0    0 -0.55349697976E+01 -0.74178759120E+02  0.49921784012E+02  0.89584087394E+02  0.00000000000E+00 0. -1.
<mgrwt>
<rscale>  0 0.13212826E+03</rscale>
<asrwt>0</asrwt>
<pdfrwt beam="1">  1        1 0.62154871E-01 0.13961191E+03</pdfrwt>
<pdfrwt beam="2">  1       -1 0.63666385E-02 0.13961191E+03</pdfrwt>
<totfact> 0.69904861E+03</totfact>
</mgrwt>
</event>
<event>
 6    1  0.8353100E-006  0.1393108E+03  0.7546771E-02  0.1225239E+00
         -2   -1    0    0    0  501 -0.00000000000E+00  0.00000000000E+00  0.77230512991E+02  0.77230512991E+02  0.00000000000E+00 0.  1.
          2   -1    0    0  501    0  0.00000000000E+00 -0.00000000000E+00 -0.24873297113E+03  0.24873297113E+03  0.00000000000E+00 0. -1.
          5    1    1    2  502    0  0.13412559023E+02  0.46845149247E+02 -0.16085964298E+03  0.16814362756E+03  0.47000000000E+01 0. -1.
         -5    1    1    2    0  502  0.42015142938E+02 -0.20176211203E+02 -0.30127629606E+01  0.46941649686E+02  0.47000000000E+01 0. -1.
        -11    1    1    2    0    0 -0.61943609014E+02 -0.14729428733E+02  0.30351233324E+02  0.70534843395E+02  0.00000000000E+00 0.  1.
         11    1    1    2    0    0  0.65159070539E+01 -0.11939509311E+02 -0.37981285521E+02  0.40343363483E+02  0.00000000000E+00 0. -1.
<mgrwt>
<rscale>  0 0.13150509E+03</rscale>
<asrwt>0</asrwt>
<pdfrwt beam="2">  1        2 0.38266611E-01 0.13931084E+03</pdfrwt>
<pdfrwt beam="1">  1       -2 0.11881617E-01 0.13931084E+03</pdfrwt>
<totfact> 0.64306520E+03</totfact>
</mgrwt>
</event>
<event>
 6    1  0.1527023E-005  0.1375477E+03  0.7546771E-02  0.1228610E+00
          1   -1    0    0  501    0  0.00000000000E+00  0.00000000000E+00  0.16185320009E+03  0.16185320009E+03  0.00000000000E+00 0. -1.
         -1   -1    0    0    0  501 -0.00000000000E+00 -0.00000000000E+00 -0.97953594077E+02  0.97953594077E+02  0.00000000000E+00 0.  1.
          5    1    1    2  502    0 -0.73370650379E+01  0.34412798576E+02 -0.17183996352E+02  0.39439231227E+02  0.47000000000E+01 0.  1.
         -5    1    1    2    0  502  0.64317102354E+02 -0.41338478747E+02  0.83325501045E+02  0.11318475430E+03  0.47000000000E+01 0.  1.
        -11    1    1    2    0    0 -0.39781621904E+02  0.87217628359E+01  0.42712734455E+02  0.59017152362E+02  0.00000000000E+00 0. -1.
         11    1    1    2    0    0 -0.17198415413E+02 -0.17960826645E+01 -0.44954633130E+02  0.48165656287E+02  0.00000000000E+00 0.  1.
<mgrwt>
<rscale>  0 0.12922533E+03</rscale>
<asrwt>0</asrwt>
<pdfrwt beam="1">  1        1 0.24900492E-01 0.13754775E+03</pdfrwt>
<pdfrwt beam="2">  1       -1 0.15069784E-01 0.13754775E+03</pdfrwt>
<totfact> 0.58472670E+03</totfact>
</mgrwt>
</event>
<event>
 6    1  0.8353100E-006  0.1382192E+03  0.7546771E-02  0.1226837E+00
         -1   -1    0    0    0  501 -0.00000000000E+00  0.00000000000E+00  0.10598253015E+03  0.10598253015E+03  0.00000000000E+00 0.  1.
          1   -1    0    0  501    0  0.00000000000E+00 -0.00000000000E+00 -0.16531440944E+03  0.16531440944E+03  0.00000000000E+00 0. -1.
          5    1    1    2  502    0  0.48929198867E+01 -0.36242265449E+02 -0.10382080573E+03  0.11017391785E+03  0.47000000000E+01 0. -1.
         -5    1    1    2    0  502 -0.42258145281E+02 -0.96152656001E+01  0.23669035084E+02  0.49603602661E+02  0.47000000000E+01 0. -1.
        -11    1    1    2    0    0 -0.80922869641E+01  0.60186871630E+02  0.35766855561E+01  0.60833685606E+02  0.00000000000E+00 0.  1.
         11    1    1    2    0    0  0.45457512359E+02 -0.14329340580E+02  0.17243205806E+02  0.50685733474E+02  0.00000000000E+00 0. -1.
<mgrwt>
<rscale>  0 0.13041815E+03</rscale>
<asrwt>0</asrwt>
<pdfrwt beam="2">  1        1 0.25432986E-01 0.13821921E+03</pdfrwt>
<pdfrwt beam="1">  1       -1 0.16305005E-01 0.13821921E+03</pdfrwt>
<totfact> 0.50318985E+03</totfact>
</mgrwt>
</event>
<event>
 6    1  0.8353100E-006  0.2181671E+03  0.7546771E-02  0.1190319E+00
          2   -1    0    0  501    0  0.00000000000E+00  0.00000000000E+00  0.78481270301E+03  0.78481270301E+03  0.00000000000E+00 0. -1.
         -2   -1    0    0    0  501 -0.00000000000E+00 -0.00000000000E+00 -0.27095257225E+02  0.27095257225E+02  0.00000000000E+00 0.  1.
          5    1    1    2  502    0  0.78936146093E+02 -0.15194768319E+02  0.66163714650E+03  0.66651901682E+03  0.47000000000E+01 0. -1.
         -5    1    1    2    0  502 -0.35834384555E+02 -0.16796598385E+02  0.12083798610E+02  0.41645372163E+02  0.47000000000E+01 0.  1.
        -11    1    1    2    0    0 -0.27152513854E+02  0.28271388511E+01  0.32412581836E+02  0.42377201229E+02  0.00000000000E+00 0.  1.
         11    1    1    2    0    0 -0.15949247685E+02  0.29164227854E+02  0.51583918829E+02  0.61366370023E+02  0.00000000000E+00 0. -1.
<mgrwt>
<rscale>  0 0.15857124E+03</rscale>
<asrwt>0</asrwt>
<pdfrwt beam="1">  1        2 0.12074040E+00 0.21816711E+03</pdfrwt>
<pdfrwt beam="2">  1       -2 0.41685017E-02 0.21816711E+03</pdfrwt>
<totfact> 0.92557465E+03</totfact>
</mgrwt>
</event>
<event>
 6    1  0.8353100E-006  0.1354094E+03  0.7546771E-02  0.1231616E+00
          4   -1    0    0  501    0  0.00000000000E+00  0.00000000000E+00  0.55201487817E+03  0.55201487817E+03  0.00000000000E+00 0. -1.
         -4   -1    0    0    0  501 -0.00000000000E+00 -0.00000000000E+00 -0.27209547677E+02  0.27209547677E+02  0.00000000000E+00 0.  1.
          5    1    1    2  502    0  0.52143479443E+02  0.13914220561E+02  0.15473099142E+03  0.16393998197E+03  0.47000000000E+01 0. -1.
         -5    1    1    2    0  502 -0.46728061740E+02 -0.65693834782E+02  0.19173403716E+03  0.20804620326E+03  0.47000000000E+01 0. -1.
        -11    1    1    2    0    0 -0.52351717002E+01  0.13129555563E+02 -0.84654722860E+01  0.16475936181E+02  0.00000000000E+00 0.  1.
         11    1    1    2    0    0 -0.18024600251E+00  0.38650058659E+02  0.18680577420E+03  0.19076230445E+03  0.00000000000E+00 0. -1.
<mgrwt>
<rscale>  0 0.12723573E+03</rscale>
<asrwt>0</asrwt>
<pdfrwt beam="1">  1        4 0.84925358E-01 0.13540940E+03</pdfrwt>
<pdfrwt beam="2">  1       -4 0.41860847E-02 0.13540940E+03</pdfrwt>
<totfact> 0.65523017E+02</totfact>
</mgrwt>
</event>
<event>
 6    1  0.8353100E-006  0.2687558E+03  0.7546771E-02  0.1101994E+00
         -1   -1    0    0    0  501 -0.00000000000E+00  0.00000000000E+00  0.31763334674E+02  0.31763334674E+02  0.00000000000E+00 0.  1.
          1   -1    0    0  501    0  0.00000000000E+00 -0.00000000000E+00 -0.56849872355E+03  0.56849872355E+03  0.00000000000E+00 0. -1.
          5    1    1    2  502    0 -0.17542190448E+01  0.97121041012E+01 -0.32945884469E+03  0.32964014105E+03  0.47000000000E+01 0. -1.
         -5    1    1    2    0  502  0.62724468862E+02 -0.58253393350E+01 -0.74880509251E+02  0.97966699639E+02  0.47000000000E+01 0. -1.
        -11    1    1    2    0    0 -0.24875327087E+02 -0.46983924753E+02 -0.78272641235E+02  0.94619646209E+02  0.00000000000E+00 0. -1.
         11    1    1    2    0    0 -0.36094922730E+02  0.43097159987E+02 -0.54123393703E+02  0.78035571323E+02  0.00000000000E+00 0.  1.
<mgrwt>
<rscale>  0 0.26875576E+03</rscale>
<asrwt>0</asrwt>
<pdfrwt beam="2">  1        1 0.87461341E-01 0.26875576E+03</pdfrwt>
<pdfrwt beam="1">  1       -1 0.48866669E-02 0.26875576E+03</pdfrwt>
<totfact> 0.68719033E+03</totfact>
</mgrwt>
</event>
<event>
 6    1  0.8353100E-006  0.1423595E+03  0.7546771E-02  0.1220067E+00
          1   -1    0    0  501    0  0.00000000000E+00  0.00000000000E+00  0.11062855153E+03  0.11062855153E+03  0.00000000000E+00 0. -1.
         -1   -1    0    0    0  501 -0.00000000000E+00 -0.00000000000E+00 -0.17447932886E+03  0.17447932886E+03  0.00000000000E+00 0.  1.
          5    1    1    2  502    0  0.28197711636E+01  0.16370750858E+02 -0.45040575936E+02  0.48235838064E+02  0.47000000000E+01 0.  1.
         -5    1    1    2    0  502 -0.70582207138E+02 -0.93630135133E+01  0.63120827530E+02  0.95267218152E+02  0.47000000000E+01 0.  1.
        -11    1    1    2    0    0  0.73615542955E+02 -0.21756142141E+02 -0.94222367621E+02  0.12153366795E+03  0.00000000000E+00 0.  1.
         11    1    1    2    0    0 -0.58531069807E+01  0.14748404797E+02  0.12291338692E+02  0.20071156225E+02  0.00000000000E+00 0. -1.
<mgrwt>
<rscale>  0 0.13510805E+03</rscale>
<asrwt>0</asrwt>
<pdfrwt beam="1">  1        1 0.17019777E-01 0.14235952E+03</pdfrwt>
<pdfrwt beam="2">  1       -1 0.26842974E-01 0.14235952E+03</pdfrwt>
<totfact> 0.37518529E+03</totfact>
</mgrwt>
</event>
<event>
 6    1  0.8353100E-006  0.1366245E+03  0.7546771E-02  0.1230032E+00
          3   -1    0    0  501    0  0.00000000000E+00  0.00000000000E+00  0.69285018570E+03  0.69285018570E+03  0.00000000000E+00 0. -1.
         -3   -1    0    0    0  501 -0.00000000000E+00 -0.00000000000E+00 -0.21296441554E+02  0.21296441554E+02  0.00000000000E+00 0.  1.
          5    1    1    2  502    0  0.94051299014E+01 -0.60505568944E+02  0.78609050098E+02  0.99753962824E+02  0.47000000000E+01 0. -1.
         -5    1    1    2    0  502 -0.34140016473E+02  0.11230221238E+02  0.31121805057E+03  0.31332159772E+03  0.47000000000E+01 0. -1.
        -11    1    1    2    0    0 -0.13699347085E+02  0.59955980246E+02  0.12448672161E+03  0.13885004694E+03  0.00000000000E+00 0.  1.
         11    1    1    2    0    0  0.38434233657E+02 -0.10680632540E+02  0.15723992187E+03  0.16222101978E+03  0.00000000000E+00 0. -1.
<mgrwt>
<rscale>  0 0.12827901E+03</rscale>
<asrwt>0</asrwt>
<pdfrwt beam="1">  1        3 0.10659232E+00 0.13662449E+03</pdfrwt>
<pdfrwt beam="2">  1       -3 0.32763762E-02 0.13662449E+03</pdfrwt>
<totfact> 0.80481091E+02</totfact>
</mgrwt>
</event>
<event>
 6    1  0.8353100E-006  0.3441584E+03  0.7546771E-02  0.1065039E+00
         -2   -1    0    0    0  501 -0.00000000000E+00  0.00000000000E+00  0.70018886387E+02  0.70018886387E+02  0.00000000000E+00 0.  1.
          2   -1    0    0  501    0  0.00000000000E+00 -0.00000000000E+00 -0.42290365483E+03  0.42290365483E+03  0.00000000000E+00 0. -1.
          5    1    1    2  502    0 -0.39165678761E+02  0.55191261351E+01 -0.10799606737E+03  0.11510713146E+03  0.47000000000E+01 0. -1.
         -5    1    1    2    0  502  0.12510423980E+02  0.12390627492E+03 -0.89778889774E+02  0.15359562078E+03  0.47000000000E+01 0. -1.
        -11    1    1    2    0    0  0.41509598909E+02 -0.63854321362E+02 -0.29357264347E+02  0.81622730463E+02  0.00000000000E+00 0.  1.
         11    1    1    2    0    0 -0.14854344129E+02 -0.65571079694E+02 -0.12575254695E+03  0.14259705851E+03  0.00000000000E+00 0. -1.
<mgrwt>
<rscale>  0 0.34415835E+03</rscale>
<asrwt>0</asrwt>
<pdfrwt beam="2">  1        2 0.65062102E-01 0.34415835E+03</pdfrwt>
<pdfrwt beam="1">  1       -2 0.10772136E-01 0.34415835E+03</pdfrwt>
<totfact> 0.44343918E+03</totfact>
</mgrwt>
</event>
<event>
 6    1  0.8353100E-006  0.3273459E+03  0.7546771E-02  0.1072317E+00
         -2   -1    0    0    0  501 -0.00000000000E+00  0.00000000000E+00  0.48394010071E+02  0.48394010071E+02  0.00000000000E+00 0.  1.
          2   -1    0    0  501    0  0.00000000000E+00 -0.00000000000E+00 -0.55355687246E+03  0.55355687246E+03  0.00000000000E+00 0. -1.
          5    1    1    2  502    0  0.13152284491E+03  0.51924114716E+02 -0.18078631436E+03  0.22956514082E+03  0.47000000000E+01 0. -1.
         -5    1    1    2    0  502 -0.22417233996E+02 -0.12986154426E+02 -0.16209037643E+02  0.30919176705E+02  0.47000000000E+01 0. -1.
        -11    1    1    2    0    0 -0.43090212735E+02  0.84501030881E+01 -0.34074783196E+02  0.55581125624E+02  0.00000000000E+00 0.  1.
         11    1    1    2    0    0 -0.66015398182E+02 -0.47388063378E+02 -0.27409272719E+03  0.28588543937E+03  0.00000000000E+00 0. -1.
<mgrwt>
<rscale>  0 0.32734591E+03</rscale>
<asrwt>0</asrwt>
<pdfrwt beam="2">  1        2 0.85162597E-01 0.32734591E+03</pdfrwt>
<pdfrwt beam="1">  1       -2 0.74452322E-02 0.32734591E+03</pdfrwt>
<totfact> 0.58774181E+03</totfact>
</mgrwt>
</event>
<event>
 6    1  0.8353100E-006  0.1793333E+03  0.7546771E-02  0.1173714E+00
         -2   -1    0    0    0  501 -0.00000000000E+00  0.00000000000E+00  0.85536838046E+03  0.85536838046E+03  0.00000000000E+00 0.  1.
          2   -1    0    0  501    0  0.00000000000E+00 -0.00000000000E+00 -0.34693207300E+02  0.34693207300E+02  0.00000000000E+00 0. -1.
          5    1    1    2  502    0 -0.72610396271E+02 -0.50609242619E+02  0.22500401942E+03  0.24183147819E+03  0.47000000000E+01 0.  1.
         -5    1    1    2    0  502  0.42104867670E+02 -0.74306981710E+02  0.12536197719E+03  0.15176317978E+03  0.47000000000E+01 0.  1.
        -11    1    1    2    0    0  0.60219389953E+02  0.98056328690E+02  0.29519899747E+03  0.31683413110E+03  0.00000000000E+00 0. -1.
         11    1    1    2    0    0 -0.29713861351E+02  0.26859895639E+02  0.17511017907E+03  0.17963279868E+03  0.00000000000E+00 0.  1.
<mgrwt>
<rscale>  0 0.17402492E+03</rscale>
<asrwt>0</asrwt>
<pdfrwt beam="2">  1        2 0.53374172E-02 0.17933327E+03</pdfrwt>
<pdfrwt beam="1">  1       -2 0.13159512E+00 0.17933327E+03</pdfrwt>
<totfact> 0.62942607E+02</totfact>
</mgrwt>
</event>
<event>
 6    1  0.8353100E-006  0.1318592E+03  0.7546771E-02  0.1238680E+00
          1   -1    0    0  501    0  0.00000000000E+00  0.00000000000E+00  0.10739082841E+03  0.10739082841E+03  0.00000000000E+00 0. -1.
         -1   -1    0    0    0  501 -0.00000000000E+00 -0.00000000000E+00 -0.12760133793E+03  0.12760133793E+03  0.00000000000E+00 0.  1.
          5    1    1    2  502    0 -0.29439455310E+02  0.25120719316E+02 -0.26153371513E+02  0.46944870960E+02  0.47000000000E+01 0. -1.
         -5    1    1    2    0  502  0.70773135354E+02 -0.32404882866E+02  0.34226235267E+02  0.85161248828E+02  0.47000000000E+01 0. -1.
        -11    1    1    2    0    0 -0.27093505214E+02 -0.16468206080E+02 -0.55588478503E+02  0.63994833999E+02  0.00000000000E+00 0.  1.
         11    1    1    2    0    0 -0.14240174831E+02  0.23752369630E+02  0.27305105227E+02  0.38891212552E+02  0.00000000000E+00 0. -1.
<mgrwt>
<rscale>  0 0.12271743E+03</rscale>
<asrwt>0</asrwt>
<pdfrwt beam="1">  1        1 0.16521666E-01 0.13185923E+03</pdfrwt>
<pdfrwt beam="2">  1       -1 0.19630975E-01 0.13185923E+03</pdfrwt>
<totfact> 0.64578662E+03</totfact>
</mgrwt>
</event>
<event>
 6    1  0.8353100E-006  0.1868377E+03  0.7546771E-02  0.1183431E+00
         -1   -1    0    0    0  501 -0.00000000000E+00  0.00000000000E+00  0.18753941235E+02  0.18753941235E+02  0.00000000000E+00 0.  1.
          1   -1    0    0  501    0  0.00000000000E+00 -0.00000000000E+00 -0.13124209596E+04  0.13124209596E+04  0.00000000000E+00 0. -1.
          5    1    1    2  502    0 -0.96005164775E+02 -0.62147083344E+02 -0.87567167223E+03  0.88312072741E+03  0.47000000000E+01 0. -1.
         -5    1    1    2    0  502  0.43979132211E+02  0.18115093759E+02 -0.10749882900E+03  0.11764526734E+03  0.47000000000E+01 0.  1.
        -11    1    1    2    0    0 -0.17233540207E+02 -0.92041721097E+01 -0.24314865661E+02  0.31191735835E+02  0.00000000000E+00 0. -1.
         11    1    1    2    0    0  0.69259572771E+02  0.53236161695E+02 -0.28618165152E+03  0.29921717030E+03  0.00000000000E+00 0.  1.
<mgrwt>
<rscale>  0 0.16475482E+03</rscale>
<asrwt>0</asrwt>
<pdfrwt beam="2">  1        1 0.20191088E+00 0.18683774E+03</pdfrwt>
<pdfrwt beam="1">  1       -1 0.28852222E-02 0.18683774E+03</pdfrwt>
<totfact> 0.37987203E+03</totfact>
</mgrwt>
</event>
<event>
 6    1  0.8353100E-006  0.1255045E+03  0.7546771E-02  0.1247875E+00
         -2   -1    0    0    0  501 -0.00000000000E+00  0.00000000000E+00  0.61054330740E+02  0.61054330740E+02  0.00000000000E+00 0.  1.
          2   -1    0    0  501    0  0.00000000000E+00 -0.00000000000E+00 -0.48433765269E+03  0.48433765269E+03  0.00000000000E+00 0. -1.
          5    1    1    2  502    0  0.43801414556E+02  0.53755323700E+02 -0.15425786690E+03  0.16919154306E+03  0.47000000000E+01 0. -1.
         -5    1    1    2    0  502 -0.10600939917E+02 -0.38764829328E+02 -0.27760549771E+03  0.28053875718E+03  0.47000000000E+01 0.  1.
        -11    1    1    2    0    0 -0.22056436399E+02 -0.33076261548E+02 -0.31218633667E+02  0.50548279423E+02  0.00000000000E+00 0. -1.
         11    1    1    2    0    0 -0.11144038240E+02  0.18085767176E+02  0.39798676323E+02  0.45113403770E+02  0.00000000000E+00 0.  1.
<mgrwt>
<rscale>  0 0.11714951E+03</rscale>
<asrwt>0</asrwt>
<pdfrwt beam="2">  1        2 0.74513486E-01 0.12550449E+03</pdfrwt>
<pdfrwt beam="1">  1       -2 0.93929738E-02 0.12550449E+03</pdfrwt>
<totfact> 0.45512253E+03</totfact>
</mgrwt>
</event>
<event>
 6    1  0.8353100E-006  0.1275212E+03  0.7546771E-02  0.1245482E+00
         -4   -1    0    0    0  501 -0.00000000000E+00  0.00000000000E+00  0.34428499742E+02  0.34428499742E+02  0.00000000000E+00 0.  1.
          4   -1    0    0  501    0  0.00000000000E+00 -0.00000000000E+00 -0.38642166489E+03  0.38642166489E+03  0.00000000000E+00 0. -1.
          5    1    1    2  502    0  0.66468770087E+02  0.31582267135E+02 -0.11993725557E+03  0.14079265701E+03  0.47000000000E+01 0. -1.
         -5    1    1    2    0  502 -0.41334646052E+02 -0.29495245629E+02 -0.13374630790E+03  0.14313869972E+03  0.47000000000E+01 0. -1.
        -11    1    1    2    0    0 -0.30864628656E+02 -0.25490144266E+02 -0.47547219387E+01  0.40311042377E+02  0.00000000000E+00 0.  1.
         11    1    1    2    0    0  0.57305046214E+01  0.23403122761E+02 -0.93554879734E+02  0.96607765528E+02  0.00000000000E+00 0. -1.
<mgrwt>
<rscale>  0 0.11856581E+03</rscale>
<asrwt>0</asrwt>
<pdfrwt beam="2">  1        4 0.59449489E-01 0.12752123E+03</pdfrwt>
<pdfrwt beam="1">  1       -4 0.52966921E-02 0.12752123E+03</pdfrwt>
<totfact> 0.96007297E+02</totfact>
</mgrwt>
</event>
<event>
 6    1  0.8353100E-006  0.1750143E+03  0.7546771E-02  0.1180564E+00
          1   -1    0    0  501    0  0.00000000000E+00  0.00000000000E+00  0.63232413043E+03  0.63232413043E+03  0.00000000000E+00 0. -1.
         -1   -1    0    0    0  501 -0.00000000000E+00 -0.00000000000E+00 -0.49598084122E+02  0.49598084122E+02  0.00000000000E+00 0.  1.
          5    1    1    2  502    0 -0.52720100750E+02  0.13259296115E+03  0.33921835594E+03  0.36803734237E+03  0.47000000000E+01 0.  1.
         -5    1    1    2    0  502 -0.98777703148E+01 -0.27303507071E+02  0.11583866949E+03  0.11951459825E+03  0.47000000000E+01 0.  1.
        -11    1    1    2    0    0  0.17909789246E+02 -0.27109777746E+02  0.91902243820E+02  0.97476781951E+02  0.00000000000E+00 0. -1.
         11    1    1    2    0    0  0.44688081819E+02 -0.78179676331E+02  0.35766777052E+02  0.96893491982E+02  0.00000000000E+00 0.  1.
<mgrwt>
<rscale>  0 0.16742121E+03</rscale>
<asrwt>0</asrwt>
<pdfrwt beam="1">  1        1 0.97280630E-01 0.17501428E+03</pdfrwt>
<pdfrwt beam="2">  1       -1 0.76304749E-02 0.17501428E+03</pdfrwt>
<totfact> 0.29800403E+03</totfact>
</mgrwt>
</event>
<event>
 6    1  0.8353100E-006  0.1597848E+03  0.7546771E-02  0.1196863E+00
          1   -1    0    0  501    0  0.00000000000E+00  0.00000000000E+00  0.29361988196E+03  0.29361988196E+03  0.00000000000E+00 0. -1.
         -1   -1    0    0    0  501 -0.00000000000E+00 -0.00000000000E+00 -0.10613563030E+03  0.10613563030E+03  0.00000000000E+00 0.  1.
          5    1    1    2  502    0  0.14924284665E+02 -0.12613125204E+03  0.14435505975E+03  0.19233382513E+03  0.47000000000E+01 0. -1.
         -5    1    1    2    0  502  0.20373734764E+01  0.28058536504E+02  0.65395744013E+02  0.71345116837E+02  0.47000000000E+01 0. -1.
        -11    1    1    2    0    0 -0.10462271514E+02  0.80943573471E+02 -0.55101773782E+02  0.98476020865E+02  0.00000000000E+00 0.  1.
         11    1    1    2    0    0 -0.64993866282E+01  0.17129142061E+02  0.32835221683E+02  0.37600549428E+02  0.00000000000E+00 0. -1.
<mgrwt>
<rscale>  0 0.15297627E+03</rscale>
<asrwt>0</asrwt>
<pdfrwt beam="1">  1        1 0.45172289E-01 0.15978481E+03</pdfrwt>
<pdfrwt beam="2">  1       -1 0.16328559E-01 0.15978481E+03</pdfrwt>
<totfact> 0.24736646E+03</totfact>
</mgrwt>
</event>
<event>
 6    1  0.8353100E-006  0.1352659E+03  0.7546771E-02  0.1232151E+00
          2   -1    0    0  501    0  0.00000000000E+00  0.00000000000E+00  0.30819414570E+03  0.30819414570E+03  0.00000000000E+00 0. -1.
         -2   -1    0    0    0  501 -0.00000000000E+00 -0.00000000000E+00 -0.48974659712E+02  0.48974659712E+02  0.00000000000E+00 0.  1.
          5    1    1    2  502    0 -0.17524309730E+01  0.35425297334E+02  0.12315499904E+03  0.12824689663E+03  0.47000000000E+01 0. -1.
         -5    1    1    2    0  502 -0.36320452687E+02 -0.70387763584E+02  0.60170946959E+02  0.99580346473E+02  0.47000000000E+01 0. -1.
        -11    1    1    2    0    0  0.49396055443E+02  0.20742825593E+02  0.23944053769E+01  0.53628055009E+02  0.00000000000E+00 0.  1.
         11    1    1    2    0    0 -0.11323171783E+02  0.14219640657E+02  0.73499134612E+02  0.75713507305E+02  0.00000000000E+00 0. -1.
<mgrwt>
<rscale>  0 0.12688610E+03</rscale>
<asrwt>0</asrwt>
<pdfrwt beam="1">  1        2 0.47414483E-01 0.13526585E+03</pdfrwt>
<pdfrwt beam="2">  1       -2 0.75345632E-02 0.13526585E+03</pdfrwt>
<totfact> 0.10428212E+04</totfact>
</mgrwt>
</event>
<event>
 6    1  0.8353100E-006  0.1253047E+03  0.7546771E-02  0.1314878E+00
          2   -1    0    0  501    0  0.00000000000E+00  0.00000000000E+00  0.80990028655E+03  0.80990028655E+03  0.00000000000E+00 0. -1.
         -2   -1    0    0    0  501 -0.00000000000E+00 -0.00000000000E+00 -0.74303633822E+01  0.74303633822E+01  0.00000000000E+00 0.  1.
          5    1    1    2  502    0 -0.88441457304E+01 -0.36853705476E+01  0.71061631355E+03  0.71069644431E+03  0.47000000000E+01 0.  1.
         -5    1    1    2    0  502  0.11426840163E+02 -0.46766614906E+01  0.26264954641E+01  0.13469681408E+02  0.47000000000E+01 0.  1.
        -11    1    1    2    0    0 -0.11144874330E+02 -0.39199820405E+01  0.40756605905E+02  0.42434365884E+02  0.00000000000E+00 0.  1.
         11    1    1    2    0    0  0.85621798974E+01  0.12282014079E+02  0.48470508241E+02  0.50730158324E+02  0.00000000000E+00 0. -1.
<mgrwt>
<rscale>  0 0.85212346E+02</rscale>
<asrwt>0</asrwt>
<pdfrwt beam="1">  1        2 0.12459997E+00 0.12530472E+03</pdfrwt>
<pdfrwt beam="2">  1       -2 0.11431335E-02 0.12530472E+03</pdfrwt>
<totfact> 0.56701269E+04</totfact>
</mgrwt>
</event>
<event>
 6    1  0.8353100E-006  0.1271636E+03  0.7546771E-02  0.1244235E+00
          1   -1    0    0  501    0  0.00000000000E+00  0.00000000000E+00  0.24877817455E+02  0.24877817455E+02  0.00000000000E+00 0.  1.
         -1   -1    0    0    0  501 -0.00000000000E+00 -0.00000000000E+00 -0.52263947367E+03  0.52263947367E+03  0.00000000000E+00 0. -1.
          5    1    1    2  502    0 -0.12263683306E+02  0.66171332817E+02 -0.15151816472E+03  0.16585803404E+03  0.47000000000E+01 0.  1.
         -5    1    1    2    0  502 -0.92543411677E+01 -0.57059448669E+02 -0.89464201214E+02  0.10661780720E+03  0.47000000000E+01 0.  1.
        -11    1    1    2    0    0 -0.17894827415E+02 -0.41489104039E+02 -0.15085048831E+03  0.15747203061E+03  0.00000000000E+00 0.  1.
         11    1    1    2    0    0  0.39412851889E+02  0.32377219890E+02 -0.10592880198E+03  0.11756941928E+03  0.00000000000E+00 0. -1.
<mgrwt>
<rscale>  0 0.11931274E+03</rscale>
<asrwt>0</asrwt>
<pdfrwt beam="1">  1        1 0.38273567E-02 0.12716361E+03</pdfrwt>
<pdfrwt beam="2">  1       -1 0.80406068E-01 0.12716361E+03</pdfrwt>
<totfact> 0.37316221E+03</totfact>
</mgrwt>
</event>
<event>
 6    1  0.8353100E-006  0.1252040E+03  0.7546771E-02  0.1256105E+00
          1   -1    0    0  501    0  0.00000000000E+00  0.00000000000E+00  0.12014433811E+03  0.12014433811E+03  0.00000000000E+00 0. -1.
         -1   -1    0    0    0  501 -0.00000000000E+00 -0.00000000000E+00 -0.12124678634E+03  0.12124678634E+03  0.00000000000E+00 0.  1.
          5    1    1    2  502    0 -0.22518891379E+01 -0.21665155391E+02 -0.35313964381E+02  0.41756628732E+02  0.47000000000E+01 0.  1.
         -5    1    1    2    0  502 -0.14996774441E+01  0.15523032007E+02  0.96013501448E+02  0.97385296711E+02  0.47000000000E+01 0.  1.
        -11    1    1    2    0    0  0.39504411285E+02  0.18411984232E+02 -0.35266242806E+02  0.56065208071E+02  0.00000000000E+00 0. -1.
         11    1    1    2    0    0 -0.35752844703E+02 -0.12269860849E+02 -0.26535742490E+02  0.46183990940E+02  0.00000000000E+00 0.  1.
<mgrwt>
<rscale>  0 0.11244681E+03</rscale>
<asrwt>0</asrwt>
<pdfrwt beam="1">  1        1 0.18483744E-01 0.12520400E+03</pdfrwt>
<pdfrwt beam="2">  1       -1 0.18653352E-01 0.12520400E+03</pdfrwt>
<totfact> 0.60466773E+03</totfact>
</mgrwt>
</event>
<event>
 6    1  0.8353100E-006  0.1441811E+03  0.7546771E-02  0.1217493E+00
          1   -1    0    0  501    0  0.00000000000E+00  0.00000000000E+00  0.12148009396E+03  0.12148009396E+03  0.00000000000E+00 0. -1.
         -1   -1    0    0    0  501 -0.00000000000E+00 -0.00000000000E+00 -0.19139256074E+03  0.19139256074E+03  0.00000000000E+00 0.  1.
          5    1    1    2  502    0  0.46286868902E+02 -0.14841789063E+02  0.11707071636E+02  0.50218507163E+02  0.47000000000E+01 0.  1.
         -5    1    1    2    0  502 -0.39788414739E+02  0.86403420595E+02  0.30840134565E+02  0.10010930495E+03  0.47000000000E+01 0.  1.
        -11    1    1    2    0    0 -0.33525776828E+02 -0.64536595297E+02 -0.11327081143E+03  0.13460767648E+03  0.00000000000E+00 0.  1.
         11    1    1    2    0    0  0.27027322665E+02 -0.70250362343E+01  0.81113845892E+00  0.27937166107E+02  0.00000000000E+00 0. -1.
<mgrwt>
<rscale>  0 0.13695010E+03</rscale>
<asrwt>0</asrwt>
<pdfrwt beam="1">  1        1 0.18689245E-01 0.14418109E+03</pdfrwt>
<pdfrwt beam="2">  1       -1 0.29445009E-01 0.14418109E+03</pdfrwt>
<totfact> 0.28534593E+03</totfact>
</mgrwt>
</event>
<event>
 6    1  0.8353100E-006  0.1594790E+03  0.7546771E-02  0.1196675E+00
         -1   -1    0    0    0  501 -0.00000000000E+00  0.00000000000E+00  0.32937334402E+02  0.32937334402E+02  0.00000000000E+00 0.  1.
          1   -1    0    0  501    0  0.00000000000E+00 -0.00000000000E+00 -0.89219423353E+03  0.89219423353E+03  0.00000000000E+00 0. -1.
          5    1    1    2  502    0 -0.25007310392E+02  0.77245901730E+02 -0.51758608461E+03  0.52393677089E+03  0.47000000000E+01 0. -1.
         -5    1    1    2    0  502 -0.59567641408E+02 -0.25661255569E+02 -0.17284185737E+03  0.18467052174E+03  0.47000000000E+01 0. -1.
        -11    1    1    2    0    0  0.34967322030E+02  0.10994085215E+02 -0.11376420712E+03  0.11952354722E+03  0.00000000000E+00 0. -1.
         11    1    1    2    0    0  0.49607629770E+02 -0.62578731376E+02 -0.55064750023E+02  0.97000728075E+02  0.00000000000E+00 0.  1.
<mgrwt>
<rscale>  0 0.15313324E+03</rscale>
<asrwt>0</asrwt>
<pdfrwt beam="2">  1        1 0.13726067E+00 0.15947900E+03</pdfrwt>
<pdfrwt beam="1">  1       -1 0.50672816E-02 0.15947900E+03</pdfrwt>
<totfact> 0.32939198E+03</totfact>
</mgrwt>
</event>
<event>
 6    1  0.8353100E-006  0.1620401E+03  0.7546771E-02  0.1193440E+00
          1   -1    0    0  501    0  0.00000000000E+00  0.00000000000E+00  0.57953601531E+02  0.57953601531E+02  0.00000000000E+00 0. -1.
         -1   -1    0    0    0  501 -0.00000000000E+00 -0.00000000000E+00 -0.47604066372E+03  0.47604066372E+03  0.00000000000E+00 0.  1.
          5    1    1    2  502    0  0.64141571600E+02  0.31787946855E+02 -0.25857859130E+02  0.76258334964E+02  0.47000000000E+01 0. -1.
         -5    1    1    2    0  502 -0.48119448626E+02  0.70069166604E+02 -0.83397675358E+02  0.11917395563E+03  0.47000000000E+01 0. -1.
        -11    1    1    2    0    0  0.35333485839E+02 -0.50131647291E+02 -0.99295228502E+02  0.11670980972E+03  0.00000000000E+00 0.  1.
         11    1    1    2    0    0 -0.51355608814E+02 -0.51725466168E+02 -0.20953629920E+03  0.22185216494E+03  0.00000000000E+00 0. -1.
<mgrwt>
<rscale>  0 0.15587023E+03</rscale>
<asrwt>0</asrwt>
<pdfrwt beam="1">  1        1 0.89159383E-02 0.16204014E+03</pdfrwt>
<pdfrwt beam="2">  1       -1 0.73237028E-01 0.16204014E+03</pdfrwt>
<totfact> 0.14439799E+03</totfact>
</mgrwt>
</event>
<event>
 6    1  0.8353100E-006  0.2950448E+03  0.7546771E-02  0.1087744E+00
          3   -1    0    0  501    0  0.00000000000E+00  0.00000000000E+00  0.32787341746E+03  0.32787341746E+03  0.00000000000E+00 0. -1.
         -3   -1    0    0    0  501 -0.00000000000E+00 -0.00000000000E+00 -0.66375773849E+02  0.66375773849E+02  0.00000000000E+00 0.  1.
          5    1    1    2  502    0  0.73944278882E+02  0.20509424353E+02  0.39195955185E+02  0.86294876844E+02  0.47000000000E+01 0. -1.
         -5    1    1    2    0  502 -0.15381914731E+02 -0.48550865628E+02  0.96926357994E+02  0.10959287718E+03  0.47000000000E+01 0. -1.
        -11    1    1    2    0    0 -0.38068033162E+02  0.62223796881E+02  0.13838763769E+03  0.15643565551E+03  0.00000000000E+00 0. -1.
         11    1    1    2    0    0 -0.20494330989E+02 -0.34182355606E+02 -0.13012307263E+02  0.41925781779E+02  0.00000000000E+00 0.  1.
<mgrwt>
<rscale>  0 0.29504475E+03</rscale>
<asrwt>0</asrwt>
<pdfrwt beam="1">  1        3 0.50442063E-01 0.29504475E+03</pdfrwt>
<pdfrwt beam="2">  1       -3 0.10211658E-01 0.29504475E+03</pdfrwt>
<totfact> 0.71579164E+02</totfact>
</mgrwt>
</event>
<event>
 6    1  0.8353100E-006  0.1260853E+03  0.7546771E-02  0.1248801E+00
         -1   -1    0    0    0  501 -0.00000000000E+00  0.00000000000E+00  0.23539909890E+03  0.23539909890E+03  0.00000000000E+00 0.  1.
          1   -1    0    0  501    0  0.00000000000E+00 -0.00000000000E+00 -0.94862930290E+02  0.94862930290E+02  0.00000000000E+00 0. -1.
          5    1    1    2  502    0 -0.28177123698E+02  0.35580205567E+02  0.21071320401E+02  0.50259246627E+02  0.47000000000E+01 0. -1.
         -5    1    1    2    0  502  0.24422074360E+02 -0.51633298229E+02 -0.57034643774E+02  0.80854658446E+02  0.47000000000E+01 0. -1.
        -11    1    1    2    0    0 -0.37834272953E+02 -0.74447622005E+00  0.38254580925E+02  0.53808915771E+02  0.00000000000E+00 0. -1.
         11    1    1    2    0    0  0.41589322291E+02  0.16797568882E+02  0.13824491105E+03  0.14533920834E+03  0.00000000000E+00 0.  1.
<mgrwt>
<rscale>  0 0.11660739E+03</rscale>
<asrwt>0</asrwt>
<pdfrwt beam="2">  1        1 0.14594297E-01 0.12608527E+03</pdfrwt>
<pdfrwt beam="1">  1       -1 0.36215246E-01 0.12608527E+03</pdfrwt>
<totfact> 0.27415019E+03</totfact>
</mgrwt>
</event>
<event>
 6    1  0.8353100E-006  0.1370120E+03  0.7546771E-02  0.1229087E+00
          1   -1    0    0  501    0  0.00000000000E+00  0.00000000000E+00  0.53471571600E+03  0.53471571600E+03  0.00000000000E+00 0. -1.
         -1   -1    0    0    0  501 -0.00000000000E+00 -0.00000000000E+00 -0.28758990290E+02  0.28758990290E+02  0.00000000000E+00 0.  1.
          5    1    1    2  502    0  0.51218234778E+02  0.20132755668E+02  0.43358561153E+02  0.70218873886E+02  0.47000000000E+01 0.  1.
         -5    1    1    2    0  502  0.45344271146E+01 -0.13851527598E+02  0.28722236288E+03  0.28763032105E+03  0.47000000000E+01 0.  1.
        -11    1    1    2    0    0 -0.80928244482E+02  0.82103155984E+00  0.13852347794E+03  0.16043319105E+03  0.00000000000E+00 0.  1.
         11    1    1    2    0    0  0.25175582590E+02 -0.71022596300E+01  0.36852323732E+02  0.45192320310E+02  0.00000000000E+00 0. -1.
<mgrwt>
<rscale>  0 0.12890656E+03</rscale>
<asrwt>0</asrwt>
<pdfrwt beam="1">  1        1 0.82263949E-01 0.13701204E+03</pdfrwt>
<pdfrwt beam="2">  1       -1 0.44244605E-02 0.13701204E+03</pdfrwt>
<totfact> 0.83457444E+03</totfact>
</mgrwt>
</event>
<event>
 6    1  0.8353100E-006  0.1656200E+03  0.7546771E-02  0.1189392E+00
         -1   -1    0    0    0  501 -0.00000000000E+00  0.00000000000E+00  0.11754479849E+03  0.11754479849E+03  0.00000000000E+00 0.  1.
          1   -1    0    0  501    0  0.00000000000E+00 -0.00000000000E+00 -0.22241770197E+03  0.22241770197E+03  0.00000000000E+00 0. -1.
          5    1    1    2  502    0  0.34622012186E+02 -0.80925894949E+01  0.13945824277E+02  0.38480511266E+02  0.47000000000E+01 0. -1.
         -5    1    1    2    0  502  0.24618359175E+02  0.99198555935E+02 -0.12221098772E+03  0.15938642548E+03  0.47000000000E+01 0. -1.
        -11    1    1    2    0    0 -0.39479756907E+02 -0.10821865972E+03 -0.28095629693E+01  0.11522943704E+03  0.00000000000E+00 0. -1.
         11    1    1    2    0    0 -0.19760614454E+02  0.17112693275E+02  0.62018229291E+01  0.26866126673E+02  0.00000000000E+00 0.  1.
<mgrwt>
<rscale>  0 0.15938547E+03</rscale>
<asrwt>0</asrwt>
<pdfrwt beam="2">  1        1 0.34218108E-01 0.16561998E+03</pdfrwt>
<pdfrwt beam="1">  1       -1 0.18083815E-01 0.16561998E+03</pdfrwt>
<totfact> 0.29742570E+03</totfact>
</mgrwt>
</event>
<event>
 6    1  0.8353100E-006  0.2516111E+03  0.7546771E-02  0.1114342E+00
          1   -1    0    0  501    0  0.00000000000E+00  0.00000000000E+00  0.75902528811E+03  0.75902528811E+03  0.00000000000E+00 0. -1.
         -1   -1    0    0    0  501 -0.00000000000E+00 -0.00000000000E+00 -0.10608774045E+03  0.10608774045E+03  0.00000000000E+00 0.  1.
          5    1    1    2  502    0  0.15490651893E+03  0.42820982218E+02  0.35898797496E+03  0.39334987262E+03  0.47000000000E+01 0.  1.
         -5    1    1    2    0  502  0.62236840884E+02 -0.65876395616E+02  0.19135750956E+03  0.21178505691E+03  0.47000000000E+01 0.  1.
        -11    1    1    2    0    0 -0.15914599698E+03  0.55833373750E+02  0.93217782565E+02  0.19270279958E+03  0.00000000000E+00 0. -1.
         11    1    1    2    0    0 -0.57997362827E+02 -0.32777960352E+02  0.93742805741E+01  0.67275299449E+02  0.00000000000E+00 0.  1.
<mgrwt>
<rscale>  0 0.24836597E+03</rscale>
<asrwt>0</asrwt>
<pdfrwt beam="1">  1        1 0.11677312E+00 0.25161107E+03</pdfrwt>
<pdfrwt beam="2">  1       -1 0.16321191E-01 0.25161107E+03</pdfrwt>
<totfact> 0.70404516E+02</totfact>
</mgrwt>
</event>
<event>
 6    1  0.8353100E-006  0.4035723E+03  0.7546771E-02  0.1042550E+00
         -2   -1    0    0    0  501 -0.00000000000E+00  0.00000000000E+00  0.30512800951E+02  0.30512800951E+02  0.00000000000E+00 0. -1.
          2   -1    0    0  501    0  0.00000000000E+00 -0.00000000000E+00 -0.13344447188E+04  0.13344447188E+04  0.00000000000E+00 0.  1.
          5    1    1    2  502    0  0.13924426885E+03 -0.43381749773E+02 -0.57728361623E+03  0.59544051440E+03  0.47000000000E+01 0.  1.
         -5    1    1    2    0  502 -0.10532139723E+02 -0.34361242431E+02 -0.37275580754E+03  0.37451382218E+03  0.47000000000E+01 0.  1.
        -11    1    1    2    0    0 -0.31762623597E+02  0.56273722802E+02 -0.21334820206E+03  0.22291938332E+03  0.00000000000E+00 0. -1.
         11    1    1    2    0    0 -0.96949505534E+02  0.21469269401E+02 -0.14054429199E+03  0.17208379982E+03  0.00000000000E+00 0.  1.
<mgrwt>
<rscale>  0 0.40357228E+03</rscale>
<asrwt>0</asrwt>
<pdfrwt beam="2">  1        2 0.20529912E+00 0.40357228E+03</pdfrwt>
<pdfrwt beam="1">  1       -2 0.46942786E-02 0.40357228E+03</pdfrwt>
<totfact> 0.36280475E+03</totfact>
</mgrwt>
</event>
<event>
 6    1  0.8353100E-006  0.1255601E+03  0.7546771E-02  0.1249221E+00
          1   -1    0    0  501    0  0.00000000000E+00  0.00000000000E+00  0.18648322196E+03  0.18648322196E+03  0.00000000000E+00 0. -1.
         -1   -1    0    0    0  501 -0.00000000000E+00 -0.00000000000E+00 -0.72839932056E+02  0.72839932056E+02  0.00000000000E+00 0.  1.
          5    1    1    2  502    0  0.16166179924E+02  0.54982435750E+02  0.94814997588E+02  0.11088907693E+03  0.47000000000E+01 0.  1.
         -5    1    1    2    0  502 -0.44391757732E+01 -0.53357848069E+02  0.14703056024E+02  0.55722850686E+02  0.47000000000E+01 0.  1.
        -11    1    1    2    0    0  0.25754055021E+01  0.12779889115E+02 -0.41111410599E+02  0.43128950379E+02  0.00000000000E+00 0.  1.
         11    1    1    2    0    0 -0.14302409653E+02 -0.14404476796E+02  0.45236646891E+02  0.49582276023E+02  0.00000000000E+00 0. -1.
<mgrwt>
<rscale>  0 0.11636280E+03</rscale>
<asrwt>0</asrwt>
<pdfrwt beam="1">  1        1 0.28689726E-01 0.12556007E+03</pdfrwt>
<pdfrwt beam="2">  1       -1 0.11206143E-01 0.12556007E+03</pdfrwt>
<totfact> 0.77044763E+03</totfact>
</mgrwt>
</event>
<event>
 6    1  0.8353100E-006  0.1453566E+03  0.7546771E-02  0.1216258E+00
         -1   -1    0    0    0  501 -0.00000000000E+00  0.00000000000E+00  0.11326399925E+03  0.11326399925E+03  0.00000000000E+00 0.  1.
          1   -1    0    0  501    0  0.00000000000E+00 -0.00000000000E+00 -0.15621742979E+03  0.15621742979E+03  0.00000000000E+00 0. -1.
          5    1    1    2  502    0 -0.34140731107E+02 -0.88943571806E+02 -0.31766222438E+01  0.95439663741E+02  0.47000000000E+01 0.  1.
         -5    1    1    2    0  502 -0.16587770428E+02  0.34830303053E+02 -0.40975412542E+02  0.56474583411E+02  0.47000000000E+01 0.  1.
        -11    1    1    2    0    0  0.36048692250E+02  0.51964493144E+02 -0.39283945399E+02  0.74451629443E+02  0.00000000000E+00 0. -1.
         11    1    1    2    0    0  0.14679809285E+02  0.21487756093E+01  0.40482549639E+02  0.43115552444E+02  0.00000000000E+00 0.  1.
<mgrwt>
<rscale>  0 0.13784528E+03</rscale>
<asrwt>0</asrwt>
<pdfrwt beam="2">  1        1 0.24033451E-01 0.14535658E+03</pdfrwt>
<pdfrwt beam="1">  1       -1 0.17425231E-01 0.14535658E+03</pdfrwt>
<totfact> 0.48782165E+03</totfact>
</mgrwt>
</event>
<event>
 6    1  0.8353100E-006  0.3129784E+03  0.7546771E-02  0.1078927E+00
          1   -1    0    0  501    0  0.00000000000E+00  0.00000000000E+00  0.34009337755E+03  0.34009337755E+03  0.00000000000E+00 0. -1.
         -1   -1    0    0    0  501 -0.00000000000E+00 -0.00000000000E+00 -0.72006307100E+02  0.72006307100E+02  0.00000000000E+00 0.  1.
          5    1    1    2  502    0  0.22719164370E+02 -0.19319310496E+02  0.18335141093E+03  0.18582041352E+03  0.47000000000E+01 0.  1.
         -5    1    1    2    0  502  0.67225542271E+02  0.39898351733E+02  0.44843976107E+02  0.90245355546E+02  0.47000000000E+01 0.  1.
        -11    1    1    2    0    0 -0.49783040644E+02  0.33964420226E+02  0.30837649733E+02  0.67697072449E+02  0.00000000000E+00 0.  1.
         11    1    1    2    0    0 -0.40161665997E+02 -0.54543461463E+02  0.90540336730E+01  0.68336843136E+02  0.00000000000E+00 0. -1.
<mgrwt>
<rscale>  0 0.31297839E+03</rscale>
<asrwt>0</asrwt>
<pdfrwt beam="1">  1        1 0.52322057E-01 0.31297839E+03</pdfrwt>
<pdfrwt beam="2">  1       -1 0.11077894E-01 0.31297839E+03</pdfrwt>
<totfact> 0.38766749E+03</totfact>
</mgrwt>
</event>
<event>
 6    1  0.8353100E-006  0.1432203E+03  0.7546771E-02  0.1209252E+00
          1   -1    0    0  501    0  0.00000000000E+00  0.00000000000E+00  0.17876654873E+03  0.17876654873E+03  0.00000000000E+00 0. -1.
         -1   -1    0    0    0  501 -0.00000000000E+00 -0.00000000000E+00 -0.13584035752E+03  0.13584035752E+03  0.00000000000E+00 0.  1.
          5    1    1    2  502    0 -0.16153322139E+02  0.20632467874E+01 -0.32657727846E+02  0.36794075494E+02  0.47000000000E+01 0.  1.
         -5    1    1    2    0  502 -0.49824930432E+02 -0.21187138867E+02  0.11676233515E+03  0.12879033914E+03  0.47000000000E+01 0.  1.
        -11    1    1    2    0    0  0.58260413454E+02  0.29196606688E+02  0.33500268756E+02  0.73273362313E+02  0.00000000000E+00 0. -1.
         11    1    1    2    0    0  0.77178391164E+01 -0.10072714608E+02 -0.74678684849E+02  0.75749129308E+02  0.00000000000E+00 0.  1.
<mgrwt>
<rscale>  0 0.14307360E+03</rscale>
<asrwt>0</asrwt>
<pdfrwt beam="1">  1        1 0.27502546E-01 0.14322025E+03</pdfrwt>
<pdfrwt beam="2">  1       -1 0.20898516E-01 0.14322025E+03</pdfrwt>
<totfact> 0.30760994E+03</totfact>
</mgrwt>
</event>
<event>
 6    1  0.8353100E-006  0.1267439E+03  0.7546771E-02  0.1247097E+00
          2   -1    0    0  501    0  0.00000000000E+00  0.00000000000E+00  0.23474671243E+03  0.23474671243E+03  0.00000000000E+00 0. -1.
         -2   -1    0    0    0  501 -0.00000000000E+00 -0.00000000000E+00 -0.65387086156E+02  0.65387086156E+02  0.00000000000E+00 0.  1.
          5    1    1    2  502    0 -0.14346735915E+02  0.53318342584E+02  0.20074502401E+02  0.58938528434E+02  0.47000000000E+01 0.  1.
         -5    1    1    2    0  502  0.17221390727E+02 -0.32555788798E+02  0.14219754804E+03  0.14696492218E+03  0.47000000000E+01 0.  1.
        -11    1    1    2    0    0  0.15678698102E+02 -0.51064503796E+02  0.19091760861E+02  0.56726541009E+02  0.00000000000E+00 0.  1.
         11    1    1    2    0    0 -0.18553352914E+02  0.30301950010E+02 -0.12004185025E+02  0.37503806965E+02  0.00000000000E+00 0. -1.
<mgrwt>
<rscale>  0 0.11760749E+03</rscale>
<asrwt>0</asrwt>
<pdfrwt beam="1">  1        2 0.36114878E-01 0.12674389E+03</pdfrwt>
<pdfrwt beam="2">  1       -2 0.10059552E-01 0.12674389E+03</pdfrwt>
<totfact> 0.88431705E+03</totfact>
</mgrwt>
</event>
<event>
 6    1  0.8353100E-006  0.2783851E+03  0.7546771E-02  0.1098497E+00
         -2   -1    0    0    0  501 -0.00000000000E+00  0.00000000000E+00  0.75080515432E+02  0.75080515432E+02  0.00000000000E+00 0.  1.
          2   -1    0    0  501    0  0.00000000000E+00 -0.00000000000E+00 -0.15016030980E+04  0.15016030980E+04  0.00000000000E+00 0. -1.
          5    1    1    2  502    0 -0.37702920516E+02  0.12572834263E+02 -0.35084588146E+03  0.35312109667E+03  0.47000000000E+01 0. -1.
         -5    1    1    2    0  502 -0.17260666871E+03 -0.14545521077E+03 -0.83758584483E+03  0.86748050000E+03  0.47000000000E+01 0. -1.
        -11    1    1    2    0    0  0.19727568396E+02 -0.33284212344E+00 -0.60093216198E+02  0.63249366572E+02  0.00000000000E+00 0. -1.
         11    1    1    2    0    0  0.19058202083E+03  0.13321521863E+03 -0.17799764005E+03  0.29283265016E+03  0.00000000000E+00 0.  1.
<mgrwt>
<rscale>  0 0.27491905E+03</rscale>
<asrwt>0</asrwt>
<pdfrwt beam="2">  1        2 0.23101584E+00 0.27838515E+03</pdfrwt>
<pdfrwt beam="1">  1       -2 0.11550850E-01 0.27838515E+03</pdfrwt>
<totfact> 0.71769471E+02</totfact>
</mgrwt>
</event>
<event>
 6    1  0.8353100E-006  0.1261138E+03  0.7546771E-02  0.1247465E+00
          2   -1    0    0  501    0  0.00000000000E+00  0.00000000000E+00  0.24568054127E+03  0.24568054127E+03  0.00000000000E+00 0. -1.
         -2   -1    0    0    0  501 -0.00000000000E+00 -0.00000000000E+00 -0.50746183295E+02  0.50746183295E+02  0.00000000000E+00 0.  1.
          5    1    1    2  502    0 -0.25789963099E+02 -0.27976524621E+02  0.11397261790E+03  0.12024830876E+03  0.47000000000E+01 0.  1.
         -5    1    1    2    0  502  0.11108208363E+02  0.19936460521E+02 -0.24936077780E+02  0.34128473834E+02  0.47000000000E+01 0.  1.
        -11    1    1    2    0    0  0.11203476978E+02  0.35688306220E+02  0.10781347135E+03  0.11411799903E+03  0.00000000000E+00 0. -1.
         11    1    1    2    0    0  0.34782777587E+01 -0.27648242120E+02 -0.19156535019E+01  0.27931942948E+02  0.00000000000E+00 0.  1.
<mgrwt>
<rscale>  0 0.11739069E+03</rscale>
<asrwt>0</asrwt>
<pdfrwt beam="1">  1        2 0.37797006E-01 0.12611378E+03</pdfrwt>
<pdfrwt beam="2">  1       -2 0.78071052E-02 0.12611378E+03</pdfrwt>
<totfact> 0.12485203E+04</totfact>
</mgrwt>
</event>
<event>
 6    1  0.8353100E-006  0.3498014E+03  0.7546771E-02  0.1062697E+00
          2   -1    0    0  501    0  0.00000000000E+00  0.00000000000E+00  0.10049898321E+04  0.10049898321E+04  0.00000000000E+00 0. -1.
         -2   -1    0    0    0  501 -0.00000000000E+00 -0.00000000000E+00 -0.30438375082E+02  0.30438375082E+02  0.00000000000E+00 0.  1.
          5    1    1    2  502    0 -0.32169245587E+02 -0.29139968992E+02  0.10370349640E+03  0.11251890206E+03  0.47000000000E+01 0. -1.
         -5    1    1    2    0  502 -0.67673366360E+02  0.12472149274E+03  0.42131427979E+03  0.44459301346E+03  0.47000000000E+01 0. -1.
        -11    1    1    2    0    0  0.63133637434E+02 -0.31986844378E+02  0.33404823642E+03  0.34146337819E+03  0.00000000000E+00 0. -1.
         11    1    1    2    0    0  0.36708974513E+02 -0.63594679371E+02  0.11548544436E+03  0.13685291343E+03  0.00000000000E+00 0.  1.
<mgrwt>
<rscale>  0 0.34980141E+03</rscale>
<asrwt>0</asrwt>
<pdfrwt beam="1">  1        2 0.15461379E+00 0.34980141E+03</pdfrwt>
<pdfrwt beam="2">  1       -2 0.46828277E-02 0.34980141E+03</pdfrwt>
<totfact> 0.56643002E+03</totfact>
</mgrwt>
</event>
<event>
 6    1  0.8353100E-006  0.1279872E+03  0.7546771E-02  0.1245187E+00
         -1   -1    0    0    0  501 -0.00000000000E+00  0.00000000000E+00  0.14441144743E+02  0.14441144743E+02  0.00000000000E+00 0.  1.
          1   -1    0    0  501    0  0.00000000000E+00 -0.00000000000E+00 -0.99467188479E+03  0.99467188479E+03  0.00000000000E+00 0. -1.
          5    1    1    2  502    0  0.50566512449E+02  0.58506929736E+02 -0.46988095725E+03  0.47622498569E+03  0.47000000000E+01 0. -1.
         -5    1    1    2    0  502 -0.34640146392E+02 -0.36113668496E+02 -0.26751914080E+03  0.27219977496E+03  0.47000000000E+01 0. -1.
        -11    1    1    2    0    0 -0.18635913340E+02 -0.55072481161E+02 -0.18815854016E+03  0.19693631377E+03  0.00000000000E+00 0. -1.
         11    1    1    2    0    0  0.27095472835E+01  0.32679219921E+02 -0.54672101842E+02  0.63751955115E+02  0.00000000000E+00 0.  1.
<mgrwt>
<rscale>  0 0.11874212E+03</rscale>
<asrwt>0</asrwt>
<pdfrwt beam="2">  1        1 0.15302649E+00 0.12798718E+03</pdfrwt>
<pdfrwt beam="1">  1       -1 0.22217139E-02 0.12798718E+03</pdfrwt>
<totfact> 0.91294590E+03</totfact>
</mgrwt>
</event>
<event>
 6    1  0.8353100E-006  0.1359677E+03  0.7546771E-02  0.1230982E+00
          2   -1    0    0  501    0  0.00000000000E+00  0.00000000000E+00  0.76638452860E+03  0.76638452860E+03  0.00000000000E+00 0. -1.
         -2   -1    0    0    0  501 -0.00000000000E+00 -0.00000000000E+00 -0.20757666783E+02  0.20757666783E+02  0.00000000000E+00 0.  1.
          5    1    1    2  502    0  0.61333789699E+02  0.26373147964E+02  0.13256902386E+03  0.14850593517E+03  0.47000000000E+01 0.  1.
         -5    1    1    2    0  502 -0.80021663552E+01 -0.30537237432E+02  0.39553662690E+03  0.39682221556E+03  0.47000000000E+01 0.  1.
        -11    1    1    2    0    0 -0.79027147842E+02 -0.20692823631E+01  0.16823758410E+03  0.18588560119E+03  0.00000000000E+00 0.  1.
         11    1    1    2    0    0  0.25695524498E+02  0.62333718307E+01  0.49283626953E+02  0.55928443473E+02  0.00000000000E+00 0. -1.
<mgrwt>
<rscale>  0 0.12765205E+03</rscale>
<asrwt>0</asrwt>
<pdfrwt beam="1">  1        2 0.11790529E+00 0.13596769E+03</pdfrwt>
<pdfrwt beam="2">  1       -2 0.31934878E-02 0.13596769E+03</pdfrwt>
<totfact> 0.13788050E+04</totfact>
</mgrwt>
</event>
<event>
 6    1  0.8353100E-006  0.5711341E+03  0.7546771E-02  0.1056190E+00
         -1   -1    0    0    0  501 -0.00000000000E+00  0.00000000000E+00  0.69740958320E+03  0.69740958320E+03  0.00000000000E+00 0.  1.
          1   -1    0    0  501    0  0.00000000000E+00 -0.00000000000E+00 -0.16003223889E+03  0.16003223889E+03  0.00000000000E+00 0. -1.
          5    1    1    2  502    0  0.19369849900E+03 -0.22062910332E+02 -0.41471876461E+02  0.19936872138E+03  0.47000000000E+01 0. -1.
         -5    1    1    2    0  502 -0.16834209652E+03  0.35460039643E+02  0.51352342996E+03  0.54159475532E+03  0.47000000000E+01 0.  1.
        -11    1    1    2    0    0 -0.45271170446E+02  0.25924631001E+02  0.39033287261E+02  0.65154914477E+02  0.00000000000E+00 0. -1.
         11    1    1    2    0    0  0.19914767971E+02 -0.39321760312E+02  0.26292503555E+02  0.51323430911E+02  0.00000000000E+00 0.  1.
<mgrwt>
<rscale>  0 0.36611075E+03</rscale>
<asrwt>0</asrwt>
<pdfrwt beam="2">  1        1 0.24620345E-01 0.57113414E+03</pdfrwt>
<pdfrwt beam="1">  1       -1 0.10729378E+00 0.57113414E+03</pdfrwt>
<totfact> 0.16487104E+02</totfact>
</mgrwt>
</event>
<event>
 6    1  0.8353100E-006  0.1264423E+03  0.7546771E-02  0.1247501E+00
          1   -1    0    0  501    0  0.00000000000E+00  0.00000000000E+00  0.13482529006E+04  0.13482529006E+04  0.00000000000E+00 0. -1.
         -1   -1    0    0    0  501 -0.00000000000E+00 -0.00000000000E+00 -0.10943526727E+02  0.10943526727E+02  0.00000000000E+00 0.  1.
          5    1    1    2  502    0 -0.42147106334E+01  0.47576450059E+02  0.21664360304E+03  0.22189597366E+03  0.47000000000E+01 0.  1.
         -5    1    1    2    0  502 -0.74222803608E+01 -0.62734535768E+02  0.81709437254E+03  0.81954622558E+03  0.47000000000E+01 0.  1.
        -11    1    1    2    0    0  0.44033465578E+02  0.34482947750E+02  0.19186573532E+03  0.19985114502E+03  0.00000000000E+00 0.  1.
         11    1    1    2    0    0 -0.32396474584E+02 -0.19324862041E+02  0.11170566301E+03  0.11790308311E+03  0.00000000000E+00 0. -1.
<mgrwt>
<rscale>  0 0.11736930E+03</rscale>
<asrwt>0</asrwt>
<pdfrwt beam="1">  1        1 0.20742339E+00 0.12644229E+03</pdfrwt>
<pdfrwt beam="2">  1       -1 0.16836206E-02 0.12644229E+03</pdfrwt>
<totfact> 0.77518866E+03</totfact>
</mgrwt>
</event>
<event>
 6    1  0.8353100E-006  0.1297550E+03  0.7546771E-02  0.1241169E+00
         -1   -1    0    0    0  501 -0.00000000000E+00  0.00000000000E+00  0.21290271229E+03  0.21290271229E+03  0.00000000000E+00 0.  1.
          1   -1    0    0  501    0  0.00000000000E+00 -0.00000000000E+00 -0.75452737593E+02  0.75452737593E+02  0.00000000000E+00 0. -1.
          5    1    1    2  502    0  0.12669616820E+02  0.60000585393E+02 -0.26123668245E+02  0.66821594417E+02  0.47000000000E+01 0.  1.
         -5    1    1    2    0  502  0.18859892938E+02 -0.45253445457E+02  0.40429358349E+02  0.63719642999E+02  0.47000000000E+01 0.  1.
        -11    1    1    2    0    0 -0.17243978525E+02  0.36214452769E+02  0.80148053695E+02  0.89624504997E+02  0.00000000000E+00 0.  1.
         11    1    1    2    0    0 -0.14285531233E+02 -0.50961592706E+02  0.42996230900E+02  0.68189707473E+02  0.00000000000E+00 0. -1.
<mgrwt>
<rscale>  0 0.12117624E+03</rscale>
<asrwt>0</asrwt>
<pdfrwt beam="2">  1        1 0.11608114E-01 0.12975501E+03</pdfrwt>
<pdfrwt beam="1">  1       -1 0.32754263E-01 0.12975501E+03</pdfrwt>
<totfact> 0.43940677E+03</totfact>
</mgrwt>
</event>
<event>
 6    1  0.8353100E-006  0.1283086E+03  0.7546771E-02  0.1245300E+00
         -1   -1    0    0    0  501 -0.00000000000E+00  0.00000000000E+00  0.20322682550E+02  0.20322682550E+02  0.00000000000E+00 0.  1.
          1   -1    0    0  501    0  0.00000000000E+00 -0.00000000000E+00 -0.62284952039E+03  0.62284952039E+03  0.00000000000E+00 0. -1.
          5    1    1    2  502    0 -0.42457636987E+02  0.57056996662E+02 -0.27340396571E+03  0.28254197966E+03  0.47000000000E+01 0. -1.
         -5    1    1    2    0  502  0.45171277684E+02 -0.28245988433E+02 -0.12341146559E+03  0.13450189601E+03  0.47000000000E+01 0. -1.
        -11    1    1    2    0    0  0.23325504023E+02 -0.41051640127E+02 -0.18432981361E+03  0.19028083582E+03  0.00000000000E+00 0. -1.
         11    1    1    2    0    0 -0.26039144720E+02  0.12240631898E+02 -0.21381592934E+02  0.35847491452E+02  0.00000000000E+00 0.  1.
<mgrwt>
<rscale>  0 0.11867412E+03</rscale>
<asrwt>0</asrwt>
<pdfrwt beam="2">  1        1 0.95822976E-01 0.12830864E+03</pdfrwt>
<pdfrwt beam="1">  1       -1 0.31265674E-02 0.12830864E+03</pdfrwt>
<totfact> 0.11248584E+04</totfact>
</mgrwt>
</event>
<event>
 6    1  0.8353100E-006  0.1369461E+03  0.7546771E-02  0.1230062E+00
         -3   -1    0    0    0  501 -0.00000000000E+00  0.00000000000E+00  0.99466236682E+02  0.99466236682E+02  0.00000000000E+00 0.  1.
          3   -1    0    0  501    0  0.00000000000E+00 -0.00000000000E+00 -0.14944967295E+03  0.14944967295E+03  0.00000000000E+00 0. -1.
          5    1    1    2  502    0  0.58573654203E+02  0.32592309596E+02  0.27246849345E+02  0.72509395327E+02  0.47000000000E+01 0.  1.
         -5    1    1    2    0  502 -0.44993443497E+02  0.21669200748E+02 -0.41638790740E+02  0.65190820774E+02  0.47000000000E+01 0.  1.
        -11    1    1    2    0    0  0.63412064994E+01 -0.71776105357E+02 -0.72851792360E+01  0.72423021455E+02  0.00000000000E+00 0.  1.
         11    1    1    2    0    0 -0.19921417205E+02  0.17514595013E+02 -0.28306315637E+02  0.38792672077E+02  0.00000000000E+00 0. -1.
<mgrwt>
<rscale>  0 0.12825909E+03</rscale>
<asrwt>0</asrwt>
<pdfrwt beam="2">  1        3 0.22992257E-01 0.13694605E+03</pdfrwt>
<pdfrwt beam="1">  1       -3 0.15302498E-01 0.13694605E+03</pdfrwt>
<totfact> 0.14436610E+03</totfact>
</mgrwt>
</event>
<event>
 6    1  0.8353100E-006  0.1133660E+03  0.7546771E-02  0.1263889E+00
         -2   -1    0    0    0  501 -0.00000000000E+00  0.00000000000E+00  0.36571755498E+02  0.36571755498E+02  0.00000000000E+00 0.  1.
          2   -1    0    0  501    0  0.00000000000E+00 -0.00000000000E+00 -0.49997208410E+03  0.49997208410E+03  0.00000000000E+00 0. -1.
          5    1    1    2  502    0 -0.20718297080E+02 -0.53265294382E+02 -0.31969852621E+03  0.32480098072E+03  0.47000000000E+01 0. -1.
         -5    1    1    2    0  502  0.34005137124E+02  0.29339795402E+02 -0.96206650513E+02  0.10627785540E+03  0.47000000000E+01 0.  1.
        -11    1    1    2    0    0 -0.47414866077E+02  0.22461268698E+02 -0.48275630326E+02  0.71296666121E+02  0.00000000000E+00 0. -1.
         11    1    1    2    0    0  0.34128026034E+02  0.14642302817E+01  0.78047844118E+00  0.34168337359E+02  0.00000000000E+00 0.  1.
<mgrwt>
<rscale>  0 0.10822676E+03</rscale>
<asrwt>0</asrwt>
<pdfrwt beam="2">  1        2 0.76918775E-01 0.11336599E+03</pdfrwt>
<pdfrwt beam="1">  1       -2 0.56264244E-02 0.11336599E+03</pdfrwt>
<totfact> 0.95704273E+03</totfact>
</mgrwt>
</event>
<event>
 6    1  0.8353100E-006  0.1527676E+03  0.7546771E-02  0.1209934E+00
          1   -1    0    0  501    0  0.00000000000E+00  0.00000000000E+00  0.10869218567E+04  0.10869218567E+04  0.00000000000E+00 0. -1.
         -1   -1    0    0    0  501 -0.00000000000E+00 -0.00000000000E+00 -0.22647111939E+02  0.22647111939E+02  0.00000000000E+00 0.  1.
          5    1    1    2  502    0  0.42715521273E+02 -0.50347612655E+02  0.41094242195E+03  0.41623942871E+03  0.47000000000E+01 0. -1.
         -5    1    1    2    0  502  0.17847407182E+02  0.84156463536E+02  0.45964664989E+03  0.46765155089E+03  0.47000000000E+01 0.  1.
        -11    1    1    2    0    0 -0.76559730869E+02  0.18818504649E+01  0.13328332486E+03  0.15371850389E+03  0.00000000000E+00 0.  1.
         11    1    1    2    0    0  0.15996802415E+02 -0.35690701346E+02  0.60402348022E+02  0.71959485105E+02  0.00000000000E+00 0. -1.
<mgrwt>
<rscale>  0 0.14255352E+03</rscale>
<asrwt>0</asrwt>
<pdfrwt beam="1">  1        1 0.16721871E+00 0.15276757E+03</pdfrwt>
<pdfrwt beam="2">  1       -1 0.34841719E-02 0.15276757E+03</pdfrwt>
<totfact> 0.41023296E+03</totfact>
</mgrwt>
</event>
<event>
 6    1  0.8353100E-006  0.3730817E+03  0.7546771E-02  0.1053521E+00
          1   -1    0    0  501    0  0.00000000000E+00  0.00000000000E+00  0.71884915994E+03  0.71884915994E+03  0.00000000000E+00 0. -1.
         -1   -1    0    0    0  501 -0.00000000000E+00 -0.00000000000E+00 -0.48407210356E+02  0.48407210356E+02  0.00000000000E+00 0.  1.
          5    1    1    2  502    0  0.17637957098E+02  0.19313294400E+02  0.50478445474E+03  0.50548346820E+03  0.47000000000E+01 0. -1.
         -5    1    1    2    0  502 -0.29405446624E+02  0.56496595152E+02  0.11626968470E+03  0.13265472150E+03  0.47000000000E+01 0. -1.
        -11    1    1    2    0    0 -0.38689885758E+02 -0.35766873630E+02  0.34576615734E+02  0.63021574598E+02  0.00000000000E+00 0. -1.
         11    1    1    2    0    0  0.50457375284E+02 -0.40043015922E+02  0.14811194399E+02  0.66096605996E+02  0.00000000000E+00 0.  1.
<mgrwt>
<rscale>  0 0.37308167E+03</rscale>
<asrwt>0</asrwt>
<pdfrwt beam="1">  1        1 0.11059217E+00 0.37308167E+03</pdfrwt>
<pdfrwt beam="2">  1       -1 0.74472637E-02 0.37308167E+03</pdfrwt>
<totfact> 0.26131884E+03</totfact>
</mgrwt>
</event>
<event>
 6    1  0.8353100E-006  0.3336860E+03  0.7546771E-02  0.1115677E+00
          1   -1    0    0  501    0  0.00000000000E+00  0.00000000000E+00  0.11428827116E+04  0.11428827116E+04  0.00000000000E+00 0. -1.
         -1   -1    0    0    0  501 -0.00000000000E+00 -0.00000000000E+00 -0.48733059012E+02  0.48733059012E+02  0.00000000000E+00 0.  1.
          5    1    1    2  502    0 -0.44458012562E+02  0.13294523398E+03  0.61986279385E+03  0.63553357372E+03  0.47000000000E+01 0. -1.
         -5    1    1    2    0  502  0.50941406291E+02 -0.16811542324E+03  0.38306792008E+03  0.42145099810E+03  0.47000000000E+01 0.  1.
        -11    1    1    2    0    0 -0.43965713167E+02  0.19996643885E+02  0.78630316247E+02  0.92279880439E+02  0.00000000000E+00 0.  1.
         11    1    1    2    0    0  0.37482319438E+02  0.15173545373E+02  0.12588622367E+02  0.42351318312E+02  0.00000000000E+00 0. -1.
<mgrwt>
<rscale>  0 0.24628197E+03</rscale>
<asrwt>0</asrwt>
<pdfrwt beam="1">  1        1 0.17582809E+00 0.33368603E+03</pdfrwt>
<pdfrwt beam="2">  1       -1 0.74973945E-02 0.33368603E+03</pdfrwt>
<totfact> 0.11940369E+03</totfact>
</mgrwt>
</event>
<event>
 6    1  0.8353100E-006  0.1365575E+03  0.7546771E-02  0.1227312E+00
         -2   -1    0    0    0  501 -0.00000000000E+00  0.00000000000E+00  0.86646335705E+02  0.86646335705E+02  0.00000000000E+00 0.  1.
          2   -1    0    0  501    0  0.00000000000E+00 -0.00000000000E+00 -0.18970897418E+03  0.18970897418E+03  0.00000000000E+00 0. -1.
          5    1    1    2  502    0  0.10274489707E+02  0.64142585009E+02 -0.11204137412E+03  0.12959628029E+03  0.47000000000E+01 0. -1.
         -5    1    1    2    0  502  0.17045496285E+02 -0.16426237462E+02  0.23070834054E+02  0.33387476764E+02  0.47000000000E+01 0. -1.
        -11    1    1    2    0    0  0.29532767289E+02 -0.20445985699E+02  0.20595546863E+02  0.41405304317E+02  0.00000000000E+00 0.  1.
         11    1    1    2    0    0 -0.56852753281E+02 -0.27270361848E+02 -0.34687645278E+02  0.71966248519E+02  0.00000000000E+00 0. -1.
<mgrwt>
<rscale>  0 0.13009702E+03</rscale>
<asrwt>0</asrwt>
<pdfrwt beam="2">  1        2 0.29185995E-01 0.13655749E+03</pdfrwt>
<pdfrwt beam="1">  1       -2 0.13330206E-01 0.13655749E+03</pdfrwt>
<totfact> 0.71451754E+03</totfact>
</mgrwt>
</event>
<event>
 6    1  0.8353100E-006  0.1662991E+03  0.7546771E-02  0.1188475E+00
         -1   -1    0    0    0  501 -0.00000000000E+00  0.00000000000E+00  0.41688653564E+02  0.41688653564E+02  0.00000000000E+00 0.  1.
          1   -1    0    0  501    0  0.00000000000E+00 -0.00000000000E+00 -0.63679940409E+03  0.63679940409E+03  0.00000000000E+00 0. -1.
          5    1    1    2  502    0 -0.97901779901E+02  0.40317143164E+02 -0.40757355999E+03  0.42112768532E+03  0.47000000000E+01 0.  1.
         -5    1    1    2    0  502  0.11446314782E+02  0.27180720987E+02 -0.15910692846E+02  0.33838585406E+02  0.47000000000E+01 0.  1.
        -11    1    1    2    0    0  0.98634088581E+02 -0.70313126589E+02 -0.17273391701E+03  0.21097304398E+03  0.00000000000E+00 0. -1.
         11    1    1    2    0    0 -0.12178623461E+02  0.28152624379E+01  0.11074193187E+01  0.12548742947E+02  0.00000000000E+00 0.  1.
<mgrwt>
<rscale>  0 0.16019666E+03</rscale>
<asrwt>0</asrwt>
<pdfrwt beam="2">  1        1 0.97969138E-01 0.16629911E+03</pdfrwt>
<pdfrwt beam="1">  1       -1 0.64136391E-02 0.16629911E+03</pdfrwt>
<totfact> 0.38280287E+03</totfact>
</mgrwt>
</event>
<event>
 6    1  0.8353100E-006  0.2912115E+03  0.7546771E-02  0.1091628E+00
          1   -1    0    0  501    0  0.00000000000E+00  0.00000000000E+00  0.12021599848E+04  0.12021599848E+04  0.00000000000E+00 0. -1.
         -1   -1    0    0    0  501 -0.00000000000E+00 -0.00000000000E+00 -0.81414480140E+02  0.81414480140E+02  0.00000000000E+00 0.  1.
          5    1    1    2  502    0 -0.93837692644E+02  0.64707466748E+02  0.19194690006E+03  0.22328965775E+03  0.47000000000E+01 0. -1.
         -5    1    1    2    0  502 -0.14616919713E+03  0.42877182585E+02  0.64893922075E+03  0.66659439632E+03  0.47000000000E+01 0. -1.
        -11    1    1    2    0    0  0.10665317055E+03 -0.31084770358E+01  0.93854910411E+02  0.14210315136E+03  0.00000000000E+00 0. -1.
         11    1    1    2    0    0  0.13335371923E+03 -0.10447617230E+03  0.18600447342E+03  0.25158725949E+03  0.00000000000E+00 0.  1.
<mgrwt>
<rscale>  0 0.28756447E+03</rscale>
<asrwt>0</asrwt>
<pdfrwt beam="1">  1        1 0.18494768E+00 0.29121154E+03</pdfrwt>
<pdfrwt beam="2">  1       -1 0.12525306E-01 0.29121154E+03</pdfrwt>
<totfact> 0.48937289E+02</totfact>
</mgrwt>
</event>
<event>
 6    1  0.8353100E-006  0.1524681E+03  0.7546771E-02  0.1206355E+00
          2   -1    0    0  501    0  0.00000000000E+00  0.00000000000E+00  0.66176680449E+03  0.66176680449E+03  0.00000000000E+00 0. -1.
         -2   -1    0    0    0  501 -0.00000000000E+00 -0.00000000000E+00 -0.29310333868E+02  0.29310333868E+02  0.00000000000E+00 0.  1.
          5    1    1    2  502    0 -0.12151318206E+02 -0.29877751169E+02  0.67687105850E+02  0.75126352550E+02  0.47000000000E+01 0.  1.
         -5    1    1    2    0  502  0.38354641479E+02  0.11314816653E+03  0.29422051887E+03  0.31758682252E+03  0.47000000000E+01 0.  1.
        -11    1    1    2    0    0  0.18095595241E+02  0.87796857652E+01  0.76115546499E+02  0.78728075476E+02  0.00000000000E+00 0.  1.
         11    1    1    2    0    0 -0.44298918514E+02 -0.92050101131E+02  0.19443329941E+03  0.21963588782E+03  0.00000000000E+00 0. -1.
<mgrwt>
<rscale>  0 0.14531150E+03</rscale>
<asrwt>0</asrwt>
<pdfrwt beam="1">  1        2 0.10181027E+00 0.15246806E+03</pdfrwt>
<pdfrwt beam="2">  1       -2 0.45092826E-02 0.15246806E+03</pdfrwt>
<totfact> 0.99200158E+03</totfact>
</mgrwt>
</event>
<event>
 6    1  0.8353100E-006  0.1459968E+03  0.7546771E-02  0.1214799E+00
          1   -1    0    0  501    0  0.00000000000E+00  0.00000000000E+00  0.15009816102E+03  0.15009816102E+03  0.00000000000E+00 0. -1.
         -1   -1    0    0    0  501 -0.00000000000E+00 -0.00000000000E+00 -0.11869998995E+03  0.11869998995E+03  0.00000000000E+00 0.  1.
          5    1    1    2  502    0 -0.33231305695E+02  0.10455797712E+03  0.25236505075E+02  0.11267502583E+03  0.47000000000E+01 0.  1.
         -5    1    1    2    0  502  0.23533978838E+01 -0.35702766864E+02  0.51954842394E+01  0.36459691439E+02  0.47000000000E+01 0.  1.
        -11    1    1    2    0    0  0.14240836705E+02 -0.46700897266E+02  0.45810677486E+02  0.66950678915E+02  0.00000000000E+00 0. -1.
         11    1    1    2    0    0  0.16637071107E+02 -0.22154312989E+02 -0.44844495733E+02  0.52712754781E+02  0.00000000000E+00 0.  1.
<mgrwt>
<rscale>  0 0.13891344E+03</rscale>
<asrwt>0</asrwt>
<pdfrwt beam="1">  1        1 0.23092025E-01 0.14599677E+03</pdfrwt>
<pdfrwt beam="2">  1       -1 0.18261537E-01 0.14599677E+03</pdfrwt>
<totfact> 0.47628197E+03</totfact>
</mgrwt>
</event>
<event>
 6    1  0.8353100E-006  0.2865114E+03  0.7546771E-02  0.1094357E+00
          2   -1    0    0  501    0  0.00000000000E+00  0.00000000000E+00  0.15788308351E+04  0.15788308351E+04  0.00000000000E+00 0.  1.
         -2   -1    0    0    0  501 -0.00000000000E+00 -0.00000000000E+00 -0.49179017780E+02  0.49179017780E+02  0.00000000000E+00 0. -1.
          5    1    1    2  502    0 -0.21158819735E+03 -0.13357904121E+03  0.71812150796E+03  0.76048242301E+03  0.47000000000E+01 0. -1.
         -5    1    1    2    0  502  0.11602223425E+02 -0.29117010039E+02  0.48584851593E+02  0.58008530979E+02  0.47000000000E+01 0. -1.
        -11    1    1    2    0    0  0.95274039068E+02  0.11788675054E+03  0.35574923979E+03  0.38669361268E+03  0.00000000000E+00 0.  1.
         11    1    1    2    0    0  0.10471193486E+03  0.44809300707E+02  0.40719621801E+03  0.42282528625E+03  0.00000000000E+00 0. -1.
<mgrwt>
<rscale>  0 0.28245311E+03</rscale>
<asrwt>0</asrwt>
<pdfrwt beam="1">  1        2 0.24289701E+00 0.28651143E+03</pdfrwt>
<pdfrwt beam="2">  1       -2 0.75660040E-02 0.28651143E+03</pdfrwt>
<totfact> 0.12777589E+03</totfact>
</mgrwt>
</event>
<event>
 6    1  0.1480839E-005  0.1376989E+03  0.7546771E-02  0.1228560E+00
          1   -1    0    0  501    0  0.00000000000E+00  0.00000000000E+00  0.53127373813E+03  0.53127373813E+03  0.00000000000E+00 0. -1.
         -1   -1    0    0    0  501 -0.00000000000E+00 -0.00000000000E+00 -0.28845384094E+02  0.28845384094E+02  0.00000000000E+00 0.  1.
          5    1    1    2  502    0 -0.25710643036E+02 -0.27645809162E+01  0.11881754958E+02  0.28843477145E+02  0.47000000000E+01 0. -1.
         -5    1    1    2    0  502  0.83124293408E+02  0.90491863881E+01  0.31310676666E+03  0.32411336482E+03  0.47000000000E+01 0. -1.
        -11    1    1    2    0    0 -0.15947671043E+02 -0.41294789239E+01 -0.71512286705E+01  0.17958866316E+02  0.00000000000E+00 0.  1.
         11    1    1    2    0    0 -0.41465979330E+02 -0.21551265480E+01  0.18459106110E+03  0.18920341395E+03  0.00000000000E+00 0. -1.
<mgrwt>
<rscale>  0 0.12925875E+03</rscale>
<asrwt>0</asrwt>
<pdfrwt beam="1">  1        1 0.81734414E-01 0.13769892E+03</pdfrwt>
<pdfrwt beam="2">  1       -1 0.44377518E-02 0.13769892E+03</pdfrwt>
<totfact> 0.83828368E+03</totfact>
</mgrwt>
</event>
<event>
 6    1  0.8353100E-006  0.1448806E+03  0.7546771E-02  0.1217047E+00
          1   -1    0    0  501    0  0.00000000000E+00  0.00000000000E+00  0.44294403527E+03  0.44294403527E+03  0.00000000000E+00 0. -1.
         -1   -1    0    0    0  501 -0.00000000000E+00 -0.00000000000E+00 -0.40489609740E+02  0.40489609740E+02  0.00000000000E+00 0.  1.
          5    1    1    2  502    0  0.56679809003E+02  0.41301148292E+02  0.38199248467E+02  0.79997863611E+02  0.47000000000E+01 0.  1.
         -5    1    1    2    0  502 -0.46515132680E+02  0.31230015787E+02  0.13225528770E+03  0.14370985554E+03  0.47000000000E+01 0.  1.
        -11    1    1    2    0    0 -0.31486106600E+02 -0.81853610596E+02  0.14314669461E+03  0.16787603955E+03  0.00000000000E+00 0.  1.
         11    1    1    2    0    0  0.21321430277E+02  0.93224465166E+01  0.88853194744E+02  0.91849886306E+02  0.00000000000E+00 0. -1.
<mgrwt>
<rscale>  0 0.13727267E+03</rscale>
<asrwt>0</asrwt>
<pdfrwt beam="1">  1        1 0.68145233E-01 0.14488062E+03</pdfrwt>
<pdfrwt beam="2">  1       -1 0.62291711E-02 0.14488062E+03</pdfrwt>
<totfact> 0.64392576E+03</totfact>
</mgrwt>
</event>
<event>
 6    1  0.9393352E-006  0.1685907E+03  0.7546771E-02  0.1185583E+00
          1   -1    0    0  501    0  0.00000000000E+00  0.00000000000E+00  0.38407149177E+03  0.38407149177E+03  0.00000000000E+00 0. -1.
         -1   -1    0    0    0  501 -0.00000000000E+00 -0.00000000000E+00 -0.65576667092E+02  0.65576667092E+02  0.00000000000E+00 0.  1.
          5    1    1    2  502    0  0.93258458703E+02 -0.22607695730E+01  0.97010530798E+02  0.13466768092E+03  0.47000000000E+01 0.  1.
         -5    1    1    2    0  502 -0.58056244056E+01  0.74015208855E+02  0.99898458356E+02  0.12455419864E+03  0.47000000000E+01 0.  1.
        -11    1    1    2    0    0 -0.89344606459E+02 -0.37779511967E+02  0.12266013136E+03  0.15638177021E+03  0.00000000000E+00 0. -1.
         11    1    1    2    0    0  0.18917721610E+01 -0.33974927315E+02 -0.10742958364E+01  0.34044509095E+02  0.00000000000E+00 0.  1.
<mgrwt>
<rscale>  0 0.16278979E+03</rscale>
<asrwt>0</asrwt>
<pdfrwt beam="1">  1        1 0.59087921E-01 0.16859073E+03</pdfrwt>
<pdfrwt beam="2">  1       -1 0.10088718E-01 0.16859073E+03</pdfrwt>
<totfact> 0.37493256E+03</totfact>
</mgrwt>
</event>
<event>
 6    1  0.8353100E-006  0.1597071E+03  0.7546771E-02  0.1196128E+00
          2   -1    0    0  501    0  0.00000000000E+00  0.00000000000E+00  0.54719730613E+03  0.54719730613E+03  0.00000000000E+00 0. -1.
         -2   -1    0    0    0  501 -0.00000000000E+00 -0.00000000000E+00 -0.44317733455E+02  0.44317733455E+02  0.00000000000E+00 0.  1.
          5    1    1    2  502    0 -0.11956393714E+03 -0.86061836930E+01  0.21746725450E+03  0.24836203060E+03  0.47000000000E+01 0.  1.
         -5    1    1    2    0  502  0.20800288992E+02  0.19806250508E+02  0.14252759507E+03  0.14546870776E+03  0.47000000000E+01 0.  1.
        -11    1    1    2    0    0  0.21380225538E+02 -0.16203391965E+02 -0.80385252415E+01  0.28005032463E+02  0.00000000000E+00 0.  1.
         11    1    1    2    0    0  0.77383422607E+02  0.50033251503E+01  0.15092324834E+03  0.16967926876E+03  0.00000000000E+00 0. -1.
<mgrwt>
<rscale>  0 0.15359107E+03</rscale>
<asrwt>0</asrwt>
<pdfrwt beam="1">  1        2 0.84184196E-01 0.15970710E+03</pdfrwt>
<pdfrwt beam="2">  1       -2 0.68181132E-02 0.15970710E+03</pdfrwt>
<totfact> 0.66101462E+03</totfact>
</mgrwt>
</event>
<event>
 6    1  0.8353100E-006  0.1257049E+03  0.7546771E-02  0.1248029E+00
          2   -1    0    0  501    0  0.00000000000E+00  0.00000000000E+00  0.15612100926E+04  0.15612100926E+04  0.00000000000E+00 0. -1.
         -2   -1    0    0    0  501 -0.00000000000E+00 -0.00000000000E+00 -0.10923151488E+02  0.10923151488E+02  0.00000000000E+00 0.  1.
          5    1    1    2  502    0  0.66180863296E+02  0.64891488655E+00  0.61298125136E+03  0.61656178301E+03  0.47000000000E+01 0. -1.
         -5    1    1    2    0  502 -0.57572881844E+02 -0.10814268816E+02  0.65970802717E+03  0.66232043321E+03  0.47000000000E+01 0. -1.
        -11    1    1    2    0    0 -0.43810081204E+02  0.12345129675E+02  0.75968335222E+02  0.88560224696E+02  0.00000000000E+00 0.  1.
         11    1    1    2    0    0  0.35202099753E+02 -0.21797757454E+01  0.20162932731E+03  0.20469080312E+03  0.00000000000E+00 0. -1.
<mgrwt>
<rscale>  0 0.11705912E+03</rscale>
<asrwt>0</asrwt>
<pdfrwt beam="1">  1        2 0.24018599E+00 0.12570491E+03</pdfrwt>
<pdfrwt beam="2">  1       -2 0.16804861E-02 0.12570491E+03</pdfrwt>
<totfact> 0.12250730E+04</totfact>
</mgrwt>
</event>
<event>
 6    1  0.8353100E-006  0.2809604E+03  0.7546771E-02  0.1095166E+00
         -2   -1    0    0    0  501 -0.00000000000E+00  0.00000000000E+00  0.19207624062E+03  0.19207624062E+03  0.00000000000E+00 0.  1.
          2   -1    0    0  501    0  0.00000000000E+00 -0.00000000000E+00 -0.10274405286E+03  0.10274405286E+03  0.00000000000E+00 0. -1.
          5    1    1    2  502    0 -0.29319927002E+02 -0.16338106392E+01  0.30599351446E+02  0.42670103885E+02  0.47000000000E+01 0. -1.
         -5    1    1    2    0  502  0.10527462368E+03  0.48463777399E+02  0.11342364566E+02  0.11654279619E+03  0.47000000000E+01 0. -1.
        -11    1    1    2    0    0 -0.50262345470E+02  0.20518480780E+02  0.27358164232E+02  0.60792931956E+02  0.00000000000E+00 0.  1.
         11    1    1    2    0    0 -0.25692351207E+02 -0.67348447540E+02  0.20032307519E+02  0.74814461443E+02  0.00000000000E+00 0. -1.
<mgrwt>
<rscale>  0 0.28096043E+03</rscale>
<asrwt>0</asrwt>
<pdfrwt beam="2">  1        2 0.15806777E-01 0.28096043E+03</pdfrwt>
<pdfrwt beam="1">  1       -2 0.29550191E-01 0.28096043E+03</pdfrwt>
<totfact> 0.38315955E+03</totfact>
</mgrwt>
</event>
<event>
 6    1  0.8353100E-006  0.1409876E+03  0.7546771E-02  0.1231558E+00
         -2   -1    0    0    0  501 -0.00000000000E+00  0.00000000000E+00  0.31497928027E+02  0.31497928027E+02  0.00000000000E+00 0.  1.
          2   -1    0    0  501    0  0.00000000000E+00 -0.00000000000E+00 -0.43740707382E+03  0.43740707382E+03  0.00000000000E+00 0. -1.
          5    1    1    2  502    0  0.36983874353E+02  0.70952929039E+02 -0.19700973411E+03  0.21269003370E+03  0.47000000000E+01 0. -1.
         -5    1    1    2    0  502 -0.36582398572E+02 -0.37365448645E+02 -0.54729687497E+02  0.75841132186E+02  0.47000000000E+01 0.  1.
        -11    1    1    2    0    0  0.26036550227E+02 -0.10511104217E+02 -0.68086649034E+01  0.28891922355E+02  0.00000000000E+00 0. -1.
         11    1    1    2    0    0 -0.26438026008E+02 -0.23076376176E+02 -0.14736105928E+03  0.15148191361E+03  0.00000000000E+00 0.  1.
<mgrwt>
<rscale>  0 0.12727362E+03</rscale>
<asrwt>0</asrwt>
<pdfrwt beam="2">  1        2 0.67293392E-01 0.14098758E+03</pdfrwt>
<pdfrwt beam="1">  1       -2 0.48458353E-02 0.14098758E+03</pdfrwt>
<totfact> 0.14075246E+04</totfact>
</mgrwt>
</event>
<event>
 6    1  0.8353100E-006  0.1456186E+03  0.7546771E-02  0.1215133E+00
         -1   -1    0    0    0  501 -0.00000000000E+00  0.00000000000E+00  0.15121297932E+03  0.15121297932E+03  0.00000000000E+00 0.  1.
          1   -1    0    0  501    0  0.00000000000E+00 -0.00000000000E+00 -0.13150429745E+03  0.13150429745E+03  0.00000000000E+00 0. -1.
          5    1    1    2  502    0 -0.50741999782E+02  0.26251535424E+02  0.39124291279E+02  0.69402405017E+02  0.47000000000E+01 0.  1.
         -5    1    1    2    0  502 -0.18358567579E+01  0.26810225483E+02 -0.76093081764E+02  0.80835670671E+02  0.47000000000E+01 0.  1.
        -11    1    1    2    0    0  0.30949529440E+02 -0.50569833003E+02  0.80648678790E+02  0.10009690691E+03  0.00000000000E+00 0.  1.
         11    1    1    2    0    0  0.21628327100E+02 -0.24919279048E+01 -0.23971206438E+02  0.32382294174E+02  0.00000000000E+00 0. -1.
<mgrwt>
<rscale>  0 0.13866770E+03</rscale>
<asrwt>0</asrwt>
<pdfrwt beam="2">  1        1 0.20231430E-01 0.14561864E+03</pdfrwt>
<pdfrwt beam="1">  1       -1 0.23263535E-01 0.14561864E+03</pdfrwt>
<totfact> 0.38105655E+03</totfact>
</mgrwt>
</event>
<event>
 6    1  0.9558779E-006  0.3048641E+03  0.7546771E-02  0.1082834E+00
         -3   -1    0    0    0  501 -0.00000000000E+00  0.00000000000E+00  0.18182830591E+03  0.18182830591E+03  0.00000000000E+00 0.  1.
          3   -1    0    0  501    0  0.00000000000E+00 -0.00000000000E+00 -0.12778826303E+03  0.12778826303E+03  0.00000000000E+00 0. -1.
          5    1    1    2  502    0  0.10678966205E+03  0.24277078855E-01  0.71428369090E+01  0.10713142690E+03  0.47000000000E+01 0.  1.
         -5    1    1    2    0  502 -0.21746739049E+02  0.66983086451E+01 -0.42261437461E+02  0.48227659017E+02  0.47000000000E+01 0.  1.
        -11    1    1    2    0    0 -0.39131533366E+02 -0.42528928630E+02  0.74370078429E+02  0.94185430081E+02  0.00000000000E+00 0.  1.
         11    1    1    2    0    0 -0.45911389634E+02  0.35806342906E+02  0.14788564997E+02  0.60072052946E+02  0.00000000000E+00 0. -1.
<mgrwt>
<rscale>  0 0.30486406E+03</rscale>
<asrwt>0</asrwt>
<pdfrwt beam="2">  1        3 0.19659733E-01 0.30486406E+03</pdfrwt>
<pdfrwt beam="1">  1       -3 0.27973586E-01 0.30486406E+03</pdfrwt>
<totfact> 0.72590553E+02</totfact>
</mgrwt>
</event>
<event>
 6    1  0.8353100E-006  0.1370333E+03  0.7546771E-02  0.1230035E+00
         -3   -1    0    0    0  501 -0.00000000000E+00  0.00000000000E+00  0.20370543820E+03  0.20370543820E+03  0.00000000000E+00 0.  1.
          3   -1    0    0  501    0  0.00000000000E+00 -0.00000000000E+00 -0.76256111640E+02  0.76256111640E+02  0.00000000000E+00 0. -1.
          5    1    1    2  502    0 -0.93092223768E+01 -0.37743998006E+02  0.24692526648E+02  0.46293432353E+02  0.47000000000E+01 0.  1.
         -5    1    1    2    0  502  0.18505416410E+02  0.93166323154E+02  0.14237272574E+02  0.96162384210E+02  0.47000000000E+01 0.  1.
        -11    1    1    2    0    0 -0.11906540800E+02 -0.18197961343E+02  0.96852432209E+02  0.99263916585E+02  0.00000000000E+00 0.  1.
         11    1    1    2    0    0  0.27103467664E+01 -0.37224363804E+02 -0.83329048725E+01  0.38241816691E+02  0.00000000000E+00 0. -1.
<mgrwt>
<rscale>  0 0.12827691E+03</rscale>
<asrwt>0</asrwt>
<pdfrwt beam="2">  1        3 0.11731710E-01 0.13703332E+03</pdfrwt>
<pdfrwt beam="1">  1       -3 0.31339298E-01 0.13703332E+03</pdfrwt>
<totfact> 0.12870494E+03</totfact>
</mgrwt>
</event>
<event>
 6    1  0.8353100E-006  0.1349321E+03  0.7546771E-02  0.1222923E+00
         -1   -1    0    0    0  501 -0.00000000000E+00  0.00000000000E+00  0.18338624208E+03  0.18338624208E+03  0.00000000000E+00 0.  1.
          1   -1    0    0  501    0  0.00000000000E+00 -0.00000000000E+00 -0.94503566077E+02  0.94503566077E+02  0.00000000000E+00 0. -1.
          5    1    1    2  502    0  0.53828770023E+02 -0.39361302356E+02  0.70908955442E+00  0.66853881064E+02  0.47000000000E+01 0.  1.
         -5    1    1    2    0  502 -0.87702978558E+01  0.62813575118E+02  0.35579081165E+02  0.72872658522E+02  0.47000000000E+01 0.  1.
        -11    1    1    2    0    0  0.21329710740E+02 -0.50372821975E+02  0.12670457906E+02  0.56150852688E+02  0.00000000000E+00 0. -1.
         11    1    1    2    0    0 -0.66388182907E+02  0.26920549214E+02  0.39924047373E+02  0.82012415879E+02  0.00000000000E+00 0.  1.
<mgrwt>
<rscale>  0 0.13310249E+03</rscale>
<asrwt>0</asrwt>
<pdfrwt beam="2">  1        1 0.14539010E-01 0.13493211E+03</pdfrwt>
<pdfrwt beam="1">  1       -1 0.28213268E-01 0.13493211E+03</pdfrwt>
<totfact> 0.42202444E+03</totfact>
</mgrwt>
</event>
<event>
 6    1  0.8353100E-006  0.1819115E+03  0.7546771E-02  0.1171310E+00
          1   -1    0    0  501    0  0.00000000000E+00  0.00000000000E+00  0.61824710752E+03  0.61824710752E+03  0.00000000000E+00 0. -1.
         -1   -1    0    0    0  501 -0.00000000000E+00 -0.00000000000E+00 -0.50444915054E+02  0.50444915054E+02  0.00000000000E+00 0.  1.
          5    1    1    2  502    0 -0.38652310084E+02 -0.99130944712E+02  0.26740027899E+03  0.28782971437E+03  0.47000000000E+01 0. -1.
         -5    1    1    2    0  502  0.64785453313E+02 -0.30386562543E+02  0.11308805959E+03  0.13390854105E+03  0.47000000000E+01 0. -1.
        -11    1    1    2    0    0  0.32467010375E+01  0.86677839925E+02  0.49943216531E+02  0.10008952932E+03  0.00000000000E+00 0.  1.
         11    1    1    2    0    0 -0.29379844266E+02  0.42839667330E+02  0.13737063736E+03  0.14686423783E+03  0.00000000000E+00 0. -1.
<mgrwt>
<rscale>  0 0.17642367E+03</rscale>
<asrwt>0</asrwt>
<pdfrwt beam="1">  1        1 0.95114934E-01 0.18191146E+03</pdfrwt>
<pdfrwt beam="2">  1       -1 0.77607566E-02 0.18191146E+03</pdfrwt>
<totfact> 0.30004978E+03</totfact>
</mgrwt>
</event>
<event>
 6    1  0.8353100E-006  0.1284653E+03  0.7546771E-02  0.1242157E+00
         -1   -1    0    0    0  501 -0.00000000000E+00  0.00000000000E+00  0.77675902024E+03  0.77675902024E+03  0.00000000000E+00 0.  1.
          1   -1    0    0  501    0  0.00000000000E+00 -0.00000000000E+00 -0.17043626312E+02  0.17043626312E+02  0.00000000000E+00 0. -1.
          5    1    1    2  502    0 -0.52274585367E+02 -0.61030517823E+01  0.35768062642E+03  0.36156244279E+03  0.47000000000E+01 0.  1.
         -5    1    1    2    0  502  0.24690275731E+02  0.17273380721E+02  0.17856996567E+02  0.35340369602E+02  0.47000000000E+01 0.  1.
        -11    1    1    2    0    0  0.48548908246E+02  0.27407040703E+02  0.21028083351E+03  0.21754579131E+03  0.00000000000E+00 0. -1.
         11    1    1    2    0    0 -0.20964598610E+02 -0.38577369642E+02  0.17389693743E+03  0.17935404286E+03  0.00000000000E+00 0.  1.
<mgrwt>
<rscale>  0 0.12057184E+03</rscale>
<asrwt>0</asrwt>
<pdfrwt beam="2">  1        1 0.26220970E-02 0.12846531E+03</pdfrwt>
<pdfrwt beam="1">  1       -1 0.11950136E+00 0.12846531E+03</pdfrwt>
<totfact> 0.26492957E+03</totfact>
</mgrwt>
</event>
<event>
 6    1  0.8353100E-006  0.2024157E+03  0.7546771E-02  0.1174251E+00
         -2   -1    0    0    0  501 -0.00000000000E+00  0.00000000000E+00  0.55640761186E+02  0.55640761186E+02  0.00000000000E+00 0.  1.
          2   -1    0    0  501    0  0.00000000000E+00 -0.00000000000E+00 -0.63928175903E+03  0.63928175903E+03  0.00000000000E+00 0. -1.
          5    1    1    2  502    0  0.73407664285E+02 -0.25669823574E+02 -0.51316055619E+03  0.51904091501E+03  0.47000000000E+01 0. -1.
         -5    1    1    2    0  502 -0.19362828301E+02  0.47561221278E+02 -0.27872139115E+02  0.58616849353E+02  0.47000000000E+01 0.  1.
        -11    1    1    2    0    0  0.19867125208E+02  0.16618567510E+02 -0.10625697492E+02  0.27996158617E+02  0.00000000000E+00 0. -1.
         11    1    1    2    0    0 -0.73911961192E+02 -0.38509965214E+02 -0.31982605047E+02  0.89268597242E+02  0.00000000000E+00 0.  1.
<mgrwt>
<rscale>  0 0.17349560E+03</rscale>
<asrwt>0</asrwt>
<pdfrwt beam="2">  1        2 0.98351038E-01 0.20241570E+03</pdfrwt>
<pdfrwt beam="1">  1       -2 0.85601172E-02 0.20241570E+03</pdfrwt>
<totfact> 0.39266994E+03</totfact>
</mgrwt>
</event>
<event>
 6    1  0.8353100E-006  0.3523359E+03  0.7546771E-02  0.1067476E+00
         -2   -1    0    0    0  501 -0.00000000000E+00  0.00000000000E+00  0.34177603506E+03  0.34177603506E+03  0.00000000000E+00 0.  1.
          2   -1    0    0  501    0  0.00000000000E+00 -0.00000000000E+00 -0.39009508321E+03  0.39009508321E+03  0.00000000000E+00 0. -1.
          5    1    1    2  502    0  0.12337245038E+03  0.12513601499E+03  0.20279972782E+01  0.17580098559E+03  0.47000000000E+01 0. -1.
         -5    1    1    2    0  502  0.39747159835E+02  0.10924472689E+03 -0.19196369296E+03  0.22446914373E+03  0.47000000000E+01 0.  1.
        -11    1    1    2    0    0 -0.76015861113E+02 -0.18430682776E+03  0.94591636117E+02  0.22066942589E+03  0.00000000000E+00 0.  1.
         11    1    1    2    0    0 -0.87103749107E+02 -0.50073914121E+02  0.47025011422E+02  0.11093156306E+03  0.00000000000E+00 0. -1.
<mgrwt>
<rscale>  0 0.33840755E+03</rscale>
<asrwt>0</asrwt>
<pdfrwt beam="2">  1        2 0.60014628E-01 0.35233593E+03</pdfrwt>
<pdfrwt beam="1">  1       -2 0.52580929E-01 0.35233593E+03</pdfrwt>
<totfact> 0.28560321E+02</totfact>
</mgrwt>
</event>
<event>
 6    1  0.8353100E-006  0.2518663E+03  0.7546771E-02  0.1114023E+00
         -1   -1    0    0    0  501 -0.00000000000E+00  0.00000000000E+00  0.12714306859E+03  0.12714306859E+03  0.00000000000E+00 0.  1.
          1   -1    0    0  501    0  0.00000000000E+00 -0.00000000000E+00 -0.49147448517E+03  0.49147448517E+03  0.00000000000E+00 0. -1.
          5    1    1    2  502    0  0.13170851210E+03 -0.30127002383E+02 -0.22528068696E+03  0.26273227124E+03  0.47000000000E+01 0. -1.
         -5    1    1    2    0  502  0.77435446372E+02 -0.33910917744E+02 -0.16215257922E+02  0.86204543305E+02  0.47000000000E+01 0. -1.
        -11    1    1    2    0    0 -0.11824400870E+03  0.19045284132E+02 -0.13469638400E+02  0.12052302518E+03  0.00000000000E+00 0.  1.
         11    1    1    2    0    0 -0.90899949776E+02  0.44992635995E+02 -0.10936583329E+03  0.14915771403E+03  0.00000000000E+00 0. -1.
<mgrwt>
<rscale>  0 0.24886692E+03</rscale>
<asrwt>0</asrwt>
<pdfrwt beam="2">  1        1 0.75611459E-01 0.25186625E+03</pdfrwt>
<pdfrwt beam="1">  1       -1 0.19560472E-01 0.25186625E+03</pdfrwt>
<totfact> 0.96801939E+02</totfact>
</mgrwt>
</event>
<event>
 6    1  0.8353100E-006  0.1517301E+03  0.7546771E-02  0.1205008E+00
          1   -1    0    0  501    0  0.00000000000E+00  0.00000000000E+00  0.93882073804E+03  0.93882073804E+03  0.00000000000E+00 0. -1.
         -1   -1    0    0    0  501 -0.00000000000E+00 -0.00000000000E+00 -0.22297487746E+02  0.22297487746E+02  0.00000000000E+00 0.  1.
          5    1    1    2  502    0  0.57080720524E+02 -0.24413857161E+02  0.57779099012E+03  0.58113575294E+03  0.47000000000E+01 0. -1.
         -5    1    1    2    0  502  0.23262126237E+02 -0.63181607065E+01  0.11033104367E+02  0.26923318216E+02  0.47000000000E+01 0. -1.
        -11    1    1    2    0    0 -0.34927656786E-01  0.45143635193E+02  0.75250859716E+02  0.87753295701E+02  0.00000000000E+00 0.  1.
         11    1    1    2    0    0 -0.80307919105E+02 -0.14411617325E+02  0.25244829609E+03  0.26530585893E+03  0.00000000000E+00 0. -1.
<mgrwt>
<rscale>  0 0.14636814E+03</rscale>
<asrwt>0</asrwt>
<pdfrwt beam="1">  1        1 0.14443393E+00 0.15173009E+03</pdfrwt>
<pdfrwt beam="2">  1       -1 0.34303835E-02 0.15173009E+03</pdfrwt>
<totfact> 0.53855928E+03</totfact>
</mgrwt>
</event>
<event>
 6    1  0.8353100E-006  0.2808169E+03  0.7546771E-02  0.1095244E+00
         -2   -1    0    0    0  501 -0.00000000000E+00  0.00000000000E+00  0.26664896275E+02  0.26664896275E+02  0.00000000000E+00 0.  1.
          2   -1    0    0  501    0  0.00000000000E+00 -0.00000000000E+00 -0.73934389056E+03  0.73934389056E+03  0.00000000000E+00 0. -1.
          5    1    1    2  502    0  0.31399653662E+02  0.10193993299E+03 -0.24897647971E+03  0.27090416320E+03  0.47000000000E+01 0. -1.
         -5    1    1    2    0  502 -0.60712831006E+01 -0.23937106509E+02 -0.21739771165E+03  0.21884629441E+03  0.47000000000E+01 0. -1.
        -11    1    1    2    0    0  0.26334196758E+02 -0.35511515912E+02 -0.16578184544E+03  0.17157557506E+03  0.00000000000E+00 0. -1.
         11    1    1    2    0    0 -0.51662567320E+02 -0.42491310575E+02 -0.80522957476E+02  0.10468275415E+03  0.00000000000E+00 0.  1.
<mgrwt>
<rscale>  0 0.28081687E+03</rscale>
<asrwt>0</asrwt>
<pdfrwt beam="2">  1        2 0.11374520E+00 0.28081687E+03</pdfrwt>
<pdfrwt beam="1">  1       -2 0.41022924E-02 0.28081687E+03</pdfrwt>
<totfact> 0.10341558E+04</totfact>
</mgrwt>
</event>
<event>
 6    1  0.8353100E-006  0.1995645E+03  0.7546771E-02  0.1174448E+00
         -1   -1    0    0    0  501 -0.00000000000E+00  0.00000000000E+00  0.22916581642E+03  0.22916581642E+03  0.00000000000E+00 0.  1.
          1   -1    0    0  501    0  0.00000000000E+00 -0.00000000000E+00 -0.19461503242E+03  0.19461503242E+03  0.00000000000E+00 0. -1.
          5    1    1    2  502    0 -0.37132532976E+02 -0.10409437221E+03 -0.14341866605E+03  0.18112279564E+03  0.47000000000E+01 0. -1.
         -5    1    1    2    0  502  0.20818689585E+02  0.40127597559E+02  0.24046017079E+02  0.51419284896E+02  0.47000000000E+01 0.  1.
        -11    1    1    2    0    0 -0.11770771172E+02 -0.16367157460E+02  0.68016263411E+01  0.21276677800E+02  0.00000000000E+00 0. -1.
         11    1    1    2    0    0  0.28084614563E+02  0.80333932113E+02  0.14712180663E+03  0.16996209051E+03  0.00000000000E+00 0.  1.
<mgrwt>
<rscale>  0 0.17330109E+03</rscale>
<asrwt>0</asrwt>
<pdfrwt beam="2">  1        1 0.29940774E-01 0.19956450E+03</pdfrwt>
<pdfrwt beam="1">  1       -1 0.35256280E-01 0.19956450E+03</pdfrwt>
<totfact> 0.11670999E+03</totfact>
</mgrwt>
</event>
<event>
 6    1  0.8353100E-006  0.1493537E+03  0.7546771E-02  0.1211284E+00
         -1   -1    0    0    0  501 -0.00000000000E+00  0.00000000000E+00  0.40631249903E+02  0.40631249903E+02  0.00000000000E+00 0.  1.
          1   -1    0    0  501    0  0.00000000000E+00 -0.00000000000E+00 -0.47762529082E+03  0.47762529082E+03  0.00000000000E+00 0. -1.
          5    1    1    2  502    0  0.12365555056E+02  0.11896903486E+02 -0.18214189235E+03  0.18300874901E+03  0.47000000000E+01 0. -1.
         -5    1    1    2    0  502 -0.91803398570E+02 -0.31171336801E+02 -0.12267120430E+03  0.15642835610E+03  0.47000000000E+01 0. -1.
        -11    1    1    2    0    0 -0.16503636216E+02  0.15913471991E+02 -0.15278730102E+02  0.27550829256E+02  0.00000000000E+00 0.  1.
         11    1    1    2    0    0  0.95941479730E+02  0.33609613235E+01 -0.11690221416E+03  0.15126860636E+03  0.00000000000E+00 0. -1.
<mgrwt>
<rscale>  0 0.14153053E+03</rscale>
<asrwt>0</asrwt>
<pdfrwt beam="2">  1        1 0.73480811E-01 0.14935369E+03</pdfrwt>
<pdfrwt beam="1">  1       -1 0.62509618E-02 0.14935369E+03</pdfrwt>
<totfact> 0.58227942E+03</totfact>
</mgrwt>
</event>
<event>
 6    1  0.8353100E-006  0.2818516E+03  0.7546771E-02  0.1094682E+00
         -1   -1    0    0    0  501 -0.00000000000E+00  0.00000000000E+00  0.33052744024E+02  0.33052744024E+02  0.00000000000E+00 0.  1.
          1   -1    0    0  501    0  0.00000000000E+00 -0.00000000000E+00 -0.60086022768E+03  0.60086022768E+03  0.00000000000E+00 0. -1.
          5    1    1    2  502    0 -0.89227359414E+01 -0.79780619334E+01  0.33810240040E+01  0.13296090110E+02  0.47000000000E+01 0. -1.
         -5    1    1    2    0  502  0.56790840411E+02  0.73613820756E+02 -0.39295652000E+03  0.40383302338E+03  0.47000000000E+01 0. -1.
        -11    1    1    2    0    0 -0.46964904033E+02  0.81179802543E+01 -0.89490851524E+02  0.10139140161E+03  0.00000000000E+00 0. -1.
         11    1    1    2    0    0 -0.90320043638E+00 -0.73753739077E+02 -0.88741136143E+02  0.11539245661E+03  0.00000000000E+00 0.  1.
<mgrwt>
<rscale>  0 0.28185159E+03</rscale>
<asrwt>0</asrwt>
<pdfrwt beam="2">  1        1 0.92440037E-01 0.28185159E+03</pdfrwt>
<pdfrwt beam="1">  1       -1 0.50850374E-02 0.28185159E+03</pdfrwt>
<totfact> 0.60066998E+03</totfact>
</mgrwt>
</event>
<event>
 6    1  0.8353100E-006  0.1268891E+03  0.7546771E-02  0.1246172E+00
          1   -1    0    0  501    0  0.00000000000E+00  0.00000000000E+00  0.10679477674E+04  0.10679477674E+04  0.00000000000E+00 0.  1.
         -1   -1    0    0    0  501 -0.00000000000E+00 -0.00000000000E+00 -0.12265010420E+02  0.12265010420E+02  0.00000000000E+00 0. -1.
          5    1    1    2  502    0 -0.77362630103E+01 -0.50139560004E+01  0.72318396193E+03  0.72325799154E+03  0.47000000000E+01 0.  1.
         -5    1    1    2    0  502 -0.10251479371E+02 -0.73288533728E+01  0.28083918801E+01  0.13739795705E+02  0.47000000000E+01 0.  1.
        -11    1    1    2    0    0 -0.90513842141E+01  0.48511920545E+02  0.14865434044E+03  0.15663156426E+03  0.00000000000E+00 0.  1.
         11    1    1    2    0    0  0.27039126596E+02 -0.36169111171E+02  0.18103606274E+03  0.18658342633E+03  0.00000000000E+00 0. -1.
<mgrwt>
<rscale>  0 0.11815523E+03</rscale>
<asrwt>0</asrwt>
<pdfrwt beam="1">  1        1 0.16429958E+00 0.12688909E+03</pdfrwt>
<pdfrwt beam="2">  1       -1 0.18869255E-02 0.12688909E+03</pdfrwt>
<totfact> 0.10223727E+04</totfact>
</mgrwt>
</event>
<event>
 6    1  0.8353100E-006  0.1475841E+03  0.7546771E-02  0.1212927E+00
          1   -1    0    0  501    0  0.00000000000E+00  0.00000000000E+00  0.66571201577E+03  0.66571201577E+03  0.00000000000E+00 0. -1.
         -1   -1    0    0    0  501 -0.00000000000E+00 -0.00000000000E+00 -0.41321083271E+02  0.41321083271E+02  0.00000000000E+00 0.  1.
          5    1    1    2  502    0  0.39002374782E+02  0.22724840264E+02  0.20643024602E+03  0.21136021404E+03  0.47000000000E+01 0.  1.
         -5    1    1    2    0  502 -0.95476608892E+02  0.31748050313E+02  0.33380059747E+03  0.34866696204E+03  0.47000000000E+01 0.  1.
        -11    1    1    2    0    0  0.77861779205E+02 -0.32929618343E+02  0.40269533961E+02  0.93640011697E+02  0.00000000000E+00 0.  1.
         11    1    1    2    0    0 -0.21387545096E+02 -0.21543272234E+02  0.43890555034E+02  0.53365911264E+02  0.00000000000E+00 0. -1.
<mgrwt>
<rscale>  0 0.14029907E+03</rscale>
<asrwt>0</asrwt>
<pdfrwt beam="1">  1        1 0.10241723E+00 0.14758412E+03</pdfrwt>
<pdfrwt beam="2">  1       -1 0.63570902E-02 0.14758412E+03</pdfrwt>
<totfact> 0.36285776E+03</totfact>
</mgrwt>
</event>
<event>
 6    1  0.8353100E-006  0.1301323E+03  0.7546771E-02  0.1245737E+00
          1   -1    0    0  501    0  0.00000000000E+00  0.00000000000E+00  0.28397648493E+03  0.28397648493E+03  0.00000000000E+00 0. -1.
         -1   -1    0    0    0  501 -0.00000000000E+00 -0.00000000000E+00 -0.43202032223E+02  0.43202032223E+02  0.00000000000E+00 0.  1.
          5    1    1    2  502    0 -0.61189854652E+02  0.48994499696E+02  0.11611709643E+03  0.14017820586E+03  0.47000000000E+01 0.  1.
         -5    1    1    2    0  502  0.25567239165E+02 -0.42755036926E+02  0.48755252494E+02  0.69863019881E+02  0.47000000000E+01 0.  1.
        -11    1    1    2    0    0  0.25796141881E+02 -0.33621694940E+02  0.78105839302E+01  0.43091350964E+02  0.00000000000E+00 0.  1.
         11    1    1    2    0    0  0.98264736058E+01  0.27382232170E+02  0.68091519845E+02  0.74045940449E+02  0.00000000000E+00 0. -1.
<mgrwt>
<rscale>  0 0.11841403E+03</rscale>
<asrwt>0</asrwt>
<pdfrwt beam="1">  1        1 0.43688689E-01 0.13013234E+03</pdfrwt>
<pdfrwt beam="2">  1       -1 0.66464666E-02 0.13013234E+03</pdfrwt>
<totfact> 0.10120718E+04</totfact>
</mgrwt>
</event>
<event>
 6    1  0.8353100E-006  0.1668610E+03  0.7546771E-02  0.1188037E+00
          2   -1    0    0  501    0  0.00000000000E+00  0.00000000000E+00  0.40458710495E+03  0.40458710495E+03  0.00000000000E+00 0. -1.
         -2   -1    0    0    0  501 -0.00000000000E+00 -0.00000000000E+00 -0.59382208431E+02  0.59382208431E+02  0.00000000000E+00 0.  1.
          5    1    1    2  502    0  0.59831900878E+02 -0.50987935647E+02  0.18662017971E+03  0.20255568967E+03  0.47000000000E+01 0.  1.
         -5    1    1    2    0  502  0.44636158198E+02  0.14848927959E+02 -0.67552025278E+00  0.47280266579E+02  0.47000000000E+01 0.  1.
        -11    1    1    2    0    0 -0.85705549042E+02  0.21676051100E+02  0.48432060296E+02  0.10080157138E+03  0.00000000000E+00 0.  1.
         11    1    1    2    0    0 -0.18762510034E+02  0.14462956588E+02  0.11082817676E+03  0.11333178575E+03  0.00000000000E+00 0. -1.
<mgrwt>
<rscale>  0 0.16058572E+03</rscale>
<asrwt>0</asrwt>
<pdfrwt beam="1">  1        2 0.62244168E-01 0.16686099E+03</pdfrwt>
<pdfrwt beam="2">  1       -2 0.91357246E-02 0.16686099E+03</pdfrwt>
<totfact> 0.58624996E+03</totfact>
</mgrwt>
</event>
<event>
 6    1  0.8353100E-006  0.1277573E+03  0.7546771E-02  0.1247359E+00
         -2   -1    0    0    0  501 -0.00000000000E+00  0.00000000000E+00  0.37277757446E+03  0.37277757446E+03  0.00000000000E+00 0.  1.
          2   -1    0    0  501    0  0.00000000000E+00 -0.00000000000E+00 -0.33198570091E+02  0.33198570091E+02  0.00000000000E+00 0. -1.
          5    1    1    2  502    0 -0.31155573995E+02 -0.64139796784E+02  0.12690180500E+03  0.14563907935E+03  0.47000000000E+01 0.  1.
         -5    1    1    2    0  502  0.10088601911E+02  0.48219649141E+02  0.35070636548E+02  0.60654381537E+02  0.47000000000E+01 0.  1.
        -11    1    1    2    0    0  0.16394639574E+02  0.48566631940E+02  0.67585473182E+02  0.84825103182E+02  0.00000000000E+00 0.  1.
         11    1    1    2    0    0  0.46723325099E+01 -0.32646484296E+02  0.11002108965E+03  0.11485758048E+03  0.00000000000E+00 0. -1.
<mgrwt>
<rscale>  0 0.11745293E+03</rscale>
<asrwt>0</asrwt>
<pdfrwt beam="2">  1        2 0.51074726E-02 0.12775727E+03</pdfrwt>
<pdfrwt beam="1">  1       -2 0.57350393E-01 0.12775727E+03</pdfrwt>
<totfact> 0.42011483E+03</totfact>
</mgrwt>
</event>
<event>
 6    1  0.8353100E-006  0.1585964E+03  0.7546771E-02  0.1198993E+00
         -1   -1    0    0    0  501 -0.00000000000E+00  0.00000000000E+00  0.45820356468E+03  0.45820356468E+03  0.00000000000E+00 0.  1.
          1   -1    0    0  501    0  0.00000000000E+00 -0.00000000000E+00 -0.50655025209E+02  0.50655025209E+02  0.00000000000E+00 0. -1.
          5    1    1    2  502    0  0.90931004806E+01 -0.33394656357E+02  0.79436330281E+02  0.86776195573E+02  0.47000000000E+01 0. -1.
         -5    1    1    2    0  502  0.78325950465E+02  0.76535327713E+02  0.63201221706E+02  0.12652705374E+03  0.47000000000E+01 0. -1.
        -11    1    1    2    0    0 -0.83059446424E+02 -0.30087545868E+02  0.26736036040E+03  0.28157715527E+03  0.00000000000E+00 0.  1.
         11    1    1    2    0    0 -0.43596045211E+01 -0.13053125487E+02 -0.24493729178E+01  0.13978185299E+02  0.00000000000E+00 0. -1.
<mgrwt>
<rscale>  0 0.15121066E+03</rscale>
<asrwt>0</asrwt>
<pdfrwt beam="2">  1        1 0.77930811E-02 0.15859636E+03</pdfrwt>
<pdfrwt beam="1">  1       -1 0.70492853E-01 0.15859636E+03</pdfrwt>
<totfact> 0.18660211E+03</totfact>
</mgrwt>
</event>
<event>
 6    1  0.8353100E-006  0.1303383E+03  0.7546771E-02  0.1238390E+00
          1   -1    0    0  501    0  0.00000000000E+00  0.00000000000E+00  0.74573070761E+03  0.74573070761E+03  0.00000000000E+00 0. -1.
         -1   -1    0    0    0  501 -0.00000000000E+00 -0.00000000000E+00 -0.21137602885E+02  0.21137602885E+02  0.00000000000E+00 0.  1.
          5    1    1    2  502    0 -0.71413613878E+02 -0.33616299311E+02  0.43619879976E+03  0.44330739080E+03  0.47000000000E+01 0.  1.
         -5    1    1    2    0  502  0.36646040017E+02  0.21090521389E+02  0.10339940583E+03  0.11180907596E+03  0.47000000000E+01 0.  1.
        -11    1    1    2    0    0  0.52586166352E+01 -0.25156066739E+02  0.15069081107E+03  0.15286661272E+03  0.00000000000E+00 0. -1.
         11    1    1    2    0    0  0.29508957225E+02  0.37681844662E+02  0.34304088064E+02  0.58885231014E+02  0.00000000000E+00 0.  1.
<mgrwt>
<rscale>  0 0.12289883E+03</rscale>
<asrwt>0</asrwt>
<pdfrwt beam="1">  1        1 0.11472778E+00 0.13033828E+03</pdfrwt>
<pdfrwt beam="2">  1       -1 0.32519395E-02 0.13033828E+03</pdfrwt>
<totfact> 0.82425160E+03</totfact>
</mgrwt>
</event>
<event>
 6    1  0.8353100E-006  0.1347604E+03  0.7546771E-02  0.1232270E+00
         -2   -1    0    0    0  501 -0.00000000000E+00  0.00000000000E+00  0.40121677946E+03  0.40121677946E+03  0.00000000000E+00 0.  1.
          2   -1    0    0  501    0  0.00000000000E+00 -0.00000000000E+00 -0.41273839857E+02  0.41273839857E+02  0.00000000000E+00 0. -1.
          5    1    1    2  502    0  0.19405157036E+02 -0.31388201026E+02 -0.10019246505E+02  0.38526024759E+02  0.47000000000E+01 0. -1.
         -5    1    1    2    0  502 -0.56287602968E+02 -0.28715594221E+01  0.13054270544E+03  0.14226745252E+03  0.47000000000E+01 0. -1.
        -11    1    1    2    0    0  0.34164990383E+02 -0.27386660047E+02  0.10665254199E+03  0.11529111166E+03  0.00000000000E+00 0.  1.
         11    1    1    2    0    0  0.27174555486E+01  0.61646420494E+02  0.13276693868E+03  0.14640603038E+03  0.00000000000E+00 0. -1.
<mgrwt>
<rscale>  0 0.12680836E+03</rscale>
<asrwt>0</asrwt>
<pdfrwt beam="2">  1        2 0.63498218E-02 0.13476044E+03</pdfrwt>
<pdfrwt beam="1">  1       -2 0.61725656E-01 0.13476044E+03</pdfrwt>
<totfact> 0.27382673E+03</totfact>
</mgrwt>
</event>
<event>
 6    1  0.8353100E-006  0.1381452E+03  0.7546771E-02  0.1226857E+00
         -2   -1    0    0    0  501 -0.00000000000E+00  0.00000000000E+00  0.73993736265E+02  0.73993736265E+02  0.00000000000E+00 0.  1.
          2   -1    0    0  501    0  0.00000000000E+00 -0.00000000000E+00 -0.20919916073E+03  0.20919916073E+03  0.00000000000E+00 0. -1.
          5    1    1    2  502    0  0.79470807409E+01 -0.24638813065E+02 -0.99935717595E+02  0.10334149628E+03  0.47000000000E+01 0.  1.
         -5    1    1    2    0  502 -0.58790441734E+02 -0.49278122075E+01  0.12039438925E+02  0.60395674200E+02  0.47000000000E+01 0.  1.
        -11    1    1    2    0    0  0.22916923441E+02 -0.21048080897E+02 -0.52905728067E+02  0.61377708916E+02  0.00000000000E+00 0. -1.
         11    1    1    2    0    0  0.27926437553E+02  0.50614706169E+02  0.55965822760E+01  0.58078017598E+02  0.00000000000E+00 0.  1.
<mgrwt>
<rscale>  0 0.13040432E+03</rscale>
<asrwt>0</asrwt>
<pdfrwt beam="2">  1        2 0.32184486E-01 0.13814523E+03</pdfrwt>
<pdfrwt beam="1">  1       -2 0.11383652E-01 0.13814523E+03</pdfrwt>
<totfact> 0.82833118E+03</totfact>
</mgrwt>
</event>
<event>
 6    1  0.8353100E-006  0.1272945E+03  0.7546771E-02  0.1245874E+00
         -1   -1    0    0    0  501 -0.00000000000E+00  0.00000000000E+00  0.78728075088E+02  0.78728075088E+02  0.00000000000E+00 0.  1.
          1   -1    0    0  501    0  0.00000000000E+00 -0.00000000000E+00 -0.29634086344E+03  0.29634086344E+03  0.00000000000E+00 0. -1.
          5    1    1    2  502    0  0.31351068089E+02  0.39094229370E+02 -0.23339740419E+03  0.23876282483E+03  0.47000000000E+01 0. -1.
         -5    1    1    2    0  502 -0.33119035536E+02 -0.11915415335E+02 -0.11644605547E+02  0.37370235159E+02  0.47000000000E+01 0.  1.
        -11    1    1    2    0    0 -0.35333808807E+02 -0.13319490172E+02  0.42234123143E+02  0.56653402553E+02  0.00000000000E+00 0.  1.
         11    1    1    2    0    0  0.37101776255E+02 -0.13859323863E+02 -0.14804901761E+02  0.42282475984E+02  0.00000000000E+00 0. -1.
<mgrwt>
<rscale>  0 0.11833244E+03</rscale>
<asrwt>0</asrwt>
<pdfrwt beam="2">  1        1 0.45590902E-01 0.12729446E+03</pdfrwt>
<pdfrwt beam="1">  1       -1 0.12112012E-01 0.12729446E+03</pdfrwt>
<totfact> 0.38602553E+03</totfact>
</mgrwt>
</event>
<event>
 6    1  0.8353100E-006  0.1569017E+03  0.7546771E-02  0.1199672E+00
         -2   -1    0    0    0  501 -0.00000000000E+00  0.00000000000E+00  0.33991688955E+02  0.33991688955E+02  0.00000000000E+00 0.  1.
          2   -1    0    0  501    0  0.00000000000E+00 -0.00000000000E+00 -0.66929353666E+03  0.66929353666E+03  0.00000000000E+00 0. -1.
          5    1    1    2  502    0  0.69241827322E+02  0.59857669333E+02 -0.43489322825E+03  0.44444525108E+03  0.47000000000E+01 0. -1.
         -5    1    1    2    0  502 -0.11466667190E+02  0.15340839083E+02 -0.20646515563E+01  0.19828731333E+02  0.47000000000E+01 0. -1.
        -11    1    1    2    0    0 -0.76929703455E+02 -0.69119266964E+02 -0.12136589726E+03  0.15945323251E+03  0.00000000000E+00 0.  1.
         11    1    1    2    0    0  0.19154543323E+02 -0.60792414525E+01 -0.76978070639E+02  0.79558010696E+02  0.00000000000E+00 0. -1.
<mgrwt>
<rscale>  0 0.15065399E+03</rscale>
<asrwt>0</asrwt>
<pdfrwt beam="2">  1        2 0.10296823E+00 0.15690170E+03</pdfrwt>
<pdfrwt beam="1">  1       -2 0.52294912E-02 0.15690170E+03</pdfrwt>
<totfact> 0.78463045E+03</totfact>
</mgrwt>
</event>
<event>
 6    1  0.8353100E-006  0.4075581E+03  0.7546771E-02  0.1041194E+00
          1   -1    0    0  501    0  0.00000000000E+00  0.00000000000E+00  0.24796368317E+03  0.24796368317E+03  0.00000000000E+00 0. -1.
         -1   -1    0    0    0  501 -0.00000000000E+00 -0.00000000000E+00 -0.16746768395E+03  0.16746768395E+03  0.00000000000E+00 0.  1.
          5    1    1    2  502    0  0.13785512768E+03 -0.61881085005E+02  0.21841812242E+01  0.15119578551E+03  0.47000000000E+01 0.  1.
         -5    1    1    2    0  502  0.18999069078E+02  0.16512872406E+02  0.57472948543E+02  0.62919547003E+02  0.47000000000E+01 0.  1.
        -11    1    1    2    0    0 -0.12986010554E+03  0.67852464099E+02 -0.19515059799E+02  0.14781218304E+03  0.00000000000E+00 0.  1.
         11    1    1    2    0    0 -0.26994091218E+02 -0.22484251500E+02  0.40353929246E+02  0.53503851561E+02  0.00000000000E+00 0. -1.
<mgrwt>
<rscale>  0 0.40755811E+03</rscale>
<asrwt>0</asrwt>
<pdfrwt beam="1">  1        1 0.38148259E-01 0.40755811E+03</pdfrwt>
<pdfrwt beam="2">  1       -1 0.25764259E-01 0.40755811E+03</pdfrwt>
<totfact> 0.14845140E+03</totfact>
</mgrwt>
</event>
<event>
 6    1  0.8353100E-006  0.1528040E+03  0.7546771E-02  0.1215773E+00
          2   -1    0    0  501    0  0.00000000000E+00  0.00000000000E+00  0.40797742387E+03  0.40797742387E+03  0.00000000000E+00 0. -1.
         -2   -1    0    0    0  501 -0.00000000000E+00 -0.00000000000E+00 -0.52110914820E+02  0.52110914820E+02  0.00000000000E+00 0.  1.
          5    1    1    2  502    0 -0.70814209575E+02  0.63866099923E+02  0.24217460651E+03  0.26031550287E+03  0.47000000000E+01 0. -1.
         -5    1    1    2    0  502  0.39766317971E+02 -0.33935732146E+02  0.72595349069E+02  0.89583305742E+02  0.47000000000E+01 0.  1.
        -11    1    1    2    0    0  0.53104767105E+02 -0.49332148467E+02  0.24875054020E+02  0.76632535350E+02  0.00000000000E+00 0.  1.
         11    1    1    2    0    0 -0.22056875500E+02  0.19401780690E+02  0.16221499453E+02  0.33556994730E+02  0.00000000000E+00 0. -1.
<mgrwt>
<rscale>  0 0.13819906E+03</rscale>
<asrwt>0</asrwt>
<pdfrwt beam="1">  1        2 0.62765756E-01 0.15280396E+03</pdfrwt>
<pdfrwt beam="2">  1       -2 0.80170641E-02 0.15280396E+03</pdfrwt>
<totfact> 0.70858751E+03</totfact>
</mgrwt>
</event>
<event>
 6    1  0.8353100E-006  0.1630713E+03  0.7546771E-02  0.1192990E+00
         -1   -1    0    0    0  501 -0.00000000000E+00  0.00000000000E+00  0.15516587174E+03  0.15516587174E+03  0.00000000000E+00 0.  1.
          1   -1    0    0  501    0  0.00000000000E+00 -0.00000000000E+00 -0.16947434587E+03  0.16947434587E+03  0.00000000000E+00 0. -1.
          5    1    1    2  502    0  0.23096566344E+02 -0.22967658054E+02  0.18169777165E+02  0.37592492543E+02  0.47000000000E+01 0.  1.
         -5    1    1    2    0  502 -0.95135674102E+02 -0.53056530112E+02 -0.86667834497E+02  0.13928099443E+03  0.47000000000E+01 0.  1.
        -11    1    1    2    0    0  0.90519667364E+02  0.76836655879E+02  0.43831226998E+02  0.12656562853E+03  0.00000000000E+00 0.  1.
         11    1    1    2    0    0 -0.18480559606E+02 -0.81246771318E+00  0.10358356199E+02  0.21201102100E+02  0.00000000000E+00 0. -1.
<mgrwt>
<rscale>  0 0.15625594E+03</rscale>
<asrwt>0</asrwt>
<pdfrwt beam="2">  1        1 0.26072976E-01 0.16307129E+03</pdfrwt>
<pdfrwt beam="1">  1       -1 0.23871673E-01 0.16307129E+03</pdfrwt>
<totfact> 0.26642203E+03</totfact>
</mgrwt>
</event>
<event>
 6    1  0.8353100E-006  0.3041587E+03  0.7546771E-02  0.1083180E+00
          1   -1    0    0  501    0  0.00000000000E+00  0.00000000000E+00  0.17215605389E+03  0.17215605389E+03  0.00000000000E+00 0. -1.
         -1   -1    0    0    0  501 -0.00000000000E+00 -0.00000000000E+00 -0.13434397702E+03  0.13434397702E+03  0.00000000000E+00 0.  1.
          5    1    1    2  502    0  0.13706476338E+01  0.82204044460E+01 -0.31339754039E+02  0.32767726613E+02  0.47000000000E+01 0.  1.
         -5    1    1    2    0  502 -0.81108329106E+02 -0.69398204914E+02  0.84428225231E+02  0.13617961342E+03  0.47000000000E+01 0.  1.
        -11    1    1    2    0    0  0.19627660312E+02  0.24959955502E+02 -0.50018344945E+02  0.59245921876E+02  0.00000000000E+00 0.  1.
         11    1    1    2    0    0  0.60110021161E+02  0.36217844966E+02  0.34741950630E+02  0.78306769002E+02  0.00000000000E+00 0. -1.
<mgrwt>
<rscale>  0 0.30415870E+03</rscale>
<asrwt>0</asrwt>
<pdfrwt beam="1">  1        1 0.26485547E-01 0.30415870E+03</pdfrwt>
<pdfrwt beam="2">  1       -1 0.20668304E-01 0.30415870E+03</pdfrwt>
<totfact> 0.33889293E+03</totfact>
</mgrwt>
</event>
<event>
 6    1  0.8353100E-006  0.1262661E+03  0.7546771E-02  0.1247419E+00
         -1   -1    0    0    0  501 -0.00000000000E+00  0.00000000000E+00  0.69851257186E+03  0.69851257186E+03  0.00000000000E+00 0.  1.
          1   -1    0    0  501    0  0.00000000000E+00 -0.00000000000E+00 -0.21845536150E+02  0.21845536150E+02  0.00000000000E+00 0. -1.
          5    1    1    2  502    0  0.36364663713E+01  0.32915770115E+02  0.20585479295E+03  0.20855444755E+03  0.47000000000E+01 0. -1.
         -5    1    1    2    0  502 -0.21564306400E+02 -0.34374500338E+02  0.10872773718E+02  0.42272127843E+02  0.47000000000E+01 0. -1.
        -11    1    1    2    0    0  0.45207677000E+02  0.29459375742E+02  0.30500927778E+03  0.30974545745E+03  0.00000000000E+00 0. -1.
         11    1    1    2    0    0 -0.27279836971E+02 -0.28000645519E+02  0.15493019125E+03  0.15978607516E+03  0.00000000000E+00 0.  1.
<mgrwt>
<rscale>  0 0.11741771E+03</rscale>
<asrwt>0</asrwt>
<pdfrwt beam="2">  1        1 0.33608523E-02 0.12626612E+03</pdfrwt>
<pdfrwt beam="1">  1       -1 0.10746346E+00 0.12626612E+03</pdfrwt>
<totfact> 0.23954781E+03</totfact>
</mgrwt>
</event>
<event>
 6    1  0.8353100E-006  0.2388149E+03  0.7546771E-02  0.1123390E+00
         -2   -1    0    0    0  501 -0.00000000000E+00  0.00000000000E+00  0.99183280202E+03  0.99183280202E+03  0.00000000000E+00 0.  1.
          2   -1    0    0  501    0  0.00000000000E+00 -0.00000000000E+00 -0.63307570321E+02  0.63307570321E+02  0.00000000000E+00 0. -1.
          5    1    1    2  502    0  0.82729740874E+01 -0.35795168565E+02  0.14236464836E+03  0.14710377050E+03  0.47000000000E+01 0.  1.
         -5    1    1    2    0  502  0.12095314300E+03 -0.12139046212E+03  0.13008547477E+03  0.21519671894E+03  0.47000000000E+01 0.  1.
        -11    1    1    2    0    0 -0.12739579913E+03  0.99611288955E+02  0.42596926863E+03  0.45563353294E+03  0.00000000000E+00 0.  1.
         11    1    1    2    0    0 -0.18303179625E+01  0.57574341727E+02  0.23010583994E+03  0.23720634996E+03  0.00000000000E+00 0. -1.
<mgrwt>
<rscale>  0 0.23467843E+03</rscale>
<asrwt>0</asrwt>
<pdfrwt beam="2">  1        2 0.97396269E-02 0.23881494E+03</pdfrwt>
<pdfrwt beam="1">  1       -2 0.15258965E+00 0.23881494E+03</pdfrwt>
<totfact> 0.20105145E+02</totfact>
</mgrwt>
</event>
<event>
 6    1  0.8353100E-006  0.2339549E+03  0.7546771E-02  0.1126375E+00
          1   -1    0    0  501    0  0.00000000000E+00  0.00000000000E+00  0.71758403614E+03  0.71758403614E+03  0.00000000000E+00 0. -1.
         -1   -1    0    0    0  501 -0.00000000000E+00 -0.00000000000E+00 -0.78624509164E+02  0.78624509164E+02  0.00000000000E+00 0.  1.
          5    1    1    2  502    0 -0.24047208342E+02 -0.36298474481E+02  0.95372903918E+02  0.10494726428E+03  0.47000000000E+01 0.  1.
         -5    1    1    2    0  502 -0.16549488645E+03  0.92753753229E+02  0.35047043216E+03  0.39855166540E+03  0.47000000000E+01 0.  1.
        -11    1    1    2    0    0  0.13843961154E+03 -0.71206445317E+02  0.17989225721E+03  0.23790146721E+03  0.00000000000E+00 0. -1.
         11    1    1    2    0    0  0.51102483246E+02  0.14751166569E+02  0.13223933688E+02  0.54808148402E+02  0.00000000000E+00 0.  1.
<mgrwt>
<rscale>  0 0.23037641E+03</rscale>
<asrwt>0</asrwt>
<pdfrwt beam="1">  1        1 0.11039754E+00 0.23395489E+03</pdfrwt>
<pdfrwt beam="2">  1       -1 0.12096079E-01 0.23395489E+03</pdfrwt>
<totfact> 0.12298650E+03</totfact>
</mgrwt>
</event>
<event>
 6    1  0.8353100E-006  0.1337643E+03  0.7546771E-02  0.1235454E+00
         -1   -1    0    0    0  501 -0.00000000000E+00  0.00000000000E+00  0.12050888070E+02  0.12050888070E+02  0.00000000000E+00 0.  1.
          1   -1    0    0  501    0  0.00000000000E+00 -0.00000000000E+00 -0.11507878432E+04  0.11507878432E+04  0.00000000000E+00 0. -1.
          5    1    1    2  502    0 -0.19177106408E+01  0.24037995901E+02 -0.50716484481E+03  0.50775956187E+03  0.47000000000E+01 0. -1.
         -5    1    1    2    0  502  0.36038530825E+02 -0.57142284666E+02 -0.18031045227E+03  0.19260832173E+03  0.47000000000E+01 0. -1.
        -11    1    1    2    0    0  0.30017697415E+02  0.14750748083E+02 -0.12093090218E+03  0.12547083258E+03  0.00000000000E+00 0.  1.
         11    1    1    2    0    0 -0.64138517599E+02  0.18353540682E+02 -0.33033075587E+03  0.33700001509E+03  0.00000000000E+00 0. -1.
<mgrwt>
<rscale>  0 0.12475396E+03</rscale>
<asrwt>0</asrwt>
<pdfrwt beam="2">  1        1 0.17704426E+00 0.13376430E+03</pdfrwt>
<pdfrwt beam="1">  1       -1 0.18539831E-02 0.13376430E+03</pdfrwt>
<totfact> 0.91999088E+03</totfact>
</mgrwt>
</event>
<event>
 6    1  0.8353100E-006  0.7391121E+03  0.7546771E-02  0.9652588E-01
          3   -1    0    0  501    0  0.00000000000E+00  0.00000000000E+00  0.12482919280E+04  0.12482919280E+04  0.00000000000E+00 0. -1.
         -3   -1    0    0    0  501 -0.00000000000E+00 -0.00000000000E+00 -0.10940684757E+03  0.10940684757E+03  0.00000000000E+00 0.  1.
          5    1    1    2  502    0 -0.17994847817E+02 -0.27070437093E+03  0.27967194600E+03  0.38967057673E+03  0.47000000000E+01 0. -1.
         -5    1    1    2    0  502  0.29236490395E+01 -0.54951471866E+02  0.17553065857E+03  0.18401443988E+03  0.47000000000E+01 0. -1.
        -11    1    1    2    0    0  0.33288199398E+02  0.13902367428E+03  0.10975008586E+03  0.18022421474E+03  0.00000000000E+00 0.  1.
         11    1    1    2    0    0 -0.18217000620E+02  0.18663216851E+03  0.57393239000E+03  0.60378954423E+03  0.00000000000E+00 0. -1.
<mgrwt>
<rscale>  0 0.73911213E+03</rscale>
<asrwt>0</asrwt>
<pdfrwt beam="1">  1        3 0.19204490E+00 0.73911213E+03</pdfrwt>
<pdfrwt beam="2">  1       -3 0.16831824E-01 0.73911213E+03</pdfrwt>
<totfact> 0.13744747E+01</totfact>
</mgrwt>
</event>
<event>
 6    1  0.8353100E-006  0.1305344E+03  0.7546771E-02  0.1239237E+00
          2   -1    0    0  501    0  0.00000000000E+00  0.00000000000E+00  0.45445495977E+03  0.45445495977E+03  0.00000000000E+00 0. -1.
         -2   -1    0    0    0  501 -0.00000000000E+00 -0.00000000000E+00 -0.29859627014E+02  0.29859627014E+02  0.00000000000E+00 0.  1.
          5    1    1    2  502    0  0.39991212274E+02  0.46803160849E+02  0.25861525561E+03  0.26588300690E+03  0.47000000000E+01 0. -1.
         -5    1    1    2    0  502 -0.66461798147E+01 -0.29414686457E+02  0.89174358875E+01  0.31796322874E+02  0.47000000000E+01 0. -1.
        -11    1    1    2    0    0 -0.45017193547E+02  0.22534886910E+02  0.12289499897E+03  0.13280643665E+03  0.00000000000E+00 0. -1.
         11    1    1    2    0    0  0.11672161088E+02 -0.39923361303E+02  0.34167642292E+02  0.53828820365E+02  0.00000000000E+00 0.  1.
<mgrwt>
<rscale>  0 0.12237063E+03</rscale>
<asrwt>0</asrwt>
<pdfrwt beam="1">  1        2 0.69916143E-01 0.13053445E+03</pdfrwt>
<pdfrwt beam="2">  1       -2 0.45937891E-02 0.13053445E+03</pdfrwt>
<totfact> 0.14541475E+04</totfact>
</mgrwt>
</event>
<event>
 6    1  0.8353100E-006  0.1580764E+03  0.7546771E-02  0.1199226E+00
          1   -1    0    0  501    0  0.00000000000E+00  0.00000000000E+00  0.26113484561E+03  0.26113484561E+03  0.00000000000E+00 0. -1.
         -1   -1    0    0    0  501 -0.00000000000E+00 -0.00000000000E+00 -0.84934342594E+02  0.84934342594E+02  0.00000000000E+00 0.  1.
          5    1    1    2  502    0 -0.22512416039E+02 -0.30966492958E+02  0.10815346694E+03  0.11482593337E+03  0.47000000000E+01 0. -1.
         -5    1    1    2    0  502 -0.71691927845E+02  0.53072600493E+02  0.27453088598E+02  0.93446217232E+02  0.47000000000E+01 0. -1.
        -11    1    1    2    0    0  0.32307908217E+02  0.54455209582E+01 -0.26729768606E+02  0.42283982329E+02  0.00000000000E+00 0.  1.
         11    1    1    2    0    0  0.61896435667E+02 -0.27551628494E+02  0.67323716078E+02  0.95513055273E+02  0.00000000000E+00 0. -1.
<mgrwt>
<rscale>  0 0.15101911E+03</rscale>
<asrwt>0</asrwt>
<pdfrwt beam="1">  1        1 0.40174591E-01 0.15807641E+03</pdfrwt>
<pdfrwt beam="2">  1       -1 0.13066822E-01 0.15807641E+03</pdfrwt>
<totfact> 0.40583915E+03</totfact>
</mgrwt>
</event>
<event>
 6    1  0.8353100E-006  0.2830673E+03  0.7546771E-02  0.1094025E+00
          1   -1    0    0  501    0  0.00000000000E+00  0.00000000000E+00  0.46494268483E+03  0.46494268483E+03  0.00000000000E+00 0. -1.
         -1   -1    0    0    0  501 -0.00000000000E+00 -0.00000000000E+00 -0.43084408812E+02  0.43084408812E+02  0.00000000000E+00 0.  1.
          5    1    1    2  502    0  0.62664317279E+01  0.16351105300E+02 -0.32642587261E+01  0.18422057327E+02  0.47000000000E+01 0.  1.
         -5    1    1    2    0  502  0.57544082594E+02 -0.57512875301E+02  0.32390877655E+03  0.33400305058E+03  0.47000000000E+01 0.  1.
        -11    1    1    2    0    0 -0.66821986461E+02  0.38639080804E+01  0.26399449752E+02  0.71951640756E+02  0.00000000000E+00 0.  1.
         11    1    1    2    0    0  0.30114721399E+01  0.37297861921E+02  0.74814308441E+02  0.83650344983E+02  0.00000000000E+00 0. -1.
<mgrwt>
<rscale>  0 0.28306735E+03</rscale>
<asrwt>0</asrwt>
<pdfrwt beam="1">  1        1 0.71529640E-01 0.28306735E+03</pdfrwt>
<pdfrwt beam="2">  1       -1 0.66283709E-02 0.28306735E+03</pdfrwt>
<totfact> 0.56917345E+03</totfact>
</mgrwt>
</event>
<event>
 6    1  0.8353100E-006  0.1290299E+03  0.7546771E-02  0.1244183E+00
          1   -1    0    0  501    0  0.00000000000E+00  0.00000000000E+00  0.34392274883E+03  0.34392274883E+03  0.00000000000E+00 0. -1.
         -1   -1    0    0    0  501 -0.00000000000E+00 -0.00000000000E+00 -0.43486883784E+02  0.43486883784E+02  0.00000000000E+00 0.  1.
          5    1    1    2  502    0  0.25744016473E+02 -0.37091263369E+02  0.52732219223E+02  0.69579401741E+02  0.47000000000E+01 0.  1.
         -5    1    1    2    0  502 -0.45470690700E+02  0.62283525133E+02  0.19485726417E+03  0.20961456204E+03  0.47000000000E+01 0.  1.
        -11    1    1    2    0    0  0.30858873494E+02  0.36104437676E+01 -0.14380576706E+02  0.34236038964E+02  0.00000000000E+00 0.  1.
         11    1    1    2    0    0 -0.11132199268E+02 -0.28802705531E+02  0.67226958350E+02  0.73979629869E+02  0.00000000000E+00 0. -1.
<mgrwt>
<rscale>  0 0.11934399E+03</rscale>
<asrwt>0</asrwt>
<pdfrwt beam="1">  1        1 0.52911190E-01 0.12902991E+03</pdfrwt>
<pdfrwt beam="2">  1       -1 0.66902900E-02 0.12902991E+03</pdfrwt>
<totfact> 0.79008931E+03</totfact>
</mgrwt>
</event>
<event>
 6    1  0.8353100E-006  0.4280236E+03  0.7546771E-02  0.1034486E+00
         -2   -1    0    0    0  501 -0.00000000000E+00  0.00000000000E+00  0.33090772282E+03  0.33090772282E+03  0.00000000000E+00 0. -1.
          2   -1    0    0  501    0  0.00000000000E+00 -0.00000000000E+00 -0.13841033239E+03  0.13841033239E+03  0.00000000000E+00 0.  1.
          5    1    1    2  502    0  0.99346664103E+02 -0.12405721459E+03 -0.18573612508E+02  0.16008441911E+03  0.47000000000E+01 0. -1.
         -5    1    1    2    0  502  0.30226166895E+02  0.19484692232E+02  0.32309475374E+02  0.48572282173E+02  0.47000000000E+01 0. -1.
        -11    1    1    2    0    0 -0.40151437135E+02  0.62540774751E+02  0.13169094677E+03  0.15121505173E+03  0.00000000000E+00 0.  1.
         11    1    1    2    0    0 -0.89421393863E+02  0.42031747605E+02  0.47070580799E+02  0.10944630219E+03  0.00000000000E+00 0. -1.
<mgrwt>
<rscale>  0 0.42802359E+03</rscale>
<asrwt>0</asrwt>
<pdfrwt beam="2">  1        2 0.21293897E-01 0.42802359E+03</pdfrwt>
<pdfrwt beam="1">  1       -2 0.50908880E-01 0.42802359E+03</pdfrwt>
<totfact> 0.96378668E+02</totfact>
</mgrwt>
</event>
<event>
 6    1  0.8353100E-006  0.1330041E+03  0.7546771E-02  0.1240477E+00
         -1   -1    0    0    0  501 -0.00000000000E+00  0.00000000000E+00  0.14443096401E+03  0.14443096401E+03  0.00000000000E+00 0.  1.
          1   -1    0    0  501    0  0.00000000000E+00 -0.00000000000E+00 -0.13043178649E+03  0.13043178649E+03  0.00000000000E+00 0. -1.
          5    1    1    2  502    0 -0.22910806408E+02 -0.68849004042E+02 -0.12789406989E+02  0.73829190291E+02  0.47000000000E+01 0. -1.
         -5    1    1    2    0  502  0.24344515761E+02  0.44573486310E+02 -0.56586442766E+02  0.76181143561E+02  0.47000000000E+01 0.  1.
        -11    1    1    2    0    0  0.24470911994E+02 -0.48625496252E+00  0.85519094373E+02  0.88952669887E+02  0.00000000000E+00 0.  1.
         11    1    1    2    0    0 -0.25904621347E+02  0.24761772695E+02 -0.21440671023E+01  0.35899746766E+02  0.00000000000E+00 0. -1.
<mgrwt>
<rscale>  0 0.12160249E+03</rscale>
<asrwt>0</asrwt>
<pdfrwt beam="2">  1        1 0.20066429E-01 0.13300410E+03</pdfrwt>
<pdfrwt beam="1">  1       -1 0.22220148E-01 0.13300410E+03</pdfrwt>
<totfact> 0.41282741E+03</totfact>
</mgrwt>
</event>
<event>
 6    1  0.8353100E-006  0.4428878E+03  0.7546771E-02  0.1056583E+00
         -2   -1    0    0    0  501 -0.00000000000E+00  0.00000000000E+00  0.40255972222E+02  0.40255972222E+02  0.00000000000E+00 0.  1.
          2   -1    0    0  501    0  0.00000000000E+00 -0.00000000000E+00 -0.28604530425E+04  0.28604530425E+04  0.00000000000E+00 0. -1.
          5    1    1    2  502    0 -0.16315161950E+03  0.10397195664E+03 -0.17873735360E+04  0.17978194753E+04  0.47000000000E+01 0. -1.
         -5    1    1    2    0  502 -0.20848335992E+01 -0.18206655886E+03 -0.50251550596E+03  0.53450584854E+03  0.47000000000E+01 0.  1.
        -11    1    1    2    0    0  0.17394524147E+02  0.45977069490E+02 -0.18435424251E+03  0.19079556368E+03  0.00000000000E+00 0.  1.
         11    1    1    2    0    0  0.14784192895E+03  0.32117532731E+02 -0.34595378580E+03  0.37758812716E+03  0.00000000000E+00 0. -1.
<mgrwt>
<rscale>  0 0.36509904E+03</rscale>
<asrwt>0</asrwt>
<pdfrwt beam="2">  1        2 0.44006972E+00 0.44288779E+03</pdfrwt>
<pdfrwt beam="1">  1       -2 0.61932262E-02 0.44288779E+03</pdfrwt>
<totfact> 0.34242818E+02</totfact>
</mgrwt>
</event>
<event>
 6    1  0.8353100E-006  0.1498772E+03  0.7546771E-02  0.1209803E+00
         -4   -1    0    0    0  501 -0.00000000000E+00  0.00000000000E+00  0.94822955811E+03  0.94822955811E+03  0.00000000000E+00 0. -1.
          4   -1    0    0  501    0  0.00000000000E+00 -0.00000000000E+00 -0.20111687074E+02  0.20111687074E+02  0.00000000000E+00 0.  1.
          5    1    1    2  502    0  0.81584033022E+02  0.79294412022E+02  0.35801390142E+03  0.37568550921E+03  0.47000000000E+01 0.  1.
         -5    1    1    2    0  502 -0.14465326773E+02 -0.31028257030E+02  0.76257554274E+02  0.83721580233E+02  0.47000000000E+01 0.  1.
        -11    1    1    2    0    0 -0.43119248462E+01  0.22026055911E+02  0.44885676108E+02  0.50184297889E+02  0.00000000000E+00 0. -1.
         11    1    1    2    0    0 -0.62806781403E+02 -0.70292210903E+02  0.44896073923E+03  0.45874985784E+03  0.00000000000E+00 0.  1.
<mgrwt>
<rscale>  0 0.14265285E+03</rscale>
<asrwt>0</asrwt>
<pdfrwt beam="2">  1        4 0.30941064E-02 0.14987721E+03</pdfrwt>
<pdfrwt beam="1">  1       -4 0.14588144E+00 0.14987721E+03</pdfrwt>
<totfact> 0.29840387E+02</totfact>
</mgrwt>
</event>
<event>
 6    1  0.8353100E-006  0.1216292E+03  0.7546771E-02  0.1248665E+00
          1   -1    0    0  501    0  0.00000000000E+00  0.00000000000E+00  0.75429185262E+02  0.75429185262E+02  0.00000000000E+00 0. -1.
         -1   -1    0    0    0  501 -0.00000000000E+00 -0.00000000000E+00 -0.21632146096E+03  0.21632146096E+03  0.00000000000E+00 0.  1.
          5    1    1    2  502    0  0.47367339611E+02 -0.49951337252E+02  0.40991657250E+01  0.69120865987E+02  0.47000000000E+01 0. -1.
         -5    1    1    2    0  502  0.31905082678E+01  0.51410695597E+02 -0.97860772467E+01  0.52641203184E+02  0.47000000000E+01 0.  1.
        -11    1    1    2    0    0 -0.40899335171E+01 -0.39185560087E+02 -0.32317947802E+02  0.50957682696E+02  0.00000000000E+00 0. -1.
         11    1    1    2    0    0 -0.46467914362E+02  0.37726201743E+02 -0.10288741638E+03  0.11903089436E+03  0.00000000000E+00 0.  1.
<mgrwt>
<rscale>  0 0.11668676E+03</rscale>
<asrwt>0</asrwt>
<pdfrwt beam="1">  1        1 0.11604490E-01 0.12162919E+03</pdfrwt>
<pdfrwt beam="2">  1       -1 0.33280224E-01 0.12162919E+03</pdfrwt>
<totfact> 0.42608232E+03</totfact>
</mgrwt>
</event>
<event>
 6    1  0.8353100E-006  0.1326791E+03  0.7546771E-02  0.1235494E+00
          1   -1    0    0  501    0  0.00000000000E+00  0.00000000000E+00  0.56462978910E+03  0.56462978910E+03  0.00000000000E+00 0. -1.
         -1   -1    0    0    0  501 -0.00000000000E+00 -0.00000000000E+00 -0.28841843961E+02  0.28841843961E+02  0.00000000000E+00 0.  1.
          5    1    1    2  502    0  0.35973915752E+02 -0.21397021579E+02  0.75589364115E+02  0.86532058304E+02  0.47000000000E+01 0.  1.
         -5    1    1    2    0  502 -0.54452908942E+02  0.61869634555E+02  0.33194388400E+03  0.34205526323E+03  0.47000000000E+01 0.  1.
        -11    1    1    2    0    0  0.17473182662E+02 -0.70933319362E+02  0.87300141717E+02  0.11383392575E+03  0.00000000000E+00 0.  1.
         11    1    1    2    0    0  0.10058105279E+01  0.30460706385E+02  0.40954555301E+02  0.51050385779E+02  0.00000000000E+00 0. -1.
<mgrwt>
<rscale>  0 0.12472834E+03</rscale>
<asrwt>0</asrwt>
<pdfrwt beam="1">  1        1 0.86866113E-01 0.13267910E+03</pdfrwt>
<pdfrwt beam="2">  1       -1 0.44372072E-02 0.13267910E+03</pdfrwt>
<totfact> 0.77143661E+03</totfact>
</mgrwt>
</event>
<event>
 6    1  0.8353100E-006  0.1256743E+03  0.7546771E-02  0.1243468E+00
         -1   -1    0    0    0  501 -0.00000000000E+00  0.00000000000E+00  0.15436960200E+03  0.15436960200E+03  0.00000000000E+00 0.  1.
          1   -1    0    0  501    0  0.00000000000E+00 -0.00000000000E+00 -0.89793082155E+02  0.89793082155E+02  0.00000000000E+00 0. -1.
          5    1    1    2  502    0 -0.65289632492E+00 -0.21219932011E+02 -0.37971900714E+02  0.43756908392E+02  0.47000000000E+01 0. -1.
         -5    1    1    2    0  502 -0.22598554107E+02  0.64250639178E+02  0.45699786684E+02  0.82154730756E+02  0.47000000000E+01 0.  1.
        -11    1    1    2    0    0  0.11483911653E+02 -0.68564974382E+02  0.20860262384E+02  0.72582273908E+02  0.00000000000E+00 0.  1.
         11    1    1    2    0    0  0.11767538779E+02  0.25534267215E+02  0.35988371491E+02  0.45668771099E+02  0.00000000000E+00 0. -1.
<mgrwt>
<rscale>  0 0.11977567E+03</rscale>
<asrwt>0</asrwt>
<pdfrwt beam="2">  1        1 0.13814320E-01 0.12567426E+03</pdfrwt>
<pdfrwt beam="1">  1       -1 0.23749170E-01 0.12567426E+03</pdfrwt>
<totfact> 0.59616775E+03</totfact>
</mgrwt>
</event>
<event>
 6    1  0.8353100E-006  0.1470067E+03  0.7546771E-02  0.1213617E+00
         -2   -1    0    0    0  501 -0.00000000000E+00  0.00000000000E+00  0.14786727399E+03  0.14786727399E+03  0.00000000000E+00 0.  1.
          2   -1    0    0  501    0  0.00000000000E+00 -0.00000000000E+00 -0.17743327890E+03  0.17743327890E+03  0.00000000000E+00 0. -1.
          5    1    1    2  502    0  0.77198850389E+02 -0.25318323355E+02 -0.85850641691E+02  0.11829244556E+03  0.47000000000E+01 0. -1.
         -5    1    1    2    0  502 -0.77144333521E+01  0.59345156237E+02 -0.21598172378E+02  0.63796011637E+02  0.47000000000E+01 0. -1.
        -11    1    1    2    0    0 -0.52817880613E+02  0.14917610930E+02  0.67852281202E+01  0.55301925364E+02  0.00000000000E+00 0.  1.
         11    1    1    2    0    0 -0.16666536424E+02 -0.48944443812E+02  0.71097581040E+02  0.87910170323E+02  0.00000000000E+00 0. -1.
<mgrwt>
<rscale>  0 0.13978597E+03</rscale>
<asrwt>0</asrwt>
<pdfrwt beam="2">  1        2 0.27297428E-01 0.14700666E+03</pdfrwt>
<pdfrwt beam="1">  1       -2 0.22748811E-01 0.14700666E+03</pdfrwt>
<totfact> 0.31687438E+03</totfact>
</mgrwt>
</event>
<event>
 6    1  0.8353100E-006  0.1588045E+03  0.7546771E-02  0.1213385E+00
         -2   -1    0    0    0  501 -0.00000000000E+00  0.00000000000E+00  0.24112072854E+02  0.24112072854E+02  0.00000000000E+00 0.  1.
          2   -1    0    0  501    0  0.00000000000E+00 -0.00000000000E+00 -0.70208624912E+03  0.70208624912E+03  0.00000000000E+00 0. -1.
          5    1    1    2  502    0  0.74698082845E+02 -0.39361771890E+02 -0.40069512967E+03  0.40952146416E+03  0.47000000000E+01 0. -1.
         -5    1    1    2    0  502 -0.45417607158E+02  0.33608961118E+02 -0.91333592178E+02  0.10749993659E+03  0.47000000000E+01 0.  1.
        -11    1    1    2    0    0 -0.58478185450E+02  0.16556531844E+02 -0.92483836180E+02  0.11066651198E+03  0.00000000000E+00 0. -1.
         11    1    1    2    0    0  0.29197709762E+02 -0.10803721071E+02 -0.93461618235E+02  0.98510409234E+02  0.00000000000E+00 0.  1.
<mgrwt>
<rscale>  0 0.13995812E+03</rscale>
<asrwt>0</asrwt>
<pdfrwt beam="2">  1        2 0.10801326E+00 0.15880449E+03</pdfrwt>
<pdfrwt beam="1">  1       -2 0.37095499E-02 0.15880449E+03</pdfrwt>
<totfact> 0.12410144E+04</totfact>
</mgrwt>
</event>
<event>
 6    1  0.8353100E-006  0.2648616E+03  0.7546771E-02  0.1105867E+00
         -2   -1    0    0    0  501 -0.00000000000E+00  0.00000000000E+00  0.46673552803E+03  0.46673552803E+03  0.00000000000E+00 0.  1.
          2   -1    0    0  501    0  0.00000000000E+00 -0.00000000000E+00 -0.14428700700E+03  0.14428700700E+03  0.00000000000E+00 0. -1.
          5    1    1    2  502    0  0.49589498219E+02 -0.24543680768E+02  0.57535414848E+01  0.55827447003E+02  0.47000000000E+01 0. -1.
         -5    1    1    2    0  502  0.31269752940E+02 -0.19863882497E+03  0.15573052137E+03  0.25438015945E+03  0.47000000000E+01 0.  1.
        -11    1    1    2    0    0 -0.81986377724E+02  0.20863854360E+03  0.11370951489E+03  0.25135962640E+03  0.00000000000E+00 0. -1.
         11    1    1    2    0    0  0.11271265645E+01  0.14543962137E+02  0.47254943281E+02  0.49455302177E+02  0.00000000000E+00 0.  1.
<mgrwt>
<rscale>  0 0.26213592E+03</rscale>
<asrwt>0</asrwt>
<pdfrwt beam="2">  1        2 0.22198001E-01 0.26486158E+03</pdfrwt>
<pdfrwt beam="1">  1       -2 0.71805465E-01 0.26486158E+03</pdfrwt>
<totfact> 0.44575446E+02</totfact>
</mgrwt>
</event>
<event>
 6    1  0.8353100E-006  0.1295405E+03  0.7546771E-02  0.1241172E+00
          1   -1    0    0  501    0  0.00000000000E+00  0.00000000000E+00  0.80123455423E+02  0.80123455423E+02  0.00000000000E+00 0. -1.
         -1   -1    0    0    0  501 -0.00000000000E+00 -0.00000000000E+00 -0.16372089708E+03  0.16372089708E+03  0.00000000000E+00 0.  1.
          5    1    1    2  502    0  0.20632259894E+02 -0.30098393195E+02 -0.79725079513E+02  0.87805362733E+02  0.47000000000E+01 0.  1.
         -5    1    1    2    0  502  0.10198590188E+02  0.44374158096E+02  0.25762941415E+02  0.52525196800E+02  0.47000000000E+01 0.  1.
        -11    1    1    2    0    0 -0.62582744319E+02 -0.90418656529E+01 -0.32700757673E+02  0.71187743140E+02  0.00000000000E+00 0. -1.
         11    1    1    2    0    0  0.31751894237E+02 -0.52338992476E+01  0.30654541083E+01  0.32326049834E+02  0.00000000000E+00 0.  1.
<mgrwt>
<rscale>  0 0.12117453E+03</rscale>
<asrwt>0</asrwt>
<pdfrwt beam="1">  1        1 0.12326686E-01 0.12954055E+03</pdfrwt>
<pdfrwt beam="2">  1       -1 0.25187830E-01 0.12954055E+03</pdfrwt>
<totfact> 0.62953059E+03</totfact>
</mgrwt>
</event>
<event>
 6    1  0.8353100E-006  0.2702239E+03  0.7546771E-02  0.1105754E+00
          2   -1    0    0  501    0  0.00000000000E+00  0.00000000000E+00  0.62252540935E+03  0.62252540935E+03  0.00000000000E+00 0. -1.
         -2   -1    0    0    0  501 -0.00000000000E+00 -0.00000000000E+00 -0.11686324833E+03  0.11686324833E+03  0.00000000000E+00 0.  1.
          5    1    1    2  502    0 -0.11533722609E+03 -0.20551086190E+03  0.35515900369E+03  0.42625977758E+03  0.47000000000E+01 0. -1.
         -5    1    1    2    0  502  0.32338688408E+02 -0.71647319908E+00  0.30935911697E+02  0.45004719023E+02  0.47000000000E+01 0.  1.
        -11    1    1    2    0    0  0.30894632105E+02  0.17766762748E+03  0.95014684077E+02  0.20383339848E+03  0.00000000000E+00 0.  1.
         11    1    1    2    0    0  0.52103905575E+02  0.28559707627E+02  0.24552561551E+02  0.64290762592E+02  0.00000000000E+00 0. -1.
<mgrwt>
<rscale>  0 0.26232529E+03</rscale>
<asrwt>0</asrwt>
<pdfrwt beam="1">  1        2 0.95773138E-01 0.27022387E+03</pdfrwt>
<pdfrwt beam="2">  1       -2 0.17978962E-01 0.27022387E+03</pdfrwt>
<totfact> 0.12200122E+03</totfact>
</mgrwt>
</event>
<event>
 6    1  0.8353100E-006  0.1672419E+03  0.7546771E-02  0.1195593E+00
          1   -1    0    0  501    0  0.00000000000E+00  0.00000000000E+00  0.73753736299E+03  0.73753736299E+03  0.00000000000E+00 0. -1.
         -1   -1    0    0    0  501 -0.00000000000E+00 -0.00000000000E+00 -0.44252334044E+02  0.44252334044E+02  0.00000000000E+00 0.  1.
          5    1    1    2  502    0  0.31426822164E+02  0.11061145398E+03  0.38767235390E+03  0.40439396989E+03  0.47000000000E+01 0.  1.
         -5    1    1    2    0  502  0.42340971683E+02 -0.27528874723E+02  0.22936896973E+03  0.23491021923E+03  0.47000000000E+01 0.  1.
        -11    1    1    2    0    0 -0.57476467809E+02 -0.65040870277E+02  0.32964364647E+02  0.92846693505E+02  0.00000000000E+00 0.  1.
         11    1    1    2    0    0 -0.16291326039E+02 -0.18041708976E+02  0.43279340668E+02  0.49638814405E+02  0.00000000000E+00 0. -1.
<mgrwt>
<rscale>  0 0.15404183E+03</rscale>
<asrwt>0</asrwt>
<pdfrwt beam="1">  1        1 0.11346728E+00 0.16724189E+03</pdfrwt>
<pdfrwt beam="2">  1       -1 0.68080519E-02 0.16724189E+03</pdfrwt>
<totfact> 0.28369214E+03</totfact>
</mgrwt>
</event>
<event>
 6    1  0.8353100E-006  0.1251361E+03  0.7546771E-02  0.1247919E+00
          2   -1    0    0  501    0  0.00000000000E+00  0.00000000000E+00  0.73259103811E+03  0.73259103811E+03  0.00000000000E+00 0. -1.
         -2   -1    0    0    0  501 -0.00000000000E+00 -0.00000000000E+00 -0.21832724184E+02  0.21832724184E+02  0.00000000000E+00 0.  1.
          5    1    1    2  502    0  0.28962358676E+02 -0.57748887290E+02  0.33992752935E+03  0.34604416975E+03  0.47000000000E+01 0. -1.
         -5    1    1    2    0  502 -0.28359669912E+02  0.51691612769E+02  0.23301186209E+03  0.24040156318E+03  0.47000000000E+01 0. -1.
        -11    1    1    2    0    0  0.30620162946E+02  0.87353489076E+01  0.58946210629E+01  0.32382823485E+02  0.00000000000E+00 0.  1.
         11    1    1    2    0    0 -0.31222851709E+02 -0.26780743871E+01  0.13192430142E+03  0.13559520587E+03  0.00000000000E+00 0. -1.
<mgrwt>
<rscale>  0 0.11712335E+03</rscale>
<asrwt>0</asrwt>
<pdfrwt beam="1">  1        2 0.11270629E+00 0.12513613E+03</pdfrwt>
<pdfrwt beam="2">  1       -2 0.33588812E-02 0.12513613E+03</pdfrwt>
<totfact> 0.13439419E+04</totfact>
</mgrwt>
</event>
<event>
 6    1  0.8353100E-006  0.1295304E+03  0.7546771E-02  0.1235290E+00
         -1   -1    0    0    0  501 -0.00000000000E+00  0.00000000000E+00  0.67651122771E+02  0.67651122771E+02  0.00000000000E+00 0.  1.
          1   -1    0    0  501    0  0.00000000000E+00 -0.00000000000E+00 -0.24279587635E+03  0.24279587635E+03  0.00000000000E+00 0. -1.
          5    1    1    2  502    0 -0.60739844691E+01  0.48298959616E+02 -0.81532653779E+02  0.95075477488E+02  0.47000000000E+01 0. -1.
         -5    1    1    2    0  502  0.69661609902E+02 -0.31255375421E+02 -0.63866696793E+02  0.99652814040E+02  0.47000000000E+01 0.  1.
        -11    1    1    2    0    0 -0.96540850624E+01  0.23648467520E+02 -0.39921962268E+02  0.47394244860E+02  0.00000000000E+00 0. -1.
         11    1    1    2    0    0 -0.53933540370E+02 -0.40692051715E+02  0.10176559261E+02  0.68324462735E+02  0.00000000000E+00 0.  1.
<mgrwt>
<rscale>  0 0.12485871E+03</rscale>
<asrwt>0</asrwt>
<pdfrwt beam="2">  1        1 0.37353211E-01 0.12953045E+03</pdfrwt>
<pdfrwt beam="1">  1       -1 0.10407865E-01 0.12953045E+03</pdfrwt>
<totfact> 0.62360670E+03</totfact>
</mgrwt>
</event>
<event>
 6    1  0.8353100E-006  0.1363530E+03  0.7546771E-02  0.1230460E+00
         -1   -1    0    0    0  501 -0.00000000000E+00  0.00000000000E+00  0.80170526236E+02  0.80170526236E+02  0.00000000000E+00 0.  1.
          1   -1    0    0  501    0  0.00000000000E+00 -0.00000000000E+00 -0.18332146480E+03  0.18332146480E+03  0.00000000000E+00 0. -1.
          5    1    1    2  502    0 -0.26911405598E+02  0.26584714647E+02  0.17077510733E+01  0.38157269528E+02  0.47000000000E+01 0. -1.
         -5    1    1    2    0  502  0.51960292602E+02 -0.74944878422E+02 -0.65511239859E+02  0.11238513851E+03  0.47000000000E+01 0. -1.
        -11    1    1    2    0    0 -0.28582740147E+02  0.74335993580E+02 -0.28713350078E+02  0.84659727430E+02  0.00000000000E+00 0.  1.
         11    1    1    2    0    0  0.35338531434E+01 -0.25975829804E+02 -0.10634099704E+02  0.28289855577E+02  0.00000000000E+00 0. -1.
<mgrwt>
<rscale>  0 0.12799593E+03</rscale>
<asrwt>0</asrwt>
<pdfrwt beam="2">  1        1 0.28203302E-01 0.13635297E+03</pdfrwt>
<pdfrwt beam="1">  1       -1 0.12333927E-01 0.13635297E+03</pdfrwt>
<totfact> 0.68303721E+03</totfact>
</mgrwt>
</event>
<event>
 6    1  0.8353100E-006  0.1343800E+03  0.7546771E-02  0.1233525E+00
          4   -1    0    0  501    0  0.00000000000E+00  0.00000000000E+00  0.20266370718E+03  0.20266370718E+03  0.00000000000E+00 0. -1.
         -4   -1    0    0    0  501 -0.00000000000E+00 -0.00000000000E+00 -0.71986487469E+02  0.71986487469E+02  0.00000000000E+00 0.  1.
          5    1    1    2  502    0 -0.38912675974E+02  0.69076578996E+02  0.73692712708E+02  0.10834424776E+03  0.47000000000E+01 0.  1.
         -5    1    1    2    0  502  0.47811826442E+02 -0.20558576564E+02  0.22382952250E+02  0.56848151856E+02  0.47000000000E+01 0.  1.
        -11    1    1    2    0    0 -0.36301624572E+02  0.57639545215E+01  0.31773058610E+02  0.48585577816E+02  0.00000000000E+00 0.  1.
         11    1    1    2    0    0  0.27402474104E+02 -0.54281956954E+02  0.28284961406E+01  0.60872217211E+02  0.00000000000E+00 0. -1.
<mgrwt>
<rscale>  0 0.12599324E+03</rscale>
<asrwt>0</asrwt>
<pdfrwt beam="1">  1        4 0.31179032E-01 0.13438004E+03</pdfrwt>
<pdfrwt beam="2">  1       -4 0.11074844E-01 0.13438004E+03</pdfrwt>
<totfact> 0.10377178E+03</totfact>
</mgrwt>
</event>
<event>
 6    1  0.8353100E-006  0.1356950E+03  0.7546771E-02  0.1230614E+00
         -2   -1    0    0    0  501 -0.00000000000E+00  0.00000000000E+00  0.18186144369E+02  0.18186144369E+02  0.00000000000E+00 0. -1.
          2   -1    0    0  501    0  0.00000000000E+00 -0.00000000000E+00 -0.89618100463E+03  0.89618100463E+03  0.00000000000E+00 0.  1.
          5    1    1    2  502    0 -0.30508566889E+02  0.29316854192E+02 -0.65223141932E+02  0.77887090309E+02  0.47000000000E+01 0. -1.
         -5    1    1    2    0  502  0.39458457747E+02  0.22722125478E+02 -0.56124429918E+03  0.56310790994E+03  0.47000000000E+01 0. -1.
        -11    1    1    2    0    0  0.12617325590E+02  0.19043827071E+02 -0.12144132644E+03  0.12357127507E+03  0.00000000000E+00 0.  1.
         11    1    1    2    0    0 -0.21567216448E+02 -0.71082806741E+02 -0.13008609271E+03  0.14980087368E+03  0.00000000000E+00 0. -1.
<mgrwt>
<rscale>  0 0.12789418E+03</rscale>
<asrwt>0</asrwt>
<pdfrwt beam="2">  1        2 0.13787398E+00 0.13569501E+03</pdfrwt>
<pdfrwt beam="1">  1       -2 0.27978687E-02 0.13569501E+03</pdfrwt>
<totfact> 0.13743339E+04</totfact>
</mgrwt>
</event>
<event>
 6    1  0.8353100E-006  0.1369296E+03  0.7546771E-02  0.1228742E+00
         -2   -1    0    0    0  501 -0.00000000000E+00  0.00000000000E+00  0.14899651159E+02  0.14899651159E+02  0.00000000000E+00 0.  1.
          2   -1    0    0  501    0  0.00000000000E+00 -0.00000000000E+00 -0.17631459712E+04  0.17631459712E+04  0.00000000000E+00 0. -1.
          5    1    1    2  502    0 -0.45913942183E+02 -0.47222858708E+02 -0.42427309570E+03  0.42938076134E+03  0.47000000000E+01 0.  1.
         -5    1    1    2    0  502  0.47501574133E+02 -0.86602963931E+01 -0.10872982583E+04  0.10883799855E+04  0.47000000000E+01 0.  1.
        -11    1    1    2    0    0  0.37276593379E+02  0.24050820710E+02 -0.17603581694E+03  0.18153951425E+03  0.00000000000E+00 0.  1.
         11    1    1    2    0    0 -0.38864225330E+02  0.31832334390E+02 -0.60639149155E+02  0.78745361346E+02  0.00000000000E+00 0. -1.
<mgrwt>
<rscale>  0 0.12913681E+03</rscale>
<asrwt>0</asrwt>
<pdfrwt beam="2">  1        2 0.27125310E+00 0.13692964E+03</pdfrwt>
<pdfrwt beam="1">  1       -2 0.22922551E-02 0.13692964E+03</pdfrwt>
<totfact> 0.61723048E+03</totfact>
</mgrwt>
</event>
<event>
 6    1  0.8353100E-006  0.1263270E+03  0.7546771E-02  0.1247994E+00
         -1   -1    0    0    0  501 -0.00000000000E+00  0.00000000000E+00  0.10671734729E+04  0.10671734729E+04  0.00000000000E+00 0.  1.
          1   -1    0    0  501    0  0.00000000000E+00 -0.00000000000E+00 -0.11575699856E+02  0.11575699856E+02  0.00000000000E+00 0. -1.
          5    1    1    2  502    0  0.24899372955E+02  0.52454688144E+02  0.12961028052E+03  0.14209992224E+03  0.47000000000E+01 0.  1.
         -5    1    1    2    0  502 -0.28610786554E+02 -0.34567527443E+02  0.39208732342E+03  0.39467461313E+03  0.47000000000E+01 0.  1.
        -11    1    1    2    0    0 -0.33370041821E+02 -0.38298454960E+02  0.28002121304E+03  0.28459130537E+03  0.00000000000E+00 0.  1.
         11    1    1    2    0    0  0.37081455420E+02  0.20411294260E+02  0.25387895605E+03  0.25738333201E+03  0.00000000000E+00 0. -1.
<mgrwt>
<rscale>  0 0.11707970E+03</rscale>
<asrwt>0</asrwt>
<pdfrwt beam="2">  1        1 0.17808777E-02 0.12632700E+03</pdfrwt>
<pdfrwt beam="1">  1       -1 0.16418046E+00 0.12632700E+03</pdfrwt>
<totfact> 0.20413068E+03</totfact>
</mgrwt>
</event>
<event>
 6    1  0.8353100E-006  0.1257302E+03  0.7546771E-02  0.1250952E+00
          2   -1    0    0  501    0  0.00000000000E+00  0.00000000000E+00  0.17106010711E+03  0.17106010711E+03  0.00000000000E+00 0. -1.
         -2   -1    0    0    0  501 -0.00000000000E+00 -0.00000000000E+00 -0.68408347362E+02  0.68408347362E+02  0.00000000000E+00 0.  1.
          5    1    1    2  502    0 -0.44751378733E+02  0.33171141548E+02  0.24667552773E+02  0.61103098857E+02  0.47000000000E+01 0. -1.
         -5    1    1    2    0  502  0.52847579309E+02 -0.44066178156E+02  0.49209957041E+02  0.84725465877E+02  0.47000000000E+01 0. -1.
        -11    1    1    2    0    0  0.24350422393E+02 -0.27309357993E+02  0.22922043570E+02  0.43175967692E+02  0.00000000000E+00 0.  1.
         11    1    1    2    0    0 -0.32446622969E+02  0.38204394601E+02  0.58522063649E+01  0.50463922047E+02  0.00000000000E+00 0. -1.
<mgrwt>
<rscale>  0 0.11536139E+03</rscale>
<asrwt>0</asrwt>
<pdfrwt beam="1">  1        2 0.26316939E-01 0.12573020E+03</pdfrwt>
<pdfrwt beam="2">  1       -2 0.10524361E-01 0.12573020E+03</pdfrwt>
<totfact> 0.11582322E+04</totfact>
</mgrwt>
</event>
<event>
 6    1  0.8353100E-006  0.1612490E+03  0.7546771E-02  0.1195133E+00
          2   -1    0    0  501    0  0.00000000000E+00  0.00000000000E+00  0.39471659939E+03  0.39471659939E+03  0.00000000000E+00 0.  1.
         -2   -1    0    0    0  501 -0.00000000000E+00 -0.00000000000E+00 -0.59913502530E+02  0.59913502530E+02  0.00000000000E+00 0. -1.
          5    1    1    2  502    0 -0.54305255424E+02 -0.19194398920E+02  0.17543839881E+03  0.18471114610E+03  0.47000000000E+01 0. -1.
         -5    1    1    2    0  502  0.24459122416E+02 -0.78202323125E+02  0.64539112082E+02  0.10440899865E+03  0.47000000000E+01 0. -1.
        -11    1    1    2    0    0 -0.13975171929E+02  0.78037648023E+02  0.85691551287E+02  0.11673997559E+03  0.00000000000E+00 0.  1.
         11    1    1    2    0    0  0.43821304938E+02  0.19359074021E+02  0.91340346851E+01  0.48769981577E+02  0.00000000000E+00 0. -1.
<mgrwt>
<rscale>  0 0.15442939E+03</rscale>
<asrwt>0</asrwt>
<pdfrwt beam="1">  1        2 0.60725629E-01 0.16124904E+03</pdfrwt>
<pdfrwt beam="2">  1       -2 0.92174621E-02 0.16124904E+03</pdfrwt>
<totfact> 0.59260965E+03</totfact>
</mgrwt>
</event>
<event>
 6    1  0.8353100E-006  0.1296306E+03  0.7546771E-02  0.1241477E+00
          3   -1    0    0  501    0  0.00000000000E+00  0.00000000000E+00  0.50331682882E+02  0.50331682882E+02  0.00000000000E+00 0. -1.
         -3   -1    0    0    0  501 -0.00000000000E+00 -0.00000000000E+00 -0.26281809908E+03  0.26281809908E+03  0.00000000000E+00 0.  1.
          5    1    1    2  502    0  0.58236668959E+01 -0.78615372093E+02 -0.39976421998E+02  0.88512689154E+02  0.47000000000E+01 0. -1.
         -5    1    1    2    0  502 -0.83032322784E+01  0.44300303302E+02 -0.60012719259E+02  0.75200246088E+02  0.47000000000E+01 0. -1.
        -11    1    1    2    0    0 -0.32728097603E+02  0.49687053073E+02 -0.61268263271E+02  0.85403347124E+02  0.00000000000E+00 0. -1.
         11    1    1    2    0    0  0.35207662985E+02 -0.15371984282E+02 -0.51229011670E+02  0.64033499595E+02  0.00000000000E+00 0.  1.
<mgrwt>
<rscale>  0 0.12098769E+03</rscale>
<asrwt>0</asrwt>
<pdfrwt beam="1">  1        3 0.77433358E-02 0.12963062E+03</pdfrwt>
<pdfrwt beam="2">  1       -3 0.40433554E-01 0.12963062E+03</pdfrwt>
<totfact> 0.15602128E+03</totfact>
</mgrwt>
</event>
<event>
 6    1  0.8353100E-006  0.1287441E+03  0.7546771E-02  0.1243803E+00
         -1   -1    0    0    0  501 -0.00000000000E+00  0.00000000000E+00  0.12209553353E+03  0.12209553353E+03  0.00000000000E+00 0.  1.
          1   -1    0    0  501    0  0.00000000000E+00 -0.00000000000E+00 -0.11118156996E+03  0.11118156996E+03  0.00000000000E+00 0. -1.
          5    1    1    2  502    0 -0.34710801138E+02 -0.52077506963E+02 -0.23444045132E+01  0.62805196279E+02  0.47000000000E+01 0. -1.
         -5    1    1    2    0  502  0.63108479609E+01  0.64046954049E+02 -0.22323733525E+02  0.68280877289E+02  0.47000000000E+01 0. -1.
        -11    1    1    2    0    0  0.17011229763E+02  0.33894242321E+02 -0.70180073261E+01  0.38567525554E+02  0.00000000000E+00 0. -1.
         11    1    1    2    0    0  0.11388723414E+02 -0.45863689407E+02  0.42600108931E+02  0.63623504367E+02  0.00000000000E+00 0.  1.
<mgrwt>
<rscale>  0 0.11957286E+03</rscale>
<asrwt>0</asrwt>
<pdfrwt beam="2">  1        1 0.17104857E-01 0.12874409E+03</pdfrwt>
<pdfrwt beam="1">  1       -1 0.18783928E-01 0.12874409E+03</pdfrwt>
<totfact> 0.66160872E+03</totfact>
</mgrwt>
</event>
<event>
 6    1  0.8353100E-006  0.2057136E+03  0.7546771E-02  0.1147827E+00
         -2   -1    0    0    0  501 -0.00000000000E+00  0.00000000000E+00  0.11392623518E+04  0.11392623518E+04  0.00000000000E+00 0.  1.
          2   -1    0    0  501    0  0.00000000000E+00 -0.00000000000E+00 -0.36555078856E+02  0.36555078856E+02  0.00000000000E+00 0. -1.
          5    1    1    2  502    0  0.41763991660E+02  0.35667703555E+02  0.46132282084E+02  0.71879715682E+02  0.47000000000E+01 0. -1.
         -5    1    1    2    0  502  0.18424767724E+02  0.12570288667E+03  0.39292575092E+03  0.41298114184E+03  0.47000000000E+01 0.  1.
        -11    1    1    2    0    0 -0.53297686829E+02 -0.69134616213E+02  0.44611265251E+03  0.45457313747E+03  0.00000000000E+00 0.  1.
         11    1    1    2    0    0 -0.68910725549E+01 -0.92235974016E+02  0.21753658747E+03  0.23638343569E+03  0.00000000000E+00 0. -1.
<mgrwt>
<rscale>  0 0.20228274E+03</rscale>
<asrwt>0</asrwt>
<pdfrwt beam="2">  1        2 0.56238591E-02 0.20571362E+03</pdfrwt>
<pdfrwt beam="1">  1       -2 0.17527110E+00 0.20571362E+03</pdfrwt>
<totfact> 0.28066056E+02</totfact>
</mgrwt>
</event>
<event>
 6    1  0.8353100E-006  0.3134767E+03  0.7546771E-02  0.1078691E+00
         -2   -1    0    0    0  501 -0.00000000000E+00  0.00000000000E+00  0.33075926105E+02  0.33075926105E+02  0.00000000000E+00 0. -1.
          2   -1    0    0  501    0  0.00000000000E+00 -0.00000000000E+00 -0.74274292338E+03  0.74274292338E+03  0.00000000000E+00 0.  1.
          5    1    1    2  502    0 -0.44835221345E+02  0.11618513158E+03 -0.29161844528E+03  0.31713181723E+03  0.47000000000E+01 0. -1.
         -5    1    1    2    0  502 -0.28259024333E+02 -0.31467266980E+02 -0.12229669821E+03  0.12948873982E+03  0.47000000000E+01 0. -1.
        -11    1    1    2    0    0  0.36592393492E+02 -0.45148078082E+02 -0.25537635870E+03  0.26190539666E+03  0.00000000000E+00 0.  1.
         11    1    1    2    0    0  0.36501852186E+02 -0.39569786519E+02 -0.40375495085E+02  0.67292895773E+02  0.00000000000E+00 0. -1.
<mgrwt>
<rscale>  0 0.31347670E+03</rscale>
<asrwt>0</asrwt>
<pdfrwt beam="2">  1        2 0.11426812E+00 0.31347670E+03</pdfrwt>
<pdfrwt beam="1">  1       -2 0.50886050E-02 0.31347670E+03</pdfrwt>
<totfact> 0.74407834E+03</totfact>
</mgrwt>
</event>
<event>
 6    1  0.8353100E-006  0.1393241E+03  0.7546771E-02  0.1226891E+00
         -1   -1    0    0    0  501 -0.00000000000E+00  0.00000000000E+00  0.12398961813E+02  0.12398961813E+02  0.00000000000E+00 0.  1.
          1   -1    0    0  501    0  0.00000000000E+00 -0.00000000000E+00 -0.14094706169E+04  0.14094706169E+04  0.00000000000E+00 0. -1.
          5    1    1    2  502    0  0.83772731544E+02  0.48575154826E+02 -0.86892773728E+03  0.87431968915E+03  0.47000000000E+01 0. -1.
         -5    1    1    2    0  502 -0.27712793935E+02 -0.23216263045E+02 -0.16685296843E+03  0.17078933482E+03  0.47000000000E+01 0. -1.
        -11    1    1    2    0    0 -0.25500703457E+02 -0.51179958206E+02 -0.12978616546E+03  0.14182426712E+03  0.00000000000E+00 0.  1.
         11    1    1    2    0    0 -0.30559234152E+02  0.25821066425E+02 -0.23150478392E+03  0.23493628762E+03  0.00000000000E+00 0. -1.
<mgrwt>
<rscale>  0 0.13038133E+03</rscale>
<asrwt>0</asrwt>
<pdfrwt beam="2">  1        1 0.21684159E+00 0.13932409E+03</pdfrwt>
<pdfrwt beam="1">  1       -1 0.19075330E-02 0.13932409E+03</pdfrwt>
<totfact> 0.59265739E+03</totfact>
</mgrwt>
</event>
<event>
 6    1  0.8353100E-006  0.1310578E+03  0.7546771E-02  0.1237912E+00
          4   -1    0    0  501    0  0.00000000000E+00  0.00000000000E+00  0.50294387949E+02  0.50294387949E+02  0.00000000000E+00 0. -1.
         -4   -1    0    0    0  501 -0.00000000000E+00 -0.00000000000E+00 -0.37285920354E+03  0.37285920354E+03  0.00000000000E+00 0.  1.
          5    1    1    2  502    0  0.21706698625E+02  0.22758396493E+02 -0.79550769782E+02  0.85671117356E+02  0.47000000000E+01 0.  1.
         -5    1    1    2    0  502 -0.58457341992E+02 -0.85489829163E+01  0.13953929308E+02  0.60886353848E+02  0.47000000000E+01 0.  1.
        -11    1    1    2    0    0  0.26530087297E+02 -0.54576349869E+02 -0.15458447642E+03  0.16606861187E+03  0.00000000000E+00 0. -1.
         11    1    1    2    0    0  0.10220556071E+02  0.40366936292E+02 -0.10238349870E+03  0.11052750842E+03  0.00000000000E+00 0.  1.
<mgrwt>
<rscale>  0 0.12319849E+03</rscale>
<asrwt>0</asrwt>
<pdfrwt beam="1">  1        4 0.77375980E-02 0.13105780E+03</pdfrwt>
<pdfrwt beam="2">  1       -4 0.57362955E-01 0.13105780E+03</pdfrwt>
<totfact> 0.56080467E+02</totfact>
</mgrwt>
</event>
<event>
 6    1  0.8353100E-006  0.1264494E+03  0.7546771E-02  0.1247946E+00
          1   -1    0    0  501    0  0.00000000000E+00  0.00000000000E+00  0.65369203342E+02  0.65369203342E+02  0.00000000000E+00 0. -1.
         -1   -1    0    0    0  501 -0.00000000000E+00 -0.00000000000E+00 -0.23155299997E+03  0.23155299997E+03  0.00000000000E+00 0.  1.
          5    1    1    2  502    0 -0.25854209778E+02  0.20172001289E+02 -0.62483364916E+02  0.70722066503E+02  0.47000000000E+01 0.  1.
         -5    1    1    2    0  502  0.24133341579E+02 -0.39179707903E+02  0.35825699109E+02  0.58506738105E+02  0.47000000000E+01 0.  1.
        -11    1    1    2    0    0  0.74555604422E+01 -0.21294041339E+02 -0.12079338180E+03  0.12288231225E+03  0.00000000000E+00 0.  1.
         11    1    1    2    0    0 -0.57346922434E+01  0.40301747953E+02 -0.18732749024E+02  0.44811086454E+02  0.00000000000E+00 0. -1.
<mgrwt>
<rscale>  0 0.11710806E+03</rscale>
<asrwt>0</asrwt>
<pdfrwt beam="1">  1        1 0.10056801E-01 0.12644941E+03</pdfrwt>
<pdfrwt beam="2">  1       -1 0.35623538E-01 0.12644941E+03</pdfrwt>
<totfact> 0.45916624E+03</totfact>
</mgrwt>
</event>
<event>
 6    1  0.8353100E-006  0.1706279E+03  0.7546771E-02  0.1183237E+00
         -1   -1    0    0    0  501 -0.00000000000E+00  0.00000000000E+00  0.10319770302E+03  0.10319770302E+03  0.00000000000E+00 0.  1.
          1   -1    0    0  501    0  0.00000000000E+00 -0.00000000000E+00 -0.26212689247E+03  0.26212689247E+03  0.00000000000E+00 0. -1.
          5    1    1    2  502    0 -0.12165379348E+03 -0.41001137435E+02 -0.11277375679E+03  0.17094077617E+03  0.47000000000E+01 0.  1.
         -5    1    1    2    0  502  0.55343629690E+01  0.38778841594E+02 -0.14927226048E+02  0.42182221449E+02  0.47000000000E+01 0.  1.
        -11    1    1    2    0    0  0.93509287433E+02 -0.37158498739E+02 -0.73336151080E+01  0.10088866525E+03  0.00000000000E+00 0.  1.
         11    1    1    2    0    0  0.22610143075E+02  0.39380794580E+02 -0.23894591504E+02  0.51312932627E+02  0.00000000000E+00 0. -1.
<mgrwt>
<rscale>  0 0.16493296E+03</rscale>
<asrwt>0</asrwt>
<pdfrwt beam="2">  1        1 0.40327214E-01 0.17062787E+03</pdfrwt>
<pdfrwt beam="1">  1       -1 0.15876570E-01 0.17062787E+03</pdfrwt>
<totfact> 0.29852945E+03</totfact>
</mgrwt>
</event>
<event>
 6    1  0.8353100E-006  0.1609140E+03  0.7546771E-02  0.1235857E+00
          2   -1    0    0  501    0  0.00000000000E+00  0.00000000000E+00  0.29761868663E+03  0.29761868663E+03  0.00000000000E+00 0. -1.
         -2   -1    0    0    0  501 -0.00000000000E+00 -0.00000000000E+00 -0.42332567652E+02  0.42332567652E+02  0.00000000000E+00 0.  1.
          5    1    1    2  502    0  0.95990327329E+01 -0.27869224222E+02  0.23628613215E+03  0.23816393794E+03  0.47000000000E+01 0. -1.
         -5    1    1    2    0  502  0.21316634565E+02 -0.19340340897E+02 -0.17054319429E+02  0.33784426981E+02  0.47000000000E+01 0.  1.
        -11    1    1    2    0    0 -0.28868582754E+02  0.35811309521E+02  0.30204034560E+02  0.55028435045E+02  0.00000000000E+00 0. -1.
         11    1    1    2    0    0 -0.20470845438E+01  0.11398255598E+02  0.58502716930E+01  0.12974454312E+02  0.00000000000E+00 0.  1.
<mgrwt>
<rscale>  0 0.12449758E+03</rscale>
<asrwt>0</asrwt>
<pdfrwt beam="1">  1        2 0.45787489E-01 0.16091403E+03</pdfrwt>
<pdfrwt beam="2">  1       -2 0.65127029E-02 0.16091403E+03</pdfrwt>
<totfact> 0.13715077E+04</totfact>
</mgrwt>
</event>
<event>
 6    1  0.8353100E-006  0.1277721E+03  0.7546771E-02  0.1245387E+00
          2   -1    0    0  501    0  0.00000000000E+00  0.00000000000E+00  0.79852795281E+03  0.79852795281E+03  0.00000000000E+00 0. -1.
         -2   -1    0    0    0  501 -0.00000000000E+00 -0.00000000000E+00 -0.16197686558E+02  0.16197686558E+02  0.00000000000E+00 0.  1.
          5    1    1    2  502    0  0.46293844441E+02  0.24045998666E+02  0.48173949082E+03  0.48457853554E+03  0.47000000000E+01 0. -1.
         -5    1    1    2    0  502 -0.35929728656E+02  0.30139567863E+00  0.46818703650E+02  0.59204030708E+02  0.47000000000E+01 0. -1.
        -11    1    1    2    0    0  0.18636344382E+02  0.28835361670E+02  0.93796030468E+02  0.99882364540E+02  0.00000000000E+00 0.  1.
         11    1    1    2    0    0 -0.29000460167E+02 -0.53182756014E+02  0.15997604131E+03  0.17106070858E+03  0.00000000000E+00 0. -1.
<mgrwt>
<rscale>  0 0.11862247E+03</rscale>
<asrwt>0</asrwt>
<pdfrwt beam="1">  1        2 0.12285042E+00 0.12777212E+03</pdfrwt>
<pdfrwt beam="2">  1       -2 0.24919524E-02 0.12777212E+03</pdfrwt>
<totfact> 0.18767600E+04</totfact>
</mgrwt>
</event>
<event>
 6    1  0.8353100E-006  0.2927154E+03  0.7546771E-02  0.1088940E+00
         -1   -1    0    0    0  501 -0.00000000000E+00  0.00000000000E+00  0.34399673358E+03  0.34399673358E+03  0.00000000000E+00 0.  1.
          1   -1    0    0  501    0  0.00000000000E+00 -0.00000000000E+00 -0.62269692370E+02  0.62269692370E+02  0.00000000000E+00 0. -1.
          5    1    1    2  502    0  0.98100876808E+02  0.20876151393E+02  0.22494176345E+02  0.10289642218E+03  0.47000000000E+01 0. -1.
         -5    1    1    2    0  502 -0.11720004014E+02  0.11930688293E+02  0.83403979557E+02  0.85193976449E+02  0.47000000000E+01 0. -1.
        -11    1    1    2    0    0 -0.75600549560E+02  0.95251123235E+01  0.14776556122E+03  0.16625532154E+03  0.00000000000E+00 0.  1.
         11    1    1    2    0    0 -0.10780323234E+02 -0.42331952010E+02  0.28063324092E+02  0.51920705783E+02  0.00000000000E+00 0. -1.
<mgrwt>
<rscale>  0 0.29271536E+03</rscale>
<asrwt>0</asrwt>
<pdfrwt beam="2">  1        1 0.95799529E-02 0.29271536E+03</pdfrwt>
<pdfrwt beam="1">  1       -1 0.52922573E-01 0.29271536E+03</pdfrwt>
<totfact> 0.25092431E+03</totfact>
</mgrwt>
</event>
<event>
 6    1  0.8353100E-006  0.1704820E+03  0.7546771E-02  0.1182351E+00
         -1   -1    0    0    0  501 -0.00000000000E+00  0.00000000000E+00  0.29797648976E+02  0.29797648976E+02  0.00000000000E+00 0.  1.
          1   -1    0    0  501    0  0.00000000000E+00 -0.00000000000E+00 -0.10835404498E+04  0.10835404498E+04  0.00000000000E+00 0. -1.
          5    1    1    2  502    0  0.11719550081E+02 -0.33498671206E+02 -0.64808852829E+02  0.74039085838E+02  0.47000000000E+01 0. -1.
         -5    1    1    2    0  502 -0.11066028816E+03 -0.26919205865E+02 -0.73024714864E+03  0.73908952849E+03  0.47000000000E+01 0. -1.
        -11    1    1    2    0    0  0.97605760938E+02  0.83343346434E+02 -0.20565403299E+03  0.24241819084E+03  0.00000000000E+00 0.  1.
         11    1    1    2    0    0  0.13349771373E+01 -0.22925469363E+02 -0.53032766345E+02  0.57791293597E+02  0.00000000000E+00 0. -1.
<mgrwt>
<rscale>  0 0.16575281E+03</rscale>
<asrwt>0</asrwt>
<pdfrwt beam="2">  1        1 0.16669854E+00 0.17048196E+03</pdfrwt>
<pdfrwt beam="1">  1       -1 0.45842535E-02 0.17048196E+03</pdfrwt>
<totfact> 0.27596866E+03</totfact>
</mgrwt>
</event>
<event>
 6    1  0.1035875E-005  0.2371644E+03  0.7546771E-02  0.1124655E+00
          1   -1    0    0  501    0  0.00000000000E+00  0.00000000000E+00  0.34403481585E+03  0.34403481585E+03  0.00000000000E+00 0. -1.
         -1   -1    0    0    0  501 -0.00000000000E+00 -0.00000000000E+00 -0.16803935783E+03  0.16803935783E+03  0.00000000000E+00 0.  1.
          5    1    1    2  502    0 -0.89514870764E+01  0.15072553941E+03  0.46218909811E+02  0.15797656464E+03  0.47000000000E+01 0. -1.
         -5    1    1    2    0  502 -0.96565579191E+01  0.49962497721E+02  0.12351059994E+03  0.13366547268E+03  0.47000000000E+01 0. -1.
        -11    1    1    2    0    0 -0.11380186590E+02 -0.12305572419E+03  0.41067221270E+02  0.13022571391E+03  0.00000000000E+00 0. -1.
         11    1    1    2    0    0  0.29988231585E+02 -0.77632312941E+02 -0.34801273003E+02  0.90206422437E+02  0.00000000000E+00 0.  1.
<mgrwt>
<rscale>  0 0.23284238E+03</rscale>
<asrwt>0</asrwt>
<pdfrwt beam="1">  1        1 0.52928433E-01 0.23716444E+03</pdfrwt>
<pdfrwt beam="2">  1       -1 0.25852209E-01 0.23716444E+03</pdfrwt>
<totfact> 0.96902380E+02</totfact>
</mgrwt>
</event>
<event>
 6    1  0.8353100E-006  0.1306896E+03  0.7546771E-02  0.1242173E+00
         -1   -1    0    0    0  501 -0.00000000000E+00  0.00000000000E+00  0.95508361536E+02  0.95508361536E+02  0.00000000000E+00 0.  1.
          1   -1    0    0  501    0  0.00000000000E+00 -0.00000000000E+00 -0.13831107952E+03  0.13831107952E+03  0.00000000000E+00 0. -1.
          5    1    1    2  502    0  0.12283029184E+02  0.48098972779E+02 -0.23008404989E+02  0.54916852500E+02  0.47000000000E+01 0.  1.
         -5    1    1    2    0  502 -0.45726194188E+02 -0.66077574405E+02 -0.24491854040E+02  0.84137218807E+02  0.47000000000E+01 0.  1.
        -11    1    1    2    0    0  0.40144257701E+02  0.34614191510E+02  0.32134704747E+02  0.61986635087E+02  0.00000000000E+00 0.  1.
         11    1    1    2    0    0 -0.67010926966E+01 -0.16635589884E+02 -0.27437163703E+02  0.32778734664E+02  0.00000000000E+00 0. -1.
<mgrwt>
<rscale>  0 0.12056174E+03</rscale>
<asrwt>0</asrwt>
<pdfrwt beam="2">  1        1 0.21278628E-01 0.13068956E+03</pdfrwt>
<pdfrwt beam="1">  1       -1 0.14693594E-01 0.13068956E+03</pdfrwt>
<totfact> 0.73901465E+03</totfact>
</mgrwt>
</event>
<event>
 6    1  0.8353100E-006  0.1377156E+03  0.7546771E-02  0.1227473E+00
         -4   -1    0    0    0  501 -0.00000000000E+00  0.00000000000E+00  0.41546565016E+03  0.41546565016E+03  0.00000000000E+00 0.  1.
          4   -1    0    0  501    0  0.00000000000E+00 -0.00000000000E+00 -0.39265257245E+02  0.39265257245E+02  0.00000000000E+00 0. -1.
          5    1    1    2  502    0  0.15471861311E+02 -0.86277432250E+02  0.88223928789E+02  0.12445370794E+03  0.47000000000E+01 0. -1.
         -5    1    1    2    0  502 -0.36902293116E+02  0.32607455788E+02  0.62568067431E+02  0.79761384593E+02  0.47000000000E+01 0. -1.
        -11    1    1    2    0    0  0.38598896334E+02  0.97890340137E+01  0.18247577085E+03  0.18677019819E+03  0.00000000000E+00 0.  1.
         11    1    1    2    0    0 -0.17168464529E+02  0.43880942449E+02  0.42932625844E+02  0.63745616683E+02  0.00000000000E+00 0. -1.
<mgrwt>
<rscale>  0 0.12998845E+03</rscale>
<asrwt>0</asrwt>
<pdfrwt beam="2">  1        4 0.60408091E-02 0.13771557E+03</pdfrwt>
<pdfrwt beam="1">  1       -4 0.63917789E-01 0.13771557E+03</pdfrwt>
<totfact> 0.67678305E+02</totfact>
</mgrwt>
</event>
<event>
 6    1  0.8353100E-006  0.1723326E+03  0.7546771E-02  0.1181448E+00
          1   -1    0    0  501    0  0.00000000000E+00  0.00000000000E+00  0.71124410017E+03  0.71124410017E+03  0.00000000000E+00 0. -1.
         -1   -1    0    0    0  501 -0.00000000000E+00 -0.00000000000E+00 -0.45474893058E+02  0.45474893058E+02  0.00000000000E+00 0.  1.
          5    1    1    2  502    0 -0.73863818203E+02 -0.81877520861E+02  0.51092750180E+03  0.52271291753E+03  0.47000000000E+01 0.  1.
         -5    1    1    2    0  502  0.10583337753E+02 -0.18465604766E+02  0.66310013029E+01  0.22782576141E+02  0.47000000000E+01 0.  1.
        -11    1    1    2    0    0  0.77016137988E+02  0.83849076583E+02  0.78520423844E+02  0.13830260343E+03  0.00000000000E+00 0.  1.
         11    1    1    2    0    0 -0.13735657538E+02  0.16494049044E+02  0.69690280166E+02  0.72920896124E+02  0.00000000000E+00 0. -1.
<mgrwt>
<rscale>  0 0.16659295E+03</rscale>
<asrwt>0</asrwt>
<pdfrwt beam="1">  1        1 0.10942216E+00 0.17233261E+03</pdfrwt>
<pdfrwt beam="2">  1       -1 0.69961379E-02 0.17233261E+03</pdfrwt>
<totfact> 0.28732481E+03</totfact>
</mgrwt>
</event>
<event>
 6    1  0.8353100E-006  0.1804121E+03  0.7546771E-02  0.1172922E+00
         -1   -1    0    0    0  501 -0.00000000000E+00  0.00000000000E+00  0.68882068264E+02  0.68882068264E+02  0.00000000000E+00 0.  1.
          1   -1    0    0  501    0  0.00000000000E+00 -0.00000000000E+00 -0.43895033427E+03  0.43895033427E+03  0.00000000000E+00 0. -1.
          5    1    1    2  502    0 -0.94391967001E+01 -0.14998550323E+02 -0.13999965785E+03  0.14119507479E+03  0.47000000000E+01 0.  1.
         -5    1    1    2    0  502  0.93818551675E+02 -0.84050230448E+02 -0.11127302515E+03  0.16813725941E+03  0.47000000000E+01 0.  1.
        -11    1    1    2    0    0 -0.73011033519E+02  0.81067069883E+02 -0.38908668453E+02  0.11582903486E+03  0.00000000000E+00 0.  1.
         11    1    1    2    0    0 -0.11368321456E+02  0.17981710888E+02 -0.79886914549E+02  0.82671033472E+02  0.00000000000E+00 0. -1.
<mgrwt>
<rscale>  0 0.17481055E+03</rscale>
<asrwt>0</asrwt>
<pdfrwt beam="2">  1        1 0.67530823E-01 0.18041212E+03</pdfrwt>
<pdfrwt beam="1">  1       -1 0.10597241E-01 0.18041212E+03</pdfrwt>
<totfact> 0.29393195E+03</totfact>
</mgrwt>
</event>
<event>
 6    1  0.8353100E-006  0.1323005E+03  0.7546771E-02  0.1236855E+00
          1   -1    0    0  501    0  0.00000000000E+00  0.00000000000E+00  0.43754037951E+03  0.43754037951E+03  0.00000000000E+00 0. -1.
         -1   -1    0    0    0  501 -0.00000000000E+00 -0.00000000000E+00 -0.34738277979E+02  0.34738277979E+02  0.00000000000E+00 0.  1.
          5    1    1    2  502    0 -0.38336053150E+02 -0.36864350485E+02  0.14942983660E+03  0.15868207011E+03  0.47000000000E+01 0. -1.
         -5    1    1    2    0  502  0.17631670673E+02  0.74936625310E+02  0.14973557194E+03  0.16843160371E+03  0.47000000000E+01 0. -1.
        -11    1    1    2    0    0  0.32677313515E+02  0.21029292476E+02  0.25557364548E+02  0.46510395002E+02  0.00000000000E+00 0. -1.
         11    1    1    2    0    0 -0.11972931039E+02 -0.59101567301E+02  0.78079328439E+02  0.98654588665E+02  0.00000000000E+00 0.  1.
<mgrwt>
<rscale>  0 0.12386417E+03</rscale>
<asrwt>0</asrwt>
<pdfrwt beam="1">  1        1 0.67313901E-01 0.13230047E+03</pdfrwt>
<pdfrwt beam="2">  1       -1 0.53443508E-02 0.13230047E+03</pdfrwt>
<totfact> 0.81696017E+03</totfact>
</mgrwt>
</event>
<event>
 6    1  0.8353100E-006  0.1310326E+03  0.7546771E-02  0.1240890E+00
          1   -1    0    0  501    0  0.00000000000E+00  0.00000000000E+00  0.46257459605E+03  0.46257459605E+03  0.00000000000E+00 0. -1.
         -1   -1    0    0    0  501 -0.00000000000E+00 -0.00000000000E+00 -0.29240973264E+02  0.29240973264E+02  0.00000000000E+00 0.  1.
          5    1    1    2  502    0 -0.12536432974E+02  0.24827995387E+02  0.40625183494E+01  0.28498869486E+02  0.47000000000E+01 0.  1.
         -5    1    1    2    0  502 -0.25937917582E+02 -0.32852470351E+02  0.29524308306E+03  0.29823250741E+03  0.47000000000E+01 0.  1.
        -11    1    1    2    0    0  0.22803731124E+02  0.37945171375E+02  0.24778880952E+02  0.50733018096E+02  0.00000000000E+00 0.  1.
         11    1    1    2    0    0  0.15670619432E+02 -0.29920696411E+02  0.10924914042E+03  0.11435117432E+03  0.00000000000E+00 0. -1.
<mgrwt>
<rscale>  0 0.12134792E+03</rscale>
<asrwt>0</asrwt>
<pdfrwt beam="1">  1        1 0.71165317E-01 0.13103263E+03</pdfrwt>
<pdfrwt beam="2">  1       -1 0.44986116E-02 0.13103263E+03</pdfrwt>
<totfact> 0.98065575E+03</totfact>
</mgrwt>
</event>
<event>
 6    1  0.8353100E-006  0.3795634E+03  0.7546771E-02  0.1051095E+00
          1   -1    0    0  501    0  0.00000000000E+00  0.00000000000E+00  0.15974626843E+04  0.15974626843E+04  0.00000000000E+00 0. -1.
         -1   -1    0    0    0  501 -0.00000000000E+00 -0.00000000000E+00 -0.22546443089E+02  0.22546443089E+02  0.00000000000E+00 0.  1.
          5    1    1    2  502    0 -0.92471452903E+01  0.18960841905E+02  0.13031622599E+03  0.13209629812E+03  0.47000000000E+01 0.  1.
         -5    1    1    2    0  502  0.11310194266E+03 -0.13355870230E+03  0.65165620046E+03  0.67476504799E+03  0.47000000000E+01 0.  1.
        -11    1    1    2    0    0 -0.10713479340E+03  0.55020569064E+02  0.52293034852E+03  0.53662023478E+03  0.00000000000E+00 0. -1.
         11    1    1    2    0    0  0.32799960242E+01  0.59577291327E+02  0.27001346621E+03  0.27652754646E+03  0.00000000000E+00 0.  1.
<mgrwt>
<rscale>  0 0.37956344E+03</rscale>
<asrwt>0</asrwt>
<pdfrwt beam="1">  1        1 0.24576340E+00 0.37956344E+03</pdfrwt>
<pdfrwt beam="2">  1       -1 0.34686848E-02 0.37956344E+03</pdfrwt>
<totfact> 0.18714267E+03</totfact>
</mgrwt>
</event>
<event>
 6    1  0.8353100E-006  0.2440364E+03  0.7546771E-02  0.1119652E+00
          2   -1    0    0  501    0  0.00000000000E+00  0.00000000000E+00  0.14815813511E+04  0.14815813511E+04  0.00000000000E+00 0.  1.
         -2   -1    0    0    0  501 -0.00000000000E+00 -0.00000000000E+00 -0.44520100530E+02  0.44520100530E+02  0.00000000000E+00 0. -1.
          5    1    1    2  502    0 -0.96217262402E+01 -0.11637586898E+03  0.37558399969E+03  0.39334635033E+03  0.47000000000E+01 0. -1.
         -5    1    1    2    0  502 -0.10176820458E+03 -0.61171867897E+02  0.65913161912E+03  0.66975767723E+03  0.47000000000E+01 0. -1.
        -11    1    1    2    0    0  0.33877487238E+02  0.82423826927E+02  0.86663084561E+02  0.12430551723E+03  0.00000000000E+00 0. -1.
         11    1    1    2    0    0  0.77512443579E+02  0.95123909949E+02  0.31568254717E+03  0.33869190681E+03  0.00000000000E+00 0.  1.
<mgrwt>
<rscale>  0 0.24021214E+03</rscale>
<asrwt>0</asrwt>
<pdfrwt beam="1">  1        2 0.22793555E+00 0.24403639E+03</pdfrwt>
<pdfrwt beam="2">  1       -2 0.68492474E-02 0.24403639E+03</pdfrwt>
<totfact> 0.16853113E+03</totfact>
</mgrwt>
</event>
<event>
 6    1  0.8353100E-006  0.1882717E+03  0.7546771E-02  0.1164844E+00
         -2   -1    0    0    0  501 -0.00000000000E+00  0.00000000000E+00  0.33556246052E+02  0.33556246052E+02  0.00000000000E+00 0.  1.
          2   -1    0    0  501    0  0.00000000000E+00 -0.00000000000E+00 -0.95274973462E+03  0.95274973462E+03  0.00000000000E+00 0. -1.
          5    1    1    2  502    0 -0.11982335465E+03 -0.31591322664E+02 -0.30786588805E+03  0.33190230944E+03  0.47000000000E+01 0. -1.
         -5    1    1    2    0  502 -0.17799009189E+02  0.61317737031E+02 -0.14143634450E+03  0.15525140627E+03  0.47000000000E+01 0. -1.
        -11    1    1    2    0    0  0.11057405156E+03  0.19415300373E+02 -0.31778354525E+03  0.33703109115E+03  0.00000000000E+00 0. -1.
         11    1    1    2    0    0  0.27048312285E+02 -0.49141714740E+02 -0.15210771077E+03  0.16212117382E+03  0.00000000000E+00 0.  1.
<mgrwt>
<rscale>  0 0.18309139E+03</rscale>
<asrwt>0</asrwt>
<pdfrwt beam="2">  1        2 0.14657687E+00 0.18827174E+03</pdfrwt>
<pdfrwt beam="1">  1       -2 0.51624998E-02 0.18827174E+03</pdfrwt>
<totfact> 0.51688922E+03</totfact>
</mgrwt>
</event>
<event>
 6    1  0.8353100E-006  0.1386320E+03  0.7546771E-02  0.1225719E+00
          2   -1    0    0  501    0  0.00000000000E+00  0.00000000000E+00  0.14989823037E+04  0.14989823037E+04  0.00000000000E+00 0. -1.
         -2   -1    0    0    0  501 -0.00000000000E+00 -0.00000000000E+00 -0.12033203217E+02  0.12033203217E+02  0.00000000000E+00 0.  1.
          5    1    1    2  502    0  0.96271874954E+01 -0.55945599170E+02  0.30942015657E+03  0.31461963718E+03  0.47000000000E+01 0. -1.
         -5    1    1    2    0  502 -0.65818840943E+02  0.35288168160E+02  0.78133783002E+03  0.78491290553E+03  0.47000000000E+01 0. -1.
        -11    1    1    2    0    0  0.44375199724E+02  0.53893329460E+02  0.31994326578E+03  0.32747113251E+03  0.00000000000E+00 0. -1.
         11    1    1    2    0    0  0.11816453724E+02 -0.33235898450E+02  0.76247848092E+02  0.84011831685E+02  0.00000000000E+00 0.  1.
<mgrwt>
<rscale>  0 0.13117758E+03</rscale>
<asrwt>0</asrwt>
<pdfrwt beam="1">  1        2 0.23061251E+00 0.13863198E+03</pdfrwt>
<pdfrwt beam="2">  1       -2 0.18512632E-02 0.13863198E+03</pdfrwt>
<totfact> 0.11524532E+04</totfact>
</mgrwt>
</event>
<event>
 6    1  0.8353100E-006  0.2870106E+03  0.7546771E-02  0.1091920E+00
          2   -1    0    0  501    0  0.00000000000E+00  0.00000000000E+00  0.76881734518E+03  0.76881734518E+03  0.00000000000E+00 0. -1.
         -2   -1    0    0    0  501 -0.00000000000E+00 -0.00000000000E+00 -0.26786291269E+02  0.26786291269E+02  0.00000000000E+00 0.  1.
          5    1    1    2  502    0  0.10898487968E+02  0.55162347071E+01  0.34640524560E+03  0.34665240524E+03  0.47000000000E+01 0. -1.
         -5    1    1    2    0  502  0.70243235873E+02 -0.43724253319E+02  0.13192090692E+03  0.15579197090E+03  0.47000000000E+01 0. -1.
        -11    1    1    2    0    0 -0.47035382244E+02  0.37783122269E+02  0.24866924542E+03  0.25588334282E+03  0.00000000000E+00 0. -1.
         11    1    1    2    0    0 -0.34106341597E+02  0.42489634242E+00  0.15035655970E+02  0.37275917487E+02  0.00000000000E+00 0.  1.
<mgrwt>
<rscale>  0 0.28701056E+03</rscale>
<asrwt>0</asrwt>
<pdfrwt beam="1">  1        2 0.11827957E+00 0.28701056E+03</pdfrwt>
<pdfrwt beam="2">  1       -2 0.41209685E-02 0.28701056E+03</pdfrwt>
<totfact> 0.97894309E+03</totfact>
</mgrwt>
</event>
<event>
 6    1  0.8353100E-006  0.1328196E+03  0.7546771E-02  0.1239326E+00
         -1   -1    0    0    0  501 -0.00000000000E+00  0.00000000000E+00  0.33944172671E+02  0.33944172671E+02  0.00000000000E+00 0.  1.
          1   -1    0    0  501    0  0.00000000000E+00 -0.00000000000E+00 -0.57563590478E+03  0.57563590478E+03  0.00000000000E+00 0. -1.
          5    1    1    2  502    0  0.42030208504E+02  0.55838488978E+02 -0.22024341225E+03  0.23111409719E+03  0.47000000000E+01 0. -1.
         -5    1    1    2    0  502  0.25200283130E+01 -0.61416036708E+02 -0.25438179865E+03  0.26174504693E+03  0.47000000000E+01 0. -1.
        -11    1    1    2    0    0 -0.28697759958E+02  0.16311217810E+02  0.12187528506E+02  0.35187399792E+02  0.00000000000E+00 0.  1.
         11    1    1    2    0    0 -0.15852476859E+02 -0.10733670081E+02 -0.79254049710E+02  0.81533533540E+02  0.00000000000E+00 0. -1.
<mgrwt>
<rscale>  0 0.12231531E+03</rscale>
<asrwt>0</asrwt>
<pdfrwt beam="2">  1        1 0.88559376E-01 0.13281960E+03</pdfrwt>
<pdfrwt beam="1">  1       -1 0.52221800E-02 0.13281960E+03</pdfrwt>
<totfact> 0.59104789E+03</totfact>
</mgrwt>
</event>
<event>
 6    1  0.8353100E-006  0.3355097E+03  0.7546771E-02  0.1069911E+00
          2   -1    0    0  501    0  0.00000000000E+00  0.00000000000E+00  0.42836157351E+04  0.42836157351E+04  0.00000000000E+00 0. -1.
         -2   -1    0    0    0  501 -0.00000000000E+00 -0.00000000000E+00 -0.40359150681E+02  0.40359150681E+02  0.00000000000E+00 0.  1.
          5    1    1    2  502    0  0.81479983960E+02 -0.22186513814E+03  0.28773948915E+04  0.28870896382E+04  0.47000000000E+01 0. -1.
         -5    1    1    2    0  502  0.72324112435E+02 -0.48847203324E+02  0.58031930794E+03  0.58686405212E+03  0.47000000000E+01 0. -1.
        -11    1    1    2    0    0 -0.82453338422E+02  0.90580199552E+02  0.21454784200E+03  0.24705080869E+03  0.00000000000E+00 0.  1.
         11    1    1    2    0    0 -0.71350757973E+02  0.18013214191E+03  0.57099454299E+03  0.60297038679E+03  0.00000000000E+00 0. -1.
<mgrwt>
<rscale>  0 0.33278548E+03</rscale>
<asrwt>0</asrwt>
<pdfrwt beam="1">  1        2 0.65901745E+00 0.33550970E+03</pdfrwt>
<pdfrwt beam="2">  1       -2 0.62091035E-02 0.33550970E+03</pdfrwt>
<totfact> 0.36038254E+01</totfact>
</mgrwt>
</event>
<event>
 6    1  0.8353100E-006  0.2217878E+03  0.7546771E-02  0.1134946E+00
          1   -1    0    0  501    0  0.00000000000E+00  0.00000000000E+00  0.39199220701E+03  0.39199220701E+03  0.00000000000E+00 0. -1.
         -1   -1    0    0    0  501 -0.00000000000E+00 -0.00000000000E+00 -0.15611746724E+03  0.15611746724E+03  0.00000000000E+00 0.  1.
          5    1    1    2  502    0 -0.52031885207E+02  0.11874460582E+03  0.21172426036E+03  0.24830797594E+03  0.47000000000E+01 0.  1.
         -5    1    1    2    0  502 -0.77657272471E+02  0.10689034115E+02  0.43334483506E+02  0.89693226492E+02  0.47000000000E+01 0.  1.
        -11    1    1    2    0    0 -0.16264827754E+01 -0.19118170947E+02  0.26413927366E+02  0.32647288792E+02  0.00000000000E+00 0. -1.
         11    1    1    2    0    0  0.13131564045E+03 -0.11031546899E+03 -0.45597931465E+02  0.17746118302E+03  0.00000000000E+00 0.  1.
<mgrwt>
<rscale>  0 0.21857965E+03</rscale>
<asrwt>0</asrwt>
<pdfrwt beam="1">  1        1 0.60306493E-01 0.22178785E+03</pdfrwt>
<pdfrwt beam="2">  1       -1 0.24018072E-01 0.22178785E+03</pdfrwt>
<totfact> 0.92717254E+02</totfact>
</mgrwt>
</event>
<event>
 6    1  0.8353100E-006  0.2519618E+03  0.7546771E-02  0.1112071E+00
         -1   -1    0    0    0  501 -0.00000000000E+00  0.00000000000E+00  0.15597565221E+02  0.15597565221E+02  0.00000000000E+00 0.  1.
          1   -1    0    0  501    0  0.00000000000E+00 -0.00000000000E+00 -0.10175430081E+04  0.10175430081E+04  0.00000000000E+00 0. -1.
          5    1    1    2  502    0  0.10715727299E+02 -0.75018921348E+02 -0.44705516947E+03  0.45345681153E+03  0.47000000000E+01 0.  1.
         -5    1    1    2    0  502  0.67422323179E+01  0.19076478228E+02 -0.83031396848E+01  0.22369663539E+02  0.47000000000E+01 0.  1.
        -11    1    1    2    0    0  0.26022881311E+02  0.58993387295E+02 -0.29327990374E+03  0.30028405224E+03  0.00000000000E+00 0.  1.
         11    1    1    2    0    0 -0.43480840928E+02 -0.30509441748E+01 -0.25330723002E+03  0.25703004604E+03  0.00000000000E+00 0. -1.
<mgrwt>
<rscale>  0 0.25196185E+03</rscale>
<asrwt>0</asrwt>
<pdfrwt beam="2">  1        1 0.15654508E+00 0.25196185E+03</pdfrwt>
<pdfrwt beam="1">  1       -1 0.23996255E-02 0.25196185E+03</pdfrwt>
<totfact> 0.81060398E+03</totfact>
</mgrwt>
</event>
<event>
 6    1  0.9884716E-006  0.1481433E+03  0.7546771E-02  0.1212243E+00
          3   -1    0    0  501    0  0.00000000000E+00  0.00000000000E+00  0.31758812416E+03  0.31758812416E+03  0.00000000000E+00 0. -1.
         -3   -1    0    0    0  501 -0.00000000000E+00 -0.00000000000E+00 -0.57074753174E+02  0.57074753174E+02  0.00000000000E+00 0.  1.
          5    1    1    2  502    0  0.29384842915E+01  0.36962906756E+02  0.13327790712E+01  0.37399966120E+02  0.47000000000E+01 0. -1.
         -5    1    1    2    0  502 -0.82377295266E+02 -0.33621510592E+02  0.14936210939E+03  0.17391824076E+03  0.47000000000E+01 0. -1.
        -11    1    1    2    0    0  0.18075668585E+02  0.10816020544E+02 -0.13400337260E+02  0.24965679119E+02  0.00000000000E+00 0.  1.
         11    1    1    2    0    0  0.61363142390E+02 -0.14157416707E+02  0.12321881978E+03  0.13837899133E+03  0.00000000000E+00 0. -1.
<mgrwt>
<rscale>  0 0.14081050E+03</rscale>
<asrwt>0</asrwt>
<pdfrwt beam="1">  1        3 0.48859710E-01 0.14814329E+03</pdfrwt>
<pdfrwt beam="2">  1       -3 0.87807314E-02 0.14814329E+03</pdfrwt>
<totfact> 0.89655647E+02</totfact>
</mgrwt>
</event>
<event>
 6    1  0.8353100E-006  0.1276367E+03  0.7546771E-02  0.1243640E+00
         -2   -1    0    0    0  501 -0.00000000000E+00  0.00000000000E+00  0.66923664875E+02  0.66923664875E+02  0.00000000000E+00 0. -1.
          2   -1    0    0  501    0  0.00000000000E+00 -0.00000000000E+00 -0.26095635441E+03  0.26095635441E+03  0.00000000000E+00 0.  1.
          5    1    1    2  502    0  0.39890904673E+02  0.56569703671E+02 -0.88224580613E+02  0.11223672426E+03  0.47000000000E+01 0.  1.
         -5    1    1    2    0  502 -0.47060230587E+02 -0.31778107718E+02 -0.10211708547E+03  0.11693802879E+03  0.47000000000E+01 0.  1.
        -11    1    1    2    0    0 -0.31980516663E+02 -0.17685455899E+02 -0.33037115902E+02  0.49264386970E+02  0.00000000000E+00 0.  1.
         11    1    1    2    0    0  0.39149842577E+02 -0.71061400538E+01  0.29346092447E+02  0.49440879262E+02  0.00000000000E+00 0. -1.
<mgrwt>
<rscale>  0 0.11967149E+03</rscale>
<asrwt>0</asrwt>
<pdfrwt beam="2">  1        2 0.40147131E-01 0.12763666E+03</pdfrwt>
<pdfrwt beam="1">  1       -2 0.10295949E-01 0.12763666E+03</pdfrwt>
<totfact> 0.76222093E+03</totfact>
</mgrwt>
</event>
<event>
 6    1  0.8353100E-006  0.1302858E+03  0.7546771E-02  0.1240841E+00
          2   -1    0    0  501    0  0.00000000000E+00  0.00000000000E+00  0.67130268946E+03  0.67130268946E+03  0.00000000000E+00 0.  1.
         -2   -1    0    0    0  501 -0.00000000000E+00 -0.00000000000E+00 -0.19440974278E+02  0.19440974278E+02  0.00000000000E+00 0. -1.
          5    1    1    2  502    0  0.51451983606E+02  0.23635843106E+02  0.10359923248E+03  0.11815604372E+03  0.47000000000E+01 0.  1.
         -5    1    1    2    0  502 -0.64124447244E+02  0.10837959230E+02  0.26102869710E+03  0.26904920889E+03  0.47000000000E+01 0.  1.
        -11    1    1    2    0    0 -0.25514048206E+02 -0.55450098404E+01  0.22385632754E+02  0.34392300647E+02  0.00000000000E+00 0. -1.
         11    1    1    2    0    0  0.38186511844E+02 -0.28928792495E+02  0.26484815285E+03  0.26914611048E+03  0.00000000000E+00 0.  1.
<mgrwt>
<rscale>  0 0.12137775E+03</rscale>
<asrwt>0</asrwt>
<pdfrwt beam="1">  1        2 0.10327732E+00 0.13028577E+03</pdfrwt>
<pdfrwt beam="2">  1       -2 0.29909196E-02 0.13028577E+03</pdfrwt>
<totfact> 0.17732803E+04</totfact>
</mgrwt>
</event>
<event>
 6    1  0.8353100E-006  0.1726539E+03  0.7546771E-02  0.1181019E+00
          1   -1    0    0  501    0  0.00000000000E+00  0.00000000000E+00  0.24406001937E+03  0.24406001937E+03  0.00000000000E+00 0. -1.
         -1   -1    0    0    0  501 -0.00000000000E+00 -0.00000000000E+00 -0.12689960927E+03  0.12689960927E+03  0.00000000000E+00 0.  1.
          5    1    1    2  502    0 -0.28035183532E+02 -0.27665272348E+02  0.13100098120E+03  0.13687470871E+03  0.47000000000E+01 0.  1.
         -5    1    1    2    0  502 -0.75831230460E+02 -0.30618689952E+02  0.35060447980E+01  0.81989401984E+02  0.47000000000E+01 0.  1.
        -11    1    1    2    0    0  0.26465610876E+02  0.27829548201E+02 -0.49733682526E+02  0.62835909237E+02  0.00000000000E+00 0.  1.
         11    1    1    2    0    0  0.77400803117E+02  0.30454414098E+02  0.32387066626E+02  0.89259608703E+02  0.00000000000E+00 0. -1.
<mgrwt>
<rscale>  0 0.16699389E+03</rscale>
<asrwt>0</asrwt>
<pdfrwt beam="1">  1        1 0.37547695E-01 0.17265387E+03</pdfrwt>
<pdfrwt beam="2">  1       -1 0.19523017E-01 0.17265387E+03</pdfrwt>
<totfact> 0.23465547E+03</totfact>
</mgrwt>
</event>
<event>
 6    1  0.8353100E-006  0.1514282E+03  0.7546771E-02  0.1207939E+00
         -1   -1    0    0    0  501 -0.00000000000E+00  0.00000000000E+00  0.54101542144E+02  0.54101542144E+02  0.00000000000E+00 0. -1.
          1   -1    0    0  501    0  0.00000000000E+00 -0.00000000000E+00 -0.42161405374E+03  0.42161405374E+03  0.00000000000E+00 0.  1.
          5    1    1    2  502    0 -0.63381712151E+02 -0.45507972866E+02 -0.11020474715E+03  0.13511252098E+03  0.47000000000E+01 0. -1.
         -5    1    1    2    0  502  0.53505649181E+02 -0.39394053829E+02 -0.18576092003E+03  0.19734222909E+03  0.47000000000E+01 0. -1.
        -11    1    1    2    0    0 -0.67591919143E+01 -0.17503730106E+02 -0.19961426035E+02  0.27395725439E+02  0.00000000000E+00 0.  1.
         11    1    1    2    0    0  0.16635254884E+02  0.10240575680E+03 -0.51585418374E+02  0.11586512038E+03  0.00000000000E+00 0. -1.
<mgrwt>
<rscale>  0 0.14408265E+03</rscale>
<asrwt>0</asrwt>
<pdfrwt beam="2">  1        1 0.64863701E-01 0.15142815E+03</pdfrwt>
<pdfrwt beam="1">  1       -1 0.83233141E-02 0.15142815E+03</pdfrwt>
<totfact> 0.44447208E+03</totfact>
</mgrwt>
</event>
<event>
 6    1  0.8353100E-006  0.1302767E+03  0.7546771E-02  0.1240789E+00
         -2   -1    0    0    0  501 -0.00000000000E+00  0.00000000000E+00  0.11922970360E+02  0.11922970360E+02  0.00000000000E+00 0.  1.
          2   -1    0    0  501    0  0.00000000000E+00 -0.00000000000E+00 -0.13928560239E+04  0.13928560239E+04  0.00000000000E+00 0. -1.
          5    1    1    2  502    0  0.13371192498E+02  0.17626913975E+02 -0.37661740879E+02  0.43931692560E+02  0.47000000000E+01 0.  1.
         -5    1    1    2    0  502 -0.13186447529E+02 -0.54344190641E+02 -0.10510147469E+04  0.10525118820E+04  0.47000000000E+01 0.  1.
        -11    1    1    2    0    0  0.11788781223E+02  0.64801935798E+02 -0.22562431933E+03  0.23504169783E+03  0.00000000000E+00 0. -1.
         11    1    1    2    0    0 -0.11973526192E+02 -0.28084659133E+02 -0.66632246453E+02  0.73293721937E+02  0.00000000000E+00 0.  1.
<mgrwt>
<rscale>  0 0.12140998E+03</rscale>
<asrwt>0</asrwt>
<pdfrwt beam="2">  1        2 0.21428562E+00 0.13027669E+03</pdfrwt>
<pdfrwt beam="1">  1       -2 0.18343025E-02 0.13027669E+03</pdfrwt>
<totfact> 0.13235549E+04</totfact>
</mgrwt>
</event>
<event>
 6    1  0.8353100E-006  0.2690118E+03  0.7546771E-02  0.1101847E+00
         -4   -1    0    0    0  501 -0.00000000000E+00  0.00000000000E+00  0.14713467477E+03  0.14713467477E+03  0.00000000000E+00 0. -1.
          4   -1    0    0  501    0  0.00000000000E+00 -0.00000000000E+00 -0.12296108185E+03  0.12296108185E+03  0.00000000000E+00 0.  1.
          5    1    1    2  502    0  0.70639661331E+02 -0.22453063232E+02 -0.72369930722E+02  0.10369955966E+03  0.47000000000E+01 0. -1.
         -5    1    1    2    0  502 -0.24055559413E+02  0.19662188097E+02  0.22634563299E+02  0.38725767070E+02  0.47000000000E+01 0. -1.
        -11    1    1    2    0    0 -0.21334963494E+02  0.14368498685E+02  0.91329548739E+02  0.94882669095E+02  0.00000000000E+00 0. -1.
         11    1    1    2    0    0 -0.25249138423E+02 -0.11577623551E+02 -0.17420588394E+02  0.32787760799E+02  0.00000000000E+00 0.  1.
<mgrwt>
<rscale>  0 0.26901181E+03</rscale>
<asrwt>0</asrwt>
<pdfrwt beam="2">  1        4 0.18917090E-01 0.26901181E+03</pdfrwt>
<pdfrwt beam="1">  1       -4 0.22636104E-01 0.26901181E+03</pdfrwt>
<totfact> 0.83974739E+02</totfact>
</mgrwt>
</event>
<event>
 6    1  0.8353100E-006  0.1294778E+03  0.7546771E-02  0.1242047E+00
          1   -1    0    0  501    0  0.00000000000E+00  0.00000000000E+00  0.24779930703E+03  0.24779930703E+03  0.00000000000E+00 0. -1.
         -1   -1    0    0    0  501 -0.00000000000E+00 -0.00000000000E+00 -0.53266470999E+02  0.53266470999E+02  0.00000000000E+00 0.  1.
          5    1    1    2  502    0 -0.10456577887E+02 -0.43639330764E+02  0.18092631052E+02  0.48612390488E+02  0.47000000000E+01 0. -1.
         -5    1    1    2    0  502 -0.37164777927E+01  0.74260345352E+02  0.11538229251E+03  0.13734472878E+03  0.47000000000E+01 0. -1.
        -11    1    1    2    0    0  0.23061076677E+02  0.11457879181E+02 -0.13470756685E+02  0.29061272142E+02  0.00000000000E+00 0.  1.
         11    1    1    2    0    0 -0.88880209979E+01 -0.42078893769E+02  0.74528669151E+02  0.86047386616E+02  0.00000000000E+00 0. -1.
<mgrwt>
<rscale>  0 0.12063882E+03</rscale>
<asrwt>0</asrwt>
<pdfrwt beam="1">  1        1 0.38122970E-01 0.12947778E+03</pdfrwt>
<pdfrwt beam="2">  1       -1 0.81948418E-02 0.12947778E+03</pdfrwt>
<totfact> 0.87405892E+03</totfact>
</mgrwt>
</event>
<event>
 6    1  0.8353100E-006  0.1735756E+03  0.7546771E-02  0.1181785E+00
          1   -1    0    0  501    0  0.00000000000E+00  0.00000000000E+00  0.30104434283E+03  0.30104434283E+03  0.00000000000E+00 0. -1.
         -1   -1    0    0    0  501 -0.00000000000E+00 -0.00000000000E+00 -0.98697534758E+02  0.98697534758E+02  0.00000000000E+00 0.  1.
          5    1    1    2  502    0 -0.11508655322E+03  0.84858634955E+02  0.17838012829E+03  0.22866452027E+03  0.47000000000E+01 0.  1.
         -5    1    1    2    0  502  0.16966282479E+02 -0.15047930956E+02  0.47254382221E+01  0.23637147323E+02  0.47000000000E+01 0.  1.
        -11    1    1    2    0    0  0.70692058343E+02 -0.58280486875E+02 -0.24223885839E+02  0.94766971611E+02  0.00000000000E+00 0.  1.
         11    1    1    2    0    0  0.27428212401E+02 -0.11530217124E+02  0.43465127396E+02  0.52673238386E+02  0.00000000000E+00 0. -1.
<mgrwt>
<rscale>  0 0.16627921E+03</rscale>
<asrwt>0</asrwt>
<pdfrwt beam="1">  1        1 0.46314514E-01 0.17357558E+03</pdfrwt>
<pdfrwt beam="2">  1       -1 0.15184236E-01 0.17357558E+03</pdfrwt>
<totfact> 0.26978011E+03</totfact>
</mgrwt>
</event>
<event>
 6    1  0.8353100E-006  0.1254427E+03  0.7546771E-02  0.1258679E+00
         -4   -1    0    0    0  501 -0.00000000000E+00  0.00000000000E+00  0.25455321674E+03  0.25455321674E+03  0.00000000000E+00 0.  1.
          4   -1    0    0  501    0  0.00000000000E+00 -0.00000000000E+00 -0.40379322152E+02  0.40379322152E+02  0.00000000000E+00 0. -1.
          5    1    1    2  502    0 -0.20582920795E+02  0.15730818581E+02  0.13659037789E+03  0.13910476848E+03  0.47000000000E+01 0. -1.
         -5    1    1    2    0  502  0.23819597354E+02 -0.25782498052E+02 -0.12295310512E+02  0.37488332645E+02  0.47000000000E+01 0. -1.
        -11    1    1    2    0    0  0.10948640280E+02 -0.22523206026E+02  0.39473080631E+01  0.25352490501E+02  0.00000000000E+00 0. -1.
         11    1    1    2    0    0 -0.14185316839E+02  0.32574885497E+02  0.85931519151E+02  0.92986947270E+02  0.00000000000E+00 0.  1.
<mgrwt>
<rscale>  0 0.11102718E+03</rscale>
<asrwt>0</asrwt>
<pdfrwt beam="2">  1        4 0.62122035E-02 0.12544265E+03</pdfrwt>
<pdfrwt beam="1">  1       -4 0.39162032E-01 0.12544265E+03</pdfrwt>
<totfact> 0.17198953E+03</totfact>
</mgrwt>
</event>
<event>
 6    1  0.8353100E-006  0.2212600E+03  0.7546771E-02  0.1136406E+00
          1   -1    0    0  501    0  0.00000000000E+00  0.00000000000E+00  0.32732041839E+03  0.32732041839E+03  0.00000000000E+00 0. -1.
         -1   -1    0    0    0  501 -0.00000000000E+00 -0.00000000000E+00 -0.14563051947E+03  0.14563051947E+03  0.00000000000E+00 0.  1.
          5    1    1    2  502    0 -0.83283567396E+02  0.16343100443E+03  0.15823387469E+03  0.24229299393E+03  0.47000000000E+01 0.  1.
         -5    1    1    2    0  502  0.21121281341E+02  0.82288544338E+01 -0.87303060904E+01  0.24741277558E+02  0.47000000000E+01 0.  1.
        -11    1    1    2    0    0 -0.11688909382E+02 -0.13134731223E+02  0.25412347145E+02  0.30902089804E+02  0.00000000000E+00 0. -1.
         11    1    1    2    0    0  0.73851195436E+02 -0.15852512764E+03  0.67739831784E+01  0.17501457656E+03  0.00000000000E+00 0.  1.
<mgrwt>
<rscale>  0 0.21664927E+03</rscale>
<asrwt>0</asrwt>
<pdfrwt beam="1">  1        1 0.50356988E-01 0.22125999E+03</pdfrwt>
<pdfrwt beam="2">  1       -1 0.22404695E-01 0.22125999E+03</pdfrwt>
<totfact> 0.13071685E+03</totfact>
</mgrwt>
</event>
<event>
 6    1  0.8353100E-006  0.2188398E+03  0.7546771E-02  0.1138202E+00
          1   -1    0    0  501    0  0.00000000000E+00  0.00000000000E+00  0.39690360346E+03  0.39690360346E+03  0.00000000000E+00 0. -1.
         -1   -1    0    0    0  501 -0.00000000000E+00 -0.00000000000E+00 -0.14246058715E+03  0.14246058715E+03  0.00000000000E+00 0.  1.
          5    1    1    2  502    0  0.95219275609E+02 -0.27945512786E+02  0.16897112309E+03  0.19601273574E+03  0.47000000000E+01 0. -1.
         -5    1    1    2    0  502  0.76665980004E+02  0.80071621743E+02  0.88730549774E+02  0.14207159309E+03  0.47000000000E+01 0. -1.
        -11    1    1    2    0    0 -0.24601386223E+02  0.60601439484E+01 -0.31494933014E+02  0.40421335385E+02  0.00000000000E+00 0.  1.
         11    1    1    2    0    0 -0.14728386939E+03 -0.58186252906E+02  0.28236276457E+02  0.16085852641E+03  0.00000000000E+00 0. -1.
<mgrwt>
<rscale>  0 0.21430416E+03</rscale>
<asrwt>0</asrwt>
<pdfrwt beam="1">  1        1 0.61062092E-01 0.21883981E+03</pdfrwt>
<pdfrwt beam="2">  1       -1 0.21917014E-01 0.21883981E+03</pdfrwt>
<totfact> 0.10609040E+03</totfact>
</mgrwt>
</event>
<event>
 6    1  0.8353100E-006  0.1320779E+03  0.7546771E-02  0.1236458E+00
          1   -1    0    0  501    0  0.00000000000E+00  0.00000000000E+00  0.95424177440E+03  0.95424177440E+03  0.00000000000E+00 0. -1.
         -1   -1    0    0    0  501 -0.00000000000E+00 -0.00000000000E+00 -0.14585764312E+02  0.14585764312E+02  0.00000000000E+00 0.  1.
          5    1    1    2  502    0  0.32341275623E+02  0.27204510742E+00  0.47403328912E+03  0.47515858543E+03  0.47000000000E+01 0. -1.
         -5    1    1    2    0  502  0.17380137603E+01  0.25374940486E+02  0.12022400030E+02  0.28522559475E+02  0.47000000000E+01 0. -1.
        -11    1    1    2    0    0 -0.40407255883E+02  0.26485232609E+02  0.17033503399E+03  0.17705433539E+03  0.00000000000E+00 0. -1.
         11    1    1    2    0    0  0.63279665004E+01 -0.52132218203E+02  0.28326528695E+03  0.28809205842E+03  0.00000000000E+00 0.  1.
<mgrwt>
<rscale>  0 0.12411558E+03</rscale>
<asrwt>0</asrwt>
<pdfrwt beam="1">  1        1 0.14680638E+00 0.13207787E+03</pdfrwt>
<pdfrwt beam="2">  1       -1 0.22439645E-02 0.13207787E+03</pdfrwt>
<totfact> 0.96575365E+03</totfact>
</mgrwt>
</event>
<event>
 6    1  0.8353100E-006  0.1291712E+03  0.7546771E-02  0.1242101E+00
          2   -1    0    0  501    0  0.00000000000E+00  0.00000000000E+00  0.11343988051E+02  0.11343988051E+02  0.00000000000E+00 0. -1.
         -2   -1    0    0    0  501 -0.00000000000E+00 -0.00000000000E+00 -0.11503390480E+04  0.11503390480E+04  0.00000000000E+00 0.  1.
          5    1    1    2  502    0 -0.90530605121E+01 -0.38417931392E+02 -0.95474732213E+02  0.10341861461E+03  0.47000000000E+01 0.  1.
         -5    1    1    2    0  502  0.34700282725E+02  0.58559845636E+02 -0.60804095154E+03  0.61185721692E+03  0.47000000000E+01 0.  1.
        -11    1    1    2    0    0  0.29410955514E+02  0.14391945050E+02 -0.16630774774E+03  0.16950044054E+03  0.00000000000E+00 0. -1.
         11    1    1    2    0    0 -0.55058177727E+02 -0.34533859294E+02 -0.26917162850E+03  0.27690676402E+03  0.00000000000E+00 0.  1.
<mgrwt>
<rscale>  0 0.12060563E+03</rscale>
<asrwt>0</asrwt>
<pdfrwt beam="1">  1        2 0.17452292E-02 0.12917120E+03</pdfrwt>
<pdfrwt beam="2">  1       -2 0.17697521E+00 0.12917120E+03</pdfrwt>
<totfact> 0.12959895E+03</totfact>
</mgrwt>
</event>
<event>
 6    1  0.8353100E-006  0.1386922E+03  0.7546771E-02  0.1227099E+00
          1   -1    0    0  501    0  0.00000000000E+00  0.00000000000E+00  0.26520764735E+03  0.26520764735E+03  0.00000000000E+00 0. -1.
         -1   -1    0    0    0  501 -0.00000000000E+00 -0.00000000000E+00 -0.63159563088E+02  0.63159563088E+02  0.00000000000E+00 0.  1.
          5    1    1    2  502    0 -0.23222521279E+02  0.59814396798E+02  0.69388010653E+02  0.94624698579E+02  0.47000000000E+01 0. -1.
         -5    1    1    2    0  502  0.70435031206E+02 -0.22655530684E+02  0.92758949379E+02  0.11874628155E+03  0.47000000000E+01 0. -1.
        -11    1    1    2    0    0 -0.35013536122E+02 -0.21792781942E+02  0.68712417562E+02  0.80139062783E+02  0.00000000000E+00 0. -1.
         11    1    1    2    0    0 -0.12198973805E+02 -0.15366084172E+02 -0.28811293331E+02  0.34857167528E+02  0.00000000000E+00 0.  1.
<mgrwt>
<rscale>  0 0.13024051E+03</rscale>
<asrwt>0</asrwt>
<pdfrwt beam="1">  1        1 0.40801176E-01 0.13869224E+03</pdfrwt>
<pdfrwt beam="2">  1       -1 0.97168560E-02 0.13869224E+03</pdfrwt>
<totfact> 0.62369439E+03</totfact>
</mgrwt>
</event>
<event>
 6    1  0.8353100E-006  0.1376180E+03  0.7546771E-02  0.1229258E+00
          4   -1    0    0  501    0  0.00000000000E+00  0.00000000000E+00  0.45776767179E+02  0.45776767179E+02  0.00000000000E+00 0. -1.
         -4   -1    0    0    0  501 -0.00000000000E+00 -0.00000000000E+00 -0.32343346559E+03  0.32343346559E+03  0.00000000000E+00 0.  1.
          5    1    1    2  502    0 -0.23379413806E+02 -0.31226162030E+02  0.71204658961E+01  0.39930705223E+02  0.47000000000E+01 0.  1.
         -5    1    1    2    0  502  0.38057586121E+02 -0.24460147479E+02 -0.15740196829E+03  0.16384183928E+03  0.47000000000E+01 0.  1.
        -11    1    1    2    0    0 -0.19470603166E+02 -0.29883000091E+00 -0.10189758778E+03  0.10374156391E+03  0.00000000000E+00 0.  1.
         11    1    1    2    0    0  0.47924308503E+01  0.55985139510E+02 -0.25477608236E+02  0.61696124358E+02  0.00000000000E+00 0. -1.
<mgrwt>
<rscale>  0 0.12879304E+03</rscale>
<asrwt>0</asrwt>
<pdfrwt beam="1">  1        4 0.70425794E-02 0.13761802E+03</pdfrwt>
<pdfrwt beam="2">  1       -4 0.49758996E-01 0.13761802E+03</pdfrwt>
<totfact> 0.88624420E+02</totfact>
</mgrwt>
</event>
<event>
 6    1  0.8353100E-006  0.1383303E+03  0.7546771E-02  0.1226933E+00
          2   -1    0    0  501    0  0.00000000000E+00  0.00000000000E+00  0.75995450513E+03  0.75995450513E+03  0.00000000000E+00 0. -1.
         -2   -1    0    0    0  501 -0.00000000000E+00 -0.00000000000E+00 -0.20161806641E+02  0.20161806641E+02  0.00000000000E+00 0.  1.
          5    1    1    2  502    0  0.16495906747E+02  0.33171313771E+02  0.27788103105E+03  0.28037904418E+03  0.47000000000E+01 0.  1.
         -5    1    1    2    0  502  0.26855852361E+02 -0.73551987338E+02  0.14947807694E+03  0.16881029925E+03  0.47000000000E+01 0.  1.
        -11    1    1    2    0    0 -0.38846962139E+01 -0.12538012952E+02  0.16734174435E+01  0.13232269624E+02  0.00000000000E+00 0.  1.
         11    1    1    2    0    0 -0.39467062895E+02  0.52918686518E+02  0.31076017306E+03  0.31769469872E+03  0.00000000000E+00 0. -1.
<mgrwt>
<rscale>  0 0.13035321E+03</rscale>
<asrwt>0</asrwt>
<pdfrwt beam="1">  1        2 0.11691606E+00 0.13833025E+03</pdfrwt>
<pdfrwt beam="2">  1       -2 0.31018170E-02 0.13833025E+03</pdfrwt>
<totfact> 0.14558704E+04</totfact>
</mgrwt>
</event>
<event>
 6    1  0.8353100E-006  0.2838812E+03  0.7546771E-02  0.1093588E+00
          1   -1    0    0  501    0  0.00000000000E+00  0.00000000000E+00  0.62372476866E+02  0.62372476866E+02  0.00000000000E+00 0. -1.
         -1   -1    0    0    0  501 -0.00000000000E+00 -0.00000000000E+00 -0.32301311294E+03  0.32301311294E+03  0.00000000000E+00 0.  1.
          5    1    1    2  502    0  0.86496432260E+01 -0.17918037536E+02 -0.72673115398E+02  0.75494000416E+02  0.47000000000E+01 0. -1.
         -5    1    1    2    0  502 -0.81807709641E+02  0.69039670937E+02 -0.37586486224E+02  0.11355092015E+03  0.47000000000E+01 0. -1.
        -11    1    1    2    0    0  0.27484318953E+02  0.89255837580E+01 -0.91299619272E+00  0.28911717275E+02  0.00000000000E+00 0. -1.
         11    1    1    2    0    0  0.45673747461E+02 -0.60047217159E+02 -0.14946803826E+03  0.16742895196E+03  0.00000000000E+00 0.  1.
<mgrwt>
<rscale>  0 0.28388116E+03</rscale>
<asrwt>0</asrwt>
<pdfrwt beam="1">  1        1 0.95957656E-02 0.28388116E+03</pdfrwt>
<pdfrwt beam="2">  1       -1 0.49694326E-01 0.28388116E+03</pdfrwt>
<totfact> 0.28129228E+03</totfact>
</mgrwt>
</event>
<event>
 6    1  0.8353100E-006  0.1313355E+03  0.7546771E-02  0.1238990E+00
          1   -1    0    0  501    0  0.00000000000E+00  0.00000000000E+00  0.97508312215E+03  0.97508312215E+03  0.00000000000E+00 0. -1.
         -1   -1    0    0    0  501 -0.00000000000E+00 -0.00000000000E+00 -0.27140238214E+02  0.27140238214E+02  0.00000000000E+00 0.  1.
          5    1    1    2  502    0 -0.44168385822E+02 -0.59359736161E+02  0.52170756053E+03  0.52694904241E+03  0.47000000000E+01 0. -1.
         -5    1    1    2    0  502  0.39748321575E+01  0.56405165395E+02  0.33665850759E+03  0.34140647725E+03  0.47000000000E+01 0. -1.
        -11    1    1    2    0    0 -0.14713164486E+01 -0.25931124851E+02  0.77519991046E+02  0.81755348571E+02  0.00000000000E+00 0.  1.
         11    1    1    2    0    0  0.41664870114E+02  0.28885695616E+02  0.12056824768E+02  0.52112492133E+02  0.00000000000E+00 0. -1.
<mgrwt>
<rscale>  0 0.12252429E+03</rscale>
<asrwt>0</asrwt>
<pdfrwt beam="1">  1        1 0.15001276E+00 0.13133545E+03</pdfrwt>
<pdfrwt beam="2">  1       -1 0.41754220E-02 0.13133545E+03</pdfrwt>
<totfact> 0.37719886E+03</totfact>
</mgrwt>
</event>
<event>
 6    1  0.8353100E-006  0.1331520E+03  0.7546771E-02  0.1234623E+00
         -3   -1    0    0    0  501 -0.00000000000E+00  0.00000000000E+00  0.63780658854E+02  0.63780658854E+02  0.00000000000E+00 0.  1.
          3   -1    0    0  501    0  0.00000000000E+00 -0.00000000000E+00 -0.25644257793E+03  0.25644257793E+03  0.00000000000E+00 0. -1.
          5    1    1    2  502    0 -0.67458237400E+02 -0.13202664613E+02 -0.11301042093E+03  0.13235697709E+03  0.47000000000E+01 0. -1.
         -5    1    1    2    0  502  0.43461113785E+02 -0.41733267433E+02 -0.52421553229E+02  0.80004020305E+02  0.47000000000E+01 0.  1.
        -11    1    1    2    0    0  0.29162724746E+01  0.57835669555E+02  0.15655207226E+02  0.59987955719E+02  0.00000000000E+00 0.  1.
         11    1    1    2    0    0  0.21080851140E+02 -0.28997375102E+01 -0.42885152144E+02  0.47874283670E+02  0.00000000000E+00 0. -1.
<mgrwt>
<rscale>  0 0.12528618E+03</rscale>
<asrwt>0</asrwt>
<pdfrwt beam="2">  1        3 0.39452705E-01 0.13315200E+03</pdfrwt>
<pdfrwt beam="1">  1       -3 0.98124090E-02 0.13315200E+03</pdfrwt>
<totfact> 0.11159619E+03</totfact>
</mgrwt>
</event>
<event>
 6    1  0.8353100E-006  0.1471460E+03  0.7546771E-02  0.1211942E+00
          1   -1    0    0  501    0  0.00000000000E+00  0.00000000000E+00  0.11599375665E+04  0.11599375665E+04  0.00000000000E+00 0. -1.
         -1   -1    0    0    0  501 -0.00000000000E+00 -0.00000000000E+00 -0.16837400262E+02  0.16837400262E+02  0.00000000000E+00 0.  1.
          5    1    1    2  502    0  0.43237897936E+02  0.19495845223E+02  0.58694563121E+03  0.58887763398E+03  0.47000000000E+01 0.  1.
         -5    1    1    2    0  502 -0.31932660252E+02  0.57315456269E+02  0.17091951672E+03  0.18314018542E+03  0.47000000000E+01 0.  1.
        -11    1    1    2    0    0  0.33514550431E+02  0.15987209812E+01  0.11767895390E+03  0.12236877539E+03  0.00000000000E+00 0.  1.
         11    1    1    2    0    0 -0.44819788115E+02 -0.78410022473E+02  0.26755606445E+03  0.28238837202E+03  0.00000000000E+00 0. -1.
<mgrwt>
<rscale>  0 0.14103600E+03</rscale>
<asrwt>0</asrwt>
<pdfrwt beam="1">  1        1 0.17845187E+00 0.14714595E+03</pdfrwt>
<pdfrwt beam="2">  1       -1 0.25903702E-02 0.14714595E+03</pdfrwt>
<totfact> 0.56127847E+03</totfact>
</mgrwt>
</event>
<event>
 6    1  0.8353100E-006  0.2517612E+03  0.7546771E-02  0.1116343E+00
         -1   -1    0    0    0  501 -0.00000000000E+00  0.00000000000E+00  0.84883313977E+02  0.84883313977E+02  0.00000000000E+00 0.  1.
          1   -1    0    0  501    0  0.00000000000E+00 -0.00000000000E+00 -0.78108350389E+03  0.78108350389E+03  0.00000000000E+00 0. -1.
          5    1    1    2  502    0 -0.25122277015E+02 -0.41284380453E+02 -0.25549233200E+03  0.26006528138E+03  0.47000000000E+01 0. -1.
         -5    1    1    2    0  502  0.72911891519E+02 -0.16054297268E+03 -0.26825347621E+03  0.32104860614E+03  0.47000000000E+01 0.  1.
        -11    1    1    2    0    0 -0.54015509040E+02  0.49638636167E+02 -0.69117134513E+02  0.10079110923E+03  0.00000000000E+00 0.  1.
         11    1    1    2    0    0  0.62258945362E+01  0.15218871697E+03 -0.10333724719E+03  0.18406182111E+03  0.00000000000E+00 0. -1.
<mgrwt>
<rscale>  0 0.24525205E+03</rscale>
<asrwt>0</asrwt>
<pdfrwt beam="2">  1        1 0.12016669E+00 0.25176115E+03</pdfrwt>
<pdfrwt beam="1">  1       -1 0.13058971E-01 0.25176115E+03</pdfrwt>
<totfact> 0.96046564E+02</totfact>
</mgrwt>
</event>
<event>
 6    1  0.8353100E-006  0.3105399E+03  0.7546771E-02  0.1081929E+00
          1   -1    0    0  501    0  0.00000000000E+00  0.00000000000E+00  0.12486415866E+04  0.12486415866E+04  0.00000000000E+00 0. -1.
         -1   -1    0    0    0  501 -0.00000000000E+00 -0.00000000000E+00 -0.74117352087E+02  0.74117352087E+02  0.00000000000E+00 0.  1.
          5    1    1    2  502    0 -0.13482000258E+03  0.20700931810E+03  0.58961563855E+03  0.63929491012E+03  0.47000000000E+01 0. -1.
         -5    1    1    2    0  502 -0.55884200518E+02  0.38037187658E+01  0.70085483128E+02  0.89841956175E+02  0.47000000000E+01 0. -1.
        -11    1    1    2    0    0  0.80180122098E+02 -0.10555727548E+03  0.31826133190E+03  0.34476291240E+03  0.00000000000E+00 0. -1.
         11    1    1    2    0    0  0.11052408100E+03 -0.10525576139E+03  0.19656178091E+03  0.24885915997E+03  0.00000000000E+00 0.  1.
<mgrwt>
<rscale>  0 0.30672018E+03</rscale>
<asrwt>0</asrwt>
<pdfrwt beam="1">  1        1 0.19209869E+00 0.31053985E+03</pdfrwt>
<pdfrwt beam="2">  1       -1 0.11402670E-01 0.31053985E+03</pdfrwt>
<totfact> 0.52530705E+02</totfact>
</mgrwt>
</event>
<event>
 6    1  0.8353100E-006  0.3704325E+03  0.7546771E-02  0.1054528E+00
          3   -1    0    0  501    0  0.00000000000E+00  0.00000000000E+00  0.90155768418E+02  0.90155768418E+02  0.00000000000E+00 0. -1.
         -3   -1    0    0    0  501 -0.00000000000E+00 -0.00000000000E+00 -0.38050881126E+03  0.38050881126E+03  0.00000000000E+00 0.  1.
          5    1    1    2  502    0  0.20393902591E+02  0.33152518533E+02 -0.20258163953E+02  0.44130306533E+02  0.47000000000E+01 0.  1.
         -5    1    1    2    0  502 -0.57217773846E+02 -0.48338528164E+02  0.50638882955E+02  0.90536586063E+02  0.47000000000E+01 0.  1.
        -11    1    1    2    0    0  0.36596188900E+02 -0.33629127653E+02 -0.19171843666E+03  0.19805594721E+03  0.00000000000E+00 0.  1.
         11    1    1    2    0    0  0.22768235477E+00  0.48815137284E+02 -0.12901532518E+03  0.13794173987E+03  0.00000000000E+00 0. -1.
<mgrwt>
<rscale>  0 0.37043253E+03</rscale>
<asrwt>0</asrwt>
<pdfrwt beam="1">  1        3 0.13870118E-01 0.37043253E+03</pdfrwt>
<pdfrwt beam="2">  1       -3 0.58539817E-01 0.37043253E+03</pdfrwt>
<totfact> 0.31926535E+02</totfact>
</mgrwt>
</event>
<event>
 6    1  0.8353100E-006  0.1259464E+03  0.7546771E-02  0.1243915E+00
         -1   -1    0    0    0  501 -0.00000000000E+00  0.00000000000E+00  0.28165640077E+02  0.28165640077E+02  0.00000000000E+00 0.  1.
          1   -1    0    0  501    0  0.00000000000E+00 -0.00000000000E+00 -0.83827815010E+03  0.83827815010E+03  0.00000000000E+00 0. -1.
          5    1    1    2  502    0 -0.23823089086E+02 -0.50504211970E+02 -0.57851742658E+03  0.58122518688E+03  0.47000000000E+01 0. -1.
         -5    1    1    2    0  502 -0.30381756711E+02  0.37748089633E+02 -0.13940806699E+03  0.14766403948E+03  0.47000000000E+01 0.  1.
        -11    1    1    2    0    0  0.76556197410E+02  0.40996533098E+00 -0.69292746074E+02  0.10325940195E+03  0.00000000000E+00 0.  1.
         11    1    1    2    0    0 -0.22351351612E+02  0.12346157006E+02 -0.22894270374E+02  0.34295161869E+02  0.00000000000E+00 0. -1.
<mgrwt>
<rscale>  0 0.11950536E+03</rscale>
<asrwt>0</asrwt>
<pdfrwt beam="2">  1        1 0.12896586E+00 0.12594638E+03</pdfrwt>
<pdfrwt beam="1">  1       -1 0.43331758E-02 0.12594638E+03</pdfrwt>
<totfact> 0.45379233E+03</totfact>
</mgrwt>
</event>
<event>
 6    1  0.8353100E-006  0.1549164E+03  0.7546771E-02  0.1202844E+00
          1   -1    0    0  501    0  0.00000000000E+00  0.00000000000E+00  0.87408154167E+02  0.87408154167E+02  0.00000000000E+00 0. -1.
         -1   -1    0    0    0  501 -0.00000000000E+00 -0.00000000000E+00 -0.23133942708E+03  0.23133942708E+03  0.00000000000E+00 0.  1.
          5    1    1    2  502    0  0.29921892723E+02 -0.58501602531E+02  0.18267696780E+02  0.68363410598E+02  0.47000000000E+01 0.  1.
         -5    1    1    2    0  502 -0.14819105064E+02 -0.31747449527E+02 -0.10153604040E+03  0.10751355230E+03  0.47000000000E+01 0.  1.
        -11    1    1    2    0    0  0.51929718066E+01  0.65168398805E+02  0.91028415876E+01  0.66005673119E+02  0.00000000000E+00 0. -1.
         11    1    1    2    0    0 -0.20295759466E+02  0.25080653253E+02 -0.69765770875E+02  0.76864945233E+02  0.00000000000E+00 0.  1.
<mgrwt>
<rscale>  0 0.14808688E+03</rscale>
<asrwt>0</asrwt>
<pdfrwt beam="1">  1        1 0.13447409E-01 0.15491639E+03</pdfrwt>
<pdfrwt beam="2">  1       -1 0.35590680E-01 0.15491639E+03</pdfrwt>
<totfact> 0.31749814E+03</totfact>
</mgrwt>
</event>
<event>
 6    1  0.8353100E-006  0.1740642E+03  0.7546771E-02  0.1180206E+00
         -2   -1    0    0    0  501 -0.00000000000E+00  0.00000000000E+00  0.19624918100E+02  0.19624918100E+02  0.00000000000E+00 0.  1.
          2   -1    0    0  501    0  0.00000000000E+00 -0.00000000000E+00 -0.14716772138E+04  0.14716772138E+04  0.00000000000E+00 0. -1.
          5    1    1    2  502    0  0.67382132211E+02 -0.19533739206E+02 -0.45533914771E+03  0.46073609381E+03  0.47000000000E+01 0. -1.
         -5    1    1    2    0  502  0.22981599364E+02  0.10018222349E+03 -0.54245228844E+03  0.55212426776E+03  0.47000000000E+01 0. -1.
        -11    1    1    2    0    0 -0.70177554583E+02 -0.79542549996E+02 -0.44253577562E+03  0.45507122424E+03  0.00000000000E+00 0. -1.
         11    1    1    2    0    0 -0.20186176991E+02 -0.11059342832E+01 -0.11725083970E+02  0.23370546127E+02  0.00000000000E+00 0.  1.
<mgrwt>
<rscale>  0 0.16775836E+03</rscale>
<asrwt>0</asrwt>
<pdfrwt beam="2">  1        2 0.22641189E+00 0.17406425E+03</pdfrwt>
<pdfrwt beam="1">  1       -2 0.30192180E-02 0.17406425E+03</pdfrwt>
<totfact> 0.58679209E+03</totfact>
</mgrwt>
</event>
<event>
 6    1  0.8353100E-006  0.5052941E+03  0.7546771E-02  0.1045841E+00
         -1   -1    0    0    0  501 -0.00000000000E+00  0.00000000000E+00  0.12030286210E+04  0.12030286210E+04  0.00000000000E+00 0.  1.
          1   -1    0    0  501    0  0.00000000000E+00 -0.00000000000E+00 -0.14425928411E+03  0.14425928411E+03  0.00000000000E+00 0. -1.
          5    1    1    2  502    0 -0.28077004008E+03  0.17396238687E+03  0.18316913804E+03  0.37771384748E+03  0.47000000000E+01 0. -1.
         -5    1    1    2    0  502  0.14193347883E+03 -0.89912590936E+02  0.16784788698E+03  0.23753818553E+03  0.47000000000E+01 0.  1.
        -11    1    1    2    0    0  0.84140097522E+01  0.15507755431E+02  0.30921829665E+02  0.35601202064E+02  0.00000000000E+00 0. -1.
         11    1    1    2    0    0  0.13042255150E+03 -0.99557551365E+02  0.67683048217E+03  0.69643466999E+03  0.00000000000E+00 0.  1.
<mgrwt>
<rscale>  0 0.39410281E+03</rscale>
<asrwt>0</asrwt>
<pdfrwt beam="2">  1        1 0.22193737E-01 0.50529408E+03</pdfrwt>
<pdfrwt beam="1">  1       -1 0.18508132E+00 0.50529408E+03</pdfrwt>
<totfact> 0.45707988E+01</totfact>
</mgrwt>
</event>
<event>
 6    1  0.8353100E-006  0.4143409E+03  0.7546771E-02  0.1038924E+00
          2   -1    0    0  501    0  0.00000000000E+00  0.00000000000E+00  0.54755127768E+03  0.54755127768E+03  0.00000000000E+00 0. -1.
         -2   -1    0    0    0  501 -0.00000000000E+00 -0.00000000000E+00 -0.78384601483E+02  0.78384601483E+02  0.00000000000E+00 0.  1.
          5    1    1    2  502    0 -0.12156052528E+03  0.12438889366E+03  0.32909723043E+03  0.37225882830E+03  0.47000000000E+01 0. -1.
         -5    1    1    2    0  502  0.34957493059E+00 -0.25336428081E+02  0.37535456179E+02  0.45530838572E+02  0.47000000000E+01 0. -1.
        -11    1    1    2    0    0  0.76644066697E+02 -0.77940473050E+02  0.18723412468E+02  0.11090354581E+03  0.00000000000E+00 0.  1.
         11    1    1    2    0    0  0.44566883648E+02 -0.21111992530E+02  0.83810577123E+02  0.97242666481E+02  0.00000000000E+00 0. -1.
<mgrwt>
<rscale>  0 0.41434087E+03</rscale>
<asrwt>0</asrwt>
<pdfrwt beam="1">  1        2 0.84238656E-01 0.41434087E+03</pdfrwt>
<pdfrwt beam="2">  1       -2 0.12059170E-01 0.41434087E+03</pdfrwt>
<totfact> 0.27687935E+03</totfact>
</mgrwt>
</event>
<event>
 6    1  0.8353100E-006  0.1896581E+03  0.7546771E-02  0.1163597E+00
         -1   -1    0    0    0  501 -0.00000000000E+00  0.00000000000E+00  0.24735363854E+02  0.24735363854E+02  0.00000000000E+00 0.  1.
          1   -1    0    0  501    0  0.00000000000E+00 -0.00000000000E+00 -0.15107475369E+04  0.15107475369E+04  0.00000000000E+00 0. -1.
          5    1    1    2  502    0 -0.34634967150E+01 -0.73581824960E+02 -0.48942742347E+03  0.49496219413E+03  0.47000000000E+01 0.  1.
         -5    1    1    2    0  502  0.11258807048E+03 -0.18274628546E+02 -0.57310911177E+03  0.58436818843E+03  0.47000000000E+01 0.  1.
        -11    1    1    2    0    0 -0.44769654348E+02  0.84270637186E+02 -0.32121240915E+03  0.33508696488E+03  0.00000000000E+00 0.  1.
         11    1    1    2    0    0 -0.64354919414E+02  0.75858163207E+01 -0.10226322866E+03  0.12106555331E+03  0.00000000000E+00 0. -1.
<mgrwt>
<rscale>  0 0.18441488E+03</rscale>
<asrwt>0</asrwt>
<pdfrwt beam="2">  1        1 0.23242268E+00 0.18965808E+03</pdfrwt>
<pdfrwt beam="1">  1       -1 0.38054410E-02 0.18965808E+03</pdfrwt>
<totfact> 0.18664664E+03</totfact>
</mgrwt>
</event>
<event>
 6    1  0.8353100E-006  0.1308483E+03  0.7546771E-02  0.1239237E+00
          1   -1    0    0  501    0  0.00000000000E+00  0.00000000000E+00  0.10324534146E+03  0.10324534146E+03  0.00000000000E+00 0. -1.
         -1   -1    0    0    0  501 -0.00000000000E+00 -0.00000000000E+00 -0.13109310769E+03  0.13109310769E+03  0.00000000000E+00 0.  1.
          5    1    1    2  502    0  0.17415797879E+02 -0.60994014796E+02  0.44009416259E+02  0.77346613218E+02  0.47000000000E+01 0.  1.
         -5    1    1    2    0  502 -0.16261737934E+02  0.22320397174E+02 -0.45593049206E+02  0.53511310828E+02  0.47000000000E+01 0.  1.
        -11    1    1    2    0    0  0.24595232987E+01  0.11820752329E+02  0.34713958857E+02  0.36753753278E+02  0.00000000000E+00 0. -1.
         11    1    1    2    0    0 -0.36135832440E+01  0.26852865293E+02 -0.60978092136E+02  0.66726771830E+02  0.00000000000E+00 0.  1.
<mgrwt>
<rscale>  0 0.12237030E+03</rscale>
<asrwt>0</asrwt>
<pdfrwt beam="1">  1        1 0.15883899E-01 0.13084834E+03</pdfrwt>
<pdfrwt beam="2">  1       -1 0.20168170E-01 0.13084834E+03</pdfrwt>
<totfact> 0.65020061E+03</totfact>
</mgrwt>
</event>
<event>
 6    1  0.8353100E-006  0.1257987E+03  0.7546771E-02  0.1250544E+00
         -1   -1    0    0    0  501 -0.00000000000E+00  0.00000000000E+00  0.44967187187E+03  0.44967187187E+03  0.00000000000E+00 0.  1.
          1   -1    0    0  501    0  0.00000000000E+00 -0.00000000000E+00 -0.26127271479E+02  0.26127271479E+02  0.00000000000E+00 0. -1.
          5    1    1    2  502    0  0.19267364994E+02  0.26944381319E+02  0.21468580591E+03  0.21727704963E+03  0.47000000000E+01 0. -1.
         -5    1    1    2    0  502 -0.31025108229E+02 -0.18932804405E+02  0.65578231740E+01  0.37230410528E+02  0.47000000000E+01 0. -1.
        -11    1    1    2    0    0 -0.32882989810E+02  0.18520248227E+02  0.87475860282E+02  0.95269705286E+02  0.00000000000E+00 0.  1.
         11    1    1    2    0    0  0.44640733046E+02 -0.26531825141E+02  0.11482511103E+03  0.12602197791E+03  0.00000000000E+00 0. -1.
<mgrwt>
<rscale>  0 0.11559611E+03</rscale>
<asrwt>0</asrwt>
<pdfrwt beam="2">  1        1 0.40195806E-02 0.12579866E+03</pdfrwt>
<pdfrwt beam="1">  1       -1 0.69180282E-01 0.12579866E+03</pdfrwt>
<totfact> 0.47117475E+03</totfact>
</mgrwt>
</event>
<event>
 6    1  0.8353100E-006  0.2019007E+03  0.7546771E-02  0.1152437E+00
         -1   -1    0    0    0  501 -0.00000000000E+00  0.00000000000E+00  0.39663021072E+03  0.39663021072E+03  0.00000000000E+00 0.  1.
          1   -1    0    0  501    0  0.00000000000E+00 -0.00000000000E+00 -0.12983909852E+03  0.12983909852E+03  0.00000000000E+00 0. -1.
          5    1    1    2  502    0  0.23648787711E+02 -0.62944845592E+02 -0.38556684680E+02  0.77653246425E+02  0.47000000000E+01 0. -1.
         -5    1    1    2    0  502  0.11831337938E+03 -0.76700375137E+01  0.36880548760E+02  0.12425437655E+03  0.47000000000E+01 0. -1.
        -11    1    1    2    0    0 -0.12288981887E+03  0.24728515652E+02  0.14619930917E+03  0.19258152837E+03  0.00000000000E+00 0. -1.
         11    1    1    2    0    0 -0.19072348219E+02  0.45886367454E+02  0.12226793894E+03  0.13198015790E+03  0.00000000000E+00 0.  1.
<mgrwt>
<rscale>  0 0.19683520E+03</rscale>
<asrwt>0</asrwt>
<pdfrwt beam="2">  1        1 0.19975246E-01 0.20190067E+03</pdfrwt>
<pdfrwt beam="1">  1       -1 0.61020032E-01 0.20190067E+03</pdfrwt>
<totfact> 0.71914027E+02</totfact>
</mgrwt>
</event>
<event>
 6    1  0.8353100E-006  0.1251402E+03  0.7546771E-02  0.1250327E+00
          2   -1    0    0  501    0  0.00000000000E+00  0.00000000000E+00  0.82815059398E+03  0.82815059398E+03  0.00000000000E+00 0.  1.
         -2   -1    0    0    0  501 -0.00000000000E+00 -0.00000000000E+00 -0.24565756185E+02  0.24565756185E+02  0.00000000000E+00 0. -1.
          5    1    1    2  502    0  0.46035883053E+02  0.37621061420E+02  0.31296939486E+03  0.31860097129E+03  0.47000000000E+01 0.  1.
         -5    1    1    2    0  502 -0.48807485839E+02 -0.42860571436E+02  0.40023192549E+03  0.40549584886E+03  0.47000000000E+01 0.  1.
        -11    1    1    2    0    0  0.68631542219E+01  0.24883528728E+02 -0.89189350185E+01  0.27310076706E+02  0.00000000000E+00 0. -1.
         11    1    1    2    0    0 -0.40915514356E+01 -0.19644018712E+02  0.99302452470E+02  0.10130945331E+03  0.00000000000E+00 0.  1.
<mgrwt>
<rscale>  0 0.11572125E+03</rscale>
<asrwt>0</asrwt>
<pdfrwt beam="1">  1        2 0.12740776E+00 0.12514025E+03</pdfrwt>
<pdfrwt beam="2">  1       -2 0.37793477E-02 0.12514025E+03</pdfrwt>
<totfact> 0.97145635E+03</totfact>
</mgrwt>
</event>
<event>
 6    1  0.8353100E-006  0.1356277E+03  0.7546771E-02  0.1228730E+00
          2   -1    0    0  501    0  0.00000000000E+00  0.00000000000E+00  0.35437082104E+03  0.35437082104E+03  0.00000000000E+00 0. -1.
         -2   -1    0    0    0  501 -0.00000000000E+00 -0.00000000000E+00 -0.51813215073E+02  0.51813215073E+02  0.00000000000E+00 0.  1.
          5    1    1    2  502    0 -0.46040529813E+02  0.35181638771E+02  0.22682385581E+03  0.23415514014E+03  0.47000000000E+01 0. -1.
         -5    1    1    2    0  502  0.39155325148E+02  0.16994141173E+02  0.19767140981E+02  0.47273355965E+02  0.47000000000E+01 0. -1.
        -11    1    1    2    0    0 -0.67817201506E+01 -0.67250283165E+02  0.25999006054E+01  0.67641346802E+02  0.00000000000E+00 0.  1.
         11    1    1    2    0    0  0.13666924816E+02  0.15074503221E+02  0.53366708570E+02  0.57114193200E+02  0.00000000000E+00 0. -1.
<mgrwt>
<rscale>  0 0.12914500E+03</rscale>
<asrwt>0</asrwt>
<pdfrwt beam="1">  1        2 0.54518586E-01 0.13562772E+03</pdfrwt>
<pdfrwt beam="2">  1       -2 0.79712641E-02 0.13562772E+03</pdfrwt>
<totfact> 0.82466388E+03</totfact>
</mgrwt>
</event>
<event>
 6    1  0.8353100E-006  0.3448898E+03  0.7546771E-02  0.1064732E+00
          2   -1    0    0  501    0  0.00000000000E+00  0.00000000000E+00  0.95028051130E+03  0.95028051130E+03  0.00000000000E+00 0. -1.
         -2   -1    0    0    0  501 -0.00000000000E+00 -0.00000000000E+00 -0.31293119191E+02  0.31293119191E+02  0.00000000000E+00 0.  1.
          5    1    1    2  502    0  0.39186366190E+02  0.62018172095E+02  0.77620339846E+03  0.77967661934E+03  0.47000000000E+01 0. -1.
         -5    1    1    2    0  502  0.18045443291E+02 -0.70945709424E+01  0.14244598529E+02  0.24514680249E+02  0.47000000000E+01 0. -1.
        -11    1    1    2    0    0 -0.28656867495E+02 -0.16437432615E+02  0.12502847210E+03  0.12931946521E+03  0.00000000000E+00 0. -1.
         11    1    1    2    0    0 -0.28574941987E+02 -0.38486168538E+02  0.35109230175E+01  0.48062865694E+02  0.00000000000E+00 0.  1.
<mgrwt>
<rscale>  0 0.34488979E+03</rscale>
<asrwt>0</asrwt>
<pdfrwt beam="1">  1        2 0.14619698E+00 0.34488979E+03</pdfrwt>
<pdfrwt beam="2">  1       -2 0.48143267E-02 0.34488979E+03</pdfrwt>
<totfact> 0.58739763E+03</totfact>
</mgrwt>
</event>
<event>
 6    1  0.8353100E-006  0.1768867E+03  0.7546771E-02  0.1193908E+00
          1   -1    0    0  501    0  0.00000000000E+00  0.00000000000E+00  0.25417259719E+03  0.25417259719E+03  0.00000000000E+00 0. -1.
         -1   -1    0    0    0  501 -0.00000000000E+00 -0.00000000000E+00 -0.13775540457E+03  0.13775540457E+03  0.00000000000E+00 0.  1.
          5    1    1    2  502    0 -0.56479116340E+02  0.69860269863E+02  0.62313953995E+02  0.10943247576E+03  0.47000000000E+01 0. -1.
         -5    1    1    2    0  502  0.75900743363E+02 -0.19002005970E+02  0.13047190985E+03  0.15220712314E+03  0.47000000000E+01 0.  1.
        -11    1    1    2    0    0  0.11689248746E+02 -0.32558070134E+02  0.10556186050E+02  0.36167658633E+02  0.00000000000E+00 0. -1.
         11    1    1    2    0    0 -0.31110875769E+02 -0.18300193759E+02 -0.86924857272E+02  0.94120744230E+02  0.00000000000E+00 0.  1.
<mgrwt>
<rscale>  0 0.15546981E+03</rscale>
<asrwt>0</asrwt>
<pdfrwt beam="1">  1        1 0.39103477E-01 0.17688666E+03</pdfrwt>
<pdfrwt beam="2">  1       -1 0.21193139E-01 0.17688666E+03</pdfrwt>
<totfact> 0.19547975E+03</totfact>
</mgrwt>
</event>
<event>
 6    1  0.8353100E-006  0.1308072E+03  0.7546771E-02  0.1239424E+00
          2   -1    0    0  501    0  0.00000000000E+00  0.00000000000E+00  0.21006782173E+03  0.21006782173E+03  0.00000000000E+00 0. -1.
         -2   -1    0    0    0  501 -0.00000000000E+00 -0.00000000000E+00 -0.68457017571E+02  0.68457017571E+02  0.00000000000E+00 0.  1.
          5    1    1    2  502    0  0.19146277563E+02  0.13036608836E+02 -0.16361359564E+02  0.28745733618E+02  0.47000000000E+01 0.  1.
         -5    1    1    2    0  502 -0.41121673436E+02 -0.44717751001E+02  0.13389853567E+03  0.14711076486E+03  0.47000000000E+01 0.  1.
        -11    1    1    2    0    0 -0.10222235563E+02 -0.28872378884E+02  0.23059194753E+01  0.30715234444E+02  0.00000000000E+00 0.  1.
         11    1    1    2    0    0  0.32197631436E+02  0.60553521049E+02  0.21767708574E+02  0.71953106383E+02  0.00000000000E+00 0. -1.
<mgrwt>
<rscale>  0 0.12225396E+03</rscale>
<asrwt>0</asrwt>
<pdfrwt beam="1">  1        2 0.32318126E-01 0.13080719E+03</pdfrwt>
<pdfrwt beam="2">  1       -2 0.10531849E-01 0.13080719E+03</pdfrwt>
<totfact> 0.92894622E+03</totfact>
</mgrwt>
</event>
<event>
 6    1  0.8353100E-006  0.3060934E+03  0.7546771E-02  0.1083677E+00
         -2   -1    0    0    0  501 -0.00000000000E+00  0.00000000000E+00  0.12846866288E+03  0.12846866288E+03  0.00000000000E+00 0.  1.
          2   -1    0    0  501    0  0.00000000000E+00 -0.00000000000E+00 -0.95994166371E+03  0.95994166371E+03  0.00000000000E+00 0. -1.
          5    1    1    2  502    0 -0.21320735613E+03  0.25428229800E+02 -0.60492338408E+03  0.64191772228E+03  0.47000000000E+01 0. -1.
         -5    1    1    2    0  502 -0.54436955689E+02  0.54785221003E+02 -0.98792230186E+02  0.12548624359E+03  0.47000000000E+01 0. -1.
        -11    1    1    2    0    0  0.99990867933E+02 -0.22740908726E+02 -0.96947465128E+02  0.14111744610E+03  0.00000000000E+00 0. -1.
         11    1    1    2    0    0  0.16765344388E+03 -0.57472542077E+02 -0.30809921440E+02  0.17988891461E+03  0.00000000000E+00 0.  1.
<mgrwt>
<rscale>  0 0.30314985E+03</rscale>
<asrwt>0</asrwt>
<pdfrwt beam="2">  1        2 0.14768333E+00 0.30609342E+03</pdfrwt>
<pdfrwt beam="1">  1       -2 0.19764410E-01 0.30609342E+03</pdfrwt>
<totfact> 0.59779836E+02</totfact>
</mgrwt>
</event>
<event>
 6    1  0.8353100E-006  0.2146147E+03  0.7546771E-02  0.1141574E+00
          2   -1    0    0  501    0  0.00000000000E+00  0.00000000000E+00  0.10382411348E+04  0.10382411348E+04  0.00000000000E+00 0. -1.
         -2   -1    0    0    0  501 -0.00000000000E+00 -0.00000000000E+00 -0.43249593543E+02  0.43249593543E+02  0.00000000000E+00 0.  1.
          5    1    1    2  502    0  0.68257547679E+02 -0.66667229290E+02  0.14714017418E+03  0.17543070750E+03  0.47000000000E+01 0. -1.
         -5    1    1    2    0  502  0.46631541519E+02 -0.64613885794E+02  0.50096236109E+03  0.50728180741E+03  0.47000000000E+01 0. -1.
        -11    1    1    2    0    0 -0.29146409696E+02  0.87909922133E+02  0.11423262128E+03  0.14706039362E+03  0.00000000000E+00 0.  1.
         11    1    1    2    0    0 -0.85742679503E+02  0.43371192951E+02  0.23265638472E+03  0.25171781983E+03  0.00000000000E+00 0. -1.
<mgrwt>
<rscale>  0 0.20998942E+03</rscale>
<asrwt>0</asrwt>
<pdfrwt beam="1">  1        2 0.15972939E+00 0.21461473E+03</pdfrwt>
<pdfrwt beam="2">  1       -2 0.66537844E-02 0.21461473E+03</pdfrwt>
<totfact> 0.31207699E+03</totfact>
</mgrwt>
</event>
<event>
 6    1  0.8353100E-006  0.1385874E+03  0.7546771E-02  0.1226685E+00
         -2   -1    0    0    0  501 -0.00000000000E+00  0.00000000000E+00  0.34024357593E+02  0.34024357593E+02  0.00000000000E+00 0.  1.
          2   -1    0    0  501    0  0.00000000000E+00 -0.00000000000E+00 -0.45395453612E+03  0.45395453612E+03  0.00000000000E+00 0. -1.
          5    1    1    2  502    0 -0.83168658167E+02 -0.11643617976E+02 -0.17515107671E+03  0.19430025531E+03  0.47000000000E+01 0. -1.
         -5    1    1    2    0  502  0.31833044756E+02  0.42408010039E+02 -0.80749258222E+02  0.96717706534E+02  0.47000000000E+01 0. -1.
        -11    1    1    2    0    0 -0.66952769649E+01 -0.42237091196E+02 -0.10508009802E+03  0.11344877966E+03  0.00000000000E+00 0. -1.
         11    1    1    2    0    0  0.58030890375E+02  0.11472699133E+02 -0.58949745580E+02  0.83512152212E+02  0.00000000000E+00 0.  1.
<mgrwt>
<rscale>  0 0.13052107E+03</rscale>
<asrwt>0</asrwt>
<pdfrwt beam="2">  1        2 0.69839152E-01 0.13858742E+03</pdfrwt>
<pdfrwt beam="1">  1       -2 0.52345171E-02 0.13858742E+03</pdfrwt>
<totfact> 0.12024933E+04</totfact>
</mgrwt>
</event>
<event>
 6    1  0.8353100E-006  0.1615490E+03  0.7546771E-02  0.1194915E+00
         -3   -1    0    0    0  501 -0.00000000000E+00  0.00000000000E+00  0.87054845153E+02  0.87054845153E+02  0.00000000000E+00 0.  1.
          3   -1    0    0  501    0  0.00000000000E+00 -0.00000000000E+00 -0.27216984956E+03  0.27216984956E+03  0.00000000000E+00 0. -1.
          5    1    1    2  502    0 -0.15794687457E+02  0.96460979585E+01  0.22174195409E+02  0.29262677589E+02  0.47000000000E+01 0.  1.
         -5    1    1    2    0  502 -0.81669544412E+02  0.21626789757E+02 -0.16918215776E+03  0.18916216595E+03  0.47000000000E+01 0.  1.
        -11    1    1    2    0    0  0.89838544355E+02 -0.38984287712E+02  0.33082038489E+01  0.97988177618E+02  0.00000000000E+00 0.  1.
         11    1    1    2    0    0  0.76256875145E+01  0.77113999970E+01 -0.41415245896E+02  0.42811673555E+02  0.00000000000E+00 0. -1.
<mgrwt>
<rscale>  0 0.15461408E+03</rscale>
<asrwt>0</asrwt>
<pdfrwt beam="2">  1        3 0.41872284E-01 0.16154897E+03</pdfrwt>
<pdfrwt beam="1">  1       -3 0.13393053E-01 0.16154897E+03</pdfrwt>
<totfact> 0.60824495E+02</totfact>
</mgrwt>
</event>
<event>
 6    1  0.8353100E-006  0.1331583E+03  0.7546771E-02  0.1236070E+00
         -2   -1    0    0    0  501 -0.00000000000E+00  0.00000000000E+00  0.55249439137E+02  0.55249439137E+02  0.00000000000E+00 0.  1.
          2   -1    0    0  501    0  0.00000000000E+00 -0.00000000000E+00 -0.26397332772E+03  0.26397332772E+03  0.00000000000E+00 0. -1.
          5    1    1    2  502    0 -0.63638811592E+02  0.46716287911E+02 -0.15188573384E+03  0.17124157218E+03  0.47000000000E+01 0. -1.
         -5    1    1    2    0  502  0.27584326192E+02 -0.18277172266E+02 -0.38235821994E+01  0.33640152472E+02  0.47000000000E+01 0. -1.
        -11    1    1    2    0    0  0.42702346094E+02 -0.11039526631E+00 -0.68997018316E+02  0.81142412372E+02  0.00000000000E+00 0. -1.
         11    1    1    2    0    0 -0.66478606949E+01 -0.28328720379E+02  0.15982445773E+02  0.33198629836E+02  0.00000000000E+00 0.  1.
<mgrwt>
<rscale>  0 0.12436185E+03</rscale>
<asrwt>0</asrwt>
<pdfrwt beam="2">  1        2 0.40611281E-01 0.13315829E+03</pdfrwt>
<pdfrwt beam="1">  1       -2 0.84999138E-02 0.13315829E+03</pdfrwt>
<totfact> 0.10189269E+04</totfact>
</mgrwt>
</event>
<event>
 6    1  0.8353100E-006  0.1309882E+03  0.7546771E-02  0.1239335E+00
          1   -1    0    0  501    0  0.00000000000E+00  0.00000000000E+00  0.21206775629E+03  0.21206775629E+03  0.00000000000E+00 0. -1.
         -1   -1    0    0    0  501 -0.00000000000E+00 -0.00000000000E+00 -0.75631104749E+02  0.75631104749E+02  0.00000000000E+00 0.  1.
          5    1    1    2  502    0  0.36171851641E+02 -0.24814826039E+02  0.96349797565E+00  0.44127052596E+02  0.47000000000E+01 0.  1.
         -5    1    1    2    0  502 -0.51094544937E+02 -0.11389295358E+02  0.13405215251E+03  0.14398763198E+03  0.47000000000E+01 0.  1.
        -11    1    1    2    0    0  0.39543667641E+01 -0.16210765964E+02  0.33311795933E+02  0.37257236853E+02  0.00000000000E+00 0. -1.
         11    1    1    2    0    0  0.10968326533E+02  0.52414887361E+02 -0.31890794873E+02  0.62326939613E+02  0.00000000000E+00 0.  1.
<mgrwt>
<rscale>  0 0.12230963E+03</rscale>
<asrwt>0</asrwt>
<pdfrwt beam="1">  1        1 0.32625808E-01 0.13098820E+03</pdfrwt>
<pdfrwt beam="2">  1       -1 0.11635555E-01 0.13098820E+03</pdfrwt>
<totfact> 0.62186002E+03</totfact>
</mgrwt>
</event>
<event>
 6    1  0.8353100E-006  0.1289358E+03  0.7546771E-02  0.1243747E+00
          1   -1    0    0  501    0  0.00000000000E+00  0.00000000000E+00  0.15084708467E+03  0.15084708467E+03  0.00000000000E+00 0. -1.
         -1   -1    0    0    0  501 -0.00000000000E+00 -0.00000000000E+00 -0.89208109279E+02  0.89208109279E+02  0.00000000000E+00 0.  1.
          5    1    1    2  502    0 -0.53739880911E+02  0.40795269505E+01 -0.13807326429E+02  0.55833230281E+02  0.47000000000E+01 0.  1.
         -5    1    1    2    0  502  0.30397600376E+02 -0.25815045100E+02  0.79061070787E+02  0.88674537361E+02  0.47000000000E+01 0.  1.
        -11    1    1    2    0    0  0.21353190307E+02 -0.32145623056E+02  0.10142794534E+02  0.39902081386E+02  0.00000000000E+00 0.  1.
         11    1    1    2    0    0  0.19890902275E+01  0.53881141206E+02 -0.13757563504E+02  0.55645344919E+02  0.00000000000E+00 0. -1.
<mgrwt>
<rscale>  0 0.11960716E+03</rscale>
<asrwt>0</asrwt>
<pdfrwt beam="1">  1        1 0.23207244E-01 0.12893581E+03</pdfrwt>
<pdfrwt beam="2">  1       -1 0.13724325E-01 0.12893581E+03</pdfrwt>
<totfact> 0.73601031E+03</totfact>
</mgrwt>
</event>
<event>
 6    1  0.8353100E-006  0.1703187E+03  0.7546771E-02  0.1211712E+00
          2   -1    0    0  501    0  0.00000000000E+00  0.00000000000E+00  0.73731739702E+03  0.73731739702E+03  0.00000000000E+00 0. -1.
         -2   -1    0    0    0  501 -0.00000000000E+00 -0.00000000000E+00 -0.22823570724E+02  0.22823570724E+02  0.00000000000E+00 0.  1.
          5    1    1    2  502    0  0.79093218228E+02  0.38800542691E+02  0.36796332101E+03  0.37839174792E+03  0.47000000000E+01 0. -1.
         -5    1    1    2    0  502 -0.12202349504E+02 -0.76595101004E+02  0.20019577151E+03  0.21474669674E+03  0.47000000000E+01 0.  1.
        -11    1    1    2    0    0 -0.42004192098E+02  0.34081685530E+02  0.11258648637E+03  0.12490648645E+03  0.00000000000E+00 0. -1.
         11    1    1    2    0    0 -0.24886676627E+02  0.37128727831E+01  0.33748247395E+02  0.42096036631E+02  0.00000000000E+00 0.  1.
<mgrwt>
<rscale>  0 0.14120823E+03</rscale>
<asrwt>0</asrwt>
<pdfrwt beam="1">  1        2 0.11343343E+00 0.17031870E+03</pdfrwt>
<pdfrwt beam="2">  1       -2 0.35113191E-02 0.17031870E+03</pdfrwt>
<totfact> 0.12749455E+04</totfact>
</mgrwt>
</event>
<event>
 6    1  0.8353100E-006  0.1602412E+03  0.7546771E-02  0.1195427E+00
          2   -1    0    0  501    0  0.00000000000E+00  0.00000000000E+00  0.18263368403E+03  0.18263368403E+03  0.00000000000E+00 0. -1.
         -2   -1    0    0    0  501 -0.00000000000E+00 -0.00000000000E+00 -0.12122190801E+03  0.12122190801E+03  0.00000000000E+00 0.  1.
          5    1    1    2  502    0  0.51389551727E+02 -0.33699380882E+02 -0.91741983616E+01  0.62312039078E+02  0.47000000000E+01 0.  1.
         -5    1    1    2    0  502 -0.64488817613E+02 -0.65702853069E+02  0.41796336245E+02  0.10121608678E+03  0.47000000000E+01 0.  1.
        -11    1    1    2    0    0  0.31936615294E+02  0.32589455485E+02 -0.25437036959E+02  0.52240433139E+02  0.00000000000E+00 0.  1.
         11    1    1    2    0    0 -0.18837349408E+02  0.66812778467E+02  0.54226675093E+02  0.88087033046E+02  0.00000000000E+00 0. -1.
<mgrwt>
<rscale>  0 0.15418136E+03</rscale>
<asrwt>0</asrwt>
<pdfrwt beam="1">  1        2 0.28097490E-01 0.16024121E+03</pdfrwt>
<pdfrwt beam="2">  1       -2 0.18649524E-01 0.16024121E+03</pdfrwt>
<totfact> 0.43268377E+03</totfact>
</mgrwt>
</event>
<event>
 6    1  0.8353100E-006  0.3632766E+03  0.7546771E-02  0.1057294E+00
          2   -1    0    0  501    0  0.00000000000E+00  0.00000000000E+00  0.14781272161E+04  0.14781272161E+04  0.00000000000E+00 0.  1.
         -2   -1    0    0    0  501 -0.00000000000E+00 -0.00000000000E+00 -0.22320452558E+02  0.22320452558E+02  0.00000000000E+00 0. -1.
          5    1    1    2  502    0 -0.65008360589E+02  0.11316657004E+03  0.74772313863E+03  0.75904198933E+03  0.47000000000E+01 0.  1.
         -5    1    1    2    0  502  0.34526309803E+02 -0.10245642891E+01  0.36981591450E+03  0.37145526840E+03  0.47000000000E+01 0.  1.
        -11    1    1    2    0    0 -0.19986843382E+01 -0.75727605311E+02  0.29553119105E+03  0.30508580732E+03  0.00000000000E+00 0.  1.
         11    1    1    2    0    0  0.32480735124E+02 -0.36414400439E+02  0.42736519331E+02  0.64864603584E+02  0.00000000000E+00 0. -1.
<mgrwt>
<rscale>  0 0.36327658E+03</rscale>
<asrwt>0</asrwt>
<pdfrwt beam="1">  1        2 0.22740411E+00 0.36327658E+03</pdfrwt>
<pdfrwt beam="2">  1       -2 0.34339169E-02 0.36327658E+03</pdfrwt>
<totfact> 0.48619384E+03</totfact>
</mgrwt>
</event>
<event>
 6    1  0.8353100E-006  0.1316776E+03  0.7546771E-02  0.1246089E+00
         -2   -1    0    0    0  501 -0.00000000000E+00  0.00000000000E+00  0.12817508066E+02  0.12817508066E+02  0.00000000000E+00 0.  1.
          2   -1    0    0  501    0  0.00000000000E+00 -0.00000000000E+00 -0.93570665197E+03  0.93570665197E+03  0.00000000000E+00 0. -1.
          5    1    1    2  502    0 -0.76794915299E+02  0.30446465585E-01 -0.54296390906E+03  0.54838796165E+03  0.47000000000E+01 0.  1.
         -5    1    1    2    0  502  0.35799941979E+02  0.58967815373E+01 -0.74977768568E+02  0.83427595300E+02  0.47000000000E+01 0.  1.
        -11    1    1    2    0    0 -0.17491951342E+02  0.15023060058E+02 -0.95300901046E+02  0.98050611602E+02  0.00000000000E+00 0.  1.
         11    1    1    2    0    0  0.58486924662E+02 -0.20950288061E+02 -0.20964656524E+03  0.21865799149E+03  0.00000000000E+00 0. -1.
<mgrwt>
<rscale>  0 0.11820444E+03</rscale>
<asrwt>0</asrwt>
<pdfrwt beam="2">  1        2 0.14395495E+00 0.13167756E+03</pdfrwt>
<pdfrwt beam="1">  1       -2 0.19719232E-02 0.13167756E+03</pdfrwt>
<totfact> 0.21577240E+04</totfact>
</mgrwt>
</event>
<event>
 6    1  0.8353100E-006  0.2044321E+03  0.7546771E-02  0.1169626E+00
         -2   -1    0    0    0  501 -0.00000000000E+00  0.00000000000E+00  0.59983034070E+02  0.59983034070E+02  0.00000000000E+00 0.  1.
          2   -1    0    0  501    0  0.00000000000E+00 -0.00000000000E+00 -0.21690634546E+04  0.21690634546E+04  0.00000000000E+00 0. -1.
          5    1    1    2  502    0  0.94194963128E+02 -0.34500684321E+02 -0.17713769531E+04  0.17742213470E+04  0.47000000000E+01 0. -1.
         -5    1    1    2    0  502 -0.29727086791E+02  0.61729630481E+02 -0.32962990829E+03  0.33670790518E+03  0.47000000000E+01 0.  1.
        -11    1    1    2    0    0 -0.49822162140E+02 -0.21167548341E+02  0.40123276111E+02  0.67380933720E+02  0.00000000000E+00 0.  1.
         11    1    1    2    0    0 -0.14645714196E+02 -0.60613978188E+01 -0.48196835306E+02  0.50736302795E+02  0.00000000000E+00 0. -1.
<mgrwt>
<rscale>  0 0.17812952E+03</rscale>
<asrwt>0</asrwt>
<pdfrwt beam="2">  1        2 0.33370205E+00 0.20443208E+03</pdfrwt>
<pdfrwt beam="1">  1       -2 0.92281596E-02 0.20443208E+03</pdfrwt>
<totfact> 0.46371668E+02</totfact>
</mgrwt>
</event>
<event>
 6    1  0.8353100E-006  0.1878265E+03  0.7546771E-02  0.1165201E+00
          1   -1    0    0  501    0  0.00000000000E+00  0.00000000000E+00  0.13080438925E+03  0.13080438925E+03  0.00000000000E+00 0. -1.
         -1   -1    0    0    0  501 -0.00000000000E+00 -0.00000000000E+00 -0.52893961958E+03  0.52893961958E+03  0.00000000000E+00 0.  1.
          5    1    1    2  502    0  0.37085925354E+02  0.44373002013E+02  0.49415833954E+02  0.76212491183E+02  0.47000000000E+01 0. -1.
         -5    1    1    2    0  502 -0.68451007078E+02  0.92325202777E+02 -0.10827227848E+02  0.11553701701E+03  0.47000000000E+01 0. -1.
        -11    1    1    2    0    0 -0.32019833291E+02 -0.31243968107E+02 -0.10226270491E+03  0.11162041069E+03  0.00000000000E+00 0. -1.
         11    1    1    2    0    0  0.63384915016E+02 -0.10545423668E+03 -0.33446113152E+03  0.35637408994E+03  0.00000000000E+00 0.  1.
<mgrwt>
<rscale>  0 0.18271490E+03</rscale>
<asrwt>0</asrwt>
<pdfrwt beam="1">  1        1 0.20123752E-01 0.18782650E+03</pdfrwt>
<pdfrwt beam="2">  1       -1 0.81375327E-01 0.18782650E+03</pdfrwt>
<totfact> 0.40103355E+02</totfact>
</mgrwt>
</event>
<event>
 6    1  0.8353100E-006  0.1211220E+03  0.7546771E-02  0.1255167E+00
         -1   -1    0    0    0  501 -0.00000000000E+00  0.00000000000E+00  0.12230906346E+03  0.12230906346E+03  0.00000000000E+00 0.  1.
          1   -1    0    0  501    0  0.00000000000E+00 -0.00000000000E+00 -0.17722035753E+03  0.17722035753E+03  0.00000000000E+00 0. -1.
          5    1    1    2  502    0  0.17549099116E+02 -0.26225874403E+02 -0.13618380135E+03  0.13987095881E+03  0.47000000000E+01 0. -1.
         -5    1    1    2    0  502 -0.90619310124E+01  0.38083684239E+02  0.37408591114E+01  0.39605171705E+02  0.47000000000E+01 0.  1.
        -11    1    1    2    0    0  0.16275926134E+02 -0.32807154794E+02  0.79528836884E+02  0.87555988220E+02  0.00000000000E+00 0.  1.
         11    1    1    2    0    0 -0.24763094237E+02  0.20949344958E+02 -0.19971887134E+01  0.32497302244E+02  0.00000000000E+00 0. -1.
<mgrwt>
<rscale>  0 0.11296993E+03</rscale>
<asrwt>0</asrwt>
<pdfrwt beam="2">  1        1 0.27264670E-01 0.12112204E+03</pdfrwt>
<pdfrwt beam="1">  1       -1 0.18816779E-01 0.12112204E+03</pdfrwt>
<totfact> 0.36477414E+03</totfact>
</mgrwt>
</event>
<event>
 6    1  0.8353100E-006  0.3915384E+03  0.7546771E-02  0.1046750E+00
         -1   -1    0    0    0  501 -0.00000000000E+00  0.00000000000E+00  0.89442545280E+02  0.89442545280E+02  0.00000000000E+00 0.  1.
          1   -1    0    0  501    0  0.00000000000E+00 -0.00000000000E+00 -0.42849379594E+03  0.42849379594E+03  0.00000000000E+00 0. -1.
          5    1    1    2  502    0 -0.34093384047E+01  0.88625224863E+01  0.77194209551E+01  0.13109056147E+02  0.47000000000E+01 0. -1.
         -5    1    1    2    0  502 -0.20558809108E+02 -0.13914634223E+03 -0.29843141437E+03  0.32995116043E+03  0.47000000000E+01 0. -1.
        -11    1    1    2    0    0 -0.22827036384E+01  0.93090622322E+02  0.17581451022E+02  0.94763822846E+02  0.00000000000E+00 0.  1.
         11    1    1    2    0    0  0.26250851151E+02  0.37193197420E+02 -0.65920708263E+02  0.80112301792E+02  0.00000000000E+00 0. -1.
<mgrwt>
<rscale>  0 0.39153838E+03</rscale>
<asrwt>0</asrwt>
<pdfrwt beam="2">  1        1 0.65922123E-01 0.39153838E+03</pdfrwt>
<pdfrwt beam="1">  1       -1 0.13760391E-01 0.39153838E+03</pdfrwt>
<totfact> 0.20520395E+03</totfact>
</mgrwt>
</event>
<event>
 6    1  0.8353100E-006  0.1480638E+03  0.7546771E-02  0.1212348E+00
         -1   -1    0    0    0  501 -0.00000000000E+00  0.00000000000E+00  0.14506639719E+02  0.14506639719E+02  0.00000000000E+00 0.  1.
          1   -1    0    0  501    0  0.00000000000E+00 -0.00000000000E+00 -0.12462432955E+04  0.12462432955E+04  0.00000000000E+00 0. -1.
          5    1    1    2  502    0 -0.35186033100E+02  0.60698743747E+02 -0.37316661330E+03  0.37973386167E+03  0.47000000000E+01 0. -1.
         -5    1    1    2    0  502 -0.48194803311E+02 -0.58813271147E+02 -0.29974461320E+03  0.30927441387E+03  0.47000000000E+01 0.  1.
        -11    1    1    2    0    0  0.21740665958E+02 -0.41229861334E+02 -0.18104418804E+03  0.18694800359E+03  0.00000000000E+00 0.  1.
         11    1    1    2    0    0  0.61640170453E+02  0.39344388733E+02 -0.37778124125E+03  0.38479365610E+03  0.00000000000E+00 0. -1.
<mgrwt>
<rscale>  0 0.14073129E+03</rscale>
<asrwt>0</asrwt>
<pdfrwt beam="2">  1        1 0.19172972E+00 0.14806379E+03</pdfrwt>
<pdfrwt beam="1">  1       -1 0.22317909E-02 0.14806379E+03</pdfrwt>
<totfact> 0.60815604E+03</totfact>
</mgrwt>
</event>
<event>
 6    1  0.8353100E-006  0.2956535E+03  0.7546771E-02  0.1087434E+00
          1   -1    0    0  501    0  0.00000000000E+00  0.00000000000E+00  0.29197720310E+03  0.29197720310E+03  0.00000000000E+00 0. -1.
         -1   -1    0    0    0  501 -0.00000000000E+00 -0.00000000000E+00 -0.74844041534E+02  0.74844041534E+02  0.00000000000E+00 0.  1.
          5    1    1    2  502    0  0.72095682799E+02  0.24289516815E+02  0.19681516880E+03  0.21105939632E+03  0.47000000000E+01 0. -1.
         -5    1    1    2    0  502  0.12547902956E+02 -0.15039087089E+02 -0.15237256682E+02  0.25256444728E+02  0.47000000000E+01 0. -1.
        -11    1    1    2    0    0 -0.31936453945E+02 -0.61247076959E+01 -0.31421778536E+02  0.45219213851E+02  0.00000000000E+00 0.  1.
         11    1    1    2    0    0 -0.52707131810E+02 -0.31257220293E+01  0.66977027979E+02  0.85286189730E+02  0.00000000000E+00 0. -1.
<mgrwt>
<rscale>  0 0.29565354E+03</rscale>
<asrwt>0</asrwt>
<pdfrwt beam="1">  1        1 0.44919569E-01 0.29565354E+03</pdfrwt>
<pdfrwt beam="2">  1       -1 0.11514468E-01 0.29565354E+03</pdfrwt>
<totfact> 0.44203658E+03</totfact>
</mgrwt>
</event>
<event>
 6    1  0.8353100E-006  0.2718597E+03  0.7546771E-02  0.1102575E+00
          1   -1    0    0  501    0  0.00000000000E+00  0.00000000000E+00  0.25373620490E+04  0.25373620490E+04  0.00000000000E+00 0. -1.
         -1   -1    0    0    0  501 -0.00000000000E+00 -0.00000000000E+00 -0.27669920406E+02  0.27669920406E+02  0.00000000000E+00 0.  1.
          5    1    1    2  502    0  0.52373640396E+02  0.67699178287E+02  0.85829688062E+03  0.86256698420E+03  0.47000000000E+01 0.  1.
         -5    1    1    2    0  502  0.11121015951E+03  0.10985195440E+03  0.55362289620E+03  0.57528736528E+03  0.47000000000E+01 0.  1.
        -11    1    1    2    0    0 -0.13035080111E+03 -0.84416486836E+02  0.60780706081E+03  0.62733316329E+03  0.00000000000E+00 0.  1.
         11    1    1    2    0    0 -0.33232998791E+02 -0.93134645851E+02  0.48996529093E+03  0.49984445659E+03  0.00000000000E+00 0. -1.
<mgrwt>
<rscale>  0 0.26774832E+03</rscale>
<asrwt>0</asrwt>
<pdfrwt beam="1">  1        1 0.39036321E+00 0.27185966E+03</pdfrwt>
<pdfrwt beam="2">  1       -1 0.42569128E-02 0.27185966E+03</pdfrwt>
<totfact> 0.33530591E+02</totfact>
</mgrwt>
</event>
<event>
 6    1  0.8353100E-006  0.1359261E+03  0.7546771E-02  0.1231074E+00
          2   -1    0    0  501    0  0.00000000000E+00  0.00000000000E+00  0.42287297682E+03  0.42287297682E+03  0.00000000000E+00 0. -1.
         -2   -1    0    0    0  501 -0.00000000000E+00 -0.00000000000E+00 -0.41354388948E+02  0.41354388948E+02  0.00000000000E+00 0.  1.
          5    1    1    2  502    0 -0.27376298579E+02 -0.67604890407E+01  0.21063004049E+03  0.21256121446E+03  0.47000000000E+01 0. -1.
         -5    1    1    2    0  502  0.55428783077E+02  0.52182035191E+02  0.94240755983E+02  0.12123829790E+03  0.47000000000E+01 0. -1.
        -11    1    1    2    0    0  0.33557392924E+02 -0.17895658616E+02  0.28838209591E+02  0.47728351633E+02  0.00000000000E+00 0.  1.
         11    1    1    2    0    0 -0.61609877422E+02 -0.27525887535E+02  0.47809581805E+02  0.82699501769E+02  0.00000000000E+00 0. -1.
<mgrwt>
<rscale>  0 0.12759128E+03</rscale>
<asrwt>0</asrwt>
<pdfrwt beam="1">  1        2 0.65057378E-01 0.13592613E+03</pdfrwt>
<pdfrwt beam="2">  1       -2 0.63622140E-02 0.13592613E+03</pdfrwt>
<totfact> 0.96490531E+03</totfact>
</mgrwt>
</event>
<event>
 6    1  0.8353100E-006  0.1257930E+03  0.7546771E-02  0.1249318E+00
          2   -1    0    0  501    0  0.00000000000E+00  0.00000000000E+00  0.35802125534E+03  0.35802125534E+03  0.00000000000E+00 0. -1.
         -2   -1    0    0    0  501 -0.00000000000E+00 -0.00000000000E+00 -0.84098581545E+02  0.84098581545E+02  0.00000000000E+00 0.  1.
          5    1    1    2  502    0 -0.42987745154E+02 -0.27061898926E+02  0.56540443620E+02  0.76152507323E+02  0.47000000000E+01 0. -1.
         -5    1    1    2    0  502  0.46256208903E+02  0.13321186369E+02  0.26012907417E+03  0.26458706714E+03  0.47000000000E+01 0. -1.
        -11    1    1    2    0    0 -0.16950971634E+02  0.77512256857E+01  0.25462034337E+02  0.31555223522E+02  0.00000000000E+00 0. -1.
         11    1    1    2    0    0  0.13682507885E+02  0.59894868709E+01 -0.68208878330E+02  0.69825038904E+02  0.00000000000E+00 0.  1.
<mgrwt>
<rscale>  0 0.11630641E+03</rscale>
<asrwt>0</asrwt>
<pdfrwt beam="1">  1        2 0.55080192E-01 0.12579298E+03</pdfrwt>
<pdfrwt beam="2">  1       -2 0.12938244E-01 0.12579298E+03</pdfrwt>
<totfact> 0.37912936E+03</totfact>
</mgrwt>
</event>
<event>
 6    1  0.8353100E-006  0.3209264E+03  0.7546771E-02  0.1075224E+00
          1   -1    0    0  501    0  0.00000000000E+00  0.00000000000E+00  0.23364031509E+03  0.23364031509E+03  0.00000000000E+00 0. -1.
         -1   -1    0    0    0  501 -0.00000000000E+00 -0.00000000000E+00 -0.11020547852E+03  0.11020547852E+03  0.00000000000E+00 0.  1.
          5    1    1    2  502    0  0.10022080104E+03 -0.48833868046E+02  0.92302786054E+02  0.14481315529E+03  0.47000000000E+01 0.  1.
         -5    1    1    2    0  502 -0.33621946675E+02 -0.22259703608E+01  0.62312292195E+02  0.70995084343E+02  0.47000000000E+01 0.  1.
        -11    1    1    2    0    0 -0.30291396495E+02  0.17269821096E+02 -0.60929623303E+02  0.70201384731E+02  0.00000000000E+00 0.  1.
         11    1    1    2    0    0 -0.36307457875E+02  0.33790017311E+02  0.29749381626E+02  0.57836169257E+02  0.00000000000E+00 0. -1.
<mgrwt>
<rscale>  0 0.32092643E+03</rscale>
<asrwt>0</asrwt>
<pdfrwt beam="1">  1        1 0.35944664E-01 0.32092643E+03</pdfrwt>
<pdfrwt beam="2">  1       -1 0.16954689E-01 0.32092643E+03</pdfrwt>
<totfact> 0.31775724E+03</totfact>
</mgrwt>
</event>
<event>
 6    1  0.8353100E-006  0.1364762E+03  0.7546771E-02  0.1231486E+00
          2   -1    0    0  501    0  0.00000000000E+00  0.00000000000E+00  0.43789751134E+02  0.43789751134E+02  0.00000000000E+00 0. -1.
         -2   -1    0    0    0  501 -0.00000000000E+00 -0.00000000000E+00 -0.32907202838E+03  0.32907202838E+03  0.00000000000E+00 0.  1.
          5    1    1    2  502    0  0.30851771008E+02  0.38053386862E+02 -0.78352564791E+02  0.92526247278E+02  0.47000000000E+01 0. -1.
         -5    1    1    2    0  502 -0.82054935448E+02 -0.18738812996E+02 -0.75888609325E+02  0.11342542294E+03  0.47000000000E+01 0. -1.
        -11    1    1    2    0    0  0.52997820242E+01 -0.99594775083E+01  0.11953802289E+02  0.16436917926E+02  0.00000000000E+00 0. -1.
         11    1    1    2    0    0  0.45903382416E+02 -0.93550963573E+01 -0.14299490541E+03  0.15047319137E+03  0.00000000000E+00 0.  1.
<mgrwt>
<rscale>  0 0.12732120E+03</rscale>
<asrwt>0</asrwt>
<pdfrwt beam="1">  1        2 0.67368848E-02 0.13647619E+03</pdfrwt>
<pdfrwt beam="2">  1       -2 0.50626466E-01 0.13647619E+03</pdfrwt>
<totfact> 0.37950147E+03</totfact>
</mgrwt>
</event>
<event>
 6    1  0.8353100E-006  0.1794347E+03  0.7546771E-02  0.1174247E+00
          4   -1    0    0  501    0  0.00000000000E+00  0.00000000000E+00  0.12138716142E+03  0.12138716142E+03  0.00000000000E+00 0. -1.
         -4   -1    0    0    0  501 -0.00000000000E+00 -0.00000000000E+00 -0.23293810210E+03  0.23293810210E+03  0.00000000000E+00 0.  1.
          5    1    1    2  502    0  0.89473771077E+02  0.16682389837E+02  0.78338460349E+01  0.91473039663E+02  0.47000000000E+01 0.  1.
         -5    1    1    2    0  502  0.29814954915E+02 -0.65080981905E+02 -0.65111794545E+02  0.96881894754E+02  0.47000000000E+01 0.  1.
        -11    1    1    2    0    0 -0.63200415253E+02  0.67293401607E+02 -0.53662393743E+02  0.10678177228E+03  0.00000000000E+00 0.  1.
         11    1    1    2    0    0 -0.56088310739E+02 -0.18894809539E+02 -0.61059842929E+00  0.59188556829E+02  0.00000000000E+00 0. -1.
<mgrwt>
<rscale>  0 0.17349943E+03</rscale>
<asrwt>0</asrwt>
<pdfrwt beam="1">  1        4 0.18674948E-01 0.17943472E+03</pdfrwt>
<pdfrwt beam="2">  1       -4 0.35836631E-01 0.17943472E+03</pdfrwt>
<totfact> 0.33683017E+02</totfact>
</mgrwt>
</event>
<event>
 6    1  0.8353100E-006  0.3515026E+03  0.7546771E-02  0.1062000E+00
         -2   -1    0    0    0  501 -0.00000000000E+00  0.00000000000E+00  0.65435206956E+02  0.65435206956E+02  0.00000000000E+00 0.  1.
          2   -1    0    0  501    0  0.00000000000E+00 -0.00000000000E+00 -0.47204742505E+03  0.47204742505E+03  0.00000000000E+00 0. -1.
          5    1    1    2  502    0 -0.40490870649E+01 -0.18965444954E+02 -0.25639154161E+03  0.25716686376E+03  0.47000000000E+01 0. -1.
         -5    1    1    2    0  502 -0.82717421324E+02  0.39806932862E+01 -0.95417819580E+02  0.12643048684E+03  0.47000000000E+01 0. -1.
        -11    1    1    2    0    0 -0.14912022834E+02  0.36169078159E+02 -0.22424085796E+02  0.45093350548E+02  0.00000000000E+00 0.  1.
         11    1    1    2    0    0  0.10167853122E+03 -0.21184326491E+02 -0.32378771110E+02  0.10879193085E+03  0.00000000000E+00 0. -1.
<mgrwt>
<rscale>  0 0.35150261E+03</rscale>
<asrwt>0</asrwt>
<pdfrwt beam="2">  1        2 0.72622682E-01 0.35150261E+03</pdfrwt>
<pdfrwt beam="1">  1       -2 0.10066955E-01 0.35150261E+03</pdfrwt>
<totfact> 0.43771306E+03</totfact>
</mgrwt>
</event>
<event>
 6    1  0.8353100E-006  0.2492591E+03  0.7546771E-02  0.1113774E+00
          3   -1    0    0  501    0  0.00000000000E+00  0.00000000000E+00  0.45782434993E+02  0.45782434993E+02  0.00000000000E+00 0. -1.
         -3   -1    0    0    0  501 -0.00000000000E+00 -0.00000000000E+00 -0.33926827377E+03  0.33926827377E+03  0.00000000000E+00 0.  1.
          5    1    1    2  502    0  0.16989772503E+01  0.12159215459E+02  0.20311142115E+02  0.24194328639E+02  0.47000000000E+01 0. -1.
         -5    1    1    2    0  502 -0.22143108654E+02 -0.65444309981E+02 -0.14795204950E+03  0.16335597302E+03  0.47000000000E+01 0. -1.
        -11    1    1    2    0    0  0.54424888877E+02  0.16688106218E+02 -0.96598564311E+02  0.11212423487E+03  0.00000000000E+00 0.  1.
         11    1    1    2    0    0 -0.33980757474E+02  0.36596988304E+02 -0.69246367086E+02  0.85376172238E+02  0.00000000000E+00 0. -1.
<mgrwt>
<rscale>  0 0.24925912E+03</rscale>
<asrwt>0</asrwt>
<pdfrwt beam="1">  1        3 0.70434514E-02 0.24925912E+03</pdfrwt>
<pdfrwt beam="2">  1       -3 0.52195120E-01 0.24925912E+03</pdfrwt>
<totfact> 0.12102566E+03</totfact>
</mgrwt>
</event>
<event>
 6    1  0.8353100E-006  0.1444082E+03  0.7546771E-02  0.1219540E+00
          2   -1    0    0  501    0  0.00000000000E+00  0.00000000000E+00  0.74206195592E+02  0.74206195592E+02  0.00000000000E+00 0. -1.
         -2   -1    0    0    0  501 -0.00000000000E+00 -0.00000000000E+00 -0.28905985740E+03  0.28905985740E+03  0.00000000000E+00 0.  1.
          5    1    1    2  502    0 -0.27736572682E+02  0.68937374471E+02 -0.15558521627E+02  0.76064687328E+02  0.47000000000E+01 0. -1.
         -5    1    1    2    0  502  0.68246583277E+02 -0.14612289396E+02 -0.14904084911E+02  0.71521583297E+02  0.47000000000E+01 0.  1.
        -11    1    1    2    0    0 -0.15628807021E+02 -0.28664738746E+02 -0.53232551311E+01  0.33079659936E+02  0.00000000000E+00 0. -1.
         11    1    1    2    0    0 -0.24881203574E+02 -0.25660346329E+02 -0.17906780014E+03  0.18260012243E+03  0.00000000000E+00 0.  1.
<mgrwt>
<rscale>  0 0.13548292E+03</rscale>
<asrwt>0</asrwt>
<pdfrwt beam="1">  1        2 0.11416338E-01 0.14440823E+03</pdfrwt>
<pdfrwt beam="2">  1       -2 0.44470747E-01 0.14440823E+03</pdfrwt>
<totfact> 0.25461519E+03</totfact>
</mgrwt>
</event>
<event>
 6    1  0.8353100E-006  0.2335782E+03  0.7546771E-02  0.1124146E+00
         -2   -1    0    0    0  501 -0.00000000000E+00  0.00000000000E+00  0.33364202868E+02  0.33364202868E+02  0.00000000000E+00 0. -1.
          2   -1    0    0  501    0  0.00000000000E+00 -0.00000000000E+00 -0.40881211860E+03  0.40881211860E+03  0.00000000000E+00 0.  1.
          5    1    1    2  502    0  0.13741467507E+01  0.59385057507E+02 -0.32110851640E+02  0.67688035335E+02  0.47000000000E+01 0. -1.
         -5    1    1    2    0  502  0.15915289523E+02 -0.18931545996E+02 -0.18472820674E+03  0.18643578047E+03  0.47000000000E+01 0. -1.
        -11    1    1    2    0    0 -0.40746664327E+02 -0.14181975891E+02 -0.14329188491E+03  0.14964619399E+03  0.00000000000E+00 0.  1.
         11    1    1    2    0    0  0.23457228054E+02 -0.26271535620E+02 -0.15316972446E+02  0.38406311678E+02  0.00000000000E+00 0. -1.
<mgrwt>
<rscale>  0 0.23357817E+03</rscale>
<asrwt>0</asrwt>
<pdfrwt beam="2">  1        2 0.62894171E-01 0.23357817E+03</pdfrwt>
<pdfrwt beam="1">  1       -2 0.51329544E-02 0.23357817E+03</pdfrwt>
<totfact> 0.14402170E+04</totfact>
</mgrwt>
</event>
<event>
 6    1  0.8353100E-006  0.3975574E+03  0.7546771E-02  0.1044629E+00
         -3   -1    0    0    0  501 -0.00000000000E+00  0.00000000000E+00  0.69983171911E+02  0.69983171911E+02  0.00000000000E+00 0.  1.
          3   -1    0    0  501    0  0.00000000000E+00 -0.00000000000E+00 -0.56460680917E+03  0.56460680917E+03  0.00000000000E+00 0. -1.
          5    1    1    2  502    0 -0.61560870810E+01  0.70431281754E+01 -0.10408193488E+03  0.10460708499E+03  0.47000000000E+01 0. -1.
         -5    1    1    2    0  502  0.38941723837E+01 -0.17023788748E+03 -0.20403659469E+03  0.26579903101E+03  0.47000000000E+01 0. -1.
        -11    1    1    2    0    0  0.29228865071E+02  0.95018689080E+01 -0.36748301041E+02  0.47906676940E+02  0.00000000000E+00 0.  1.
         11    1    1    2    0    0 -0.26966950374E+02  0.15369289040E+03 -0.14975680665E+03  0.21627718814E+03  0.00000000000E+00 0. -1.
<mgrwt>
<rscale>  0 0.39755742E+03</rscale>
<asrwt>0</asrwt>
<pdfrwt beam="2">  1        3 0.86862586E-01 0.39755742E+03</pdfrwt>
<pdfrwt beam="1">  1       -3 0.10766642E-01 0.39755742E+03</pdfrwt>
<totfact> 0.21092683E+02</totfact>
</mgrwt>
</event>
<event>
 6    1  0.8353100E-006  0.2764280E+03  0.7546771E-02  0.1097656E+00
          1   -1    0    0  501    0  0.00000000000E+00  0.00000000000E+00  0.13540088476E+04  0.13540088476E+04  0.00000000000E+00 0. -1.
         -1   -1    0    0    0  501 -0.00000000000E+00 -0.00000000000E+00 -0.14108553102E+02  0.14108553102E+02  0.00000000000E+00 0.  1.
          5    1    1    2  502    0 -0.79223090782E+02 -0.11970504863E+02  0.93541908304E+03  0.93885597512E+03  0.47000000000E+01 0. -1.
         -5    1    1    2    0  502  0.11118826993E+02 -0.16882401686E+02  0.30435499614E+02  0.36838206215E+02  0.47000000000E+01 0.  1.
        -11    1    1    2    0    0  0.11595333931E+02  0.46430775577E+02  0.25531152251E+03  0.25975804552E+03  0.00000000000E+00 0. -1.
         11    1    1    2    0    0  0.56508929857E+02 -0.17577869028E+02  0.11873418931E+03  0.13266517382E+03  0.00000000000E+00 0.  1.
<mgrwt>
<rscale>  0 0.27642797E+03</rscale>
<asrwt>0</asrwt>
<pdfrwt beam="1">  1        1 0.20830895E+00 0.27642797E+03</pdfrwt>
<pdfrwt beam="2">  1       -1 0.21705477E-02 0.27642797E+03</pdfrwt>
<totfact> 0.54523759E+03</totfact>
</mgrwt>
</event>
<event>
 6    1  0.8353100E-006  0.2452310E+03  0.7546771E-02  0.1119145E+00
          3   -1    0    0  501    0  0.00000000000E+00  0.00000000000E+00  0.56007064798E+02  0.56007064798E+02  0.00000000000E+00 0. -1.
         -3   -1    0    0    0  501 -0.00000000000E+00 -0.00000000000E+00 -0.16791972380E+04  0.16791972380E+04  0.00000000000E+00 0.  1.
          5    1    1    2  502    0 -0.61885164765E+02 -0.34613269050E+02 -0.14958370577E+02  0.72620209740E+02  0.47000000000E+01 0. -1.
         -5    1    1    2    0  502 -0.11780573493E+03 -0.75951476445E+02 -0.26297554885E+03  0.29803531208E+03  0.47000000000E+01 0. -1.
        -11    1    1    2    0    0  0.22983223814E+01  0.36238864255E+02 -0.21326421843E+03  0.21633345657E+03  0.00000000000E+00 0.  1.
         11    1    1    2    0    0  0.17739257731E+03  0.74325881240E+02 -0.11319920353E+04  0.11482153244E+04  0.00000000000E+00 0. -1.
<mgrwt>
<rscale>  0 0.24097525E+03</rscale>
<asrwt>0</asrwt>
<pdfrwt beam="1">  1        3 0.86164731E-02 0.24523102E+03</pdfrwt>
<pdfrwt beam="2">  1       -3 0.25833799E+00 0.24523102E+03</pdfrwt>
<totfact> 0.17255809E+01</totfact>
</mgrwt>
</event>
<event>
 6    1  0.8353100E-006  0.1994440E+03  0.7546771E-02  0.1154622E+00
          2   -1    0    0  501    0  0.00000000000E+00  0.00000000000E+00  0.42033010769E+03  0.42033010769E+03  0.00000000000E+00 0. -1.
         -2   -1    0    0    0  501 -0.00000000000E+00 -0.00000000000E+00 -0.13325104359E+03  0.13325104359E+03  0.00000000000E+00 0.  1.
          5    1    1    2  502    0  0.91373223125E+02 -0.32574698983E+01  0.13609146290E+03  0.16402028317E+03  0.47000000000E+01 0.  1.
         -5    1    1    2    0  502  0.19293149019E+02 -0.10585273668E+03  0.17777234846E+03  0.20785120962E+03  0.47000000000E+01 0.  1.
        -11    1    1    2    0    0 -0.11885191416E+03  0.11674325670E+03 -0.18169279878E+02  0.16758546541E+03  0.00000000000E+00 0. -1.
         11    1    1    2    0    0  0.81855420182E+01 -0.76330501178E+01 -0.86154673821E+01  0.14124193090E+02  0.00000000000E+00 0.  1.
<mgrwt>
<rscale>  0 0.19432009E+03</rscale>
<asrwt>0</asrwt>
<pdfrwt beam="1">  1        2 0.64666170E-01 0.19944401E+03</pdfrwt>
<pdfrwt beam="2">  1       -2 0.20500161E-01 0.19944401E+03</pdfrwt>
<totfact> 0.15132231E+03</totfact>
</mgrwt>
</event>
<event>
 6    1  0.8353100E-006  0.1428532E+03  0.7546771E-02  0.1220461E+00
          1   -1    0    0  501    0  0.00000000000E+00  0.00000000000E+00  0.51568924816E+03  0.51568924816E+03  0.00000000000E+00 0. -1.
         -1   -1    0    0    0  501 -0.00000000000E+00 -0.00000000000E+00 -0.32890814973E+02  0.32890814973E+02  0.00000000000E+00 0.  1.
          5    1    1    2  502    0 -0.69724499401E+01 -0.10204247285E+03  0.19061576308E+03  0.21637407529E+03  0.47000000000E+01 0.  1.
         -5    1    1    2    0  502  0.12255921490E+02  0.33116697259E+02  0.12674343315E+03  0.13165451415E+03  0.47000000000E+01 0.  1.
        -11    1    1    2    0    0 -0.25266242249E+02  0.41597640661E-01  0.10106430446E+03  0.10417474917E+03  0.00000000000E+00 0. -1.
         11    1    1    2    0    0  0.19982770699E+02  0.68884177951E+02  0.64374932498E+02  0.96376724529E+02  0.00000000000E+00 0.  1.
<mgrwt>
<rscale>  0 0.13482908E+03</rscale>
<asrwt>0</asrwt>
<pdfrwt beam="1">  1        1 0.79336801E-01 0.14285321E+03</pdfrwt>
<pdfrwt beam="2">  1       -1 0.50601258E-02 0.14285321E+03</pdfrwt>
<totfact> 0.71974623E+03</totfact>
</mgrwt>
</event>
<event>
 6    1  0.8353100E-006  0.1257462E+03  0.7546771E-02  0.1247160E+00
          1   -1    0    0  501    0  0.00000000000E+00  0.00000000000E+00  0.41644176990E+02  0.41644176990E+02  0.00000000000E+00 0. -1.
         -1   -1    0    0    0  501 -0.00000000000E+00 -0.00000000000E+00 -0.29754752489E+03  0.29754752489E+03  0.00000000000E+00 0.  1.
          5    1    1    2  502    0  0.23303579798E+02  0.50994050452E+02 -0.55199092847E+02  0.78819286117E+02  0.47000000000E+01 0. -1.
         -5    1    1    2    0  502 -0.24934570748E+02 -0.64590015784E+02 -0.75595225670E+02  0.10261740155E+03  0.47000000000E+01 0. -1.
        -11    1    1    2    0    0  0.16973005927E+02 -0.37778198462E+02 -0.43091583384E+02  0.59767547781E+02  0.00000000000E+00 0. -1.
         11    1    1    2    0    0 -0.15342014977E+02  0.51374163794E+02 -0.82017446001E+02  0.97987466431E+02  0.00000000000E+00 0.  1.
<mgrwt>
<rscale>  0 0.11757019E+03</rscale>
<asrwt>0</asrwt>
<pdfrwt beam="1">  1        1 0.64067966E-02 0.12574624E+03</pdfrwt>
<pdfrwt beam="2">  1       -1 0.45776541E-01 0.12574624E+03</pdfrwt>
<totfact> 0.54053298E+03</totfact>
</mgrwt>
</event>
<event>
 6    1  0.8353100E-006  0.1385279E+03  0.7546771E-02  0.1227340E+00
          2   -1    0    0  501    0  0.00000000000E+00  0.00000000000E+00  0.43899076771E+03  0.43899076771E+03  0.00000000000E+00 0. -1.
         -2   -1    0    0    0  501 -0.00000000000E+00 -0.00000000000E+00 -0.53359133022E+02  0.53359133022E+02  0.00000000000E+00 0.  1.
          5    1    1    2  502    0  0.82889263744E+02 -0.49815931258E+02  0.28246541443E+03  0.29859848861E+03  0.47000000000E+01 0. -1.
         -5    1    1    2    0  502 -0.27558399218E+02  0.27380257383E+02  0.71478884808E+02  0.81489047333E+02  0.47000000000E+01 0. -1.
        -11    1    1    2    0    0  0.17841521644E+02  0.21942919626E+02  0.26740530624E+02  0.38921300008E+02  0.00000000000E+00 0. -1.
         11    1    1    2    0    0 -0.73172386170E+02  0.49275424881E+00  0.49468048207E+01  0.73341064776E+02  0.00000000000E+00 0.  1.
<mgrwt>
<rscale>  0 0.13007812E+03</rscale>
<asrwt>0</asrwt>
<pdfrwt beam="1">  1        2 0.67537039E-01 0.13852786E+03</pdfrwt>
<pdfrwt beam="2">  1       -2 0.82090977E-02 0.13852786E+03</pdfrwt>
<totfact> 0.62759921E+03</totfact>
</mgrwt>
</event>
<event>
 6    1  0.8353100E-006  0.1632461E+03  0.7546771E-02  0.1194669E+00
         -2   -1    0    0    0  501 -0.00000000000E+00  0.00000000000E+00  0.16144484814E+02  0.16144484814E+02  0.00000000000E+00 0.  1.
          2   -1    0    0  501    0  0.00000000000E+00 -0.00000000000E+00 -0.14485631551E+04  0.14485631551E+04  0.00000000000E+00 0. -1.
          5    1    1    2  502    0  0.46352916246E+02  0.15322569254E+02 -0.26423885604E+03  0.26875199908E+03  0.47000000000E+01 0. -1.
         -5    1    1    2    0  502 -0.74702677030E+02  0.85758628017E+02 -0.71201872868E+03  0.72106018627E+03  0.47000000000E+01 0. -1.
        -11    1    1    2    0    0 -0.26749701036E+02 -0.28938044465E+02 -0.10379941271E+03  0.11102826218E+03  0.00000000000E+00 0.  1.
         11    1    1    2    0    0  0.55099461820E+02 -0.72143152806E+02 -0.35236167282E+03  0.36386719234E+03  0.00000000000E+00 0. -1.
<mgrwt>
<rscale>  0 0.15482248E+03</rscale>
<asrwt>0</asrwt>
<pdfrwt beam="2">  1        2 0.22285584E+00 0.16324610E+03</pdfrwt>
<pdfrwt beam="1">  1       -2 0.24837672E-02 0.16324610E+03</pdfrwt>
<totfact> 0.80311435E+03</totfact>
</mgrwt>
</event>
<event>
 6    1  0.8353100E-006  0.1613839E+03  0.7546771E-02  0.1194512E+00
         -1   -1    0    0    0  501 -0.00000000000E+00  0.00000000000E+00  0.14117918722E+03  0.14117918722E+03  0.00000000000E+00 0.  1.
          1   -1    0    0  501    0  0.00000000000E+00 -0.00000000000E+00 -0.18137222412E+03  0.18137222412E+03  0.00000000000E+00 0. -1.
          5    1    1    2  502    0  0.11617082331E+02  0.31088010060E+02 -0.20254418695E+02  0.39163151661E+02  0.47000000000E+01 0.  1.
         -5    1    1    2    0  502  0.31473883616E+02 -0.12363087520E+03 -0.59190483069E+02  0.14071532233E+03  0.47000000000E+01 0.  1.
        -11    1    1    2    0    0 -0.38649525856E+02 -0.45009144560E+01  0.19565748867E+02  0.43552986218E+02  0.00000000000E+00 0.  1.
         11    1    1    2    0    0 -0.44414400911E+01  0.97043779595E+02  0.19686116000E+02  0.99119951126E+02  0.00000000000E+00 0. -1.
<mgrwt>
<rscale>  0 0.15495580E+03</rscale>
<asrwt>0</asrwt>
<pdfrwt beam="2">  1        1 0.27903419E-01 0.16138393E+03</pdfrwt>
<pdfrwt beam="1">  1       -1 0.21719875E-01 0.16138393E+03</pdfrwt>
<totfact> 0.28534822E+03</totfact>
</mgrwt>
</event>
<event>
 6    1  0.8353100E-006  0.1678497E+03  0.7546771E-02  0.1187134E+00
         -1   -1    0    0    0  501 -0.00000000000E+00  0.00000000000E+00  0.37730634165E+02  0.37730634165E+02  0.00000000000E+00 0.  1.
          1   -1    0    0  501    0  0.00000000000E+00 -0.00000000000E+00 -0.82188032926E+03  0.82188032926E+03  0.00000000000E+00 0. -1.
          5    1    1    2  502    0 -0.10383572473E+02 -0.66788414581E+02 -0.10170483776E+03  0.12220668936E+03  0.47000000000E+01 0.  1.
         -5    1    1    2    0  502 -0.45724111667E+01 -0.44225036146E+02 -0.51484363482E+03  0.51678121007E+03  0.47000000000E+01 0.  1.
        -11    1    1    2    0    0  0.29063380668E+01  0.11878643592E+03 -0.11229974623E+03  0.16349280462E+03  0.00000000000E+00 0.  1.
         11    1    1    2    0    0  0.12049645573E+02 -0.77729851923E+01 -0.55301476291E+02  0.57130259383E+02  0.00000000000E+00 0. -1.
<mgrwt>
<rscale>  0 0.16139222E+03</rscale>
<asrwt>0</asrwt>
<pdfrwt beam="2">  1        1 0.12644314E+00 0.16784968E+03</pdfrwt>
<pdfrwt beam="1">  1       -1 0.58047125E-02 0.16784968E+03</pdfrwt>
<totfact> 0.30631295E+03</totfact>
</mgrwt>
</event>
<event>
 6    1  0.8353100E-006  0.3088559E+03  0.7546771E-02  0.1080896E+00
          1   -1    0    0  501    0  0.00000000000E+00  0.00000000000E+00  0.83869012566E+03  0.83869012566E+03  0.00000000000E+00 0. -1.
         -1   -1    0    0    0  501 -0.00000000000E+00 -0.00000000000E+00 -0.28434799142E+02  0.28434799142E+02  0.00000000000E+00 0.  1.
          5    1    1    2  502    0 -0.14549707759E+00  0.11118683159E+03  0.21215952013E+03  0.23957521714E+03  0.47000000000E+01 0.  1.
         -5    1    1    2    0  502 -0.25943504639E+02 -0.43005544703E+01  0.25478455782E+03  0.25618122707E+03  0.47000000000E+01 0.  1.
        -11    1    1    2    0    0  0.19286297159E+02 -0.51233496460E+02  0.54796118858E+02  0.77456097627E+02  0.00000000000E+00 0.  1.
         11    1    1    2    0    0  0.68027045579E+01 -0.55652780659E+02  0.28851512972E+03  0.29391238296E+03  0.00000000000E+00 0. -1.
<mgrwt>
<rscale>  0 0.30885586E+03</rscale>
<asrwt>0</asrwt>
<pdfrwt beam="1">  1        1 0.12902923E+00 0.30885586E+03</pdfrwt>
<pdfrwt beam="2">  1       -1 0.43745851E-02 0.30885586E+03</pdfrwt>
<totfact> 0.46095267E+03</totfact>
</mgrwt>
</event>
<event>
 6    1  0.8353100E-006  0.1320672E+03  0.7546771E-02  0.1238293E+00
         -1   -1    0    0    0  501 -0.00000000000E+00  0.00000000000E+00  0.27376844627E+02  0.27376844627E+02  0.00000000000E+00 0.  1.
          1   -1    0    0  501    0  0.00000000000E+00 -0.00000000000E+00 -0.63564012363E+03  0.63564012363E+03  0.00000000000E+00 0. -1.
          5    1    1    2  502    0 -0.66977067018E+02 -0.25362500552E+01 -0.25036534053E+03  0.25922433105E+03  0.47000000000E+01 0. -1.
         -5    1    1    2    0  502  0.52658904154E+02 -0.37598568014E+02 -0.24517688375E+03  0.25361468181E+03  0.47000000000E+01 0. -1.
        -11    1    1    2    0    0 -0.22225703780E+02  0.41767645591E+02 -0.10138507652E+03  0.11188141878E+03  0.00000000000E+00 0. -1.
         11    1    1    2    0    0  0.36543866644E+02 -0.16328275220E+01 -0.11335978200E+02  0.38296536616E+02  0.00000000000E+00 0.  1.
<mgrwt>
<rscale>  0 0.12295932E+03</rscale>
<asrwt>0</asrwt>
<pdfrwt beam="2">  1        1 0.97790794E-01 0.13206724E+03</pdfrwt>
<pdfrwt beam="1">  1       -1 0.42118220E-02 0.13206724E+03</pdfrwt>
<totfact> 0.70879885E+03</totfact>
</mgrwt>
</event>
<event>
 6    1  0.8353100E-006  0.4661200E+03  0.7546771E-02  0.1023021E+00
         -2   -1    0    0    0  501 -0.00000000000E+00  0.00000000000E+00  0.84875199344E+02  0.84875199344E+02  0.00000000000E+00 0.  1.
          2   -1    0    0  501    0  0.00000000000E+00 -0.00000000000E+00 -0.63996267492E+03  0.63996267492E+03  0.00000000000E+00 0. -1.
          5    1    1    2  502    0 -0.17152895616E+01 -0.25794328126E+02  0.44540702285E+00  0.26278850226E+02  0.47000000000E+01 0. -1.
         -5    1    1    2    0  502  0.16475728726E+03 -0.96837917127E+02 -0.32293184631E+03  0.37527271852E+03  0.47000000000E+01 0. -1.
        -11    1    1    2    0    0 -0.55390991950E+02  0.14073786160E+02 -0.12158317946E+03  0.13434546130E+03  0.00000000000E+00 0. -1.
         11    1    1    2    0    0 -0.10765100575E+03  0.10855845909E+03 -0.11101785683E+03  0.18894084422E+03  0.00000000000E+00 0.  1.
<mgrwt>
<rscale>  0 0.46611998E+03</rscale>
<asrwt>0</asrwt>
<pdfrwt beam="2">  1        2 0.98455801E-01 0.46611998E+03</pdfrwt>
<pdfrwt beam="1">  1       -2 0.13057722E-01 0.46611998E+03</pdfrwt>
<totfact> 0.20227595E+03</totfact>
</mgrwt>
</event>
<event>
 6    1  0.8353100E-006  0.3330081E+03  0.7546771E-02  0.1069814E+00
          2   -1    0    0  501    0  0.00000000000E+00  0.00000000000E+00  0.13555727970E+03  0.13555727970E+03  0.00000000000E+00 0. -1.
         -2   -1    0    0    0  501 -0.00000000000E+00 -0.00000000000E+00 -0.20451578719E+03  0.20451578719E+03  0.00000000000E+00 0.  1.
          5    1    1    2  502    0  0.69948020855E+01 -0.17929417265E+02 -0.67634808905E+02  0.70476582176E+02  0.47000000000E+01 0.  1.
         -5    1    1    2    0  502  0.26718499559E+02 -0.10342395802E+03  0.29712128141E+02  0.11097429373E+03  0.47000000000E+01 0.  1.
        -11    1    1    2    0    0 -0.48362383913E+02  0.18933927302E+02 -0.13754464000E+02  0.53727079399E+02  0.00000000000E+00 0.  1.
         11    1    1    2    0    0  0.14649082268E+02  0.10241944798E+03 -0.17281362724E+02  0.10489511158E+03  0.00000000000E+00 0. -1.
<mgrwt>
<rscale>  0 0.33300813E+03</rscale>
<asrwt>0</asrwt>
<pdfrwt beam="1">  1        2 0.20854966E-01 0.33300813E+03</pdfrwt>
<pdfrwt beam="2">  1       -2 0.31463967E-01 0.33300813E+03</pdfrwt>
<totfact> 0.24861536E+03</totfact>
</mgrwt>
</event>
<event>
 6    1  0.8353100E-006  0.1209674E+03  0.7546771E-02  0.1253331E+00
          2   -1    0    0  501    0  0.00000000000E+00  0.00000000000E+00  0.15007216038E+04  0.15007216038E+04  0.00000000000E+00 0. -1.
         -2   -1    0    0    0  501 -0.00000000000E+00 -0.00000000000E+00 -0.88851090352E+02  0.88851090352E+02  0.00000000000E+00 0.  1.
          5    1    1    2  502    0  0.64893074396E+02  0.66945271146E+01  0.65578344354E+03  0.65903713296E+03  0.47000000000E+01 0. -1.
         -5    1    1    2    0  502 -0.49736812093E+02  0.17211180754E+02  0.81609877639E+03  0.81780760454E+03  0.47000000000E+01 0.  1.
        -11    1    1    2    0    0  0.38251823692E+02 -0.14831170302E+02 -0.22038254624E+02  0.46570916838E+02  0.00000000000E+00 0. -1.
         11    1    1    2    0    0 -0.53408085995E+02 -0.90745375660E+01 -0.37973451806E+02  0.66157039865E+02  0.00000000000E+00 0.  1.
<mgrwt>
<rscale>  0 0.11400353E+03</rscale>
<asrwt>0</asrwt>
<pdfrwt beam="1">  1        2 0.23088023E+00 0.12096739E+03</pdfrwt>
<pdfrwt beam="2">  1       -2 0.13669400E-01 0.12096739E+03</pdfrwt>
<totfact> 0.56077496E+02</totfact>
</mgrwt>
</event>
<event>
 6    1  0.8353100E-006  0.1332740E+03  0.7546771E-02  0.1235887E+00
          1   -1    0    0  501    0  0.00000000000E+00  0.00000000000E+00  0.35175178645E+03  0.35175178645E+03  0.00000000000E+00 0. -1.
         -1   -1    0    0    0  501 -0.00000000000E+00 -0.00000000000E+00 -0.40349113118E+02  0.40349113118E+02  0.00000000000E+00 0.  1.
          5    1    1    2  502    0 -0.49418786972E+02  0.35284246936E+02  0.53693891321E+02  0.81193094243E+02  0.47000000000E+01 0.  1.
         -5    1    1    2    0  502  0.99391339970E+01 -0.59343716860E+02  0.15601427607E+03  0.16728122266E+03  0.47000000000E+01 0.  1.
        -11    1    1    2    0    0  0.38599840852E+02 -0.25646218545E+02  0.26207550510E+02  0.53240134703E+02  0.00000000000E+00 0.  1.
         11    1    1    2    0    0  0.87981212320E+00  0.49705688469E+02  0.75486955428E+02  0.90386447963E+02  0.00000000000E+00 0. -1.
<mgrwt>
<rscale>  0 0.12447850E+03</rscale>
<asrwt>0</asrwt>
<pdfrwt beam="1">  1        1 0.54115657E-01 0.13327404E+03</pdfrwt>
<pdfrwt beam="2">  1       -1 0.62075561E-02 0.13327404E+03</pdfrwt>
<totfact> 0.86108657E+03</totfact>
</mgrwt>
</event>
<event>
 6    1  0.8353100E-006  0.1902664E+03  0.7546771E-02  0.1163032E+00
          2   -1    0    0  501    0  0.00000000000E+00  0.00000000000E+00  0.43834278951E+03  0.43834278951E+03  0.00000000000E+00 0.  1.
         -2   -1    0    0    0  501 -0.00000000000E+00 -0.00000000000E+00 -0.76686519417E+02  0.76686519417E+02  0.00000000000E+00 0. -1.
          5    1    1    2  502    0 -0.12781307352E+03 -0.21759873276E+02  0.13075748174E+03  0.18419903061E+03  0.47000000000E+01 0. -1.
         -5    1    1    2    0  502 -0.12683289210E+02  0.50690210668E+02  0.12401165842E+02  0.53909574261E+02  0.47000000000E+01 0. -1.
        -11    1    1    2    0    0  0.13053341070E+02  0.12310557162E+02 -0.28802461042E+01  0.18172378720E+02  0.00000000000E+00 0. -1.
         11    1    1    2    0    0  0.12744302166E+03 -0.41240894554E+02  0.22137786862E+03  0.25874832534E+03  0.00000000000E+00 0.  1.
<mgrwt>
<rscale>  0 0.18501893E+03</rscale>
<asrwt>0</asrwt>
<pdfrwt beam="1">  1        2 0.67437351E-01 0.19026642E+03</pdfrwt>
<pdfrwt beam="2">  1       -2 0.11797926E-01 0.19026642E+03</pdfrwt>
<totfact> 0.36038901E+03</totfact>
</mgrwt>
</event>
<event>
 6    1  0.8353100E-006  0.1375874E+03  0.7546771E-02  0.1226804E+00
         -1   -1    0    0    0  501 -0.00000000000E+00  0.00000000000E+00  0.58465279540E+02  0.58465279540E+02  0.00000000000E+00 0.  1.
          1   -1    0    0  501    0  0.00000000000E+00 -0.00000000000E+00 -0.43145051899E+03  0.43145051899E+03  0.00000000000E+00 0. -1.
          5    1    1    2  502    0  0.33795704004E+02 -0.87148564219E+02 -0.22179367976E+03  0.24073127806E+03  0.47000000000E+01 0. -1.
         -5    1    1    2    0  502 -0.28015195528E+02  0.32729724834E+02 -0.12867491649E+03  0.13577706066E+03  0.47000000000E+01 0.  1.
        -11    1    1    2    0    0  0.25853989187E+02  0.96372020477E+01 -0.46096862131E+02  0.53723599270E+02  0.00000000000E+00 0. -1.
         11    1    1    2    0    0 -0.31634497663E+02  0.44781637338E+02  0.23580218924E+02  0.59683860545E+02  0.00000000000E+00 0.  1.
<mgrwt>
<rscale>  0 0.13044008E+03</rscale>
<asrwt>0</asrwt>
<pdfrwt beam="2">  1        1 0.66377001E-01 0.13758740E+03</pdfrwt>
<pdfrwt beam="1">  1       -1 0.89946586E-02 0.13758740E+03</pdfrwt>
<totfact> 0.38195886E+03</totfact>
</mgrwt>
</event>
<event>
 6    1  0.8353100E-006  0.1507024E+03  0.7546771E-02  0.1208316E+00
         -3   -1    0    0    0  501 -0.00000000000E+00  0.00000000000E+00  0.22360697736E+03  0.22360697736E+03  0.00000000000E+00 0.  1.
          3   -1    0    0  501    0  0.00000000000E+00 -0.00000000000E+00 -0.10402636094E+03  0.10402636094E+03  0.00000000000E+00 0. -1.
          5    1    1    2  502    0 -0.59309223558E+02 -0.10036490845E+03 -0.12968882874E+00  0.11667392882E+03  0.47000000000E+01 0. -1.
         -5    1    1    2    0  502  0.10816072755E+02  0.31561514684E+02 -0.54579086058E+01  0.34132029024E+02  0.47000000000E+01 0. -1.
        -11    1    1    2    0    0  0.18725999539E+02 -0.82254373618E+01  0.80261806147E+02  0.82826797623E+02  0.00000000000E+00 0.  1.
         11    1    1    2    0    0  0.29767151264E+02  0.77028831128E+02  0.44906407714E+02  0.94000582834E+02  0.00000000000E+00 0. -1.
<mgrwt>
<rscale>  0 0.14379164E+03</rscale>
<asrwt>0</asrwt>
<pdfrwt beam="2">  1        3 0.16004056E-01 0.15070241E+03</pdfrwt>
<pdfrwt beam="1">  1       -3 0.34401073E-01 0.15070241E+03</pdfrwt>
<totfact> 0.64699547E+02</totfact>
</mgrwt>
</event>
<event>
 6    1  0.8353100E-006  0.1479092E+03  0.7546771E-02  0.1212632E+00
          2   -1    0    0  501    0  0.00000000000E+00  0.00000000000E+00  0.10174252383E+04  0.10174252383E+04  0.00000000000E+00 0. -1.
         -2   -1    0    0    0  501 -0.00000000000E+00 -0.00000000000E+00 -0.22225542053E+02  0.22225542053E+02  0.00000000000E+00 0.  1.
          5    1    1    2  502    0  0.49670410717E+02 -0.97769551647E+02  0.56312528544E+03  0.57372311443E+03  0.47000000000E+01 0.  1.
         -5    1    1    2    0  502  0.18080947072E+01  0.37753330412E+02  0.20850784098E+03  0.21195799800E+03  0.47000000000E+01 0.  1.
        -11    1    1    2    0    0 -0.56455063505E+02  0.74698740492E+02  0.13646105839E+03  0.16549530653E+03  0.00000000000E+00 0.  1.
         11    1    1    2    0    0  0.49765580812E+01 -0.14682519257E+02  0.87105511452E+02  0.88474361412E+02  0.00000000000E+00 0. -1.
<mgrwt>
<rscale>  0 0.14051960E+03</rscale>
<asrwt>0</asrwt>
<pdfrwt beam="1">  1        2 0.15652692E+00 0.14790919E+03</pdfrwt>
<pdfrwt beam="2">  1       -2 0.34193150E-02 0.14790919E+03</pdfrwt>
<totfact> 0.86634830E+03</totfact>
</mgrwt>
</event>
<event>
 6    1  0.8353100E-006  0.1309899E+03  0.7546771E-02  0.1239606E+00
          1   -1    0    0  501    0  0.00000000000E+00  0.00000000000E+00  0.67821324344E+03  0.67821324344E+03  0.00000000000E+00 0. -1.
         -1   -1    0    0    0  501 -0.00000000000E+00 -0.00000000000E+00 -0.23239600402E+02  0.23239600402E+02  0.00000000000E+00 0.  1.
          5    1    1    2  502    0  0.23696876420E+02  0.45740389150E+01  0.15860534641E+02  0.29259363341E+02  0.47000000000E+01 0. -1.
         -5    1    1    2    0  502 -0.40256691384E+02 -0.40057653871E+02  0.48933264312E+03  0.49263956647E+03  0.47000000000E+01 0. -1.
        -11    1    1    2    0    0  0.36544478598E+02  0.37278431148E+02  0.34576450278E+02  0.62615583194E+02  0.00000000000E+00 0.  1.
         11    1    1    2    0    0 -0.19984663634E+02 -0.17948161921E+01  0.11520401500E+03  0.11693833084E+03  0.00000000000E+00 0. -1.
<mgrwt>
<rscale>  0 0.12214103E+03</rscale>
<asrwt>0</asrwt>
<pdfrwt beam="1">  1        1 0.10434048E+00 0.13098987E+03</pdfrwt>
<pdfrwt beam="2">  1       -1 0.35753237E-02 0.13098987E+03</pdfrwt>
<totfact> 0.82272323E+03</totfact>
</mgrwt>
</event>
<event>
 6    1  0.8353100E-006  0.1435503E+03  0.7546771E-02  0.1232273E+00
          1   -1    0    0  501    0  0.00000000000E+00  0.00000000000E+00  0.10470918139E+04  0.10470918139E+04  0.00000000000E+00 0. -1.
         -1   -1    0    0    0  501 -0.00000000000E+00 -0.00000000000E+00 -0.15101067808E+02  0.15101067808E+02  0.00000000000E+00 0.  1.
          5    1    1    2  502    0 -0.15604425766E+02  0.46418090067E+02  0.67554767479E+03  0.67733661359E+03  0.47000000000E+01 0. -1.
         -5    1    1    2    0  502 -0.51636033055E+02 -0.24937824140E+02  0.15111508749E+03  0.16169735511E+03  0.47000000000E+01 0. -1.
        -11    1    1    2    0    0  0.28133290517E+02  0.15280387567E+02  0.56379980918E+02  0.64835750384E+02  0.00000000000E+00 0.  1.
         11    1    1    2    0    0  0.39107168304E+02 -0.36760653494E+02  0.14894800284E+03  0.15832316258E+03  0.00000000000E+00 0. -1.
<mgrwt>
<rscale>  0 0.12680662E+03</rscale>
<asrwt>0</asrwt>
<pdfrwt beam="1">  1        1 0.16109099E+00 0.14355026E+03</pdfrwt>
<pdfrwt beam="2">  1       -1 0.23232420E-02 0.14355026E+03</pdfrwt>
<totfact> 0.78882663E+03</totfact>
</mgrwt>
</event>
<event>
 6    1  0.8353100E-006  0.1462308E+03  0.7546771E-02  0.1214400E+00
          2   -1    0    0  501    0  0.00000000000E+00  0.00000000000E+00  0.11021745890E+03  0.11021745890E+03  0.00000000000E+00 0. -1.
         -2   -1    0    0    0  501 -0.00000000000E+00 -0.00000000000E+00 -0.18213102142E+03  0.18213102142E+03  0.00000000000E+00 0.  1.
          5    1    1    2  502    0 -0.27033797943E+02  0.37331045658E+02  0.10753091473E+02  0.47562087605E+02  0.47000000000E+01 0. -1.
         -5    1    1    2    0  502  0.98300824127E+02 -0.11258214694E+02 -0.11579387315E+00  0.99055049494E+02  0.47000000000E+01 0. -1.
        -11    1    1    2    0    0 -0.40046291890E+02 -0.29890644079E+02 -0.98510789466E+02  0.11046054381E+03  0.00000000000E+00 0.  1.
         11    1    1    2    0    0 -0.31220734294E+02  0.38178131155E+01  0.15959929345E+02  0.35270799417E+02  0.00000000000E+00 0. -1.
<mgrwt>
<rscale>  0 0.13920695E+03</rscale>
<asrwt>0</asrwt>
<pdfrwt beam="1">  1        2 0.16956532E-01 0.14623075E+03</pdfrwt>
<pdfrwt beam="2">  1       -2 0.28020157E-01 0.14623075E+03</pdfrwt>
<totfact> 0.37557825E+03</totfact>
</mgrwt>
</event>
<event>
 6    1  0.8353100E-006  0.3707048E+03  0.7546771E-02  0.1054424E+00
         -1   -1    0    0    0  501 -0.00000000000E+00  0.00000000000E+00  0.40858583493E+02  0.40858583493E+02  0.00000000000E+00 0.  1.
          1   -1    0    0  501    0  0.00000000000E+00 -0.00000000000E+00 -0.84083972787E+03  0.84083972787E+03  0.00000000000E+00 0. -1.
          5    1    1    2  502    0 -0.11655568913E+03 -0.11234869345E+02 -0.61959621332E+03  0.63058148444E+03  0.47000000000E+01 0. -1.
         -5    1    1    2    0  502 -0.92708400321E+01 -0.42026820378E+01  0.26558979060E+01  0.11521927135E+02  0.47000000000E+01 0. -1.
        -11    1    1    2    0    0  0.22021827541E+02  0.19772100327E+01 -0.10940061376E+03  0.11161256443E+03  0.00000000000E+00 0. -1.
         11    1    1    2    0    0  0.10380470162E+03  0.13460341350E+02 -0.73640215205E+02  0.12798233536E+03  0.00000000000E+00 0.  1.
<mgrwt>
<rscale>  0 0.37070484E+03</rscale>
<asrwt>0</asrwt>
<pdfrwt beam="2">  1        1 0.12935996E+00 0.37070484E+03</pdfrwt>
<pdfrwt beam="1">  1       -1 0.62859360E-02 0.37070484E+03</pdfrwt>
<totfact> 0.26606049E+03</totfact>
</mgrwt>
</event>
<event>
 6    1  0.8353100E-006  0.1385500E+03  0.7546771E-02  0.1222388E+00
         -2   -1    0    0    0  501 -0.00000000000E+00  0.00000000000E+00  0.33841607670E+02  0.33841607670E+02  0.00000000000E+00 0.  1.
          2   -1    0    0  501    0  0.00000000000E+00 -0.00000000000E+00 -0.94477659255E+03  0.94477659255E+03  0.00000000000E+00 0. -1.
          5    1    1    2  502    0  0.27137020365E+02 -0.38206663116E+02 -0.34894747057E+03  0.35211162178E+03  0.47000000000E+01 0.  1.
         -5    1    1    2    0  502  0.38733115685E+01  0.89290987454E+02 -0.46266713411E+03  0.47124393892E+03  0.47000000000E+01 0.  1.
        -11    1    1    2    0    0 -0.69117521861E+02 -0.30781716976E+02 -0.56294071626E+02  0.94306778274E+02  0.00000000000E+00 0.  1.
         11    1    1    2    0    0  0.38107189928E+02 -0.20302607362E+02 -0.43026308577E+02  0.60955861241E+02  0.00000000000E+00 0. -1.
<mgrwt>
<rscale>  0 0.13347538E+03</rscale>
<asrwt>0</asrwt>
<pdfrwt beam="2">  1        2 0.14535023E+00 0.13855004E+03</pdfrwt>
<pdfrwt beam="1">  1       -2 0.52064018E-02 0.13855004E+03</pdfrwt>
<totfact> 0.51044260E+03</totfact>
</mgrwt>
</event>
<event>
 6    1  0.8353100E-006  0.2610992E+03  0.7546771E-02  0.1106485E+00
         -1   -1    0    0    0  501 -0.00000000000E+00  0.00000000000E+00  0.49633855362E+02  0.49633855362E+02  0.00000000000E+00 0.  1.
          1   -1    0    0  501    0  0.00000000000E+00 -0.00000000000E+00 -0.34337838101E+03  0.34337838101E+03  0.00000000000E+00 0. -1.
          5    1    1    2  502    0 -0.10023632118E+03 -0.31041775026E+02 -0.13265689941E+03  0.16920654492E+03  0.47000000000E+01 0.  1.
         -5    1    1    2    0  502  0.35536583166E+02  0.83916480111E+01 -0.62080126057E+02  0.72175484416E+02  0.47000000000E+01 0.  1.
        -11    1    1    2    0    0  0.36111731963E+02 -0.34681331854E+02 -0.51875462155E+02  0.72096570919E+02  0.00000000000E+00 0.  1.
         11    1    1    2    0    0  0.28588006054E+02  0.57331458868E+02 -0.47132038022E+02  0.79533636118E+02  0.00000000000E+00 0. -1.
<mgrwt>
<rscale>  0 0.26109916E+03</rscale>
<asrwt>0</asrwt>
<pdfrwt beam="2">  1        1 0.52827444E-01 0.26109916E+03</pdfrwt>
<pdfrwt beam="1">  1       -1 0.76359777E-02 0.26109916E+03</pdfrwt>
<totfact> 0.67579148E+03</totfact>
</mgrwt>
</event>
<event>
 6    1  0.8353100E-006  0.1310757E+03  0.7546771E-02  0.1239268E+00
          2   -1    0    0  501    0  0.00000000000E+00  0.00000000000E+00  0.10078911874E+04  0.10078911874E+04  0.00000000000E+00 0. -1.
         -2   -1    0    0    0  501 -0.00000000000E+00 -0.00000000000E+00 -0.19524732361E+02  0.19524732361E+02  0.00000000000E+00 0.  1.
          5    1    1    2  502    0 -0.32628605635E+00  0.69894011451E+02  0.29499981355E+03  0.30320332995E+03  0.47000000000E+01 0. -1.
         -5    1    1    2    0  502  0.25446120089E+02 -0.39461245647E+02  0.53566584074E+03  0.53774034428E+03  0.47000000000E+01 0. -1.
        -11    1    1    2    0    0  0.27660411468E+02 -0.35046088521E+02  0.90356801967E+02  0.10078530818E+03  0.00000000000E+00 0.  1.
         11    1    1    2    0    0 -0.52780245501E+02  0.46133227174E+01  0.67343998833E+02  0.85686937397E+02  0.00000000000E+00 0. -1.
<mgrwt>
<rscale>  0 0.12235139E+03</rscale>
<asrwt>0</asrwt>
<pdfrwt beam="1">  1        2 0.15506014E+00 0.13107568E+03</pdfrwt>
<pdfrwt beam="2">  1       -2 0.30038058E-02 0.13107568E+03</pdfrwt>
<totfact> 0.10556889E+04</totfact>
</mgrwt>
</event>
<event>
 6    1  0.8353100E-006  0.2639616E+03  0.7546771E-02  0.1138773E+00
          2   -1    0    0  501    0  0.00000000000E+00  0.00000000000E+00  0.19290060001E+04  0.19290060001E+04  0.00000000000E+00 0. -1.
         -2   -1    0    0    0  501 -0.00000000000E+00 -0.00000000000E+00 -0.27111164793E+02  0.27111164793E+02  0.00000000000E+00 0.  1.
          5    1    1    2  502    0 -0.10567462252E+03  0.26577180329E+02  0.13595441426E+04  0.13639119613E+04  0.47000000000E+01 0. -1.
         -5    1    1    2    0  502  0.69176939865E+02 -0.84158609598E+02  0.37255408939E+03  0.38818392561E+03  0.47000000000E+01 0.  1.
        -11    1    1    2    0    0 -0.16173159771E+02 -0.10017653305E+02  0.69710613896E+02  0.72259907034E+02  0.00000000000E+00 0. -1.
         11    1    1    2    0    0  0.52670842427E+02  0.67599082574E+02  0.10008598936E+03  0.13176137094E+03  0.00000000000E+00 0.  1.
<mgrwt>
<rscale>  0 0.21356518E+03</rscale>
<asrwt>0</asrwt>
<pdfrwt beam="1">  1        2 0.29677005E+00 0.26396157E+03</pdfrwt>
<pdfrwt beam="2">  1       -2 0.41709500E-02 0.26396157E+03</pdfrwt>
<totfact> 0.20886720E+03</totfact>
</mgrwt>
</event>
<event>
 6    1  0.8353100E-006  0.1556577E+03  0.7546771E-02  0.1206711E+00
          2   -1    0    0  501    0  0.00000000000E+00  0.00000000000E+00  0.20217098926E+04  0.20217098926E+04  0.00000000000E+00 0. -1.
         -2   -1    0    0    0  501 -0.00000000000E+00 -0.00000000000E+00 -0.20771296142E+02  0.20771296142E+02  0.00000000000E+00 0.  1.
          5    1    1    2  502    0 -0.11446949311E+02 -0.53130747138E+02  0.16454462098E+04  0.16463502751E+04  0.47000000000E+01 0. -1.
         -5    1    1    2    0  502 -0.36606162967E+02 -0.26212899304E+02  0.17576587929E+03  0.18150168479E+03  0.47000000000E+01 0. -1.
        -11    1    1    2    0    0  0.15897947816E+02  0.61528097220E+02  0.16159220320E+03  0.17363896921E+03  0.00000000000E+00 0. -1.
         11    1    1    2    0    0  0.32155164462E+02  0.17815549222E+02  0.18134304086E+02  0.40990259579E+02  0.00000000000E+00 0.  1.
<mgrwt>
<rscale>  0 0.14503451E+03</rscale>
<asrwt>0</asrwt>
<pdfrwt beam="1">  1        2 0.31103214E+00 0.15565768E+03</pdfrwt>
<pdfrwt beam="2">  1       -2 0.31955856E-02 0.15565768E+03</pdfrwt>
<totfact> 0.27971979E+03</totfact>
</mgrwt>
</event>
<event>
 6    1  0.8353100E-006  0.1444053E+03  0.7546771E-02  0.1217428E+00
          1   -1    0    0  501    0  0.00000000000E+00  0.00000000000E+00  0.13268987982E+04  0.13268987982E+04  0.00000000000E+00 0. -1.
         -1   -1    0    0    0  501 -0.00000000000E+00 -0.00000000000E+00 -0.18920155009E+02  0.18920155009E+02  0.00000000000E+00 0.  1.
          5    1    1    2  502    0 -0.34570460310E+02 -0.24819704791E+02  0.10309754237E+04  0.10318641136E+04  0.47000000000E+01 0.  1.
         -5    1    1    2    0  502 -0.27354053707E+02 -0.12496737306E+02  0.48730550853E+02  0.57455802874E+02  0.47000000000E+01 0.  1.
        -11    1    1    2    0    0  0.57519419652E+02 -0.67160872187E+01  0.63736131419E+02  0.86115526550E+02  0.00000000000E+00 0.  1.
         11    1    1    2    0    0  0.44050943644E+01  0.44032529315E+02  0.16453653721E+03  0.17038351027E+03  0.00000000000E+00 0. -1.
<mgrwt>
<rscale>  0 0.13699710E+03</rscale>
<asrwt>0</asrwt>
<pdfrwt beam="1">  1        1 0.20413820E+00 0.14440529E+03</pdfrwt>
<pdfrwt beam="2">  1       -1 0.29107941E-02 0.14440529E+03</pdfrwt>
<totfact> 0.36462495E+03</totfact>
</mgrwt>
</event>
<event>
 6    1  0.8353100E-006  0.1341266E+03  0.7546771E-02  0.1237748E+00
          2   -1    0    0  501    0  0.00000000000E+00  0.00000000000E+00  0.59309491657E+02  0.59309491657E+02  0.00000000000E+00 0. -1.
         -2   -1    0    0    0  501 -0.00000000000E+00 -0.00000000000E+00 -0.23136209823E+03  0.23136209823E+03  0.00000000000E+00 0.  1.
          5    1    1    2  502    0 -0.39900162886E+02  0.50723149367E+01  0.14378648617E+02  0.42971931690E+02  0.47000000000E+01 0. -1.
         -5    1    1    2    0  502  0.65175680600E+02  0.13608827954E+02 -0.86679125378E+02  0.10940032137E+03  0.47000000000E+01 0.  1.
        -11    1    1    2    0    0  0.23339702285E+02 -0.36296598535E+02 -0.55045355857E+02  0.69944091741E+02  0.00000000000E+00 0.  1.
         11    1    1    2    0    0 -0.48615220000E+02  0.17615455645E+02 -0.44706773955E+02  0.68355245085E+02  0.00000000000E+00 0. -1.
<mgrwt>
<rscale>  0 0.12330173E+03</rscale>
<asrwt>0</asrwt>
<pdfrwt beam="1">  1        2 0.91245371E-02 0.13412660E+03</pdfrwt>
<pdfrwt beam="2">  1       -2 0.35594169E-01 0.13412660E+03</pdfrwt>
<totfact> 0.50819327E+03</totfact>
</mgrwt>
</event>
<event>
 6    1  0.8353100E-006  0.1283740E+03  0.7546771E-02  0.1244548E+00
         -1   -1    0    0    0  501 -0.00000000000E+00  0.00000000000E+00  0.22076453567E+02  0.22076453567E+02  0.00000000000E+00 0.  1.
          1   -1    0    0  501    0  0.00000000000E+00 -0.00000000000E+00 -0.56608082807E+03  0.56608082807E+03  0.00000000000E+00 0. -1.
          5    1    1    2  502    0 -0.40698652561E+01  0.48403606326E+02 -0.15319674469E+03  0.16078185685E+03  0.47000000000E+01 0.  1.
         -5    1    1    2    0  502  0.15436719363E+02 -0.75330381577E+02 -0.15527768391E+03  0.17333841990E+03  0.47000000000E+01 0.  1.
        -11    1    1    2    0    0  0.17565047380E+02  0.39422182151E+02 -0.50888687498E+02  0.66725541214E+02  0.00000000000E+00 0.  1.
         11    1    1    2    0    0 -0.28931901487E+02 -0.12495406900E+02 -0.18464125841E+03  0.18731146367E+03  0.00000000000E+00 0. -1.
<mgrwt>
<rscale>  0 0.11912462E+03</rscale>
<asrwt>0</asrwt>
<pdfrwt beam="2">  1        1 0.87089356E-01 0.12837401E+03</pdfrwt>
<pdfrwt beam="1">  1       -1 0.33963775E-02 0.12837401E+03</pdfrwt>
<totfact> 0.11348905E+04</totfact>
</mgrwt>
</event>
<event>
 6    1  0.8353100E-006  0.1279730E+03  0.7546771E-02  0.1244827E+00
         -4   -1    0    0    0  501 -0.00000000000E+00  0.00000000000E+00  0.33113001805E+02  0.33113001805E+02  0.00000000000E+00 0. -1.
          4   -1    0    0  501    0  0.00000000000E+00 -0.00000000000E+00 -0.53203918553E+03  0.53203918553E+03  0.00000000000E+00 0.  1.
          5    1    1    2  502    0  0.37016532269E+01  0.26701906750E+02 -0.42926912910E+03  0.43014040645E+03  0.47000000000E+01 0.  1.
         -5    1    1    2    0  502  0.13101961694E+02 -0.50373189217E+01  0.28439499697E+01  0.15073620454E+02  0.47000000000E+01 0.  1.
        -11    1    1    2    0    0  0.25423579990E+02 -0.28243311343E+02 -0.66760152789E+02  0.76817713163E+02  0.00000000000E+00 0.  1.
         11    1    1    2    0    0 -0.42227194912E+02  0.65787235154E+01 -0.57408518039E+01  0.43120447269E+02  0.00000000000E+00 0. -1.
<mgrwt>
<rscale>  0 0.11895710E+03</rscale>
<asrwt>0</asrwt>
<pdfrwt beam="2">  1        4 0.81852178E-01 0.12797303E+03</pdfrwt>
<pdfrwt beam="1">  1       -4 0.50943082E-02 0.12797303E+03</pdfrwt>
<totfact> 0.51367055E+02</totfact>
</mgrwt>
</event>
<event>
 6    1  0.8353100E-006  0.1332071E+03  0.7546771E-02  0.1235711E+00
          3   -1    0    0  501    0  0.00000000000E+00  0.00000000000E+00  0.22997906409E+03  0.22997906409E+03  0.00000000000E+00 0. -1.
         -3   -1    0    0    0  501 -0.00000000000E+00 -0.00000000000E+00 -0.19999048951E+03  0.19999048951E+03  0.00000000000E+00 0.  1.
          5    1    1    2  502    0 -0.30993819219E+02 -0.33363678214E+02  0.77939937177E+02  0.90390683485E+02  0.47000000000E+01 0.  1.
         -5    1    1    2    0  502  0.35302509578E+02  0.79216175282E+02  0.11697267889E+03  0.14569202866E+03  0.47000000000E+01 0.  1.
        -11    1    1    2    0    0 -0.35428437540E+02 -0.57781364355E+02 -0.12176334540E+03  0.13935627914E+03  0.00000000000E+00 0.  1.
         11    1    1    2    0    0  0.31119747181E+02  0.11928867286E+02 -0.43160696081E+02  0.54530562308E+02  0.00000000000E+00 0. -1.
<mgrwt>
<rscale>  0 0.12459014E+03</rscale>
<asrwt>0</asrwt>
<pdfrwt beam="1">  1        3 0.35381394E-01 0.13320705E+03</pdfrwt>
<pdfrwt beam="2">  1       -3 0.30767768E-01 0.13320705E+03</pdfrwt>
<totfact> 0.18799609E+02</totfact>
</mgrwt>
</event>
<event>
 6    1  0.8353100E-006  0.1314603E+03  0.7546771E-02  0.1238760E+00
         -1   -1    0    0    0  501 -0.00000000000E+00  0.00000000000E+00  0.47630449263E+02  0.47630449263E+02  0.00000000000E+00 0.  1.
          1   -1    0    0  501    0  0.00000000000E+00 -0.00000000000E+00 -0.38464168164E+03  0.38464168164E+03  0.00000000000E+00 0. -1.
          5    1    1    2  502    0  0.47176913536E+02  0.12344877923E+02 -0.15788969439E+03  0.16531576687E+03  0.47000000000E+01 0. -1.
         -5    1    1    2    0  502 -0.76137950519E+02  0.16261475617E+02 -0.13926278883E+03  0.15961715901E+03  0.47000000000E+01 0. -1.
        -11    1    1    2    0    0  0.61116113415E+02 -0.12420175087E+02 -0.16801182894E+02  0.64588852094E+02  0.00000000000E+00 0. -1.
         11    1    1    2    0    0 -0.32155076432E+02 -0.16186178453E+02 -0.23057566264E+02  0.42750352926E+02  0.00000000000E+00 0.  1.
<mgrwt>
<rscale>  0 0.12266790E+03</rscale>
<asrwt>0</asrwt>
<pdfrwt beam="2">  1        1 0.59175642E-01 0.13146029E+03</pdfrwt>
<pdfrwt beam="1">  1       -1 0.73277616E-02 0.13146029E+03</pdfrwt>
<totfact> 0.60023174E+03</totfact>
</mgrwt>
</event>
<event>
 6    1  0.8353100E-006  0.2405859E+03  0.7546771E-02  0.1147251E+00
         -1   -1    0    0    0  501 -0.00000000000E+00  0.00000000000E+00  0.17470712817E+03  0.17470712817E+03  0.00000000000E+00 0.  1.
          1   -1    0    0  501    0  0.00000000000E+00 -0.00000000000E+00 -0.35390802083E+03  0.35390802083E+03  0.00000000000E+00 0. -1.
          5    1    1    2  502    0 -0.88999918945E+02 -0.91559603027E+02 -0.16228908561E+03  0.20655261748E+03  0.47000000000E+01 0. -1.
         -5    1    1    2    0  502  0.11130978680E+03  0.13584482268E+02 -0.11862644214E+03  0.16330563239E+03  0.47000000000E+01 0.  1.
        -11    1    1    2    0    0  0.88821611280E+01  0.83908169261E+02  0.93534229864E+02  0.12596874934E+03  0.00000000000E+00 0.  1.
         11    1    1    2    0    0 -0.31192028985E+02 -0.59330485029E+01  0.81804052290E+01  0.32788149787E+02  0.00000000000E+00 0. -1.
<mgrwt>
<rscale>  0 0.20297722E+03</rscale>
<asrwt>0</asrwt>
<pdfrwt beam="2">  1        1 0.54447387E-01 0.24058593E+03</pdfrwt>
<pdfrwt beam="1">  1       -1 0.26878020E-01 0.24058593E+03</pdfrwt>
<totfact> 0.87589589E+02</totfact>
</mgrwt>
</event>
<event>
 6    1  0.8353100E-006  0.1520783E+03  0.7546771E-02  0.1207162E+00
          2   -1    0    0  501    0  0.00000000000E+00  0.00000000000E+00  0.11761996003E+04  0.11761996003E+04  0.00000000000E+00 0. -1.
         -2   -1    0    0    0  501 -0.00000000000E+00 -0.00000000000E+00 -0.21261233912E+02  0.21261233912E+02  0.00000000000E+00 0.  1.
          5    1    1    2  502    0 -0.15446399230E+02  0.73619387179E+02  0.87381828449E+03  0.87706264869E+03  0.47000000000E+01 0. -1.
         -5    1    1    2    0  502 -0.27353844465E+02  0.16855906457E+01  0.36570425903E+02  0.45940832312E+02  0.47000000000E+01 0. -1.
        -11    1    1    2    0    0  0.62635618300E+02 -0.76659090787E+02  0.16462423694E+03  0.19209626823E+03  0.00000000000E+00 0.  1.
         11    1    1    2    0    0 -0.19835374605E+02  0.13541129624E+01  0.79925419025E+02  0.82361084949E+02  0.00000000000E+00 0. -1.
<mgrwt>
<rscale>  0 0.14468385E+03</rscale>
<asrwt>0</asrwt>
<pdfrwt beam="1">  1        2 0.18095373E+00 0.15207834E+03</pdfrwt>
<pdfrwt beam="2">  1       -2 0.32709600E-02 0.15207834E+03</pdfrwt>
<totfact> 0.75031255E+03</totfact>
</mgrwt>
</event>
<event>
 6    1  0.8353100E-006  0.1345639E+03  0.7546771E-02  0.1233650E+00
          2   -1    0    0  501    0  0.00000000000E+00  0.00000000000E+00  0.25313295721E+03  0.25313295721E+03  0.00000000000E+00 0. -1.
         -2   -1    0    0    0  501 -0.00000000000E+00 -0.00000000000E+00 -0.56402272592E+02  0.56402272592E+02  0.00000000000E+00 0.  1.
          5    1    1    2  502    0  0.49061638003E+01 -0.16069076578E+02 -0.26053788669E+02  0.31355630584E+02  0.47000000000E+01 0.  1.
         -5    1    1    2    0  502  0.39386715831E+02  0.38889594999E+02  0.12157494066E+03  0.13366476791E+03  0.47000000000E+01 0.  1.
        -11    1    1    2    0    0 -0.54798034750E+02 -0.37835844859E+02  0.33837623110E+02  0.74695117018E+02  0.00000000000E+00 0.  1.
         11    1    1    2    0    0  0.10505155118E+02  0.15015326439E+02  0.67371909512E+02  0.69819714289E+02  0.00000000000E+00 0. -1.
<mgrwt>
<rscale>  0 0.12591285E+03</rscale>
<asrwt>0</asrwt>
<pdfrwt beam="1">  1        2 0.38943531E-01 0.13456389E+03</pdfrwt>
<pdfrwt beam="2">  1       -2 0.86772728E-02 0.13456389E+03</pdfrwt>
<totfact> 0.10325732E+04</totfact>
</mgrwt>
</event>
<event>
 6    1  0.8353100E-006  0.1729248E+03  0.7546771E-02  0.1181144E+00
          3   -1    0    0  501    0  0.00000000000E+00  0.00000000000E+00  0.67974696378E+03  0.67974696378E+03  0.00000000000E+00 0. -1.
         -3   -1    0    0    0  501 -0.00000000000E+00 -0.00000000000E+00 -0.51407861747E+02  0.51407861747E+02  0.00000000000E+00 0.  1.
          5    1    1    2  502    0  0.47710400748E+02 -0.85860070760E+02  0.25118383914E+03  0.26974737280E+03  0.47000000000E+01 0.  1.
         -5    1    1    2    0  502 -0.64297278907E+02 -0.32472827197E+02  0.26356765201E+03  0.27327389515E+03  0.47000000000E+01 0.  1.
        -11    1    1    2    0    0 -0.13558996472E+02  0.94638322990E+02  0.11526444715E+03  0.14975363548E+03  0.00000000000E+00 0. -1.
         11    1    1    2    0    0  0.30145874631E+02  0.23694574968E+02 -0.16768362666E+01  0.38379922096E+02  0.00000000000E+00 0.  1.
<mgrwt>
<rscale>  0 0.16687711E+03</rscale>
<asrwt>0</asrwt>
<pdfrwt beam="1">  1        3 0.10457645E+00 0.17292484E+03</pdfrwt>
<pdfrwt beam="2">  1       -3 0.79089023E-02 0.17292484E+03</pdfrwt>
<totfact> 0.21380144E+02</totfact>
</mgrwt>
</event>
<event>
 6    1  0.8353100E-006  0.1531504E+03  0.7546771E-02  0.1205389E+00
         -1   -1    0    0    0  501 -0.00000000000E+00  0.00000000000E+00  0.34739389915E+02  0.34739389915E+02  0.00000000000E+00 0.  1.
          1   -1    0    0  501    0  0.00000000000E+00 -0.00000000000E+00 -0.68897383300E+03  0.68897383300E+03  0.00000000000E+00 0. -1.
          5    1    1    2  502    0 -0.28945907198E+02  0.13179075503E+02 -0.44120273480E+03  0.44237257687E+03  0.47000000000E+01 0. -1.
         -5    1    1    2    0  502 -0.54200297889E+02  0.17106095327E+02 -0.64908842307E+02  0.86403348304E+02  0.47000000000E+01 0. -1.
        -11    1    1    2    0    0  0.60368931486E+02 -0.79010638123E+01 -0.21845414983E+02  0.64684285990E+02  0.00000000000E+00 0.  1.
         11    1    1    2    0    0  0.22777273600E+02 -0.22384107018E+02 -0.12627745099E+03  0.13025301174E+03  0.00000000000E+00 0. -1.
<mgrwt>
<rscale>  0 0.14606878E+03</rscale>
<asrwt>0</asrwt>
<pdfrwt beam="2">  1        1 0.10599598E+00 0.15315042E+03</pdfrwt>
<pdfrwt beam="1">  1       -1 0.53445214E-02 0.15315042E+03</pdfrwt>
<totfact> 0.44835581E+03</totfact>
</mgrwt>
</event>
<event>
 6    1  0.8353100E-006  0.1448626E+03  0.7546771E-02  0.1217063E+00
          2   -1    0    0  501    0  0.00000000000E+00  0.00000000000E+00  0.35297204805E+03  0.35297204805E+03  0.00000000000E+00 0. -1.
         -2   -1    0    0    0  501 -0.00000000000E+00 -0.00000000000E+00 -0.68661814519E+02  0.68661814519E+02  0.00000000000E+00 0.  1.
          5    1    1    2  502    0 -0.45864978394E+02 -0.32350069364E+02  0.60033451497E+02  0.82317850614E+02  0.47000000000E+01 0. -1.
         -5    1    1    2    0  502 -0.11550707668E+02  0.77812631458E+02  0.20672693529E+03  0.22123819796E+03  0.47000000000E+01 0. -1.
        -11    1    1    2    0    0  0.66215144079E+01  0.26902287980E+02  0.95477196641E+01  0.29304206223E+02  0.00000000000E+00 0. -1.
         11    1    1    2    0    0  0.50794171654E+02 -0.72364850073E+02  0.80021270868E+01  0.88773607779E+02  0.00000000000E+00 0.  1.
<mgrwt>
<rscale>  0 0.13726082E+03</rscale>
<asrwt>0</asrwt>
<pdfrwt beam="1">  1        2 0.54303391E-01 0.14486259E+03</pdfrwt>
<pdfrwt beam="2">  1       -2 0.10563356E-01 0.14486259E+03</pdfrwt>
<totfact> 0.53566092E+03</totfact>
</mgrwt>
</event>
<event>
 6    1  0.8353100E-006  0.3674849E+03  0.7546771E-02  0.1056664E+00
          2   -1    0    0  501    0  0.00000000000E+00  0.00000000000E+00  0.43051101399E+03  0.43051101399E+03  0.00000000000E+00 0. -1.
         -2   -1    0    0    0  501 -0.00000000000E+00 -0.00000000000E+00 -0.30617605784E+03  0.30617605784E+03  0.00000000000E+00 0.  1.
          5    1    1    2  502    0  0.46539699335E+01 -0.14705283307E+03  0.27290912833E+02  0.14970998321E+03  0.47000000000E+01 0. -1.
         -5    1    1    2    0  502 -0.13674814432E+03 -0.17227622433E+03  0.58782771534E+02  0.22772056708E+03  0.47000000000E+01 0. -1.
        -11    1    1    2    0    0  0.68825301239E+02  0.63567406508E+02  0.12753587045E+02  0.94553642147E+02  0.00000000000E+00 0. -1.
         11    1    1    2    0    0  0.63268873143E+02  0.25576165089E+03  0.25507684742E+02  0.26470287939E+03  0.00000000000E+00 0.  1.
<mgrwt>
<rscale>  0 0.36488962E+03</rscale>
<asrwt>0</asrwt>
<pdfrwt beam="1">  1        2 0.66232464E-01 0.36748489E+03</pdfrwt>
<pdfrwt beam="2">  1       -2 0.47104009E-01 0.36748489E+03</pdfrwt>
<totfact> 0.31925217E+02</totfact>
</mgrwt>
</event>
<event>
 6    1  0.8353100E-006  0.1353499E+03  0.7546771E-02  0.1232683E+00
          2   -1    0    0  501    0  0.00000000000E+00  0.00000000000E+00  0.18858130953E+03  0.18858130953E+03  0.00000000000E+00 0. -1.
         -2   -1    0    0    0  501 -0.00000000000E+00 -0.00000000000E+00 -0.93097282336E+02  0.93097282336E+02  0.00000000000E+00 0.  1.
          5    1    1    2  502    0 -0.15323904945E+02  0.85326588572E+02  0.42021416893E+02  0.96453814117E+02  0.47000000000E+01 0.  1.
         -5    1    1    2    0  502  0.13259858846E+02 -0.33449883974E+02  0.71576117316E+02  0.80249293857E+02  0.47000000000E+01 0.  1.
        -11    1    1    2    0    0  0.27376445661E+02 -0.30662558459E+01  0.23348522182E+02  0.36111288956E+02  0.00000000000E+00 0. -1.
         11    1    1    2    0    0 -0.25312399562E+02 -0.48810448751E+02 -0.41462029198E+02  0.68864194935E+02  0.00000000000E+00 0.  1.
<mgrwt>
<rscale>  0 0.12653903E+03</rscale>
<asrwt>0</asrwt>
<pdfrwt beam="1">  1        2 0.29012509E-01 0.13534987E+03</pdfrwt>
<pdfrwt beam="2">  1       -2 0.14322659E-01 0.13534987E+03</pdfrwt>
<totfact> 0.63980844E+03</totfact>
</mgrwt>
</event>
<event>
 6    1  0.8353100E-006  0.1782720E+03  0.7546771E-02  0.1176102E+00
          4   -1    0    0  501    0  0.00000000000E+00  0.00000000000E+00  0.82986292094E+02  0.82986292094E+02  0.00000000000E+00 0. -1.
         -4   -1    0    0    0  501 -0.00000000000E+00 -0.00000000000E+00 -0.36797455891E+03  0.36797455891E+03  0.00000000000E+00 0.  1.
          5    1    1    2  502    0 -0.98094561704E+02  0.53061556826E+02 -0.11145117246E+03  0.15773878943E+03  0.47000000000E+01 0. -1.
         -5    1    1    2    0  502 -0.20959578028E+02 -0.85432461843E+01  0.30319324652E+02  0.38126662768E+02  0.47000000000E+01 0. -1.
        -11    1    1    2    0    0  0.11180667401E+03 -0.63820326241E+02 -0.19242901291E+03  0.23152255053E+03  0.00000000000E+00 0.  1.
         11    1    1    2    0    0  0.72474657185E+01  0.19302015599E+02 -0.11427406098E+02  0.23572848272E+02  0.00000000000E+00 0. -1.
<mgrwt>
<rscale>  0 0.17168536E+03</rscale>
<asrwt>0</asrwt>
<pdfrwt beam="1">  1        4 0.12767122E-01 0.17827198E+03</pdfrwt>
<pdfrwt beam="2">  1       -4 0.56611471E-01 0.17827198E+03</pdfrwt>
<totfact> 0.26149407E+02</totfact>
</mgrwt>
</event>
<event>
 6    1  0.8353100E-006  0.2572037E+03  0.7546771E-02  0.1108835E+00
         -2   -1    0    0    0  501 -0.00000000000E+00  0.00000000000E+00  0.95242469550E+02  0.95242469550E+02  0.00000000000E+00 0.  1.
          2   -1    0    0  501    0  0.00000000000E+00 -0.00000000000E+00 -0.17364558313E+03  0.17364558313E+03  0.00000000000E+00 0. -1.
          5    1    1    2  502    0 -0.87598562059E+00  0.37575628204E+02 -0.29680364350E+01  0.37994663125E+02  0.47000000000E+01 0.  1.
         -5    1    1    2    0  502 -0.35216859357E+02 -0.95382859872E+02 -0.55356528785E+02  0.11586437079E+03  0.47000000000E+01 0.  1.
        -11    1    1    2    0    0 -0.23285796125E+02  0.46832337713E+02 -0.35444826795E+01  0.52421937338E+02  0.00000000000E+00 0.  1.
         11    1    1    2    0    0  0.59378641103E+02  0.10974893955E+02 -0.16534065683E+02  0.62607081425E+02  0.00000000000E+00 0. -1.
<mgrwt>
<rscale>  0 0.25720369E+03</rscale>
<asrwt>0</asrwt>
<pdfrwt beam="2">  1        2 0.26714705E-01 0.25720369E+03</pdfrwt>
<pdfrwt beam="1">  1       -2 0.14652688E-01 0.25720369E+03</pdfrwt>
<totfact> 0.70201158E+03</totfact>
</mgrwt>
</event>
<event>
 6    1  0.8353100E-006  0.1477490E+03  0.7546771E-02  0.1212436E+00
          1   -1    0    0  501    0  0.00000000000E+00  0.00000000000E+00  0.55118672886E+03  0.55118672886E+03  0.00000000000E+00 0. -1.
         -1   -1    0    0    0  501 -0.00000000000E+00 -0.00000000000E+00 -0.33974094886E+02  0.33974094886E+02  0.00000000000E+00 0.  1.
          5    1    1    2  502    0 -0.24090017640E+02 -0.16431375394E+02  0.91463192403E+01  0.30920287885E+02  0.47000000000E+01 0. -1.
         -5    1    1    2    0  502 -0.32523347599E+02  0.71212029450E+02  0.32682475824E+03  0.33610330834E+03  0.47000000000E+01 0. -1.
        -11    1    1    2    0    0  0.28967610876E+02  0.14680199536E+02  0.14824031182E+02  0.35698496310E+02  0.00000000000E+00 0.  1.
         11    1    1    2    0    0  0.27645754362E+02 -0.69460853592E+02  0.16641752531E+03  0.18243873121E+03  0.00000000000E+00 0. -1.
<mgrwt>
<rscale>  0 0.14066575E+03</rscale>
<asrwt>0</asrwt>
<pdfrwt beam="1">  1        1 0.84797952E-01 0.14774896E+03</pdfrwt>
<pdfrwt beam="2">  1       -1 0.52267842E-02 0.14774896E+03</pdfrwt>
<totfact> 0.62926306E+03</totfact>
</mgrwt>
</event>
<event>
 6    1  0.8353100E-006  0.1265428E+03  0.7546771E-02  0.1247776E+00
         -1   -1    0    0    0  501 -0.00000000000E+00  0.00000000000E+00  0.24792018777E+03  0.24792018777E+03  0.00000000000E+00 0.  1.
          1   -1    0    0  501    0  0.00000000000E+00 -0.00000000000E+00 -0.50524759876E+02  0.50524759876E+02  0.00000000000E+00 0. -1.
          5    1    1    2  502    0  0.25985149948E+02 -0.18253938756E+01 -0.26934696159E+02  0.37764109123E+02  0.47000000000E+01 0.  1.
         -5    1    1    2    0  502 -0.18877217781E+02 -0.16099632136E+02  0.11176431116E+03  0.11458140668E+03  0.47000000000E+01 0.  1.
        -11    1    1    2    0    0 -0.41558358226E+02  0.34768168135E+01  0.97081812867E+02  0.10566013337E+03  0.00000000000E+00 0.  1.
         11    1    1    2    0    0  0.34450426058E+02  0.14448209198E+02  0.15484000018E+02  0.40439298475E+02  0.00000000000E+00 0. -1.
<mgrwt>
<rscale>  0 0.11720753E+03</rscale>
<asrwt>0</asrwt>
<pdfrwt beam="2">  1        1 0.77730402E-02 0.12654285E+03</pdfrwt>
<pdfrwt beam="1">  1       -1 0.38141566E-01 0.12654285E+03</pdfrwt>
<totfact> 0.57510475E+03</totfact>
</mgrwt>
</event>
<event>
 6    1  0.8353100E-006  0.1424345E+03  0.7546771E-02  0.1221134E+00
          1   -1    0    0  501    0  0.00000000000E+00  0.00000000000E+00  0.86390633936E+03  0.86390633936E+03  0.00000000000E+00 0. -1.
         -1   -1    0    0    0  501 -0.00000000000E+00 -0.00000000000E+00 -0.19743462899E+02  0.19743462899E+02  0.00000000000E+00 0.  1.
          5    1    1    2  502    0 -0.48481251884E+02  0.16262738450E+02  0.17834114283E+03  0.18558707302E+03  0.47000000000E+01 0.  1.
         -5    1    1    2    0  502  0.35122642110E+02 -0.83232293313E+02  0.38418108495E+03  0.39468773818E+03  0.47000000000E+01 0.  1.
        -11    1    1    2    0    0  0.94415415154E+01  0.52466502772E+02  0.28328981516E+03  0.28826202662E+03  0.00000000000E+00 0. -1.
         11    1    1    2    0    0  0.39170682586E+01  0.14503052092E+02 -0.16491664846E+01  0.15112964428E+02  0.00000000000E+00 0.  1.
<mgrwt>
<rscale>  0 0.13435405E+03</rscale>
<asrwt>0</asrwt>
<pdfrwt beam="1">  1        1 0.13290864E+00 0.14243455E+03</pdfrwt>
<pdfrwt beam="2">  1       -1 0.30374565E-02 0.14243455E+03</pdfrwt>
<totfact> 0.73271071E+03</totfact>
</mgrwt>
</event>
<event>
 6    1  0.8353100E-006  0.1132577E+03  0.7546771E-02  0.1261188E+00
         -1   -1    0    0    0  501 -0.00000000000E+00  0.00000000000E+00  0.74448063669E+02  0.74448063669E+02  0.00000000000E+00 0.  1.
          1   -1    0    0  501    0  0.00000000000E+00 -0.00000000000E+00 -0.16903770347E+03  0.16903770347E+03  0.00000000000E+00 0. -1.
          5    1    1    2  502    0 -0.25295718468E+02 -0.51655236569E+02 -0.50049240598E+02  0.76388175278E+02  0.47000000000E+01 0. -1.
         -5    1    1    2    0  502  0.37235148526E+02  0.40602048268E+02 -0.38455912544E+02  0.67349311941E+02  0.47000000000E+01 0.  1.
        -11    1    1    2    0    0  0.32132620069E+02  0.56781304480E+01  0.28613826542E+02  0.43399280032E+02  0.00000000000E+00 0.  1.
         11    1    1    2    0    0 -0.44072050128E+02  0.53750578532E+01 -0.34698313200E+02  0.56348999887E+02  0.00000000000E+00 0. -1.
<mgrwt>
<rscale>  0 0.10966669E+03</rscale>
<asrwt>0</asrwt>
<pdfrwt beam="2">  1        1 0.26005800E-01 0.11325768E+03</pdfrwt>
<pdfrwt beam="1">  1       -1 0.11453548E-01 0.11325768E+03</pdfrwt>
<totfact> 0.83535418E+03</totfact>
</mgrwt>
</event>
<event>
 6    1  0.8353100E-006  0.1403775E+03  0.7546771E-02  0.1223582E+00
          1   -1    0    0  501    0  0.00000000000E+00  0.00000000000E+00  0.15700584408E+03  0.15700584408E+03  0.00000000000E+00 0. -1.
         -1   -1    0    0    0  501 -0.00000000000E+00 -0.00000000000E+00 -0.10304379516E+03  0.10304379516E+03  0.00000000000E+00 0.  1.
          5    1    1    2  502    0 -0.24223544975E+02  0.31036929700E+02  0.26905483568E+02  0.47917284798E+02  0.47000000000E+01 0.  1.
         -5    1    1    2    0  502  0.24047582980E+02 -0.94914589286E+02  0.19629276073E+02  0.99972316096E+02  0.47000000000E+01 0.  1.
        -11    1    1    2    0    0 -0.22736413631E+02  0.73284192102E+02  0.26201696695E+02  0.81080492268E+02  0.00000000000E+00 0. -1.
         11    1    1    2    0    0  0.22912375625E+02 -0.94065325160E+01 -0.18774407414E+02  0.31079546080E+02  0.00000000000E+00 0.  1.
<mgrwt>
<rscale>  0 0.13264600E+03</rscale>
<asrwt>0</asrwt>
<pdfrwt beam="1">  1        1 0.24154745E-01 0.14037753E+03</pdfrwt>
<pdfrwt beam="2">  1       -1 0.15852891E-01 0.14037753E+03</pdfrwt>
<totfact> 0.56174717E+03</totfact>
</mgrwt>
</event>
<event>
 6    1  0.8353100E-006  0.1762446E+03  0.7546771E-02  0.1175908E+00
         -3   -1    0    0    0  501 -0.00000000000E+00  0.00000000000E+00  0.15909208064E+03  0.15909208064E+03  0.00000000000E+00 0.  1.
          3   -1    0    0  501    0  0.00000000000E+00 -0.00000000000E+00 -0.19588345714E+03  0.19588345714E+03  0.00000000000E+00 0. -1.
          5    1    1    2  502    0 -0.38525730860E+02 -0.27365667022E+02 -0.17650678673E+02  0.50663084464E+02  0.47000000000E+01 0. -1.
         -5    1    1    2    0  502 -0.42773110236E+02  0.12127935539E+03 -0.56576379061E+02  0.14057452710E+03  0.47000000000E+01 0. -1.
        -11    1    1    2    0    0  0.54240371604E+02 -0.10966263447E+03  0.46908958420E+02  0.13102809505E+03  0.00000000000E+00 0.  1.
         11    1    1    2    0    0  0.27058469492E+02  0.15748946108E+02 -0.94732771829E+01  0.32709831173E+02  0.00000000000E+00 0. -1.
<mgrwt>
<rscale>  0 0.17187380E+03</rscale>
<asrwt>0</asrwt>
<pdfrwt beam="2">  1        3 0.30135916E-01 0.17624463E+03</pdfrwt>
<pdfrwt beam="1">  1       -3 0.24475705E-01 0.17624463E+03</pdfrwt>
<totfact> 0.39973847E+02</totfact>
</mgrwt>
</event>
<event>
 6    1  0.8353100E-006  0.3225210E+03  0.7546771E-02  0.1074495E+00
         -1   -1    0    0    0  501 -0.00000000000E+00  0.00000000000E+00  0.60839032267E+02  0.60839032267E+02  0.00000000000E+00 0.  1.
          1   -1    0    0  501    0  0.00000000000E+00 -0.00000000000E+00 -0.42743852942E+03  0.42743852942E+03  0.00000000000E+00 0. -1.
          5    1    1    2  502    0 -0.80783740375E+02 -0.85242868546E+01 -0.26009999140E+03  0.27253031337E+03  0.47000000000E+01 0. -1.
         -5    1    1    2    0  502  0.30615027797E+02  0.30292487389E+02 -0.98979848209E+02  0.10804635612E+03  0.47000000000E+01 0.  1.
        -11    1    1    2    0    0  0.34323308056E+02  0.20326019113E+02  0.29365000754E+02  0.49533219138E+02  0.00000000000E+00 0.  1.
         11    1    1    2    0    0  0.15845404522E+02 -0.42094219647E+02 -0.36884658294E+02  0.58167673064E+02  0.00000000000E+00 0. -1.
<mgrwt>
<rscale>  0 0.32252099E+03</rscale>
<asrwt>0</asrwt>
<pdfrwt beam="2">  1        1 0.65759776E-01 0.32252099E+03</pdfrwt>
<pdfrwt beam="1">  1       -1 0.93598508E-02 0.32252099E+03</pdfrwt>
<totfact> 0.37576663E+03</totfact>
</mgrwt>
</event>
<event>
 6    1  0.8353100E-006  0.1174636E+03  0.7546771E-02  0.1251142E+00
         -1   -1    0    0    0  501 -0.00000000000E+00  0.00000000000E+00  0.87015404032E+02  0.87015404032E+02  0.00000000000E+00 0.  1.
          1   -1    0    0  501    0  0.00000000000E+00 -0.00000000000E+00 -0.14804274069E+03  0.14804274069E+03  0.00000000000E+00 0. -1.
          5    1    1    2  502    0 -0.30842823206E+02 -0.31727125442E+02  0.93542045146E+01  0.45469565362E+02  0.47000000000E+01 0. -1.
         -5    1    1    2    0  502  0.59105548597E+02  0.13996834384E+02 -0.50047996758E+02  0.78843320752E+02  0.47000000000E+01 0.  1.
        -11    1    1    2    0    0 -0.27315580071E+02  0.29038805430E+02  0.35735736056E+02  0.53539106893E+02  0.00000000000E+00 0.  1.
         11    1    1    2    0    0 -0.94714531978E+00 -0.11308514372E+02 -0.56069280474E+02  0.57206151718E+02  0.00000000000E+00 0. -1.
<mgrwt>
<rscale>  0 0.11525168E+03</rscale>
<asrwt>0</asrwt>
<pdfrwt beam="2">  1        1 0.22775806E-01 0.11746365E+03</pdfrwt>
<pdfrwt beam="1">  1       -1 0.13386985E-01 0.11746365E+03</pdfrwt>
<totfact> 0.77775595E+03</totfact>
</mgrwt>
</event>
<event>
 6    1  0.8353100E-006  0.3160673E+03  0.7546771E-02  0.1078970E+00
         -2   -1    0    0    0  501 -0.00000000000E+00  0.00000000000E+00  0.41493696222E+03  0.41493696222E+03  0.00000000000E+00 0.  1.
          2   -1    0    0  501    0  0.00000000000E+00 -0.00000000000E+00 -0.24303941094E+03  0.24303941094E+03  0.00000000000E+00 0. -1.
          5    1    1    2  502    0 -0.44417026490E+02 -0.70267751794E+02  0.11368989644E+03  0.14091810295E+03  0.47000000000E+01 0.  1.
         -5    1    1    2    0  502 -0.14131059726E+03 -0.15285749061E+03  0.46180504706E+02  0.21328109703E+03  0.47000000000E+01 0.  1.
        -11    1    1    2    0    0  0.12187936387E+03  0.12007724193E+03  0.47323921704E+02  0.17751810311E+03  0.00000000000E+00 0.  1.
         11    1    1    2    0    0  0.63848259883E+02  0.10304800048E+03 -0.35296771574E+02  0.12625907008E+03  0.00000000000E+00 0. -1.
<mgrwt>
<rscale>  0 0.31288755E+03</rscale>
<asrwt>0</asrwt>
<pdfrwt beam="2">  1        2 0.37390679E-01 0.31606728E+03</pdfrwt>
<pdfrwt beam="1">  1       -2 0.63836456E-01 0.31606728E+03</pdfrwt>
<totfact> 0.32077446E+02</totfact>
</mgrwt>
</event>
<event>
 6    1  0.8353100E-006  0.2403287E+03  0.7546771E-02  0.1119574E+00
         -1   -1    0    0    0  501 -0.00000000000E+00  0.00000000000E+00  0.17508820590E+03  0.17508820590E+03  0.00000000000E+00 0.  1.
          1   -1    0    0  501    0  0.00000000000E+00 -0.00000000000E+00 -0.82469713200E+02  0.82469713200E+02  0.00000000000E+00 0. -1.
          5    1    1    2  502    0  0.86281121534E+02 -0.19155744556E+01  0.10316621686E-01  0.86430269380E+02  0.47000000000E+01 0.  1.
         -5    1    1    2    0  502 -0.36847965065E+02 -0.76341221452E+01  0.37775407783E+02  0.53526851052E+02  0.47000000000E+01 0.  1.
        -11    1    1    2    0    0 -0.20612635990E+02  0.19764925620E+02  0.75482378837E+02  0.80703919125E+02  0.00000000000E+00 0.  1.
         11    1    1    2    0    0 -0.28820520478E+02 -0.10215229019E+02 -0.20649610541E+02  0.36896879543E+02  0.00000000000E+00 0. -1.
<mgrwt>
<rscale>  0 0.24032873E+03</rscale>
<asrwt>0</asrwt>
<pdfrwt beam="2">  1        1 0.12687648E-01 0.24032873E+03</pdfrwt>
<pdfrwt beam="1">  1       -1 0.26936647E-01 0.24032873E+03</pdfrwt>
<totfact> 0.56357113E+03</totfact>
</mgrwt>
</event>
<event>
 6    1  0.8353100E-006  0.1262384E+03  0.7546771E-02  0.1248160E+00
         -2   -1    0    0    0  501 -0.00000000000E+00  0.00000000000E+00  0.30134516069E+03  0.30134516069E+03  0.00000000000E+00 0.  1.
          2   -1    0    0  501    0  0.00000000000E+00 -0.00000000000E+00 -0.40129744940E+02  0.40129744940E+02  0.00000000000E+00 0. -1.
          5    1    1    2  502    0  0.71756603792E+01  0.12092479596E+02 -0.20655301121E+02  0.25425373725E+02  0.47000000000E+01 0.  1.
         -5    1    1    2    0  502 -0.78536829256E+01 -0.29715961591E+02  0.15837182224E+03  0.16139529977E+03  0.47000000000E+01 0.  1.
        -11    1    1    2    0    0 -0.37175426328E+02 -0.10888503989E+02  0.27220876432E+02  0.47344988706E+02  0.00000000000E+00 0. -1.
         11    1    1    2    0    0  0.37853448875E+02  0.28511985985E+02  0.96278018200E+02  0.10730924343E+03  0.00000000000E+00 0.  1.
<mgrwt>
<rscale>  0 0.11698241E+03</rscale>
<asrwt>0</asrwt>
<pdfrwt beam="2">  1        2 0.61738071E-02 0.12623836E+03</pdfrwt>
<pdfrwt beam="1">  1       -2 0.46360792E-01 0.12623836E+03</pdfrwt>
<totfact> 0.50147841E+03</totfact>
</mgrwt>
</event>
<event>
 6    1  0.8353100E-006  0.1927401E+03  0.7546771E-02  0.1160718E+00
         -3   -1    0    0    0  501 -0.00000000000E+00  0.00000000000E+00  0.69882599649E+02  0.69882599649E+02  0.00000000000E+00 0.  1.
          3   -1    0    0  501    0  0.00000000000E+00 -0.00000000000E+00 -0.52091491174E+03  0.52091491174E+03  0.00000000000E+00 0. -1.
          5    1    1    2  502    0  0.54505002395E+02 -0.27610873952E+02 -0.54925454009E+02  0.82292473195E+02  0.47000000000E+01 0.  1.
         -5    1    1    2    0  502  0.77079413035E+02  0.92488269214E+02 -0.26687230738E+03  0.29281091903E+03  0.47000000000E+01 0.  1.
        -11    1    1    2    0    0 -0.13978338964E+03 -0.48325951656E+02 -0.92137478646E+02  0.17425300168E+03  0.00000000000E+00 0.  1.
         11    1    1    2    0    0  0.81989742101E+01 -0.16551443606E+02 -0.37097072057E+02  0.41441117489E+02  0.00000000000E+00 0. -1.
<mgrwt>
<rscale>  0 0.18751970E+03</rscale>
<asrwt>0</asrwt>
<pdfrwt beam="2">  1        3 0.80140753E-01 0.19274012E+03</pdfrwt>
<pdfrwt beam="1">  1       -3 0.10751170E-01 0.19274012E+03</pdfrwt>
<totfact> 0.23649454E+02</totfact>
</mgrwt>
</event>
<event>
 6    1  0.8353100E-006  0.1441441E+03  0.7546771E-02  0.1227039E+00
         -2   -1    0    0    0  501 -0.00000000000E+00  0.00000000000E+00  0.21686773598E+03  0.21686773598E+03  0.00000000000E+00 0.  1.
          2   -1    0    0  501    0  0.00000000000E+00 -0.00000000000E+00 -0.75017062585E+02  0.75017062585E+02  0.00000000000E+00 0. -1.
          5    1    1    2  502    0  0.20564590918E+02 -0.24166031388E+02  0.74727691911E+02  0.81321690901E+02  0.47000000000E+01 0. -1.
         -5    1    1    2    0  502 -0.13059763492E+02  0.52605518917E+02 -0.39296203083E+02  0.67113185141E+02  0.47000000000E+01 0.  1.
        -11    1    1    2    0    0  0.37818021254E+02 -0.16064465785E+02  0.21434688279E+02  0.46343453196E+02  0.00000000000E+00 0. -1.
         11    1    1    2    0    0 -0.45322848680E+02 -0.12375021744E+02  0.84984496290E+02  0.97106469328E+02  0.00000000000E+00 0.  1.
<mgrwt>
<rscale>  0 0.13028128E+03</rscale>
<asrwt>0</asrwt>
<pdfrwt beam="2">  1        2 0.11541087E-01 0.14414410E+03</pdfrwt>
<pdfrwt beam="1">  1       -2 0.33364267E-01 0.14414410E+03</pdfrwt>
<totfact> 0.43150553E+03</totfact>
</mgrwt>
</event>
<event>
 6    1  0.8353100E-006  0.3965814E+03  0.7546771E-02  0.1048874E+00
         -1   -1    0    0    0  501 -0.00000000000E+00  0.00000000000E+00  0.87029274093E+03  0.87029274093E+03  0.00000000000E+00 0.  1.
          1   -1    0    0  501    0  0.00000000000E+00 -0.00000000000E+00 -0.19253539072E+03  0.19253539072E+03  0.00000000000E+00 0. -1.
          5    1    1    2  502    0 -0.73820268869E+02  0.31264953286E+03  0.17227034621E+03  0.36455222490E+03  0.47000000000E+01 0. -1.
         -5    1    1    2    0  502  0.44806218361E+02  0.20875334230E+02 -0.28540231306E+02  0.57271385404E+02  0.47000000000E+01 0.  1.
        -11    1    1    2    0    0  0.55529587051E+02 -0.30728656234E+03  0.50496974662E+03  0.59371964043E+03  0.00000000000E+00 0.  1.
         11    1    1    2    0    0 -0.26515536543E+02 -0.26238304749E+02  0.29057488691E+02  0.47284880916E+02  0.00000000000E+00 0. -1.
<mgrwt>
<rscale>  0 0.38562653E+03</rscale>
<asrwt>0</asrwt>
<pdfrwt beam="2">  1        1 0.29620830E-01 0.39658141E+03</pdfrwt>
<pdfrwt beam="1">  1       -1 0.13389119E+00 0.39658141E+03</pdfrwt>
<totfact> 0.77139751E+01</totfact>
</mgrwt>
</event>
<event>
 6    1  0.8353100E-006  0.1307502E+03  0.7546771E-02  0.1239158E+00
          1   -1    0    0  501    0  0.00000000000E+00  0.00000000000E+00  0.12364587967E+03  0.12364587967E+03  0.00000000000E+00 0. -1.
         -1   -1    0    0    0  501 -0.00000000000E+00 -0.00000000000E+00 -0.10975290395E+03  0.10975290395E+03  0.00000000000E+00 0.  1.
          5    1    1    2  502    0 -0.49922054079E+01  0.68819619833E+02  0.53729246620E+02  0.87578445586E+02  0.47000000000E+01 0.  1.
         -5    1    1    2    0  502 -0.34414347099E+01 -0.31411399147E+02 -0.31710294018E+02  0.45012800578E+02  0.47000000000E+01 0.  1.
        -11    1    1    2    0    0 -0.34819244999E+02  0.18319220150E+00  0.16382357697E+02  0.38481099587E+02  0.00000000000E+00 0. -1.
         11    1    1    2    0    0  0.43252885117E+02 -0.37591412888E+02 -0.24508334585E+02  0.62326437873E+02  0.00000000000E+00 0.  1.
<mgrwt>
<rscale>  0 0.12241962E+03</rscale>
<asrwt>0</asrwt>
<pdfrwt beam="1">  1        1 0.19022443E-01 0.13075016E+03</pdfrwt>
<pdfrwt beam="2">  1       -1 0.16885062E-01 0.13075016E+03</pdfrwt>
<totfact> 0.68481338E+03</totfact>
</mgrwt>
</event>
<event>
 6    1  0.8353100E-006  0.1304474E+03  0.7546771E-02  0.1238787E+00
          3   -1    0    0  501    0  0.00000000000E+00  0.00000000000E+00  0.25075533443E+03  0.25075533443E+03  0.00000000000E+00 0. -1.
         -3   -1    0    0    0  501 -0.00000000000E+00 -0.00000000000E+00 -0.54249719550E+02  0.54249719550E+02  0.00000000000E+00 0.  1.
          5    1    1    2  502    0 -0.61551611158E+02 -0.92956018023E+01  0.44271482093E+02  0.76531452199E+02  0.47000000000E+01 0.  1.
         -5    1    1    2    0  502  0.59810712119E+02 -0.27516310490E+02  0.79027527096E+02  0.10296557030E+03  0.47000000000E+01 0.  1.
        -11    1    1    2    0    0 -0.94914795157E+01 -0.22820223163E+02  0.57858578056E+02  0.62916339875E+02  0.00000000000E+00 0. -1.
         11    1    1    2    0    0  0.11232378554E+02  0.59632135455E+02  0.15348027639E+02  0.62591691616E+02  0.00000000000E+00 0.  1.
<mgrwt>
<rscale>  0 0.12265058E+03</rscale>
<asrwt>0</asrwt>
<pdfrwt beam="1">  1        3 0.38577743E-01 0.13044744E+03</pdfrwt>
<pdfrwt beam="2">  1       -3 0.83461108E-02 0.13044744E+03</pdfrwt>
<totfact> 0.15137792E+03</totfact>
</mgrwt>
</event>
<event>
 6    1  0.8353100E-006  0.1293804E+03  0.7546771E-02  0.1242217E+00
         -1   -1    0    0    0  501 -0.00000000000E+00  0.00000000000E+00  0.49437400049E+02  0.49437400049E+02  0.00000000000E+00 0.  1.
          1   -1    0    0  501    0  0.00000000000E+00 -0.00000000000E+00 -0.26056286520E+03  0.26056286520E+03  0.00000000000E+00 0. -1.
          5    1    1    2  502    0 -0.68189634892E+02  0.33161915738E+02 -0.96995370738E+02  0.12320605061E+03  0.47000000000E+01 0. -1.
         -5    1    1    2    0  502  0.34827458803E+02 -0.34873686881E+02 -0.28948587635E+02  0.57351867009E+02  0.47000000000E+01 0. -1.
        -11    1    1    2    0    0  0.58798089497E+02  0.19959376807E+02 -0.73037909143E+02  0.95865156459E+02  0.00000000000E+00 0. -1.
         11    1    1    2    0    0 -0.25435913408E+02 -0.18247605664E+02 -0.12143597635E+02  0.33577191171E+02  0.00000000000E+00 0.  1.
<mgrwt>
<rscale>  0 0.12053509E+03</rscale>
<asrwt>0</asrwt>
<pdfrwt beam="2">  1        1 0.40086595E-01 0.12938037E+03</pdfrwt>
<pdfrwt beam="1">  1       -1 0.76057538E-02 0.12938037E+03</pdfrwt>
<totfact> 0.91911912E+03</totfact>
</mgrwt>
</event>
<event>
 6    1  0.8353100E-006  0.1416702E+03  0.7546771E-02  0.1220601E+00
         -2   -1    0    0    0  501 -0.00000000000E+00  0.00000000000E+00  0.36050181973E+02  0.36050181973E+02  0.00000000000E+00 0.  1.
          2   -1    0    0  501    0  0.00000000000E+00 -0.00000000000E+00 -0.46110362760E+03  0.46110362760E+03  0.00000000000E+00 0. -1.
          5    1    1    2  502    0  0.23374399238E+02 -0.55046468558E+01 -0.21694981883E+03  0.21832539377E+03  0.47000000000E+01 0.  1.
         -5    1    1    2    0  502  0.22342727912E+02  0.54040577032E+02 -0.28843257076E+02  0.65372814956E+02  0.47000000000E+01 0.  1.
        -11    1    1    2    0    0  0.47114565177E+01  0.17622499977E+02 -0.88416197275E+02  0.90278315605E+02  0.00000000000E+00 0. -1.
         11    1    1    2    0    0 -0.50428583668E+02 -0.66158430154E+02 -0.90844172451E+02  0.12317728524E+03  0.00000000000E+00 0.  1.
<mgrwt>
<rscale>  0 0.13473001E+03</rscale>
<asrwt>0</asrwt>
<pdfrwt beam="2">  1        2 0.70939018E-01 0.14167017E+03</pdfrwt>
<pdfrwt beam="1">  1       -2 0.55461819E-02 0.14167017E+03</pdfrwt>
<totfact> 0.10852180E+04</totfact>
</mgrwt>
</event>
<event>
 6    1  0.8353100E-006  0.3526730E+03  0.7546771E-02  0.1061523E+00
         -2   -1    0    0    0  501 -0.00000000000E+00  0.00000000000E+00  0.44214123123E+02  0.44214123123E+02  0.00000000000E+00 0.  1.
          2   -1    0    0  501    0  0.00000000000E+00 -0.00000000000E+00 -0.70327200822E+03  0.70327200822E+03  0.00000000000E+00 0. -1.
          5    1    1    2  502    0 -0.25459150909E+02 -0.20457450287E+02 -0.13125888977E+03  0.13534275666E+03  0.47000000000E+01 0.  1.
         -5    1    1    2    0  502 -0.24926537473E+02  0.14245679987E+03 -0.32239822086E+03  0.35338077892E+03  0.47000000000E+01 0.  1.
        -11    1    1    2    0    0  0.25184897009E+02 -0.41734843135E+02 -0.15645277125E+02  0.51194246407E+02  0.00000000000E+00 0.  1.
         11    1    1    2    0    0  0.25200791373E+02 -0.80264506445E+02 -0.18975549735E+03  0.20756834936E+03  0.00000000000E+00 0. -1.
<mgrwt>
<rscale>  0 0.35267297E+03</rscale>
<asrwt>0</asrwt>
<pdfrwt beam="2">  1        2 0.10819570E+00 0.35267297E+03</pdfrwt>
<pdfrwt beam="1">  1       -2 0.68021726E-02 0.35267297E+03</pdfrwt>
<totfact> 0.51034047E+03</totfact>
</mgrwt>
</event>
<event>
 6    1  0.8353100E-006  0.1297996E+03  0.7546771E-02  0.1243321E+00
          1   -1    0    0  501    0  0.00000000000E+00  0.00000000000E+00  0.10299193635E+03  0.10299193635E+03  0.00000000000E+00 0. -1.
         -1   -1    0    0    0  501 -0.00000000000E+00 -0.00000000000E+00 -0.12409146845E+03  0.12409146845E+03  0.00000000000E+00 0.  1.
          5    1    1    2  502    0  0.44240763525E+02 -0.40304914275E+02 -0.70232448822E+01  0.60441271005E+02  0.47000000000E+01 0. -1.
         -5    1    1    2    0  502 -0.67161935041E+02  0.13888098616E+02  0.93717888571E+01  0.69379573564E+02  0.47000000000E+01 0. -1.
        -11    1    1    2    0    0  0.20440954684E+02 -0.20334625736E+02  0.18619208537E+02  0.34322071015E+02  0.00000000000E+00 0. -1.
         11    1    1    2    0    0  0.24802168320E+01  0.46751441395E+02 -0.42067284608E+02  0.62940489212E+02  0.00000000000E+00 0.  1.
<mgrwt>
<rscale>  0 0.11986459E+03</rscale>
<asrwt>0</asrwt>
<pdfrwt beam="1">  1        1 0.15844913E-01 0.12979960E+03</pdfrwt>
<pdfrwt beam="2">  1       -1 0.19090995E-01 0.12979960E+03</pdfrwt>
<totfact> 0.71175468E+03</totfact>
</mgrwt>
</event>
<event>
 6    1  0.8353100E-006  0.1251750E+03  0.7546771E-02  0.1250371E+00
          2   -1    0    0  501    0  0.00000000000E+00  0.00000000000E+00  0.91235833587E+03  0.91235833587E+03  0.00000000000E+00 0. -1.
         -2   -1    0    0    0  501 -0.00000000000E+00 -0.00000000000E+00 -0.13828818051E+02  0.13828818051E+02  0.00000000000E+00 0.  1.
          5    1    1    2  502    0  0.18899497038E+02 -0.46180889604E+02  0.11675430868E+03  0.12705716881E+03  0.47000000000E+01 0.  1.
         -5    1    1    2    0  502 -0.13890386756E+02  0.41868514997E+02  0.51968799108E+03  0.52157800324E+03  0.47000000000E+01 0.  1.
        -11    1    1    2    0    0  0.36736148833E+02 -0.10427537928E+02  0.63568849535E+02  0.74157108961E+02  0.00000000000E+00 0.  1.
         11    1    1    2    0    0 -0.41745259116E+02  0.14739912535E+02  0.19851836852E+03  0.20339487290E+03  0.00000000000E+00 0. -1.
<mgrwt>
<rscale>  0 0.11569620E+03</rscale>
<asrwt>0</asrwt>
<pdfrwt beam="1">  1        2 0.14036277E+00 0.12517502E+03</pdfrwt>
<pdfrwt beam="2">  1       -2 0.21275112E-02 0.12517502E+03</pdfrwt>
<totfact> 0.19902799E+04</totfact>
</mgrwt>
</event>
<event>
 6    1  0.8353100E-006  0.2325810E+03  0.7546771E-02  0.1127518E+00
         -1   -1    0    0    0  501 -0.00000000000E+00  0.00000000000E+00  0.12357727846E+04  0.12357727846E+04  0.00000000000E+00 0.  1.
          1   -1    0    0  501    0  0.00000000000E+00 -0.00000000000E+00 -0.53580729866E+02  0.53580729866E+02  0.00000000000E+00 0. -1.
          5    1    1    2  502    0 -0.18813491574E+02  0.28348259266E+02  0.73704718116E+02  0.81314492811E+02  0.47000000000E+01 0. -1.
         -5    1    1    2    0  502 -0.15902971256E+03 -0.11105517971E+03  0.22024958584E+03  0.29352286534E+03  0.47000000000E+01 0. -1.
        -11    1    1    2    0    0  0.82807498483E+02  0.18469574564E+02  0.20739559443E+03  0.22407842283E+03  0.00000000000E+00 0.  1.
         11    1    1    2    0    0  0.95035705647E+02  0.64237345881E+02  0.68084215630E+03  0.69043773344E+03  0.00000000000E+00 0. -1.
<mgrwt>
<rscale>  0 0.22875604E+03</rscale>
<asrwt>0</asrwt>
<pdfrwt beam="2">  1        1 0.82431902E-02 0.23258098E+03</pdfrwt>
<pdfrwt beam="1">  1       -1 0.19011887E+00 0.23258098E+03</pdfrwt>
<totfact> 0.16328042E+02</totfact>
</mgrwt>
</event>
<event>
 6    1  0.8353100E-006  0.1439939E+03  0.7546771E-02  0.1218007E+00
         -1   -1    0    0    0  501 -0.00000000000E+00  0.00000000000E+00  0.52874312733E+02  0.52874312733E+02  0.00000000000E+00 0.  1.
          1   -1    0    0  501    0  0.00000000000E+00 -0.00000000000E+00 -0.32097242010E+03  0.32097242010E+03  0.00000000000E+00 0. -1.
          5    1    1    2  502    0  0.91238437298E+01 -0.74547128822E+02 -0.19923603235E+02  0.77843168653E+02  0.47000000000E+01 0.  1.
         -5    1    1    2    0  502 -0.13223909723E+02  0.31811707118E+01 -0.12723049631E+03  0.12804171518E+03  0.47000000000E+01 0.  1.
        -11    1    1    2    0    0  0.15684835586E+02  0.76548554873E+01  0.11246293949E+02  0.20762707133E+02  0.00000000000E+00 0.  1.
         11    1    1    2    0    0 -0.11584769594E+02  0.63711102623E+02 -0.13219030177E+03  0.14719914186E+03  0.00000000000E+00 0. -1.
<mgrwt>
<rscale>  0 0.13657951E+03</rscale>
<asrwt>0</asrwt>
<pdfrwt beam="2">  1        1 0.49380373E-01 0.14399395E+03</pdfrwt>
<pdfrwt beam="1">  1       -1 0.81345096E-02 0.14399395E+03</pdfrwt>
<totfact> 0.64639519E+03</totfact>
</mgrwt>
</event>
<event>
 6    1  0.8353100E-006  0.2158593E+03  0.7546771E-02  0.1137008E+00
          2   -1    0    0  501    0  0.00000000000E+00  0.00000000000E+00  0.44217296651E+03  0.44217296651E+03  0.00000000000E+00 0. -1.
         -2   -1    0    0    0  501 -0.00000000000E+00 -0.00000000000E+00 -0.26344451758E+02  0.26344451758E+02  0.00000000000E+00 0.  1.
          5    1    1    2  502    0  0.86496054869E+01 -0.53959690017E+02  0.26109681258E+03  0.26679598828E+03  0.47000000000E+01 0. -1.
         -5    1    1    2    0  502 -0.11706860497E+02  0.26712929977E+02  0.17921319412E+02  0.34552784260E+02  0.47000000000E+01 0.  1.
        -11    1    1    2    0    0  0.44193252856E+02  0.19017412782E+02  0.43497479862E+02  0.64859358163E+02  0.00000000000E+00 0. -1.
         11    1    1    2    0    0 -0.41135997846E+02  0.82293472576E+01  0.93312902896E+02  0.10230928756E+03  0.00000000000E+00 0.  1.
<mgrwt>
<rscale>  0 0.21585925E+03</rscale>
<asrwt>0</asrwt>
<pdfrwt beam="1">  1        2 0.68026605E-01 0.21585925E+03</pdfrwt>
<pdfrwt beam="2">  1       -2 0.40529929E-02 0.21585925E+03</pdfrwt>
<totfact> 0.18791601E+04</totfact>
</mgrwt>
</event>
<event>
 6    1  0.8353100E-006  0.1348715E+03  0.7546771E-02  0.1232829E+00
          2   -1    0    0  501    0  0.00000000000E+00  0.00000000000E+00  0.66610001185E+03  0.66610001185E+03  0.00000000000E+00 0. -1.
         -2   -1    0    0    0  501 -0.00000000000E+00 -0.00000000000E+00 -0.23476551752E+02  0.23476551752E+02  0.00000000000E+00 0.  1.
          5    1    1    2  502    0 -0.43162816190E+02 -0.50033341165E+02  0.41731209796E+03  0.42253738419E+03  0.47000000000E+01 0.  1.
         -5    1    1    2    0  502 -0.56832877600E+01  0.36624606703E+02  0.42211016574E+02  0.56369508567E+02  0.47000000000E+01 0.  1.
        -11    1    1    2    0    0 -0.21571901703E+02  0.14839972564E+02  0.19797592360E+02  0.32825544810E+02  0.00000000000E+00 0.  1.
         11    1    1    2    0    0  0.70418005654E+02 -0.14312381017E+01  0.16330275320E+03  0.17784412603E+03  0.00000000000E+00 0. -1.
<mgrwt>
<rscale>  0 0.12644414E+03</rscale>
<asrwt>0</asrwt>
<pdfrwt beam="1">  1        2 0.10247691E+00 0.13487149E+03</pdfrwt>
<pdfrwt beam="2">  1       -2 0.36117777E-02 0.13487149E+03</pdfrwt>
<totfact> 0.13587818E+04</totfact>
</mgrwt>
</event>
<event>
 6    1  0.8353100E-006  0.1264292E+03  0.7546771E-02  0.1247734E+00
          2   -1    0    0  501    0  0.00000000000E+00  0.00000000000E+00  0.40128266966E+03  0.40128266966E+03  0.00000000000E+00 0.  1.
         -2   -1    0    0    0  501 -0.00000000000E+00 -0.00000000000E+00 -0.30651525993E+02  0.30651525993E+02  0.00000000000E+00 0. -1.
          5    1    1    2  502    0 -0.49267004637E+02 -0.83642035394E+01  0.57997536910E+02  0.76700729686E+02  0.47000000000E+01 0. -1.
         -5    1    1    2    0  502  0.68177800095E+02  0.68810412592E+01  0.18263280190E+03  0.19512147878E+03  0.47000000000E+01 0. -1.
        -11    1    1    2    0    0  0.23197606617E+02 -0.72989505941E+01  0.11003385222E+03  0.11268918434E+03  0.00000000000E+00 0.  1.
         11    1    1    2    0    0 -0.42108402075E+02  0.87821128743E+01  0.19966952643E+02  0.47422802845E+02  0.00000000000E+00 0. -1.
<mgrwt>
<rscale>  0 0.11723235E+03</rscale>
<asrwt>0</asrwt>
<pdfrwt beam="1">  1        2 0.61735792E-01 0.12642924E+03</pdfrwt>
<pdfrwt beam="2">  1       -2 0.47156197E-02 0.12642924E+03</pdfrwt>
<totfact> 0.15938968E+04</totfact>
</mgrwt>
</event>
<event>
 6    1  0.8353100E-006  0.2463483E+03  0.7546771E-02  0.1115635E+00
          1   -1    0    0  501    0  0.00000000000E+00  0.00000000000E+00  0.11808825455E+04  0.11808825455E+04  0.00000000000E+00 0. -1.
         -1   -1    0    0    0  501 -0.00000000000E+00 -0.00000000000E+00 -0.12847908257E+02  0.12847908257E+02  0.00000000000E+00 0.  1.
          5    1    1    2  502    0 -0.44265166209E+02  0.27991179219E+02  0.68750115130E+03  0.68950912546E+03  0.47000000000E+01 0.  1.
         -5    1    1    2    0  502 -0.80455805494E+01 -0.15938101036E+02  0.97270830822E+01  0.20867692165E+02  0.47000000000E+01 0.  1.
        -11    1    1    2    0    0  0.42963526356E+02  0.38686435923E+02  0.24564971395E+03  0.25236142115E+03  0.00000000000E+00 0.  1.
         11    1    1    2    0    0  0.93472204027E+01 -0.50739514107E+02  0.22515668892E+03  0.23099221499E+03  0.00000000000E+00 0. -1.
<mgrwt>
<rscale>  0 0.24634829E+03</rscale>
<asrwt>0</asrwt>
<pdfrwt beam="1">  1        1 0.18167415E+00 0.24634829E+03</pdfrwt>
<pdfrwt beam="2">  1       -1 0.19766022E-02 0.24634829E+03</pdfrwt>
<totfact> 0.82060667E+03</totfact>
</mgrwt>
</event>
<event>
 6    1  0.8353100E-006  0.1268931E+03  0.7546771E-02  0.1246621E+00
          1   -1    0    0  501    0  0.00000000000E+00  0.00000000000E+00  0.62577610099E+03  0.62577610099E+03  0.00000000000E+00 0. -1.
         -1   -1    0    0    0  501 -0.00000000000E+00 -0.00000000000E+00 -0.23290555425E+02  0.23290555425E+02  0.00000000000E+00 0.  1.
          5    1    1    2  502    0 -0.70069841633E+01  0.73059752632E+02  0.24804332672E+03  0.25871684756E+03  0.47000000000E+01 0.  1.
         -5    1    1    2    0  502 -0.11898616419E+01 -0.52518929403E+02  0.21846556145E+03  0.22474195259E+03  0.47000000000E+01 0.  1.
        -11    1    1    2    0    0  0.36045128982E+02 -0.29918336325E+02  0.29986267489E+02  0.55619550606E+02  0.00000000000E+00 0.  1.
         11    1    1    2    0    0 -0.27848283176E+02  0.93775130964E+01  0.10599038991E+03  0.10998830566E+03  0.00000000000E+00 0. -1.
<mgrwt>
<rscale>  0 0.11788903E+03</rscale>
<asrwt>0</asrwt>
<pdfrwt beam="1">  1        1 0.96273233E-01 0.12689314E+03</pdfrwt>
<pdfrwt beam="2">  1       -1 0.35831629E-02 0.12689314E+03</pdfrwt>
<totfact> 0.91546989E+03</totfact>
</mgrwt>
</event>
<event>
 6    1  0.8353100E-006  0.2893746E+03  0.7546771E-02  0.1092216E+00
          2   -1    0    0  501    0  0.00000000000E+00  0.00000000000E+00  0.52660679294E+02  0.52660679294E+02  0.00000000000E+00 0. -1.
         -2   -1    0    0    0  501 -0.00000000000E+00 -0.00000000000E+00 -0.16411321369E+04  0.16411321369E+04  0.00000000000E+00 0.  1.
          5    1    1    2  502    0 -0.66494978857E+01 -0.89127124631E+01 -0.50810048751E+01  0.13098048562E+02  0.47000000000E+01 0.  1.
         -5    1    1    2    0  502 -0.79312127469E+01  0.26949360995E+03 -0.58136429363E+03  0.64085586667E+03  0.47000000000E+01 0.  1.
        -11    1    1    2    0    0 -0.25769863799E+02 -0.21383451506E+03 -0.74591356723E+03  0.77638671774E+03  0.00000000000E+00 0. -1.
         11    1    1    2    0    0  0.40350574432E+02 -0.46746382426E+02 -0.25611259182E+03  0.26345218317E+03  0.00000000000E+00 0.  1.
<mgrwt>
<rscale>  0 0.28645302E+03</rscale>
<asrwt>0</asrwt>
<pdfrwt beam="1">  1        2 0.81016433E-02 0.28937456E+03</pdfrwt>
<pdfrwt beam="2">  1       -2 0.25248186E+00 0.28937456E+03</pdfrwt>
<totfact> 0.57819778E+01</totfact>
</mgrwt>
</event>
<event>
 6    1  0.8353100E-006  0.1916235E+03  0.7546771E-02  0.1161429E+00
         -2   -1    0    0    0  501 -0.00000000000E+00  0.00000000000E+00  0.18319105802E+02  0.18319105802E+02  0.00000000000E+00 0.  1.
          2   -1    0    0  501    0  0.00000000000E+00 -0.00000000000E+00 -0.18173726099E+04  0.18173726099E+04  0.00000000000E+00 0. -1.
          5    1    1    2  502    0 -0.13996980921E+03  0.34816841964E+02 -0.83804110041E+03  0.85037564403E+03  0.47000000000E+01 0.  1.
         -5    1    1    2    0  502 -0.50389755434E+01 -0.42819467813E+02 -0.15335889570E+03  0.15937358309E+03  0.47000000000E+01 0.  1.
        -11    1    1    2    0    0  0.12710857620E+02  0.34672173058E+02 -0.14025226699E+03  0.14503249250E+03  0.00000000000E+00 0.  1.
         11    1    1    2    0    0  0.13229792713E+03 -0.26669547208E+02 -0.66740124102E+03  0.68090999609E+03  0.00000000000E+00 0. -1.
<mgrwt>
<rscale>  0 0.18674685E+03</rscale>
<asrwt>0</asrwt>
<pdfrwt beam="2">  1        2 0.27959585E+00 0.19162346E+03</pdfrwt>
<pdfrwt beam="1">  1       -2 0.28183233E-02 0.19162346E+03</pdfrwt>
<totfact> 0.42965662E+03</totfact>
</mgrwt>
</event>
<event>
 6    1  0.8353100E-006  0.1563556E+03  0.7546771E-02  0.1200814E+00
         -1   -1    0    0    0  501 -0.00000000000E+00  0.00000000000E+00  0.70387524170E+02  0.70387524170E+02  0.00000000000E+00 0.  1.
          1   -1    0    0  501    0  0.00000000000E+00 -0.00000000000E+00 -0.37366321046E+03  0.37366321046E+03  0.00000000000E+00 0. -1.
          5    1    1    2  502    0 -0.75622525479E+02  0.52912801037E+02 -0.11557617866E+03  0.14798132972E+03  0.47000000000E+01 0. -1.
         -5    1    1    2    0  502 -0.18301648379E+02 -0.53336503618E+02 -0.14845052136E+03  0.15886906635E+03  0.47000000000E+01 0. -1.
        -11    1    1    2    0    0  0.91024178129E+02 -0.33670106096E+02 -0.32293236620E+02  0.10228357727E+03  0.00000000000E+00 0. -1.
         11    1    1    2    0    0  0.28999957287E+01  0.34093808676E+02 -0.69557496551E+01  0.34916761284E+02  0.00000000000E+00 0.  1.
<mgrwt>
<rscale>  0 0.14972311E+03</rscale>
<asrwt>0</asrwt>
<pdfrwt beam="2">  1        1 0.57486648E-01 0.15635558E+03</pdfrwt>
<pdfrwt beam="1">  1       -1 0.10828850E-01 0.15635558E+03</pdfrwt>
<totfact> 0.34701010E+03</totfact>
</mgrwt>
</event>
<event>
 6    1  0.8353100E-006  0.1325920E+03  0.7546771E-02  0.1236798E+00
         -2   -1    0    0    0  501 -0.00000000000E+00  0.00000000000E+00  0.16041619510E+02  0.16041619510E+02  0.00000000000E+00 0. -1.
          2   -1    0    0  501    0  0.00000000000E+00 -0.00000000000E+00 -0.87560284296E+03  0.87560284296E+03  0.00000000000E+00 0.  1.
          5    1    1    2  502    0 -0.25935163179E+02 -0.28547851427E+02 -0.42625940554E+03  0.42802661520E+03  0.47000000000E+01 0.  1.
         -5    1    1    2    0  502  0.61869326232E+02  0.27833597739E+01 -0.13378289015E+03  0.14749749936E+03  0.47000000000E+01 0.  1.
        -11    1    1    2    0    0  0.29372649649E+02  0.13152658405E+02 -0.67909809916E+02  0.75149765491E+02  0.00000000000E+00 0. -1.
         11    1    1    2    0    0 -0.65306812701E+02  0.12611833248E+02 -0.23160911784E+03  0.24097058241E+03  0.00000000000E+00 0.  1.
<mgrwt>
<rscale>  0 0.12390017E+03</rscale>
<asrwt>0</asrwt>
<pdfrwt beam="2">  1        2 0.13470814E+00 0.13259198E+03</pdfrwt>
<pdfrwt beam="1">  1       -2 0.24679413E-02 0.13259198E+03</pdfrwt>
<totfact> 0.16990159E+04</totfact>
</mgrwt>
</event>
<event>
 6    1  0.8353100E-006  0.1604897E+03  0.7546771E-02  0.1195627E+00
         -1   -1    0    0    0  501 -0.00000000000E+00  0.00000000000E+00  0.23186080420E+02  0.23186080420E+02  0.00000000000E+00 0.  1.
          1   -1    0    0  501    0  0.00000000000E+00 -0.00000000000E+00 -0.94855238509E+03  0.94855238509E+03  0.00000000000E+00 0. -1.
          5    1    1    2  502    0 -0.14483817048E+02  0.69513792639E+02 -0.22799538470E+03  0.23884290604E+03  0.47000000000E+01 0.  1.
         -5    1    1    2    0  502  0.89121857595E+02 -0.19706830858E+01 -0.26991351865E+03  0.28429207981E+03  0.47000000000E+01 0.  1.
        -11    1    1    2    0    0  0.26938213920E+01 -0.34051095322E+02 -0.42476508615E+02  0.54506766098E+02  0.00000000000E+00 0.  1.
         11    1    1    2    0    0 -0.77331861939E+02 -0.33492014231E+02 -0.38498089271E+03  0.39409671356E+03  0.00000000000E+00 0. -1.
<mgrwt>
<rscale>  0 0.15401246E+03</rscale>
<asrwt>0</asrwt>
<pdfrwt beam="2">  1        1 0.14593111E+00 0.16048968E+03</pdfrwt>
<pdfrwt beam="1">  1       -1 0.35670898E-02 0.16048968E+03</pdfrwt>
<totfact> 0.50111664E+03</totfact>
</mgrwt>
</event>
<event>
 6    1  0.8353100E-006  0.1328117E+03  0.7546771E-02  0.1236688E+00
          1   -1    0    0  501    0  0.00000000000E+00  0.00000000000E+00  0.25239257579E+03  0.25239257579E+03  0.00000000000E+00 0. -1.
         -1   -1    0    0    0  501 -0.00000000000E+00 -0.00000000000E+00 -0.58620879549E+02  0.58620879549E+02  0.00000000000E+00 0.  1.
          5    1    1    2  502    0  0.20011368952E+02  0.67014909584E+02  0.62348975754E+02  0.93813313402E+02  0.47000000000E+01 0.  1.
         -5    1    1    2    0  502 -0.49866630881E+02 -0.33528035104E+02  0.89739216687E+02  0.10810192887E+03  0.47000000000E+01 0.  1.
        -11    1    1    2    0    0  0.22817669408E+02  0.12297205477E+02  0.55083290353E+02  0.60877222143E+02  0.00000000000E+00 0. -1.
         11    1    1    2    0    0  0.70375925210E+01 -0.45784079957E+02 -0.13399786555E+02  0.48220990924E+02  0.00000000000E+00 0.  1.
<mgrwt>
<rscale>  0 0.12396959E+03</rscale>
<asrwt>0</asrwt>
<pdfrwt beam="1">  1        1 0.38829627E-01 0.13281170E+03</pdfrwt>
<pdfrwt beam="2">  1       -1 0.90185970E-02 0.13281170E+03</pdfrwt>
<totfact> 0.74058885E+03</totfact>
</mgrwt>
</event>
<event>
 6    1  0.8353100E-006  0.3112669E+03  0.7546771E-02  0.1081210E+00
          2   -1    0    0  501    0  0.00000000000E+00  0.00000000000E+00  0.64391926910E+03  0.64391926910E+03  0.00000000000E+00 0. -1.
         -2   -1    0    0    0  501 -0.00000000000E+00 -0.00000000000E+00 -0.15165403970E+03  0.15165403970E+03  0.00000000000E+00 0.  1.
          5    1    1    2  502    0 -0.42917352590E+02  0.65743809420E+02  0.11549608737E+03  0.13973397521E+03  0.47000000000E+01 0. -1.
         -5    1    1    2    0  502 -0.12810784982E+03  0.16232533145E+03  0.50019199212E+02  0.21280306555E+03  0.47000000000E+01 0. -1.
        -11    1    1    2    0    0  0.87992957692E+02 -0.13717077275E+03  0.24846161424E+03  0.29713928594E+03  0.00000000000E+00 0. -1.
         11    1    1    2    0    0  0.83032244721E+02 -0.90898368126E+02  0.78288328572E+02  0.14589698209E+03  0.00000000000E+00 0.  1.
<mgrwt>
<rscale>  0 0.30820310E+03</rscale>
<asrwt>0</asrwt>
<pdfrwt beam="1">  1        2 0.99064502E-01 0.31126685E+03</pdfrwt>
<pdfrwt beam="2">  1       -2 0.23331391E-01 0.31126685E+03</pdfrwt>
<totfact> 0.74744665E+02</totfact>
</mgrwt>
</event>
<event>
 6    1  0.8353100E-006  0.1491411E+03  0.7546771E-02  0.1209710E+00
         -1   -1    0    0    0  501 -0.00000000000E+00  0.00000000000E+00  0.92800698379E+02  0.92800698379E+02  0.00000000000E+00 0.  1.
          1   -1    0    0  501    0  0.00000000000E+00 -0.00000000000E+00 -0.20395054588E+03  0.20395054588E+03  0.00000000000E+00 0. -1.
          5    1    1    2  502    0  0.96290456069E+02  0.17351842183E+02 -0.63113643788E+02  0.11652622190E+03  0.47000000000E+01 0.  1.
         -5    1    1    2    0  502 -0.19458730514E+02 -0.44077081593E+02 -0.94211639426E+01  0.49318147218E+02  0.47000000000E+01 0.  1.
        -11    1    1    2    0    0 -0.74269778585E+02  0.10956592806E+02  0.13606258905E+02  0.76296639627E+02  0.00000000000E+00 0.  1.
         11    1    1    2    0    0 -0.25619469696E+01  0.15768646604E+02 -0.52221298678E+02  0.54610235520E+02  0.00000000000E+00 0. -1.
<mgrwt>
<rscale>  0 0.14272385E+03</rscale>
<asrwt>0</asrwt>
<pdfrwt beam="2">  1        1 0.31377007E-01 0.14914106E+03</pdfrwt>
<pdfrwt beam="1">  1       -1 0.14277030E-01 0.14914106E+03</pdfrwt>
<totfact> 0.47900780E+03</totfact>
</mgrwt>
</event>
<event>
 6    1  0.8353100E-006  0.1391952E+03  0.7546771E-02  0.1226221E+00
         -1   -1    0    0    0  501 -0.00000000000E+00  0.00000000000E+00  0.38203994332E+03  0.38203994332E+03  0.00000000000E+00 0.  1.
          1   -1    0    0  501    0  0.00000000000E+00 -0.00000000000E+00 -0.45381202029E+02  0.45381202029E+02  0.00000000000E+00 0. -1.
          5    1    1    2  502    0 -0.73064431920E+02 -0.13825462287E+02  0.69100871973E+02  0.10161975756E+03  0.47000000000E+01 0.  1.
         -5    1    1    2    0  502  0.29487555462E+02  0.56852098324E+02  0.45858058072E+02  0.78909622361E+02  0.47000000000E+01 0.  1.
        -11    1    1    2    0    0  0.55943620072E+02 -0.88107741315E+00  0.17043723829E+03  0.17938594460E+03  0.00000000000E+00 0.  1.
         11    1    1    2    0    0 -0.12366743614E+02 -0.42145558624E+02  0.51262572956E+02  0.67505820827E+02  0.00000000000E+00 0. -1.
<mgrwt>
<rscale>  0 0.13083539E+03</rscale>
<asrwt>0</asrwt>
<pdfrwt beam="2">  1        1 0.69817237E-02 0.13919519E+03</pdfrwt>
<pdfrwt beam="1">  1       -1 0.58775374E-01 0.13919519E+03</pdfrwt>
<totfact> 0.30590241E+03</totfact>
</mgrwt>
</event>
<event>
 6    1  0.8353100E-006  0.1380207E+03  0.7546771E-02  0.1224909E+00
          1   -1    0    0  501    0  0.00000000000E+00  0.00000000000E+00  0.14080106011E+04  0.14080106011E+04  0.00000000000E+00 0. -1.
         -1   -1    0    0    0  501 -0.00000000000E+00 -0.00000000000E+00 -0.13588742208E+02  0.13588742208E+02  0.00000000000E+00 0.  1.
          5    1    1    2  502    0  0.17343962898E+02 -0.81741460363E+02  0.82837258134E+03  0.83258975666E+03  0.47000000000E+01 0.  1.
         -5    1    1    2    0  502  0.23022181108E+02  0.39349787216E+02  0.21195288841E+03  0.21685143182E+03  0.47000000000E+01 0.  1.
        -11    1    1    2    0    0  0.42220085312E+01  0.63394673497E+02  0.23052192391E+03  0.23911726702E+03  0.00000000000E+00 0. -1.
         11    1    1    2    0    0 -0.44588152538E+02 -0.21003000349E+02  0.12357446527E+03  0.13304088784E+03  0.00000000000E+00 0.  1.
<mgrwt>
<rscale>  0 0.13173143E+03</rscale>
<asrwt>0</asrwt>
<pdfrwt beam="1">  1        1 0.21661690E+00 0.13802074E+03</pdfrwt>
<pdfrwt beam="2">  1       -1 0.20905768E-02 0.13802074E+03</pdfrwt>
<totfact> 0.52022544E+03</totfact>
</mgrwt>
</event>
<event>
 6    1  0.8353100E-006  0.2636552E+03  0.7546771E-02  0.1104967E+00
          1   -1    0    0  501    0  0.00000000000E+00  0.00000000000E+00  0.37543729556E+03  0.37543729556E+03  0.00000000000E+00 0. -1.
         -1   -1    0    0    0  501 -0.00000000000E+00 -0.00000000000E+00 -0.46288734159E+02  0.46288734159E+02  0.00000000000E+00 0.  1.
          5    1    1    2  502    0  0.16163293699E+02 -0.67081779056E+02  0.58361012014E+02  0.90494833377E+02  0.47000000000E+01 0.  1.
         -5    1    1    2    0  502  0.18988337170E+01  0.17672283929E+02  0.20418857144E+03  0.20501457972E+03  0.47000000000E+01 0.  1.
        -11    1    1    2    0    0 -0.36135410092E+01  0.37261920775E+02 -0.16564555663E+02  0.40937671194E+02  0.00000000000E+00 0.  1.
         11    1    1    2    0    0 -0.14448586407E+02  0.12147574353E+02  0.83163533612E+02  0.85278945436E+02  0.00000000000E+00 0. -1.
<mgrwt>
<rscale>  0 0.26365521E+03</rscale>
<asrwt>0</asrwt>
<pdfrwt beam="1">  1        1 0.57759582E-01 0.26365521E+03</pdfrwt>
<pdfrwt beam="2">  1       -1 0.71213440E-02 0.26365521E+03</pdfrwt>
<totfact> 0.67117821E+03</totfact>
</mgrwt>
</event>
<event>
 6    1  0.8353100E-006  0.2619464E+03  0.7546771E-02  0.1105979E+00
         -2   -1    0    0    0  501 -0.00000000000E+00  0.00000000000E+00  0.21687676292E+02  0.21687676292E+02  0.00000000000E+00 0.  1.
          2   -1    0    0  501    0  0.00000000000E+00 -0.00000000000E+00 -0.79095515572E+03  0.79095515572E+03  0.00000000000E+00 0. -1.
          5    1    1    2  502    0  0.84892502590E+01 -0.48554783732E+02 -0.76953473514E+02  0.91507166272E+02  0.47000000000E+01 0.  1.
         -5    1    1    2    0  502 -0.11650487955E+02 -0.68848009649E+00 -0.52994689593E+03  0.53009622747E+03  0.47000000000E+01 0.  1.
        -11    1    1    2    0    0 -0.38317216758E+02  0.42524938345E+02 -0.77583637418E+02  0.96414730598E+02  0.00000000000E+00 0.  1.
         11    1    1    2    0    0  0.41478454454E+02  0.67183254835E+01 -0.84783472563E+02  0.94624707667E+02  0.00000000000E+00 0. -1.
<mgrwt>
<rscale>  0 0.26194640E+03</rscale>
<asrwt>0</asrwt>
<pdfrwt beam="2">  1        2 0.12168544E+00 0.26194640E+03</pdfrwt>
<pdfrwt beam="1">  1       -2 0.33365646E-02 0.26194640E+03</pdfrwt>
<totfact> 0.12922258E+04</totfact>
</mgrwt>
</event>
<event>
 6    1  0.8353100E-006  0.1298670E+03  0.7546771E-02  0.1241367E+00
         -1   -1    0    0    0  501 -0.00000000000E+00  0.00000000000E+00  0.43665779940E+02  0.43665779940E+02  0.00000000000E+00 0.  1.
          1   -1    0    0  501    0  0.00000000000E+00 -0.00000000000E+00 -0.38723411888E+03  0.38723411888E+03  0.00000000000E+00 0. -1.
          5    1    1    2  502    0  0.23050320238E+02 -0.36731611727E+02 -0.42741460073E+02  0.61069230978E+02  0.47000000000E+01 0. -1.
         -5    1    1    2    0  502 -0.58248408919E+02  0.35357510733E+02 -0.25045569574E+03  0.25960195730E+03  0.47000000000E+01 0. -1.
        -11    1    1    2    0    0  0.40959685549E+02 -0.38163045409E+02 -0.40430081945E+02  0.69055813667E+02  0.00000000000E+00 0.  1.
         11    1    1    2    0    0 -0.57615968681E+01  0.39537146402E+02 -0.99411011817E+01  0.41172896871E+02  0.00000000000E+00 0. -1.
<mgrwt>
<rscale>  0 0.12105483E+03</rscale>
<asrwt>0</asrwt>
<pdfrwt beam="2">  1        1 0.59574479E-01 0.12986700E+03</pdfrwt>
<pdfrwt beam="1">  1       -1 0.67178124E-02 0.12986700E+03</pdfrwt>
<totfact> 0.67742624E+03</totfact>
</mgrwt>
</event>
<event>
 6    1  0.8353100E-006  0.1651637E+03  0.7546771E-02  0.1189720E+00
         -2   -1    0    0    0  501 -0.00000000000E+00  0.00000000000E+00  0.31185970434E+02  0.31185970434E+02  0.00000000000E+00 0.  1.
          2   -1    0    0  501    0  0.00000000000E+00 -0.00000000000E+00 -0.78715351374E+03  0.78715351374E+03  0.00000000000E+00 0. -1.
          5    1    1    2  502    0 -0.49563331774E+02  0.45352455225E+01 -0.38019809359E+03  0.38347069338E+03  0.47000000000E+01 0.  1.
         -5    1    1    2    0  502 -0.29919668574E+02  0.68515439634E+02 -0.10436113571E+03  0.12846356948E+03  0.47000000000E+01 0.  1.
        -11    1    1    2    0    0  0.51142328300E+02 -0.46991088584E+02 -0.60796754380E+02  0.92303550817E+02  0.00000000000E+00 0.  1.
         11    1    1    2    0    0  0.28340672047E+02 -0.26059596573E+02 -0.21061155962E+03  0.21410167050E+03  0.00000000000E+00 0. -1.
<mgrwt>
<rscale>  0 0.15909740E+03</rscale>
<asrwt>0</asrwt>
<pdfrwt beam="2">  1        2 0.12110055E+00 0.16516368E+03</pdfrwt>
<pdfrwt beam="1">  1       -2 0.47978413E-02 0.16516368E+03</pdfrwt>
<totfact> 0.73614996E+03</totfact>
</mgrwt>
</event>
<event>
 6    1  0.8353100E-006  0.3069546E+03  0.7546771E-02  0.1081815E+00
          1   -1    0    0  501    0  0.00000000000E+00  0.00000000000E+00  0.85232840711E+03  0.85232840711E+03  0.00000000000E+00 0. -1.
         -1   -1    0    0    0  501 -0.00000000000E+00 -0.00000000000E+00 -0.27636395780E+02  0.27636395780E+02  0.00000000000E+00 0.  1.
          5    1    1    2  502    0 -0.11608307794E+02 -0.10807446422E+02  0.84133502249E+00  0.16563560989E+02  0.47000000000E+01 0.  1.
         -5    1    1    2    0  502 -0.29147212226E+02 -0.79768118315E+02  0.56514207853E+03  0.57150693049E+03  0.47000000000E+01 0.  1.
        -11    1    1    2    0    0  0.34286174430E+01  0.83980061601E+02  0.22836054719E+03  0.24333710296E+03  0.00000000000E+00 0.  1.
         11    1    1    2    0    0  0.37326902577E+02  0.65955031363E+01  0.30348050592E+02  0.48557208449E+02  0.00000000000E+00 0. -1.
<mgrwt>
<rscale>  0 0.30695462E+03</rscale>
<asrwt>0</asrwt>
<pdfrwt beam="1">  1        1 0.13112743E+00 0.30695462E+03</pdfrwt>
<pdfrwt beam="2">  1       -1 0.42517538E-02 0.30695462E+03</pdfrwt>
<totfact> 0.46881936E+03</totfact>
</mgrwt>
</event>
<event>
 6    1  0.8353100E-006  0.2387122E+03  0.7546771E-02  0.1120654E+00
         -2   -1    0    0    0  501 -0.00000000000E+00  0.00000000000E+00  0.13488271533E+03  0.13488271533E+03  0.00000000000E+00 0.  1.
          2   -1    0    0  501    0  0.00000000000E+00 -0.00000000000E+00 -0.10561674490E+03  0.10561674490E+03  0.00000000000E+00 0. -1.
          5    1    1    2  502    0 -0.21417202107E+02  0.25110585693E+02  0.52257486668E+02  0.61985264159E+02  0.47000000000E+01 0. -1.
         -5    1    1    2    0  502 -0.36153037852E+00  0.51687820679E+01 -0.69200403993E+02  0.69553094288E+02  0.47000000000E+01 0. -1.
        -11    1    1    2    0    0  0.32147331519E+02 -0.47401236705E+02  0.61300104472E+02  0.83892973325E+02  0.00000000000E+00 0.  1.
         11    1    1    2    0    0 -0.10368599033E+02  0.17121868945E+02 -0.15091216727E+02  0.25068128457E+02  0.00000000000E+00 0. -1.
<mgrwt>
<rscale>  0 0.23871216E+03</rscale>
<asrwt>0</asrwt>
<pdfrwt beam="2">  1        2 0.16248730E-01 0.23871216E+03</pdfrwt>
<pdfrwt beam="1">  1       -2 0.20751187E-01 0.23871216E+03</pdfrwt>
<totfact> 0.68710556E+03</totfact>
</mgrwt>
</event>
<event>
 6    1  0.8353100E-006  0.1301299E+03  0.7546771E-02  0.1241047E+00
         -1   -1    0    0    0  501 -0.00000000000E+00  0.00000000000E+00  0.13089375779E+02  0.13089375779E+02  0.00000000000E+00 0.  1.
          1   -1    0    0  501    0  0.00000000000E+00 -0.00000000000E+00 -0.10135803421E+04  0.10135803421E+04  0.00000000000E+00 0. -1.
          5    1    1    2  502    0 -0.13057898121E+02 -0.28960993716E+02 -0.57760141699E+03  0.57849350452E+03  0.47000000000E+01 0. -1.
         -5    1    1    2    0  502  0.39921685150E+02  0.47213093131E+01 -0.60826260985E+02  0.73061314882E+02  0.47000000000E+01 0. -1.
        -11    1    1    2    0    0 -0.29727138060E+02 -0.25762518600E+02 -0.86328800667E+02  0.94868708890E+02  0.00000000000E+00 0.  1.
         11    1    1    2    0    0  0.28633510312E+01  0.50002203003E+02 -0.27573448772E+03  0.28024618963E+03  0.00000000000E+00 0. -1.
<mgrwt>
<rscale>  0 0.12125155E+03</rscale>
<asrwt>0</asrwt>
<pdfrwt beam="2">  1        1 0.15593547E+00 0.13012987E+03</pdfrwt>
<pdfrwt beam="1">  1       -1 0.20137497E-02 0.13012987E+03</pdfrwt>
<totfact> 0.10200974E+04</totfact>
</mgrwt>
</event>
<event>
 6    1  0.8353100E-006  0.3208387E+03  0.7546771E-02  0.1075264E+00
         -2   -1    0    0    0  501 -0.00000000000E+00  0.00000000000E+00  0.94950467325E+02  0.94950467325E+02  0.00000000000E+00 0.  1.
          2   -1    0    0  501    0  0.00000000000E+00 -0.00000000000E+00 -0.27102944069E+03  0.27102944069E+03  0.00000000000E+00 0. -1.
          5    1    1    2  502    0 -0.10774572537E+03 -0.64013473686E+02 -0.12881404752E+03  0.17978324446E+03  0.47000000000E+01 0.  1.
         -5    1    1    2    0  502  0.29497127847E+02  0.90679618617E+01 -0.44000263836E+02  0.53948324359E+02  0.47000000000E+01 0.  1.
        -11    1    1    2    0    0  0.17726344458E+02  0.27184232656E+02 -0.43635159222E+02  0.54380446057E+02  0.00000000000E+00 0.  1.
         11    1    1    2    0    0  0.60522253069E+02  0.27761279168E+02  0.40370497209E+02  0.77867893143E+02  0.00000000000E+00 0. -1.
<mgrwt>
<rscale>  0 0.32083873E+03</rscale>
<asrwt>0</asrwt>
<pdfrwt beam="2">  1        2 0.41696837E-01 0.32083873E+03</pdfrwt>
<pdfrwt beam="1">  1       -2 0.14607764E-01 0.32083873E+03</pdfrwt>
<totfact> 0.43707082E+03</totfact>
</mgrwt>
</event>
<event>
 6    1  0.8353100E-006  0.1319171E+03  0.7546771E-02  0.1238297E+00
         -1   -1    0    0    0  501 -0.00000000000E+00  0.00000000000E+00  0.85103794345E+02  0.85103794345E+02  0.00000000000E+00 0.  1.
          1   -1    0    0  501    0  0.00000000000E+00 -0.00000000000E+00 -0.16024271087E+03  0.16024271087E+03  0.00000000000E+00 0. -1.
          5    1    1    2  502    0 -0.25212402911E+01  0.42177056433E+02 -0.76339169705E+02  0.87378599057E+02  0.47000000000E+01 0. -1.
         -5    1    1    2    0  502  0.43908089879E+02 -0.31687852383E+02  0.17452324132E+02  0.57085146606E+02  0.47000000000E+01 0. -1.
        -11    1    1    2    0    0 -0.68873916014E+02  0.29118765401E+01 -0.97834246089E+01  0.69626221563E+02  0.00000000000E+00 0.  1.
         11    1    1    2    0    0  0.27487066427E+02 -0.13401080590E+02 -0.64686463482E+01  0.31256537993E+02  0.00000000000E+00 0. -1.
<mgrwt>
<rscale>  0 0.12295678E+03</rscale>
<asrwt>0</asrwt>
<pdfrwt beam="2">  1        1 0.24652724E-01 0.13191707E+03</pdfrwt>
<pdfrwt beam="1">  1       -1 0.13092892E-01 0.13191707E+03</pdfrwt>
<totfact> 0.73520911E+03</totfact>
</mgrwt>
</event>
<event>
 6    1  0.8353100E-006  0.1999979E+03  0.7546771E-02  0.1154037E+00
         -2   -1    0    0    0  501 -0.00000000000E+00  0.00000000000E+00  0.17885668656E+02  0.17885668656E+02  0.00000000000E+00 0.  1.
          2   -1    0    0  501    0  0.00000000000E+00 -0.00000000000E+00 -0.22919084136E+04  0.22919084136E+04  0.00000000000E+00 0. -1.
          5    1    1    2  502    0  0.11816150648E+03  0.48583300438E+02 -0.70953108065E+03  0.72095694955E+03  0.47000000000E+01 0.  1.
         -5    1    1    2    0  502  0.36388685799E+02 -0.26476634826E+02 -0.87148192129E+03  0.87265570403E+03  0.47000000000E+01 0.  1.
        -11    1    1    2    0    0 -0.98192056569E+02 -0.53863975798E+02 -0.50766525829E+03  0.51987212114E+03  0.00000000000E+00 0.  1.
         11    1    1    2    0    0 -0.56358135714E+02  0.31757310186E+02 -0.18534448473E+03  0.19630930755E+03  0.00000000000E+00 0. -1.
<mgrwt>
<rscale>  0 0.19498899E+03</rscale>
<asrwt>0</asrwt>
<pdfrwt beam="2">  1        2 0.35260134E+00 0.19999794E+03</pdfrwt>
<pdfrwt beam="1">  1       -2 0.27516410E-02 0.19999794E+03</pdfrwt>
<totfact> 0.25161198E+03</totfact>
</mgrwt>
</event>
<event>
 6    1  0.8353100E-006  0.1494972E+03  0.7546771E-02  0.1210773E+00
          1   -1    0    0  501    0  0.00000000000E+00  0.00000000000E+00  0.54852845273E+02  0.54852845273E+02  0.00000000000E+00 0. -1.
         -1   -1    0    0    0  501 -0.00000000000E+00 -0.00000000000E+00 -0.35504285554E+03  0.35504285554E+03  0.00000000000E+00 0.  1.
          5    1    1    2  502    0 -0.59423138565E+02 -0.41595970363E+02 -0.83852096431E+02  0.11097115942E+03  0.47000000000E+01 0. -1.
         -5    1    1    2    0  502 -0.17924621260E+02  0.68821863163E+02 -0.31831256327E+02  0.78058053882E+02  0.47000000000E+01 0. -1.
        -11    1    1    2    0    0  0.58701368356E+02 -0.59372816502E+02 -0.11591330071E+03  0.14285263480E+03  0.00000000000E+00 0.  1.
         11    1    1    2    0    0  0.18646391469E+02  0.32146923703E+02 -0.68593356798E+02  0.78013852714E+02  0.00000000000E+00 0. -1.
<mgrwt>
<rscale>  0 0.14191697E+03</rscale>
<asrwt>0</asrwt>
<pdfrwt beam="1">  1        1 0.84388994E-02 0.14949718E+03</pdfrwt>
<pdfrwt beam="2">  1       -1 0.54621977E-01 0.14949718E+03</pdfrwt>
<totfact> 0.27297982E+03</totfact>
</mgrwt>
</event>
<event>
 6    1  0.8353100E-006  0.1298268E+03  0.7546771E-02  0.1240741E+00
         -3   -1    0    0    0  501 -0.00000000000E+00  0.00000000000E+00  0.71958810318E+03  0.71958810318E+03  0.00000000000E+00 0.  1.
          3   -1    0    0  501    0  0.00000000000E+00 -0.00000000000E+00 -0.18574082719E+02  0.18574082719E+02  0.00000000000E+00 0. -1.
          5    1    1    2  502    0  0.39386255766E+02 -0.16272468917E+01  0.22050290921E+03  0.22404809315E+03  0.47000000000E+01 0.  1.
         -5    1    1    2    0  502 -0.73534712510E+02 -0.63474451253E+01  0.12770065109E+03  0.14757096697E+03  0.47000000000E+01 0.  1.
        -11    1    1    2    0    0  0.29188815967E+02  0.42653100272E+02  0.29048650853E+03  0.29504861561E+03  0.00000000000E+00 0. -1.
         11    1    1    2    0    0  0.49596407770E+01 -0.34678408255E+02  0.62323951630E+02  0.71494510157E+02  0.00000000000E+00 0.  1.
<mgrwt>
<rscale>  0 0.12143965E+03</rscale>
<asrwt>0</asrwt>
<pdfrwt beam="2">  1        3 0.28575518E-02 0.12982683E+03</pdfrwt>
<pdfrwt beam="1">  1       -3 0.11070584E+00 0.12982683E+03</pdfrwt>
<totfact> 0.90187772E+02</totfact>
</mgrwt>
</event>
<event>
 6    1  0.8353100E-006  0.2603616E+03  0.7546771E-02  0.1106926E+00
          1   -1    0    0  501    0  0.00000000000E+00  0.00000000000E+00  0.14311906035E+03  0.14311906035E+03  0.00000000000E+00 0. -1.
         -1   -1    0    0    0  501 -0.00000000000E+00 -0.00000000000E+00 -0.11841215610E+03  0.11841215610E+03  0.00000000000E+00 0.  1.
          5    1    1    2  502    0 -0.19341084993E+02 -0.17171482888E+01  0.43626323540E+02  0.47983041511E+02  0.47000000000E+01 0. -1.
         -5    1    1    2    0  502  0.63368605789E+02 -0.68012637949E+02 -0.13394069681E+02  0.94036111271E+02  0.47000000000E+01 0.  1.
        -11    1    1    2    0    0 -0.64563867571E+02  0.25796457293E+02  0.56143376562E+01  0.69752928196E+02  0.00000000000E+00 0. -1.
         11    1    1    2    0    0  0.20536346775E+02  0.43933328944E+02 -0.11139687258E+02  0.49759135475E+02  0.00000000000E+00 0.  1.
<mgrwt>
<rscale>  0 0.26036157E+03</rscale>
<asrwt>0</asrwt>
<pdfrwt beam="1">  1        1 0.22018317E-01 0.26036157E+03</pdfrwt>
<pdfrwt beam="2">  1       -1 0.18217255E-01 0.26036157E+03</pdfrwt>
<totfact> 0.52414401E+03</totfact>
</mgrwt>
</event>
<event>
 6    1  0.8353100E-006  0.2191658E+03  0.7546771E-02  0.1137953E+00
         -1   -1    0    0    0  501 -0.00000000000E+00  0.00000000000E+00  0.15849317459E+03  0.15849317459E+03  0.00000000000E+00 0.  1.
          1   -1    0    0  501    0  0.00000000000E+00 -0.00000000000E+00 -0.62116846172E+03  0.62116846172E+03  0.00000000000E+00 0. -1.
          5    1    1    2  502    0  0.19060313228E+03  0.25593059867E+02 -0.42078664020E+03  0.46267488079E+03  0.47000000000E+01 0.  1.
         -5    1    1    2    0  502 -0.10783754261E+02 -0.17013898987E+02 -0.10402149208E+03  0.10605811110E+03  0.47000000000E+01 0.  1.
        -11    1    1    2    0    0 -0.12093564187E+03 -0.47579537973E+02  0.50108858839E+02  0.13928438406E+03  0.00000000000E+00 0.  1.
         11    1    1    2    0    0 -0.58883736149E+02  0.39000377093E+02  0.12023986313E+02  0.71644260364E+02  0.00000000000E+00 0. -1.
<mgrwt>
<rscale>  0 0.21462779E+03</rscale>
<asrwt>0</asrwt>
<pdfrwt beam="2">  1        1 0.95564378E-01 0.21916578E+03</pdfrwt>
<pdfrwt beam="1">  1       -1 0.24383565E-01 0.21916578E+03</pdfrwt>
<totfact> 0.49072111E+02</totfact>
</mgrwt>
</event>
<event>
 6    1  0.8353100E-006  0.1347836E+03  0.7546771E-02  0.1235386E+00
          2   -1    0    0  501    0  0.00000000000E+00  0.00000000000E+00  0.71967266997E+03  0.71967266997E+03  0.00000000000E+00 0. -1.
         -2   -1    0    0    0  501 -0.00000000000E+00 -0.00000000000E+00 -0.21691721935E+02  0.21691721935E+02  0.00000000000E+00 0.  1.
          5    1    1    2  502    0 -0.61360139542E+02  0.15711182617E+02  0.23504555564E+03  0.24347568916E+03  0.47000000000E+01 0.  1.
         -5    1    1    2    0  502  0.61901201079E+02  0.34706684921E+02  0.28995056381E+03  0.29854603016E+03  0.47000000000E+01 0.  1.
        -11    1    1    2    0    0 -0.15643425583E+02 -0.69441679565E+02  0.14937952757E+03  0.16547237498E+03  0.00000000000E+00 0. -1.
         11    1    1    2    0    0  0.15102364045E+02  0.19023812027E+02  0.23605301019E+02  0.33870297606E+02  0.00000000000E+00 0.  1.
<mgrwt>
<rscale>  0 0.12479787E+03</rscale>
<asrwt>0</asrwt>
<pdfrwt beam="1">  1        2 0.11071885E+00 0.13478360E+03</pdfrwt>
<pdfrwt beam="2">  1       -2 0.33371885E-02 0.13478360E+03</pdfrwt>
<totfact> 0.13935334E+04</totfact>
</mgrwt>
</event>
<event>
 6    1  0.8353100E-006  0.1384830E+03  0.7546771E-02  0.1226890E+00
          1   -1    0    0  501    0  0.00000000000E+00  0.00000000000E+00  0.22984537640E+03  0.22984537640E+03  0.00000000000E+00 0. -1.
         -1   -1    0    0    0  501 -0.00000000000E+00 -0.00000000000E+00 -0.18051906317E+03  0.18051906317E+03  0.00000000000E+00 0.  1.
          5    1    1    2  502    0  0.37236101299E+02 -0.19700808093E+02  0.70131539566E+02  0.81946152572E+02  0.47000000000E+01 0.  1.
         -5    1    1    2    0  502 -0.95028440288E+02  0.50724970431E+01  0.11824312333E+03  0.15185407767E+03  0.47000000000E+01 0.  1.
        -11    1    1    2    0    0  0.76279487588E+01  0.43368484029E+02 -0.30454895510E+02  0.53539813875E+02  0.00000000000E+00 0. -1.
         11    1    1    2    0    0  0.50164390231E+02 -0.28740172980E+02 -0.10859345416E+03  0.12302439546E+03  0.00000000000E+00 0.  1.
<mgrwt>
<rscale>  0 0.13038224E+03</rscale>
<asrwt>0</asrwt>
<pdfrwt beam="1">  1        1 0.35360827E-01 0.13848297E+03</pdfrwt>
<pdfrwt beam="2">  1       -1 0.27772163E-01 0.13848297E+03</pdfrwt>
<totfact> 0.14106109E+03</totfact>
</mgrwt>
</event>
<event>
 6    1  0.8353100E-006  0.1627744E+03  0.7546771E-02  0.1193071E+00
         -2   -1    0    0    0  501 -0.00000000000E+00  0.00000000000E+00  0.33898289027E+02  0.33898289027E+02  0.00000000000E+00 0. -1.
          2   -1    0    0  501    0  0.00000000000E+00 -0.00000000000E+00 -0.83991608547E+03  0.83991608547E+03  0.00000000000E+00 0.  1.
          5    1    1    2  502    0  0.17853150432E+02  0.57937357081E+02 -0.53567351008E+03  0.53911378366E+03  0.47000000000E+01 0. -1.
         -5    1    1    2    0  502 -0.38627458015E+02  0.44226391368E+02 -0.91376706577E+02  0.10871911842E+03  0.47000000000E+01 0. -1.
        -11    1    1    2    0    0  0.41625319935E+02 -0.44608646891E+02 -0.36942913967E+02  0.71325854566E+02  0.00000000000E+00 0. -1.
         11    1    1    2    0    0 -0.20851012352E+02 -0.57555101558E+02 -0.14202466581E+03  0.15465561784E+03  0.00000000000E+00 0.  1.
<mgrwt>
<rscale>  0 0.15618626E+03</rscale>
<asrwt>0</asrwt>
<pdfrwt beam="2">  1        2 0.12921784E+00 0.16277437E+03</pdfrwt>
<pdfrwt beam="1">  1       -2 0.52151220E-02 0.16277437E+03</pdfrwt>
<totfact> 0.59770779E+03</totfact>
</mgrwt>
</event>
<event>
 6    1  0.8353100E-006  0.2317222E+03  0.7546771E-02  0.1128403E+00
         -2   -1    0    0    0  501 -0.00000000000E+00  0.00000000000E+00  0.52087916332E+02  0.52087916332E+02  0.00000000000E+00 0.  1.
          2   -1    0    0  501    0  0.00000000000E+00 -0.00000000000E+00 -0.11362199238E+04  0.11362199238E+04  0.00000000000E+00 0. -1.
          5    1    1    2  502    0 -0.52845750291E+02 -0.28604328702E+02 -0.80728630381E+02  0.10074761887E+03  0.47000000000E+01 0.  1.
         -5    1    1    2    0  502 -0.13557348255E+03 -0.22077242393E+02 -0.71246948265E+03  0.72560487010E+03  0.47000000000E+01 0.  1.
        -11    1    1    2    0    0  0.62595418855E+02  0.37474756546E+02 -0.17798620382E+03  0.19235808428E+03  0.00000000000E+00 0.  1.
         11    1    1    2    0    0  0.12582381399E+03  0.13206814549E+02 -0.11294769061E+03  0.16959726688E+03  0.00000000000E+00 0. -1.
<mgrwt>
<rscale>  0 0.22751205E+03</rscale>
<asrwt>0</asrwt>
<pdfrwt beam="2">  1        2 0.17480304E+00 0.23172222E+03</pdfrwt>
<pdfrwt beam="1">  1       -2 0.80135269E-02 0.23172222E+03</pdfrwt>
<totfact> 0.20493314E+03</totfact>
</mgrwt>
</event>
<event>
 6    1  0.8353100E-006  0.1530182E+03  0.7546771E-02  0.1205322E+00
          1   -1    0    0  501    0  0.00000000000E+00  0.00000000000E+00  0.57454518925E+03  0.57454518925E+03  0.00000000000E+00 0. -1.
         -1   -1    0    0    0  501 -0.00000000000E+00 -0.00000000000E+00 -0.40349659448E+02  0.40349659448E+02  0.00000000000E+00 0.  1.
          5    1    1    2  502    0 -0.63980803203E+02 -0.65304719415E+02  0.18196120458E+03  0.20369148124E+03  0.47000000000E+01 0. -1.
         -5    1    1    2    0  502  0.47750289326E+02 -0.21458336463E+02  0.22576693605E+03  0.23180455075E+03  0.47000000000E+01 0. -1.
        -11    1    1    2    0    0  0.51523372790E+02  0.28523534030E+02  0.64263253919E+02  0.87166597625E+02  0.00000000000E+00 0.  1.
         11    1    1    2    0    0 -0.35292858913E+02  0.58239521848E+02  0.62204135254E+02  0.92232219089E+02  0.00000000000E+00 0. -1.
<mgrwt>
<rscale>  0 0.14612108E+03</rscale>
<asrwt>0</asrwt>
<pdfrwt beam="1">  1        1 0.88391562E-01 0.15301816E+03</pdfrwt>
<pdfrwt beam="2">  1       -1 0.62076403E-02 0.15301816E+03</pdfrwt>
<totfact> 0.46137944E+03</totfact>
</mgrwt>
</event>
<event>
 6    1  0.8353100E-006  0.1285343E+03  0.7546771E-02  0.1244802E+00
          2   -1    0    0  501    0  0.00000000000E+00  0.00000000000E+00  0.25997812103E+03  0.25997812103E+03  0.00000000000E+00 0.  1.
         -2   -1    0    0    0  501 -0.00000000000E+00 -0.00000000000E+00 -0.76837457389E+02  0.76837457389E+02  0.00000000000E+00 0. -1.
          5    1    1    2  502    0 -0.15775239113E+02 -0.26163552968E+02 -0.33081588004E+01  0.31087354144E+02  0.47000000000E+01 0.  1.
         -5    1    1    2    0  502 -0.13722814721E+02  0.31255347856E+02  0.20643266181E+03  0.20928866734E+03  0.47000000000E+01 0.  1.
        -11    1    1    2    0    0 -0.80769491002E+01 -0.13124970413E+02 -0.47004139828E+02  0.49466060244E+02  0.00000000000E+00 0. -1.
         11    1    1    2    0    0  0.37575002934E+02  0.80331755250E+01  0.27020300450E+02  0.46973496687E+02  0.00000000000E+00 0.  1.
<mgrwt>
<rscale>  0 0.11897222E+03</rscale>
<asrwt>0</asrwt>
<pdfrwt beam="1">  1        2 0.39996634E-01 0.12853431E+03</pdfrwt>
<pdfrwt beam="2">  1       -2 0.11821147E-01 0.12853431E+03</pdfrwt>
<totfact> 0.61530851E+03</totfact>
</mgrwt>
</event>
<event>
 6    1  0.8353100E-006  0.1257225E+03  0.7546771E-02  0.1249526E+00
         -1   -1    0    0    0  501 -0.00000000000E+00  0.00000000000E+00  0.16837868597E+02  0.16837868597E+02  0.00000000000E+00 0.  1.
          1   -1    0    0  501    0  0.00000000000E+00 -0.00000000000E+00 -0.74816188942E+03  0.74816188942E+03  0.00000000000E+00 0. -1.
          5    1    1    2  502    0 -0.17566941192E+02 -0.54198047607E+02 -0.22873736100E+03  0.23577297577E+03  0.47000000000E+01 0. -1.
         -5    1    1    2    0  502  0.13442815339E+02  0.67038763607E+02 -0.28464534330E+03  0.29277972364E+03  0.47000000000E+01 0. -1.
        -11    1    1    2    0    0 -0.34007842667E+02  0.43816632759E+01 -0.35840181856E+02  0.49600917042E+02  0.00000000000E+00 0.  1.
         11    1    1    2    0    0  0.38131968520E+02 -0.17222379275E+02 -0.18210113466E+03  0.18684614156E+03  0.00000000000E+00 0. -1.
<mgrwt>
<rscale>  0 0.11618540E+03</rscale>
<asrwt>0</asrwt>
<pdfrwt beam="2">  1        1 0.11510184E+00 0.12572253E+03</pdfrwt>
<pdfrwt beam="1">  1       -1 0.25904412E-02 0.12572253E+03</pdfrwt>
<totfact> 0.11388338E+04</totfact>
</mgrwt>
</event>
<event>
 6    1  0.8353100E-006  0.1377985E+03  0.7546771E-02  0.1228329E+00
          1   -1    0    0  501    0  0.00000000000E+00  0.00000000000E+00  0.29101701609E+03  0.29101701609E+03  0.00000000000E+00 0. -1.
         -1   -1    0    0    0  501 -0.00000000000E+00 -0.00000000000E+00 -0.53496848368E+02  0.53496848368E+02  0.00000000000E+00 0.  1.
          5    1    1    2  502    0 -0.54980526202E+00  0.16168474266E+02 -0.16642183777E+02  0.23680669898E+02  0.47000000000E+01 0.  1.
         -5    1    1    2    0  502  0.58363373859E+02 -0.11470733276E+02  0.18220137523E+03  0.19172191389E+03  0.47000000000E+01 0.  1.
        -11    1    1    2    0    0 -0.44943740001E+02  0.11122319457E+02 -0.76521394816E+01  0.46927614408E+02  0.00000000000E+00 0.  1.
         11    1    1    2    0    0 -0.12869828596E+02 -0.15820060447E+02  0.79613115751E+02  0.82183666261E+02  0.00000000000E+00 0. -1.
<mgrwt>
<rscale>  0 0.12941354E+03</rscale>
<asrwt>0</asrwt>
<pdfrwt beam="1">  1        1 0.44771848E-01 0.13779850E+03</pdfrwt>
<pdfrwt beam="2">  1       -1 0.82302845E-02 0.13779850E+03</pdfrwt>
<totfact> 0.71510199E+03</totfact>
</mgrwt>
</event>
<event>
 6    1  0.8353100E-006  0.1952411E+03  0.7546771E-02  0.1158397E+00
         -2   -1    0    0    0  501 -0.00000000000E+00  0.00000000000E+00  0.93370684717E+02  0.93370684717E+02  0.00000000000E+00 0.  1.
          2   -1    0    0  501    0  0.00000000000E+00 -0.00000000000E+00 -0.38923768015E+03  0.38923768015E+03  0.00000000000E+00 0. -1.
          5    1    1    2  502    0 -0.66871724951E+02  0.99041452256E+02 -0.16501732746E+03  0.20379854078E+03  0.47000000000E+01 0.  1.
         -5    1    1    2    0  502  0.49072775025E+02  0.49879719190E+02 -0.47011074629E+02  0.84428992490E+02  0.47000000000E+01 0.  1.
        -11    1    1    2    0    0 -0.26353287305E+02 -0.72042817290E+02 -0.69450336950E+01  0.77025299531E+02  0.00000000000E+00 0.  1.
         11    1    1    2    0    0  0.44152237231E+02 -0.76878354156E+02 -0.76893559651E+02  0.11735553206E+03  0.00000000000E+00 0. -1.
<mgrwt>
<rscale>  0 0.19007186E+03</rscale>
<asrwt>0</asrwt>
<pdfrwt beam="2">  1        2 0.59882721E-01 0.19524105E+03</pdfrwt>
<pdfrwt beam="1">  1       -2 0.14364721E-01 0.19524105E+03</pdfrwt>
<totfact> 0.29815137E+03</totfact>
</mgrwt>
</event>
<event>
 6    1  0.8353100E-006  0.3878476E+03  0.7546771E-02  0.1048071E+00
          1   -1    0    0  501    0  0.00000000000E+00  0.00000000000E+00  0.92432476732E+03  0.92432476732E+03  0.00000000000E+00 0. -1.
         -1   -1    0    0    0  501 -0.00000000000E+00 -0.00000000000E+00 -0.40685300578E+02  0.40685300578E+02  0.00000000000E+00 0.  1.
          5    1    1    2  502    0  0.73832733670E+02 -0.12859088594E+03  0.23977661983E+03  0.28196064606E+03  0.47000000000E+01 0.  1.
         -5    1    1    2    0  502  0.34638097440E+02  0.11185733665E+02  0.18739680956E+03  0.19095699166E+03  0.47000000000E+01 0.  1.
        -11    1    1    2    0    0 -0.68341002463E+02  0.19635550667E+02  0.25318046989E+03  0.26297604036E+03  0.00000000000E+00 0. -1.
         11    1    1    2    0    0 -0.40129828647E+02  0.97769601610E+02  0.20328556746E+03  0.22911638982E+03  0.00000000000E+00 0.  1.
<mgrwt>
<rscale>  0 0.38784755E+03</rscale>
<asrwt>0</asrwt>
<pdfrwt beam="1">  1        1 0.14220379E+00 0.38784755E+03</pdfrwt>
<pdfrwt beam="2">  1       -1 0.62592777E-02 0.38784755E+03</pdfrwt>
<totfact> 0.22948809E+03</totfact>
</mgrwt>
</event>
<event>
 6    1  0.8353100E-006  0.1275124E+03  0.7546771E-02  0.1253046E+00
         -2   -1    0    0    0  501 -0.00000000000E+00  0.00000000000E+00  0.21608277375E+02  0.21608277375E+02  0.00000000000E+00 0.  1.
          2   -1    0    0  501    0  0.00000000000E+00 -0.00000000000E+00 -0.62231309991E+03  0.62231309991E+03  0.00000000000E+00 0. -1.
          5    1    1    2  502    0 -0.42756125079E+02  0.49461479935E+02 -0.27767209892E+03  0.28530406368E+03  0.47000000000E+01 0. -1.
         -5    1    1    2    0  502  0.54734815207E+02 -0.27280838099E+02 -0.21155487954E+03  0.22026734025E+03  0.47000000000E+01 0. -1.
        -11    1    1    2    0    0  0.62242768447E+01 -0.18822563491E+02 -0.11728620830E+03  0.11894992718E+03  0.00000000000E+00 0. -1.
         11    1    1    2    0    0 -0.18202966973E+02 -0.33580783447E+01  0.58083642301E+01  0.19400046180E+02  0.00000000000E+00 0.  1.
<mgrwt>
<rscale>  0 0.11416478E+03</rscale>
<asrwt>0</asrwt>
<pdfrwt beam="2">  1        2 0.95740488E-01 0.12751238E+03</pdfrwt>
<pdfrwt beam="1">  1       -2 0.33243500E-02 0.12751238E+03</pdfrwt>
<totfact> 0.16543243E+04</totfact>
</mgrwt>
</event>
<event>
 6    1  0.8353100E-006  0.1394605E+03  0.7546771E-02  0.1225679E+00
         -1   -1    0    0    0  501 -0.00000000000E+00  0.00000000000E+00  0.52932356476E+02  0.52932356476E+02  0.00000000000E+00 0.  1.
          1   -1    0    0  501    0  0.00000000000E+00 -0.00000000000E+00 -0.35017178776E+03  0.35017178776E+03  0.00000000000E+00 0. -1.
          5    1    1    2  502    0  0.28850700204E+02  0.75613048583E+02 -0.14900192243E+03  0.16962711725E+03  0.47000000000E+01 0. -1.
         -5    1    1    2    0  502  0.27857164271E+02 -0.50938688375E+02 -0.96205326720E+02  0.11246477877E+03  0.47000000000E+01 0. -1.
        -11    1    1    2    0    0 -0.42857413244E+02  0.26155611746E+02 -0.51184877180E+01  0.50468532892E+02  0.00000000000E+00 0.  1.
         11    1    1    2    0    0 -0.13850451231E+02 -0.50829971955E+02 -0.46913694417E+02  0.70543715326E+02  0.00000000000E+00 0. -1.
<mgrwt>
<rscale>  0 0.13120448E+03</rscale>
<asrwt>0</asrwt>
<pdfrwt beam="2">  1        1 0.53872582E-01 0.13946054E+03</pdfrwt>
<pdfrwt beam="1">  1       -1 0.81434396E-02 0.13946054E+03</pdfrwt>
<totfact> 0.57787475E+03</totfact>
</mgrwt>
</event>
<event>
 6    1  0.8353100E-006  0.1278907E+03  0.7546771E-02  0.1245290E+00
         -2   -1    0    0    0  501 -0.00000000000E+00  0.00000000000E+00  0.70123136906E+02  0.70123136906E+02  0.00000000000E+00 0.  1.
          2   -1    0    0  501    0  0.00000000000E+00 -0.00000000000E+00 -0.17696082506E+03  0.17696082506E+03  0.00000000000E+00 0. -1.
          5    1    1    2  502    0 -0.12068627991E+02  0.49280263154E+02 -0.12776299464E+02  0.52531133113E+02  0.47000000000E+01 0. -1.
         -5    1    1    2    0  502 -0.22802454136E-02 -0.74409027304E+02 -0.51403704437E+02  0.90560113622E+02  0.47000000000E+01 0. -1.
        -11    1    1    2    0    0  0.78164603617E+01  0.50167014022E+02  0.39383220908E+01  0.50924814475E+02  0.00000000000E+00 0.  1.
         11    1    1    2    0    0  0.42544478747E+01 -0.25038249873E+02 -0.46596006345E+02  0.53067900756E+02  0.00000000000E+00 0. -1.
<mgrwt>
<rscale>  0 0.11868018E+03</rscale>
<asrwt>0</asrwt>
<pdfrwt beam="2">  1        2 0.27224742E-01 0.12789070E+03</pdfrwt>
<pdfrwt beam="1">  1       -2 0.10788175E-01 0.12789070E+03</pdfrwt>
<totfact> 0.10748801E+04</totfact>
</mgrwt>
</event>
<event>
 6    1  0.8353100E-006  0.2727200E+03  0.7546771E-02  0.1099733E+00
         -4   -1    0    0    0  501 -0.00000000000E+00  0.00000000000E+00  0.37031477284E+02  0.37031477284E+02  0.00000000000E+00 0.  1.
          4   -1    0    0  501    0  0.00000000000E+00 -0.00000000000E+00 -0.50211465392E+03  0.50211465392E+03  0.00000000000E+00 0. -1.
          5    1    1    2  502    0 -0.23646654530E+02  0.23279488849E+01 -0.19566359391E+03  0.19715708356E+03  0.47000000000E+01 0.  1.
         -5    1    1    2    0  502  0.40850421714E+02 -0.79168875517E+02 -0.10456357718E+03  0.13744853392E+03  0.47000000000E+01 0.  1.
        -11    1    1    2    0    0 -0.80429026996E+01  0.35697568297E+02 -0.23620272866E+01  0.36668567453E+02  0.00000000000E+00 0.  1.
         11    1    1    2    0    0 -0.91608644850E+01  0.41143358335E+02 -0.16249397825E+03  0.16787194626E+03  0.00000000000E+00 0. -1.
<mgrwt>
<rscale>  0 0.27271998E+03</rscale>
<asrwt>0</asrwt>
<pdfrwt beam="2">  1        4 0.77248404E-01 0.27271998E+03</pdfrwt>
<pdfrwt beam="1">  1       -4 0.56971507E-02 0.27271998E+03</pdfrwt>
<totfact> 0.55509418E+02</totfact>
</mgrwt>
</event>
<event>
 6    1  0.8353100E-006  0.1568127E+03  0.7546771E-02  0.1200102E+00
          1   -1    0    0  501    0  0.00000000000E+00  0.00000000000E+00  0.83788044112E+03  0.83788044112E+03  0.00000000000E+00 0. -1.
         -1   -1    0    0    0  501 -0.00000000000E+00 -0.00000000000E+00 -0.25931210002E+02  0.25931210002E+02  0.00000000000E+00 0.  1.
          5    1    1    2  502    0  0.80567105899E+02 -0.66207261697E+02  0.37186358031E+03  0.38623706763E+03  0.47000000000E+01 0. -1.
         -5    1    1    2    0  502 -0.46571674976E+02 -0.22163408651E+02  0.15095415944E+03  0.15959130880E+03  0.47000000000E+01 0. -1.
        -11    1    1    2    0    0 -0.38335231095E+02  0.42500934749E+02  0.55058931994E+02  0.79419175203E+02  0.00000000000E+00 0.  1.
         11    1    1    2    0    0  0.43398001718E+01  0.45869735599E+02  0.23407255938E+03  0.23856409949E+03  0.00000000000E+00 0. -1.
<mgrwt>
<rscale>  0 0.15030256E+03</rscale>
<asrwt>0</asrwt>
<pdfrwt beam="1">  1        1 0.12890466E+00 0.15681271E+03</pdfrwt>
<pdfrwt beam="2">  1       -1 0.39894176E-02 0.15681271E+03</pdfrwt>
<totfact> 0.51758519E+03</totfact>
</mgrwt>
</event>
<event>
 6    1  0.8353100E-006  0.1468070E+03  0.7546771E-02  0.1214452E+00
         -2   -1    0    0    0  501 -0.00000000000E+00  0.00000000000E+00  0.15523871638E+02  0.15523871638E+02  0.00000000000E+00 0.  1.
          2   -1    0    0  501    0  0.00000000000E+00 -0.00000000000E+00 -0.11341263076E+04  0.11341263076E+04  0.00000000000E+00 0. -1.
          5    1    1    2  502    0 -0.10810897072E+02 -0.14804453286E+02 -0.13364083819E+02  0.23167565019E+02  0.47000000000E+01 0.  1.
         -5    1    1    2    0  502  0.64643604039E+02  0.69838627247E+02 -0.60017355441E+03  0.60768957109E+03  0.47000000000E+01 0.  1.
        -11    1    1    2    0    0  0.55900782954E+01  0.19106466453E+02 -0.48140075741E+02  0.52093885707E+02  0.00000000000E+00 0. -1.
         11    1    1    2    0    0 -0.59422785263E+02 -0.74140640415E+02 -0.45692472196E+03  0.46669915739E+03  0.00000000000E+00 0.  1.
<mgrwt>
<rscale>  0 0.13916880E+03</rscale>
<asrwt>0</asrwt>
<pdfrwt beam="2">  1        2 0.17448096E+00 0.14680699E+03</pdfrwt>
<pdfrwt beam="1">  1       -2 0.23882881E-02 0.14680699E+03</pdfrwt>
<totfact> 0.12559997E+04</totfact>
</mgrwt>
</event>
<event>
 6    1  0.8353100E-006  0.2629024E+03  0.7546771E-02  0.1105412E+00
         -1   -1    0    0    0  501 -0.00000000000E+00  0.00000000000E+00  0.24893054458E+02  0.24893054458E+02  0.00000000000E+00 0.  1.
          1   -1    0    0  501    0  0.00000000000E+00 -0.00000000000E+00 -0.69414597196E+03  0.69414597196E+03  0.00000000000E+00 0. -1.
          5    1    1    2  502    0 -0.32592014845E+01 -0.31164939467E+02 -0.41570743492E+02  0.52269422809E+02  0.47000000000E+01 0. -1.
         -5    1    1    2    0  502 -0.15968911430E+02  0.10042191127E+03 -0.37410774934E+03  0.38770899462E+03  0.47000000000E+01 0. -1.
        -11    1    1    2    0    0  0.55326158331E+02 -0.30305326756E+02 -0.12728245054E+03  0.14205709712E+03  0.00000000000E+00 0.  1.
         11    1    1    2    0    0 -0.36098045417E+02 -0.38951645049E+02 -0.12629197413E+03  0.13700351187E+03  0.00000000000E+00 0. -1.
<mgrwt>
<rscale>  0 0.26290237E+03</rscale>
<asrwt>0</asrwt>
<pdfrwt beam="2">  1        1 0.10679170E+00 0.26290237E+03</pdfrwt>
<pdfrwt beam="1">  1       -1 0.38297004E-02 0.26290237E+03</pdfrwt>
<totfact> 0.74540753E+03</totfact>
</mgrwt>
</event>
<event>
 6    1  0.8353100E-006  0.1264331E+03  0.7546771E-02  0.1247992E+00
          2   -1    0    0  501    0  0.00000000000E+00  0.00000000000E+00  0.26745089545E+03  0.26745089545E+03  0.00000000000E+00 0. -1.
         -2   -1    0    0    0  501 -0.00000000000E+00 -0.00000000000E+00 -0.56195145298E+02  0.56195145298E+02  0.00000000000E+00 0.  1.
          5    1    1    2  502    0  0.28596289838E+02 -0.50555028555E+02  0.17403655922E+03  0.18353302877E+03  0.47000000000E+01 0.  1.
         -5    1    1    2    0  502 -0.13297449602E+02  0.39331420983E+02  0.16048021375E+02  0.44759488743E+02  0.47000000000E+01 0.  1.
        -11    1    1    2    0    0 -0.41416597790E+01 -0.40007929900E+02  0.52856318720E+01  0.40567544970E+02  0.00000000000E+00 0.  1.
         11    1    1    2    0    0 -0.11157180457E+02  0.51231537471E+02  0.15885537692E+02  0.54785978272E+02  0.00000000000E+00 0. -1.
<mgrwt>
<rscale>  0 0.11708072E+03</rscale>
<asrwt>0</asrwt>
<pdfrwt beam="1">  1        2 0.41146291E-01 0.12643309E+03</pdfrwt>
<pdfrwt beam="2">  1       -2 0.86454071E-02 0.12643309E+03</pdfrwt>
<totfact> 0.97485351E+03</totfact>
</mgrwt>
</event>
<event>
 6    1  0.8353100E-006  0.1319325E+03  0.7546771E-02  0.1238510E+00
          1   -1    0    0  501    0  0.00000000000E+00  0.00000000000E+00  0.15259891858E+04  0.15259891858E+04  0.00000000000E+00 0. -1.
         -1   -1    0    0    0  501 -0.00000000000E+00 -0.00000000000E+00 -0.15298850166E+02  0.15298850166E+02  0.00000000000E+00 0.  1.
          5    1    1    2  502    0 -0.16118557570E+02  0.49972847084E+02  0.35067372211E+03  0.35461421675E+03  0.47000000000E+01 0. -1.
         -5    1    1    2    0  502  0.57614306400E+02 -0.42241171907E+02  0.96752269573E+03  0.97016801723E+03  0.47000000000E+01 0. -1.
        -11    1    1    2    0    0  0.12236211473E+02 -0.36251552922E+02  0.73032262113E+02  0.82447627436E+02  0.00000000000E+00 0. -1.
         11    1    1    2    0    0 -0.53731960303E+02  0.28519877746E+02  0.11946165567E+03  0.13405817454E+03  0.00000000000E+00 0.  1.
<mgrwt>
<rscale>  0 0.12282376E+03</rscale>
<asrwt>0</asrwt>
<pdfrwt beam="1">  1        1 0.23476745E+00 0.13193245E+03</pdfrwt>
<pdfrwt beam="2">  1       -1 0.23536705E-02 0.13193245E+03</pdfrwt>
<totfact> 0.36683577E+03</totfact>
</mgrwt>
</event>
<event>
 6    1  0.8353100E-006  0.1284338E+03  0.7546771E-02  0.1244818E+00
          1   -1    0    0  501    0  0.00000000000E+00  0.00000000000E+00  0.99760749388E+03  0.99760749388E+03  0.00000000000E+00 0. -1.
         -1   -1    0    0    0  501 -0.00000000000E+00 -0.00000000000E+00 -0.15742768911E+02  0.15742768911E+02  0.00000000000E+00 0.  1.
          5    1    1    2  502    0 -0.26685345726E+02  0.40730339282E+02  0.19995892078E+03  0.20585608618E+03  0.47000000000E+01 0. -1.
         -5    1    1    2    0  502  0.21771471219E+02 -0.69807054693E+02  0.57931741348E+03  0.58393302476E+03  0.47000000000E+01 0. -1.
        -11    1    1    2    0    0 -0.29648466295E+02  0.35678215278E+02  0.55556372068E+02  0.72377324325E+02  0.00000000000E+00 0.  1.
         11    1    1    2    0    0  0.34562340802E+02 -0.66014998663E+01  0.14703201863E+03  0.15118382752E+03  0.00000000000E+00 0. -1.
<mgrwt>
<rscale>  0 0.11896293E+03</rscale>
<asrwt>0</asrwt>
<pdfrwt beam="1">  1        1 0.15347803E+00 0.12843378E+03</pdfrwt>
<pdfrwt beam="2">  1       -1 0.24219652E-02 0.12843378E+03</pdfrwt>
<totfact> 0.80209552E+03</totfact>
</mgrwt>
</event>
<event>
 6    1  0.8353100E-006  0.1281539E+03  0.7546771E-02  0.1244503E+00
         -1   -1    0    0    0  501 -0.00000000000E+00  0.00000000000E+00  0.31505589998E+02  0.31505589998E+02  0.00000000000E+00 0.  1.
          1   -1    0    0  501    0  0.00000000000E+00 -0.00000000000E+00 -0.39793046542E+03  0.39793046542E+03  0.00000000000E+00 0. -1.
          5    1    1    2  502    0 -0.14161628981E+01 -0.49671725179E+02 -0.20456967860E+03  0.21057096002E+03  0.47000000000E+01 0. -1.
         -5    1    1    2    0  502 -0.16590195096E+02  0.27893498223E+02 -0.24232318270E+01  0.32882272867E+02  0.47000000000E+01 0. -1.
        -11    1    1    2    0    0  0.36107758229E+02 -0.23252957680E+02 -0.47815362455E+02  0.64271137627E+02  0.00000000000E+00 0.  1.
         11    1    1    2    0    0 -0.18101400236E+02  0.45031184636E+02 -0.11161660254E+03  0.12171168490E+03  0.00000000000E+00 0. -1.
<mgrwt>
<rscale>  0 0.11915196E+03</rscale>
<asrwt>0</asrwt>
<pdfrwt beam="2">  1        1 0.61220071E-01 0.12815386E+03</pdfrwt>
<pdfrwt beam="1">  1       -1 0.48470139E-02 0.12815386E+03</pdfrwt>
<totfact> 0.10618596E+04</totfact>
</mgrwt>
</event>
<event>
 6    1  0.8353100E-006  0.3160747E+03  0.7546771E-02  0.1077470E+00
          2   -1    0    0  501    0  0.00000000000E+00  0.00000000000E+00  0.20304498238E+03  0.20304498238E+03  0.00000000000E+00 0. -1.
         -2   -1    0    0    0  501 -0.00000000000E+00 -0.00000000000E+00 -0.12300627743E+03  0.12300627743E+03  0.00000000000E+00 0.  1.
          5    1    1    2  502    0 -0.29361469464E+02  0.64306245448E+02  0.55009568373E+01  0.71061519959E+02  0.47000000000E+01 0. -1.
         -5    1    1    2    0  502  0.33002712549E+02  0.59837649523E+01  0.10408263712E+03  0.10945441895E+03  0.47000000000E+01 0. -1.
        -11    1    1    2    0    0  0.52708481728E+02 -0.25561333572E+02 -0.42580218850E+02  0.72419892691E+02  0.00000000000E+00 0.  1.
         11    1    1    2    0    0 -0.56349724813E+02 -0.44728676829E+02  0.13035329845E+02  0.73115428204E+02  0.00000000000E+00 0. -1.
<mgrwt>
<rscale>  0 0.31607472E+03</rscale>
<asrwt>0</asrwt>
<pdfrwt beam="1">  1        2 0.31237689E-01 0.31607472E+03</pdfrwt>
<pdfrwt beam="2">  1       -2 0.18924043E-01 0.31607472E+03</pdfrwt>
<totfact> 0.38765098E+03</totfact>
</mgrwt>
</event>
<event>
 6    1  0.8353100E-006  0.1451937E+03  0.7546771E-02  0.1216842E+00
          1   -1    0    0  501    0  0.00000000000E+00  0.00000000000E+00  0.12103199901E+03  0.12103199901E+03  0.00000000000E+00 0. -1.
         -1   -1    0    0    0  501 -0.00000000000E+00 -0.00000000000E+00 -0.15961776567E+03  0.15961776567E+03  0.00000000000E+00 0.  1.
          5    1    1    2  502    0  0.76979463841E+02 -0.70223812886E+02 -0.38656355117E+01  0.10437554736E+03  0.47000000000E+01 0. -1.
         -5    1    1    2    0  502 -0.25615460353E+02  0.17158525610E+02  0.29761823277E+02  0.43109429769E+02  0.47000000000E+01 0. -1.
        -11    1    1    2    0    0 -0.23382337455E+02  0.93188480644E+01 -0.75925293195E+02  0.79988904111E+02  0.00000000000E+00 0.  1.
         11    1    1    2    0    0 -0.27981666033E+02  0.43746439212E+02  0.11443338765E+02  0.53175883441E+02  0.00000000000E+00 0. -1.
<mgrwt>
<rscale>  0 0.13742098E+03</rscale>
<asrwt>0</asrwt>
<pdfrwt beam="1">  1        1 0.18620308E-01 0.14519368E+03</pdfrwt>
<pdfrwt beam="2">  1       -1 0.24556579E-01 0.14519368E+03</pdfrwt>
<totfact> 0.38764736E+03</totfact>
</mgrwt>
</event>
<event>
 6    1  0.8353100E-006  0.1266608E+03  0.7546771E-02  0.1247942E+00
          3   -1    0    0  501    0  0.00000000000E+00  0.00000000000E+00  0.21009678278E+02  0.21009678278E+02  0.00000000000E+00 0. -1.
         -3   -1    0    0    0  501 -0.00000000000E+00 -0.00000000000E+00 -0.57576407860E+03  0.57576407860E+03  0.00000000000E+00 0.  1.
          5    1    1    2  502    0 -0.11649076006E+02 -0.49477346536E+02 -0.42483520395E+02  0.66412711864E+02  0.47000000000E+01 0. -1.
         -5    1    1    2    0  502  0.13413186850E+01  0.31766486829E+02 -0.25355364464E+03  0.25558256891E+03  0.47000000000E+01 0. -1.
        -11    1    1    2    0    0  0.60332692233E+01  0.40881157918E+02 -0.24292388058E+03  0.24641363836E+03  0.00000000000E+00 0.  1.
         11    1    1    2    0    0  0.42744880979E+01 -0.23170298211E+02 -0.15793354709E+02  0.28364837751E+02  0.00000000000E+00 0. -1.
<mgrwt>
<rscale>  0 0.11711039E+03</rscale>
<asrwt>0</asrwt>
<pdfrwt beam="1">  1        3 0.32322582E-02 0.12666080E+03</pdfrwt>
<pdfrwt beam="2">  1       -3 0.88579088E-01 0.12666080E+03</pdfrwt>
<totfact> 0.12299565E+03</totfact>
</mgrwt>
</event>
<event>
 6    1  0.8353100E-006  0.1479513E+03  0.7546771E-02  0.1212597E+00
          1   -1    0    0  501    0  0.00000000000E+00  0.00000000000E+00  0.13031438095E+03  0.13031438095E+03  0.00000000000E+00 0. -1.
         -1   -1    0    0    0  501 -0.00000000000E+00 -0.00000000000E+00 -0.13874728957E+03  0.13874728957E+03  0.00000000000E+00 0.  1.
          5    1    1    2  502    0  0.54948566439E+02 -0.72326295255E+01  0.31444125083E+02  0.63894278976E+02  0.47000000000E+01 0. -1.
         -5    1    1    2    0  502 -0.17858991941E+02  0.77142119907E+02 -0.27939695419E+02  0.84098554310E+02  0.47000000000E+01 0. -1.
        -11    1    1    2    0    0 -0.45454664765E+02 -0.90069327001E+01  0.21506570126E+02  0.51086044514E+02  0.00000000000E+00 0.  1.
         11    1    1    2    0    0  0.83650902662E+01 -0.60902557681E+02 -0.33443908407E+02  0.69982792720E+02  0.00000000000E+00 0. -1.
<mgrwt>
<rscale>  0 0.14054549E+03</rscale>
<asrwt>0</asrwt>
<pdfrwt beam="1">  1        1 0.20048366E-01 0.14795134E+03</pdfrwt>
<pdfrwt beam="2">  1       -1 0.21345737E-01 0.14795134E+03</pdfrwt>
<totfact> 0.44376488E+03</totfact>
</mgrwt>
</event>
<event>
 6    1  0.8353100E-006  0.1788363E+03  0.7546771E-02  0.1174629E+00
         -1   -1    0    0    0  501 -0.00000000000E+00  0.00000000000E+00  0.33304228294E+03  0.33304228294E+03  0.00000000000E+00 0.  1.
          1   -1    0    0  501    0  0.00000000000E+00 -0.00000000000E+00 -0.98908155094E+02  0.98908155094E+02  0.00000000000E+00 0. -1.
          5    1    1    2  502    0  0.76136603501E+02 -0.66386212151E+01  0.47791069648E+02  0.90260345791E+02  0.47000000000E+01 0.  1.
         -5    1    1    2    0  502  0.20074155216E+02  0.90905039092E+02 -0.59569133138E+01  0.93403814998E+02  0.47000000000E+01 0.  1.
        -11    1    1    2    0    0 -0.76411788452E+02 -0.32827934907E+02  0.53356060450E+02  0.98809432300E+02  0.00000000000E+00 0. -1.
         11    1    1    2    0    0 -0.19798970265E+02 -0.51438482970E+02  0.13894391106E+03  0.14947684494E+03  0.00000000000E+00 0.  1.
<mgrwt>
<rscale>  0 0.17312344E+03</rscale>
<asrwt>0</asrwt>
<pdfrwt beam="2">  1        1 0.15216639E-01 0.17883631E+03</pdfrwt>
<pdfrwt beam="1">  1       -1 0.51237274E-01 0.17883631E+03</pdfrwt>
<totfact> 0.14186332E+03</totfact>
</mgrwt>
</event>
<event>
 6    1  0.8353100E-006  0.1625894E+03  0.7546771E-02  0.1196182E+00
         -1   -1    0    0    0  501 -0.00000000000E+00  0.00000000000E+00  0.38693785558E+02  0.38693785558E+02  0.00000000000E+00 0.  1.
          1   -1    0    0  501    0  0.00000000000E+00 -0.00000000000E+00 -0.56995050493E+03  0.56995050493E+03  0.00000000000E+00 0. -1.
          5    1    1    2  502    0 -0.40986917843E+02 -0.20219119365E+02 -0.29733564347E+03  0.30086428020E+03  0.47000000000E+01 0.  1.
         -5    1    1    2    0  502 -0.62966710430E+02  0.22488468681E+02 -0.53308004428E+02  0.85640943375E+02  0.47000000000E+01 0.  1.
        -11    1    1    2    0    0  0.58339118879E+02  0.37034220221E+02 -0.95073015870E+02  0.11753239811E+03  0.00000000000E+00 0.  1.
         11    1    1    2    0    0  0.45614509394E+02 -0.39303569536E+02 -0.85540055604E+02  0.10460666880E+03  0.00000000000E+00 0. -1.
<mgrwt>
<rscale>  0 0.15354616E+03</rscale>
<asrwt>0</asrwt>
<pdfrwt beam="2">  1        1 0.87684684E-01 0.16258942E+03</pdfrwt>
<pdfrwt beam="1">  1       -1 0.59528907E-02 0.16258942E+03</pdfrwt>
<totfact> 0.49798370E+03</totfact>
</mgrwt>
</event>
<event>
 6    1  0.8353100E-006  0.1790368E+03  0.7546771E-02  0.1180951E+00
          2   -1    0    0  501    0  0.00000000000E+00  0.00000000000E+00  0.25818940803E+03  0.25818940803E+03  0.00000000000E+00 0. -1.
         -2   -1    0    0    0  501 -0.00000000000E+00 -0.00000000000E+00 -0.10621128686E+03  0.10621128686E+03  0.00000000000E+00 0.  1.
          5    1    1    2  502    0 -0.36213002179E+01 -0.12420407534E+03  0.13966214748E+03  0.18699564590E+03  0.47000000000E+01 0. -1.
         -5    1    1    2    0  502  0.30920605873E+02  0.26887547743E+02  0.19746775952E+01  0.41291808422E+02  0.47000000000E+01 0.  1.
        -11    1    1    2    0    0 -0.53790722069E+02  0.26205746853E+02  0.44537261292E+01  0.60000155211E+02  0.00000000000E+00 0. -1.
         11    1    1    2    0    0  0.26491416414E+02  0.71110780748E+02  0.58875699708E+01  0.76113085356E+02  0.00000000000E+00 0.  1.
<mgrwt>
<rscale>  0 0.16705810E+03</rscale>
<asrwt>0</asrwt>
<pdfrwt beam="1">  1        2 0.39721447E-01 0.17903679E+03</pdfrwt>
<pdfrwt beam="2">  1       -2 0.16340198E-01 0.17903679E+03</pdfrwt>
<totfact> 0.37304791E+03</totfact>
</mgrwt>
</event>
<event>
 6    1  0.8353100E-006  0.1337300E+03  0.7546771E-02  0.1236277E+00
         -2   -1    0    0    0  501 -0.00000000000E+00  0.00000000000E+00  0.29120703410E+02  0.29120703410E+02  0.00000000000E+00 0.  1.
          2   -1    0    0  501    0  0.00000000000E+00 -0.00000000000E+00 -0.48063484760E+03  0.48063484760E+03  0.00000000000E+00 0. -1.
          5    1    1    2  502    0 -0.13232814168E+02  0.66384883197E+02 -0.14842265039E+03  0.16319752828E+03  0.47000000000E+01 0.  1.
         -5    1    1    2    0  502  0.52474718577E+02 -0.39489594470E+02 -0.15137213089E+03  0.16507160922E+03  0.47000000000E+01 0.  1.
        -11    1    1    2    0    0  0.11973572783E+02 -0.15518088604E+02  0.13784137590E+01  0.19648856038E+02  0.00000000000E+00 0.  1.
         11    1    1    2    0    0 -0.51215477193E+02 -0.11377200124E+02 -0.15309777666E+03  0.16183755746E+03  0.00000000000E+00 0. -1.
<mgrwt>
<rscale>  0 0.12423035E+03</rscale>
<asrwt>0</asrwt>
<pdfrwt beam="2">  1        2 0.73943814E-01 0.13373001E+03</pdfrwt>
<pdfrwt beam="1">  1       -2 0.44801088E-02 0.13373001E+03</pdfrwt>
<totfact> 0.14232632E+04</totfact>
</mgrwt>
</event>
<event>
 6    1  0.8353100E-006  0.3010144E+03  0.7546771E-02  0.1084735E+00
          1   -1    0    0  501    0  0.00000000000E+00  0.00000000000E+00  0.32636254424E+03  0.32636254424E+03  0.00000000000E+00 0. -1.
         -1   -1    0    0    0  501 -0.00000000000E+00 -0.00000000000E+00 -0.69408745701E+02  0.69408745701E+02  0.00000000000E+00 0.  1.
          5    1    1    2  502    0  0.70487577585E+01 -0.10894423988E+02  0.18939947325E+03  0.18990161644E+03  0.47000000000E+01 0. -1.
         -5    1    1    2    0  502  0.44767397013E+02  0.57984226356E+02  0.49077329533E+02  0.88300422510E+02  0.47000000000E+01 0. -1.
        -11    1    1    2    0    0  0.25034981728E+02 -0.25544578886E+02  0.10926824192E+02  0.37398814252E+02  0.00000000000E+00 0. -1.
         11    1    1    2    0    0 -0.76851136499E+02 -0.21545223482E+02  0.75501715665E+01  0.80170436738E+02  0.00000000000E+00 0.  1.
<mgrwt>
<rscale>  0 0.30101438E+03</rscale>
<asrwt>0</asrwt>
<pdfrwt beam="1">  1        1 0.50209621E-01 0.30101438E+03</pdfrwt>
<pdfrwt beam="2">  1       -1 0.10678269E-01 0.30101438E+03</pdfrwt>
<totfact> 0.43213586E+03</totfact>
</mgrwt>
</event>
<event>
 6    1  0.8353100E-006  0.1317739E+03  0.7546771E-02  0.1239772E+00
          2   -1    0    0  501    0  0.00000000000E+00  0.00000000000E+00  0.94061232989E+03  0.94061232989E+03  0.00000000000E+00 0. -1.
         -2   -1    0    0    0  501 -0.00000000000E+00 -0.00000000000E+00 -0.19317583223E+02  0.19317583223E+02  0.00000000000E+00 0.  1.
          5    1    1    2  502    0  0.35633202164E+02 -0.10001862242E+02  0.64475517541E+03  0.64583363845E+03  0.47000000000E+01 0.  1.
         -5    1    1    2    0  502 -0.38762907350E+02 -0.31589217472E+02  0.11836161381E+03  0.12857683800E+03  0.47000000000E+01 0.  1.
        -11    1    1    2    0    0 -0.14054880599E+02  0.61118410237E+02  0.71910048774E+02  0.95415170980E+02  0.00000000000E+00 0.  1.
         11    1    1    2    0    0  0.17184585785E+02 -0.19527330523E+02  0.86267908671E+02  0.90104265673E+02  0.00000000000E+00 0. -1.
<mgrwt>
<rscale>  0 0.12203847E+03</rscale>
<asrwt>0</asrwt>
<pdfrwt beam="1">  1        2 0.14470955E+00 0.13177387E+03</pdfrwt>
<pdfrwt beam="2">  1       -2 0.29719366E-02 0.13177387E+03</pdfrwt>
<totfact> 0.11779670E+04</totfact>
</mgrwt>
</event>
<event>
 6    1  0.8353100E-006  0.1710227E+03  0.7546771E-02  0.1183717E+00
          4   -1    0    0  501    0  0.00000000000E+00  0.00000000000E+00  0.75596241597E+02  0.75596241597E+02  0.00000000000E+00 0. -1.
         -4   -1    0    0    0  501 -0.00000000000E+00 -0.00000000000E+00 -0.33314407295E+03  0.33314407295E+03  0.00000000000E+00 0.  1.
          5    1    1    2  502    0 -0.32897704305E+02  0.28807698948E+02 -0.12890911047E+03  0.13620496037E+03  0.47000000000E+01 0.  1.
         -5    1    1    2    0  502 -0.81999293337E+02 -0.82254662989E+01 -0.81206050404E+01  0.82943213284E+02  0.47000000000E+01 0.  1.
        -11    1    1    2    0    0  0.11359677217E+03 -0.43495949133E+02 -0.89553611238E+02  0.15104957307E+03  0.00000000000E+00 0. -1.
         11    1    1    2    0    0  0.13002254764E+01  0.22913716483E+02 -0.30964504600E+02  0.38542567824E+02  0.00000000000E+00 0.  1.
<mgrwt>
<rscale>  0 0.16449180E+03</rscale>
<asrwt>0</asrwt>
<pdfrwt beam="1">  1        4 0.11630191E-01 0.17102274E+03</pdfrwt>
<pdfrwt beam="2">  1       -4 0.51252935E-01 0.17102274E+03</pdfrwt>
<totfact> 0.37473086E+02</totfact>
</mgrwt>
</event>
<event>
 6    1  0.8353100E-006  0.3260077E+03  0.7546771E-02  0.1072917E+00
         -1   -1    0    0    0  501 -0.00000000000E+00  0.00000000000E+00  0.55533760176E+02  0.55533760176E+02  0.00000000000E+00 0.  1.
          1   -1    0    0  501    0  0.00000000000E+00 -0.00000000000E+00 -0.47845239552E+03  0.47845239552E+03  0.00000000000E+00 0. -1.
          5    1    1    2  502    0  0.10953224479E+03  0.43448970451E+02 -0.15688003193E+03  0.19626145852E+03  0.47000000000E+01 0. -1.
         -5    1    1    2    0  502 -0.10594143129E+02 -0.32721419993E+01 -0.16252911807E+03  0.16297468209E+03  0.47000000000E+01 0. -1.
        -11    1    1    2    0    0 -0.73381583580E+02 -0.22291785052E+02 -0.11441719790E+02  0.77541559446E+02  0.00000000000E+00 0.  1.
         11    1    1    2    0    0 -0.25556518082E+02 -0.17885043400E+02 -0.92067765556E+02  0.97208455643E+02  0.00000000000E+00 0. -1.
<mgrwt>
<rscale>  0 0.32600773E+03</rscale>
<asrwt>0</asrwt>
<pdfrwt beam="2">  1        1 0.73608059E-01 0.32600773E+03</pdfrwt>
<pdfrwt beam="1">  1       -1 0.85436556E-02 0.32600773E+03</pdfrwt>
<totfact> 0.37313812E+03</totfact>
</mgrwt>
</event>
<event>
 6    1  0.8353100E-006  0.1254083E+03  0.7546771E-02  0.1238614E+00
          2   -1    0    0  501    0  0.00000000000E+00  0.00000000000E+00  0.12420330115E+04  0.12420330115E+04  0.00000000000E+00 0. -1.
         -2   -1    0    0    0  501 -0.00000000000E+00 -0.00000000000E+00 -0.16839798346E+02  0.16839798346E+02  0.00000000000E+00 0.  1.
          5    1    1    2  502    0 -0.34886751448E+02  0.10419514119E+02  0.85378619811E+03  0.85457510717E+03  0.47000000000E+01 0.  1.
         -5    1    1    2    0  502  0.37891457992E+02 -0.20297049729E+02  0.12619805048E+03  0.13340078996E+03  0.47000000000E+01 0.  1.
        -11    1    1    2    0    0  0.42977888170E+02  0.24795015890E+01  0.20467856114E+03  0.20915678375E+03  0.00000000000E+00 0. -1.
         11    1    1    2    0    0 -0.45982594714E+02  0.73980340212E+01  0.40530403436E+02  0.61740128982E+02  0.00000000000E+00 0.  1.
<mgrwt>
<rscale>  0 0.12275898E+03</rscale>
<asrwt>0</asrwt>
<pdfrwt beam="1">  1        2 0.19108193E+00 0.12540832E+03</pdfrwt>
<pdfrwt beam="2">  1       -2 0.25907392E-02 0.12540832E+03</pdfrwt>
<totfact> 0.96341562E+03</totfact>
</mgrwt>
</event>
<event>
 6    1  0.8353100E-006  0.1272059E+03  0.7546771E-02  0.1236931E+00
          1   -1    0    0  501    0  0.00000000000E+00  0.00000000000E+00  0.21125689935E+03  0.21125689935E+03  0.00000000000E+00 0. -1.
         -1   -1    0    0    0  501 -0.00000000000E+00 -0.00000000000E+00 -0.80438294918E+02  0.80438294918E+02  0.00000000000E+00 0.  1.
          5    1    1    2  502    0 -0.20752275736E+02 -0.53521003177E+02  0.26727065700E+02  0.63494730256E+02  0.47000000000E+01 0.  1.
         -5    1    1    2    0  502 -0.20331080833E+01  0.59666276610E+02  0.96751902650E+02  0.11378584604E+03  0.47000000000E+01 0.  1.
        -11    1    1    2    0    0 -0.82699273395E+01  0.21092713509E+02 -0.43417284150E+02  0.48973000974E+02  0.00000000000E+00 0.  1.
         11    1    1    2    0    0  0.31055311159E+02 -0.27237986942E+02  0.50756920235E+02  0.65441617000E+02  0.00000000000E+00 0. -1.
<mgrwt>
<rscale>  0 0.12381607E+03</rscale>
<asrwt>0</asrwt>
<pdfrwt beam="1">  1        1 0.32501061E-01 0.12720592E+03</pdfrwt>
<pdfrwt beam="2">  1       -1 0.12375122E-01 0.12720592E+03</pdfrwt>
<totfact> 0.56710723E+03</totfact>
</mgrwt>
</event>
<event>
 6    1  0.8353100E-006  0.1669758E+03  0.7546771E-02  0.1188143E+00
          1   -1    0    0  501    0  0.00000000000E+00  0.00000000000E+00  0.48638139137E+03  0.48638139137E+03  0.00000000000E+00 0. -1.
         -1   -1    0    0    0  501 -0.00000000000E+00 -0.00000000000E+00 -0.50156306442E+02  0.50156306442E+02  0.00000000000E+00 0.  1.
          5    1    1    2  502    0  0.12967408854E+03 -0.36952819959E+02  0.24985113594E+03  0.28395168651E+03  0.47000000000E+01 0. -1.
         -5    1    1    2    0  502 -0.26562820453E+02 -0.33656640193E+01  0.21503039378E+02  0.34660955371E+02  0.47000000000E+01 0. -1.
        -11    1    1    2    0    0 -0.81501322681E+02  0.61218165906E+02  0.85470320250E+02  0.13302370119E+03  0.00000000000E+00 0.  1.
         11    1    1    2    0    0 -0.21609945409E+02 -0.20899681927E+02  0.79400589360E+02  0.84901354735E+02  0.00000000000E+00 0. -1.
<mgrwt>
<rscale>  0 0.16049113E+03</rscale>
<asrwt>0</asrwt>
<pdfrwt beam="1">  1        1 0.74827903E-01 0.16697583E+03</pdfrwt>
<pdfrwt beam="2">  1       -1 0.77163552E-02 0.16697583E+03</pdfrwt>
<totfact> 0.41649386E+03</totfact>
</mgrwt>
</event>
<event>
 6    1  0.8353100E-006  0.1399187E+03  0.7546771E-02  0.1226071E+00
         -1   -1    0    0    0  501 -0.00000000000E+00  0.00000000000E+00  0.25658150873E+02  0.25658150873E+02  0.00000000000E+00 0.  1.
          1   -1    0    0  501    0  0.00000000000E+00 -0.00000000000E+00 -0.62358916208E+03  0.62358916208E+03  0.00000000000E+00 0. -1.
          5    1    1    2  502    0 -0.77074385551E+02  0.97361112772E+01 -0.17914904143E+03  0.19532465747E+03  0.47000000000E+01 0. -1.
         -5    1    1    2    0  502  0.40378982508E+02  0.41291702464E+02 -0.22576643018E+03  0.23308375730E+03  0.47000000000E+01 0. -1.
        -11    1    1    2    0    0  0.19502656206E+02  0.23625508108E+02 -0.51731178612E+02  0.60121818610E+02  0.00000000000E+00 0. -1.
         11    1    1    2    0    0  0.17192746837E+02 -0.74653321849E+02 -0.14128436098E+03  0.16071707957E+03  0.00000000000E+00 0.  1.
<mgrwt>
<rscale>  0 0.13093745E+03</rscale>
<asrwt>0</asrwt>
<pdfrwt beam="2">  1        1 0.95936784E-01 0.13991866E+03</pdfrwt>
<pdfrwt beam="1">  1       -1 0.39474082E-02 0.13991866E+03</pdfrwt>
<totfact> 0.80321491E+03</totfact>
</mgrwt>
</event>
<event>
 6    1  0.8353100E-006  0.1293241E+03  0.7546771E-02  0.1243451E+00
         -2   -1    0    0    0  501 -0.00000000000E+00  0.00000000000E+00  0.26634198956E+03  0.26634198956E+03  0.00000000000E+00 0.  1.
          2   -1    0    0  501    0  0.00000000000E+00 -0.00000000000E+00 -0.51255756066E+02  0.51255756066E+02  0.00000000000E+00 0. -1.
          5    1    1    2  502    0  0.13103687250E+02  0.66929226559E+02  0.88365258585E+02  0.11172169401E+03  0.47000000000E+01 0.  1.
         -5    1    1    2    0  502  0.36454730854E+01 -0.38296831134E+02 -0.93007588021E+01  0.39856377949E+02  0.47000000000E+01 0.  1.
        -11    1    1    2    0    0  0.25968993394E+02 -0.22819363318E+02  0.15251480367E+02  0.37785177166E+02  0.00000000000E+00 0. -1.
         11    1    1    2    0    0 -0.42718153729E+02 -0.58130321076E+01  0.12077025335E+03  0.12823449651E+03  0.00000000000E+00 0.  1.
<mgrwt>
<rscale>  0 0.11978551E+03</rscale>
<asrwt>0</asrwt>
<pdfrwt beam="2">  1        2 0.78855011E-02 0.12932408E+03</pdfrwt>
<pdfrwt beam="1">  1       -2 0.40975690E-01 0.12932408E+03</pdfrwt>
<totfact> 0.46693528E+03</totfact>
</mgrwt>
</event>
<event>
 6    1  0.8353100E-006  0.2174184E+03  0.7546771E-02  0.1139779E+00
         -1   -1    0    0    0  501 -0.00000000000E+00  0.00000000000E+00  0.45761865729E+03  0.45761865729E+03  0.00000000000E+00 0.  1.
          1   -1    0    0  501    0  0.00000000000E+00 -0.00000000000E+00 -0.10193038667E+03  0.10193038667E+03  0.00000000000E+00 0. -1.
          5    1    1    2  502    0  0.11826361262E+03  0.80579009249E+02  0.17929769772E+02  0.14430116231E+03  0.47000000000E+01 0.  1.
         -5    1    1    2    0  502  0.39309913205E+02  0.19873268015E+01  0.90190433774E+02  0.98517120788E+02  0.47000000000E+01 0.  1.
        -11    1    1    2    0    0 -0.13114719768E+03 -0.26165134595E+02  0.14980794005E+03  0.20081489145E+03  0.00000000000E+00 0. -1.
         11    1    1    2    0    0 -0.26426328143E+02 -0.56401201455E+02  0.97760127025E+02  0.11591586941E+03  0.00000000000E+00 0.  1.
<mgrwt>
<rscale>  0 0.21227301E+03</rscale>
<asrwt>0</asrwt>
<pdfrwt beam="2">  1        1 0.15681598E-01 0.21741835E+03</pdfrwt>
<pdfrwt beam="1">  1       -1 0.70402869E-01 0.21741835E+03</pdfrwt>
<totfact> 0.74397546E+02</totfact>
</mgrwt>
</event>
<event>
 6    1  0.9027903E-006  0.1271528E+03  0.7546771E-02  0.1246486E+00
          1   -1    0    0  501    0  0.00000000000E+00  0.00000000000E+00  0.14890903891E+04  0.14890903891E+04  0.00000000000E+00 0. -1.
         -1   -1    0    0    0  501 -0.00000000000E+00 -0.00000000000E+00 -0.10779760817E+02  0.10779760817E+02  0.00000000000E+00 0.  1.
          5    1    1    2  502    0  0.31214330329E+02 -0.42784781235E+02  0.40055436509E+03  0.40406776822E+03  0.47000000000E+01 0. -1.
         -5    1    1    2    0  502 -0.54098232138E+02  0.47140026449E+02  0.78441666940E+03  0.78770578394E+03  0.47000000000E+01 0. -1.
        -11    1    1    2    0    0 -0.16923364463E+02  0.22032732123E+02  0.31775721974E+02  0.42208270001E+02  0.00000000000E+00 0.  1.
         11    1    1    2    0    0  0.39807266272E+02 -0.26387977338E+02  0.26156387177E+03  0.26588832770E+03  0.00000000000E+00 0. -1.
<mgrwt>
<rscale>  0 0.11796904E+03</rscale>
<asrwt>0</asrwt>
<pdfrwt beam="1">  1        1 0.22909067E+00 0.12715285E+03</pdfrwt>
<pdfrwt beam="2">  1       -1 0.16584259E-02 0.12715285E+03</pdfrwt>
<totfact> 0.64102312E+03</totfact>
</mgrwt>
</event>
<event>
 6    1  0.8353100E-006  0.3080324E+03  0.7546771E-02  0.1081293E+00
         -1   -1    0    0    0  501 -0.00000000000E+00  0.00000000000E+00  0.17869370350E+03  0.17869370350E+03  0.00000000000E+00 0.  1.
          1   -1    0    0  501    0  0.00000000000E+00 -0.00000000000E+00 -0.13274666922E+03  0.13274666922E+03  0.00000000000E+00 0. -1.
          5    1    1    2  502    0 -0.34273466604E+01  0.10198403600E+03 -0.57708934401E+02  0.11732391663E+03  0.47000000000E+01 0. -1.
         -5    1    1    2    0  502 -0.80080615103E+01 -0.19123981292E+02  0.60383748897E+02  0.64016738752E+02  0.47000000000E+01 0.  1.
        -11    1    1    2    0    0 -0.36903462901E+02 -0.56895073680E+02  0.23267998072E+02  0.71695988154E+02  0.00000000000E+00 0.  1.
         11    1    1    2    0    0  0.48338871072E+02 -0.25964981027E+02  0.20004221709E+02  0.58403729183E+02  0.00000000000E+00 0. -1.
<mgrwt>
<rscale>  0 0.30803243E+03</rscale>
<asrwt>0</asrwt>
<pdfrwt beam="2">  1        1 0.20422564E-01 0.30803243E+03</pdfrwt>
<pdfrwt beam="1">  1       -1 0.27491339E-01 0.30803243E+03</pdfrwt>
<totfact> 0.29462025E+03</totfact>
</mgrwt>
</event>
<event>
 6    1  0.8353100E-006  0.1625813E+03  0.7546771E-02  0.1192934E+00
         -2   -1    0    0    0  501 -0.00000000000E+00  0.00000000000E+00  0.16003314687E+02  0.16003314687E+02  0.00000000000E+00 0.  1.
          2   -1    0    0  501    0  0.00000000000E+00 -0.00000000000E+00 -0.14530159487E+04  0.14530159487E+04  0.00000000000E+00 0. -1.
          5    1    1    2  502    0 -0.46278651331E+02 -0.45751026495E+02 -0.15411724153E+03  0.16735914714E+03  0.47000000000E+01 0.  1.
         -5    1    1    2    0  502  0.88624095295E+00 -0.47779540458E+02 -0.73033830902E+03  0.73191516280E+03  0.47000000000E+01 0.  1.
        -11    1    1    2    0    0  0.66194636442E+02  0.97124777027E+02 -0.47982935217E+03  0.49401534329E+03  0.00000000000E+00 0.  1.
         11    1    1    2    0    0 -0.20802226064E+02 -0.35942100739E+01 -0.72727731268E+02  0.75729610132E+02  0.00000000000E+00 0. -1.
<mgrwt>
<rscale>  0 0.15630372E+03</rscale>
<asrwt>0</asrwt>
<pdfrwt beam="2">  1        2 0.22354095E+00 0.16258125E+03</pdfrwt>
<pdfrwt beam="1">  1       -2 0.24620480E-02 0.16258125E+03</pdfrwt>
<totfact> 0.80901959E+03</totfact>
</mgrwt>
</event>
<event>
 6    1  0.8353100E-006  0.1574541E+03  0.7546771E-02  0.1199694E+00
         -1   -1    0    0    0  501 -0.00000000000E+00  0.00000000000E+00  0.95324430595E+02  0.95324430595E+02  0.00000000000E+00 0.  1.
          1   -1    0    0  501    0  0.00000000000E+00 -0.00000000000E+00 -0.23283262534E+03  0.23283262534E+03  0.00000000000E+00 0. -1.
          5    1    1    2  502    0  0.54376479289E+02 -0.50681304862E+02 -0.59585599791E+02  0.95383069068E+02  0.47000000000E+01 0. -1.
         -5    1    1    2    0  502 -0.69996396517E+02 -0.43773264017E+02 -0.53888778766E+02  0.98699972872E+02  0.47000000000E+01 0. -1.
        -11    1    1    2    0    0  0.46904060144E+02  0.32881993043E+02 -0.30163273025E+02  0.64738237264E+02  0.00000000000E+00 0.  1.
         11    1    1    2    0    0 -0.31284142916E+02  0.61572575837E+02  0.61294568404E+01  0.69335776727E+02  0.00000000000E+00 0. -1.
<mgrwt>
<rscale>  0 0.15063593E+03</rscale>
<asrwt>0</asrwt>
<pdfrwt beam="2">  1        1 0.35820404E-01 0.15745410E+03</pdfrwt>
<pdfrwt beam="1">  1       -1 0.14665297E-01 0.15745410E+03</pdfrwt>
<totfact> 0.39064975E+03</totfact>
</mgrwt>
</event>
<event>
 6    1  0.8353100E-006  0.1651756E+03  0.7546771E-02  0.1190649E+00
         -1   -1    0    0    0  501 -0.00000000000E+00  0.00000000000E+00  0.19839818945E+02  0.19839818945E+02  0.00000000000E+00 0.  1.
          1   -1    0    0  501    0  0.00000000000E+00 -0.00000000000E+00 -0.11697626223E+04  0.11697626223E+04  0.00000000000E+00 0. -1.
          5    1    1    2  502    0  0.15666032721E+02 -0.16439160013E+02 -0.34875378886E+02  0.41881411337E+02  0.47000000000E+01 0.  1.
         -5    1    1    2    0  502 -0.10270946428E+03  0.80319489821E+02 -0.61161617341E+03  0.62537739652E+03  0.47000000000E+01 0.  1.
        -11    1    1    2    0    0  0.12198183160E+02  0.13727229351E+02 -0.20496872723E+02  0.27520070667E+02  0.00000000000E+00 0.  1.
         11    1    1    2    0    0  0.74845248401E+02 -0.77607559159E+02 -0.48293437829E+03  0.49482356268E+03  0.00000000000E+00 0. -1.
<mgrwt>
<rscale>  0 0.15828300E+03</rscale>
<asrwt>0</asrwt>
<pdfrwt beam="2">  1        1 0.17996348E+00 0.16517563E+03</pdfrwt>
<pdfrwt beam="1">  1       -1 0.30522798E-02 0.16517563E+03</pdfrwt>
<totfact> 0.43658053E+03</totfact>
</mgrwt>
</event>
<event>
 6    1  0.8353100E-006  0.1357355E+03  0.7546771E-02  0.1231471E+00
          2   -1    0    0  501    0  0.00000000000E+00  0.00000000000E+00  0.69648814632E+03  0.69648814632E+03  0.00000000000E+00 0. -1.
         -2   -1    0    0    0  501 -0.00000000000E+00 -0.00000000000E+00 -0.21988337460E+02  0.21988337460E+02  0.00000000000E+00 0.  1.
          5    1    1    2  502    0 -0.48553893666E+01  0.28426427686E+02  0.13077006767E+02  0.32011477674E+02  0.47000000000E+01 0.  1.
         -5    1    1    2    0  502 -0.49056539035E+01  0.23610175265E+02  0.44689893248E+03  0.44757373881E+03  0.47000000000E+01 0.  1.
        -11    1    1    2    0    0 -0.66604632534E+01  0.23983216181E+02  0.32406344369E+02  0.40862300284E+02  0.00000000000E+00 0.  1.
         11    1    1    2    0    0  0.16421506523E+02 -0.76019819131E+02  0.18211752524E+03  0.19802896702E+03  0.00000000000E+00 0. -1.
<mgrwt>
<rscale>  0 0.12733070E+03</rscale>
<asrwt>0</asrwt>
<pdfrwt beam="1">  1        2 0.10715201E+00 0.13573546E+03</pdfrwt>
<pdfrwt beam="2">  1       -2 0.33828217E-02 0.13573546E+03</pdfrwt>
<totfact> 0.14209260E+04</totfact>
</mgrwt>
</event>
<event>
 6    1  0.8353100E-006  0.1320602E+03  0.7546771E-02  0.1237727E+00
         -1   -1    0    0    0  501 -0.00000000000E+00  0.00000000000E+00  0.38307347515E+02  0.38307347515E+02  0.00000000000E+00 0.  1.
          1   -1    0    0  501    0  0.00000000000E+00 -0.00000000000E+00 -0.76746202902E+03  0.76746202902E+03  0.00000000000E+00 0. -1.
          5    1    1    2  502    0  0.73117153242E+02 -0.16044762538E+02 -0.57374363464E+03  0.57862544084E+03  0.47000000000E+01 0.  1.
         -5    1    1    2    0  502 -0.31868583318E+02  0.26690721812E+02 -0.10857529293E+03  0.11635585704E+03  0.47000000000E+01 0.  1.
        -11    1    1    2    0    0 -0.43811118308E+02 -0.35861523508E+02  0.10298968244E+01  0.56626174541E+02  0.00000000000E+00 0.  1.
         11    1    1    2    0    0  0.25625483844E+01  0.25215564233E+02 -0.47865650766E+02  0.54161904113E+02  0.00000000000E+00 0. -1.
<mgrwt>
<rscale>  0 0.12331436E+03</rscale>
<asrwt>0</asrwt>
<pdfrwt beam="2">  1        1 0.11807107E+00 0.13206016E+03</pdfrwt>
<pdfrwt beam="1">  1       -1 0.58934385E-02 0.13206016E+03</pdfrwt>
<totfact> 0.32959371E+03</totfact>
</mgrwt>
</event>
<event>
 6    1  0.8353100E-006  0.4863222E+03  0.7546771E-02  0.1017412E+00
          1   -1    0    0  501    0  0.00000000000E+00  0.00000000000E+00  0.59783800184E+03  0.59783800184E+03  0.00000000000E+00 0. -1.
         -1   -1    0    0    0  501 -0.00000000000E+00 -0.00000000000E+00 -0.98901920593E+02  0.98901920593E+02  0.00000000000E+00 0.  1.
          5    1    1    2  502    0  0.18918112913E+02  0.72275619149E+01  0.22586882980E+03  0.22682361192E+03  0.47000000000E+01 0.  1.
         -5    1    1    2    0  502 -0.11195776798E+03  0.59251730369E+02  0.30069467501E+03  0.32631991503E+03  0.47000000000E+01 0.  1.
        -11    1    1    2    0    0  0.61124165768E+02 -0.43525263646E+02 -0.57241279969E+02  0.94377838228E+02  0.00000000000E+00 0.  1.
         11    1    1    2    0    0  0.31915489299E+02 -0.22954028638E+02  0.29613856406E+02  0.49218557264E+02  0.00000000000E+00 0. -1.
<mgrwt>
<rscale>  0 0.48632222E+03</rscale>
<asrwt>0</asrwt>
<pdfrwt beam="1">  1        1 0.91975075E-01 0.48632222E+03</pdfrwt>
<pdfrwt beam="2">  1       -1 0.15215680E-01 0.48632222E+03</pdfrwt>
<totfact> 0.11113150E+03</totfact>
</mgrwt>
</event>
<event>
 6    1  0.8353100E-006  0.1913445E+03  0.7546771E-02  0.1162044E+00
         -1   -1    0    0    0  501 -0.00000000000E+00  0.00000000000E+00  0.12563510962E+03  0.12563510962E+03  0.00000000000E+00 0.  1.
          1   -1    0    0  501    0  0.00000000000E+00 -0.00000000000E+00 -0.35445140386E+03  0.35445140386E+03  0.00000000000E+00 0. -1.
          5    1    1    2  502    0  0.43878208439E+02 -0.29303742677E+02 -0.16998197939E+03  0.17804485341E+03  0.47000000000E+01 0.  1.
         -5    1    1    2    0  502  0.30167863353E+00 -0.10865806725E+03 -0.71934257119E+02  0.13039667916E+03  0.47000000000E+01 0.  1.
        -11    1    1    2    0    0 -0.72500398448E+01  0.90072658284E+02  0.47482532603E+02  0.10207956578E+03  0.00000000000E+00 0.  1.
         11    1    1    2    0    0 -0.36929847227E+02  0.47889151648E+02 -0.34382590336E+02  0.69565415114E+02  0.00000000000E+00 0. -1.
<mgrwt>
<rscale>  0 0.18608125E+03</rscale>
<asrwt>0</asrwt>
<pdfrwt beam="2">  1        1 0.54530985E-01 0.19134449E+03</pdfrwt>
<pdfrwt beam="1">  1       -1 0.19328478E-01 0.19134449E+03</pdfrwt>
<totfact> 0.14998798E+03</totfact>
</mgrwt>
</event>
<event>
 6    1  0.8353100E-006  0.1332009E+03  0.7546771E-02  0.1237703E+00
          1   -1    0    0  501    0  0.00000000000E+00  0.00000000000E+00  0.53674813787E+03  0.53674813787E+03  0.00000000000E+00 0. -1.
         -1   -1    0    0    0  501 -0.00000000000E+00 -0.00000000000E+00 -0.26259063195E+02  0.26259063195E+02  0.00000000000E+00 0.  1.
          5    1    1    2  502    0  0.42597035643E+02  0.27308586245E+02  0.83264247148E+02  0.97546354014E+02  0.47000000000E+01 0. -1.
         -5    1    1    2    0  502 -0.73358784044E+02  0.69273765325E+01  0.27286014391E+03  0.28267339436E+03  0.47000000000E+01 0. -1.
        -11    1    1    2    0    0  0.67836974185E+01 -0.57262548736E+02  0.62229904022E+02  0.84838546622E+02  0.00000000000E+00 0. -1.
         11    1    1    2    0    0  0.23978050982E+02  0.23026585959E+02  0.92134779588E+02  0.97948906066E+02  0.00000000000E+00 0.  1.
<mgrwt>
<rscale>  0 0.12332947E+03</rscale>
<asrwt>0</asrwt>
<pdfrwt beam="1">  1        1 0.82576628E-01 0.13320088E+03</pdfrwt>
<pdfrwt beam="2">  1       -1 0.40398563E-02 0.13320088E+03</pdfrwt>
<totfact> 0.94748301E+03</totfact>
</mgrwt>
</event>
<event>
 6    1  0.8353100E-006  0.1464218E+03  0.7546771E-02  0.1214413E+00
          1   -1    0    0  501    0  0.00000000000E+00  0.00000000000E+00  0.37286114465E+03  0.37286114465E+03  0.00000000000E+00 0. -1.
         -1   -1    0    0    0  501 -0.00000000000E+00 -0.00000000000E+00 -0.47585504529E+02  0.47585504529E+02  0.00000000000E+00 0.  1.
          5    1    1    2  502    0 -0.30545816373E+02  0.92449773976E+02  0.79661081542E+02  0.12588878234E+03  0.47000000000E+01 0. -1.
         -5    1    1    2    0  502 -0.81856174849E+01 -0.26777427846E+02  0.11063110893E+03  0.11421631775E+03  0.47000000000E+01 0. -1.
        -11    1    1    2    0    0 -0.25553348761E+02 -0.47316050794E+00  0.46229953480E+02  0.52824294719E+02  0.00000000000E+00 0.  1.
         11    1    1    2    0    0  0.64284782619E+02 -0.65199185622E+02  0.88753496169E+02  0.12751725438E+03  0.00000000000E+00 0. -1.
<mgrwt>
<rscale>  0 0.13919734E+03</rscale>
<asrwt>0</asrwt>
<pdfrwt beam="1">  1        1 0.57363251E-01 0.14642179E+03</pdfrwt>
<pdfrwt beam="2">  1       -1 0.73208471E-02 0.14642179E+03</pdfrwt>
<totfact> 0.62903004E+03</totfact>
</mgrwt>
</event>
<event>
 6    1  0.8353100E-006  0.1271543E+03  0.7546771E-02  0.1243086E+00
          2   -1    0    0  501    0  0.00000000000E+00  0.00000000000E+00  0.14374401201E+03  0.14374401201E+03  0.00000000000E+00 0. -1.
         -2   -1    0    0    0  501 -0.00000000000E+00 -0.00000000000E+00 -0.91378272987E+02  0.91378272987E+02  0.00000000000E+00 0.  1.
          5    1    1    2  502    0  0.50123046725E+02  0.48116672459E+02  0.22958442694E+02  0.73326080438E+02  0.47000000000E+01 0. -1.
         -5    1    1    2    0  502 -0.26827634312E+02 -0.50653077264E+02  0.18026385564E+02  0.60270198072E+02  0.47000000000E+01 0. -1.
        -11    1    1    2    0    0 -0.12689142501E+02  0.13389275057E+02 -0.42083911187E+02  0.45949348252E+02  0.00000000000E+00 0.  1.
         11    1    1    2    0    0 -0.10606269912E+02 -0.10852870253E+02  0.53464821955E+02  0.55576658237E+02  0.00000000000E+00 0. -1.
<mgrwt>
<rscale>  0 0.12000686E+03</rscale>
<asrwt>0</asrwt>
<pdfrwt beam="1">  1        2 0.22114463E-01 0.12715427E+03</pdfrwt>
<pdfrwt beam="2">  1       -2 0.14058196E-01 0.12715427E+03</pdfrwt>
<totfact> 0.88501952E+03</totfact>
</mgrwt>
</event>
<event>
 6    1  0.8353100E-006  0.1252263E+03  0.7546771E-02  0.1250415E+00
         -1   -1    0    0    0  501 -0.00000000000E+00  0.00000000000E+00  0.14917880189E+03  0.14917880189E+03  0.00000000000E+00 0.  1.
          1   -1    0    0  501    0  0.00000000000E+00 -0.00000000000E+00 -0.12511128068E+03  0.12511128068E+03  0.00000000000E+00 0. -1.
          5    1    1    2  502    0 -0.46315307780E+02 -0.20175135389E+02  0.39516453662E+01  0.50890562228E+02  0.47000000000E+01 0. -1.
         -5    1    1    2    0  502  0.48316715850E+02  0.27423813514E+02 -0.73815028403E+02  0.92505778178E+02  0.47000000000E+01 0. -1.
        -11    1    1    2    0    0  0.26722495980E+02  0.31742311111E+02  0.32721624562E+02  0.52842888074E+02  0.00000000000E+00 0. -1.
         11    1    1    2    0    0 -0.28723904051E+02 -0.38990989236E+02  0.61209279677E+02  0.78050854089E+02  0.00000000000E+00 0.  1.
<mgrwt>
<rscale>  0 0.11567053E+03</rscale>
<asrwt>0</asrwt>
<pdfrwt beam="2">  1        1 0.19247889E-01 0.12522627E+03</pdfrwt>
<pdfrwt beam="1">  1       -1 0.22950585E-01 0.12522627E+03</pdfrwt>
<totfact> 0.41151076E+03</totfact>
</mgrwt>
</event>
<event>
 6    1  0.8353100E-006  0.1272718E+03  0.7546771E-02  0.1248966E+00
          2   -1    0    0  501    0  0.00000000000E+00  0.00000000000E+00  0.14770165579E+04  0.14770165579E+04  0.00000000000E+00 0. -1.
         -2   -1    0    0    0  501 -0.00000000000E+00 -0.00000000000E+00 -0.12882312716E+02  0.12882312716E+02  0.00000000000E+00 0.  1.
          5    1    1    2  502    0 -0.18984653299E+02 -0.53489472004E+02  0.86788254023E+03  0.86974923645E+03  0.47000000000E+01 0. -1.
         -5    1    1    2    0  502  0.12496529819E+02  0.58701302526E+02  0.39993568638E+03  0.40444115693E+03  0.47000000000E+01 0.  1.
        -11    1    1    2    0    0 -0.40427573502E+02  0.66301616980E+01  0.92931919735E+02  0.10156125959E+03  0.00000000000E+00 0.  1.
         11    1    1    2    0    0  0.46915696982E+02 -0.11841992220E+02  0.10338409879E+03  0.11414721760E+03  0.00000000000E+00 0. -1.
<mgrwt>
<rscale>  0 0.11651143E+03</rscale>
<asrwt>0</asrwt>
<pdfrwt beam="1">  1        2 0.22723318E+00 0.12727177E+03</pdfrwt>
<pdfrwt beam="2">  1       -2 0.19818954E-02 0.12727177E+03</pdfrwt>
<totfact> 0.10676868E+04</totfact>
</mgrwt>
</event>
<event>
 6    1  0.8353100E-006  0.3054681E+03  0.7546771E-02  0.1082539E+00
         -2   -1    0    0    0  501 -0.00000000000E+00  0.00000000000E+00  0.39905293325E+03  0.39905293325E+03  0.00000000000E+00 0.  1.
          2   -1    0    0  501    0  0.00000000000E+00 -0.00000000000E+00 -0.58457650819E+02  0.58457650819E+02  0.00000000000E+00 0. -1.
          5    1    1    2  502    0 -0.66066292505E+02  0.52818362933E+02 -0.24651341238E+00  0.84715318787E+02  0.47000000000E+01 0. -1.
         -5    1    1    2    0  502 -0.13090888603E+02 -0.24868792804E+02  0.81555530171E+02  0.86389945720E+02  0.47000000000E+01 0. -1.
        -11    1    1    2    0    0  0.34530820726E+02 -0.56221112060E+02  0.17392853523E+03  0.18602238142E+03  0.00000000000E+00 0.  1.
         11    1    1    2    0    0  0.44626360381E+02  0.28271541931E+02  0.85357730441E+02  0.10038293814E+03  0.00000000000E+00 0. -1.
<mgrwt>
<rscale>  0 0.30546815E+03</rscale>
<asrwt>0</asrwt>
<pdfrwt beam="2">  1        2 0.89934850E-02 0.30546815E+03</pdfrwt>
<pdfrwt beam="1">  1       -2 0.61392757E-01 0.30546815E+03</pdfrwt>
<totfact> 0.18492362E+03</totfact>
</mgrwt>
</event>
<event>
 6    1  0.8353100E-006  0.2390387E+03  0.7546771E-02  0.1123114E+00
          1   -1    0    0  501    0  0.00000000000E+00  0.00000000000E+00  0.53983080448E+03  0.53983080448E+03  0.00000000000E+00 0. -1.
         -1   -1    0    0    0  501 -0.00000000000E+00 -0.00000000000E+00 -0.14838522054E+03  0.14838522054E+03  0.00000000000E+00 0.  1.
          5    1    1    2  502    0  0.32365608375E+02  0.10265437385E+01  0.22195345482E+02  0.39538712151E+02  0.47000000000E+01 0. -1.
         -5    1    1    2    0  502  0.26791935968E+02 -0.19600491705E+03  0.37609717806E+03  0.42497872028E+03  0.47000000000E+01 0. -1.
        -11    1    1    2    0    0  0.24366528323E+02  0.58570222139E+02  0.24133945436E+01  0.63482462910E+02  0.00000000000E+00 0.  1.
         11    1    1    2    0    0 -0.83524072666E+02  0.13640815118E+03 -0.92603341562E+01  0.16021612968E+03  0.00000000000E+00 0. -1.
<mgrwt>
<rscale>  0 0.23508024E+03</rscale>
<asrwt>0</asrwt>
<pdfrwt beam="1">  1        1 0.83050892E-01 0.23903872E+03</pdfrwt>
<pdfrwt beam="2">  1       -1 0.22828496E-01 0.23903872E+03</pdfrwt>
<totfact> 0.66298046E+02</totfact>
</mgrwt>
</event>
<event>
 6    1  0.8353100E-006  0.1302510E+03  0.7546771E-02  0.1244163E+00
         -2   -1    0    0    0  501 -0.00000000000E+00  0.00000000000E+00  0.98718581379E+02  0.98718581379E+02  0.00000000000E+00 0.  1.
          2   -1    0    0  501    0  0.00000000000E+00 -0.00000000000E+00 -0.15717409926E+03  0.15717409926E+03  0.00000000000E+00 0. -1.
          5    1    1    2  502    0 -0.33450054440E+02 -0.41933200940E+02 -0.10818501424E+03  0.12084447356E+03  0.47000000000E+01 0. -1.
         -5    1    1    2    0  502  0.19000033777E+02  0.27046693010E+02  0.17665793285E+02  0.37771618163E+02  0.47000000000E+01 0.  1.
        -11    1    1    2    0    0  0.39446980777E+02 -0.23283614736E+02  0.11486017500E+02  0.47224142190E+02  0.00000000000E+00 0. -1.
         11    1    1    2    0    0 -0.24996960114E+02  0.38170122666E+02  0.20577685579E+02  0.50052446724E+02  0.00000000000E+00 0.  1.
<mgrwt>
<rscale>  0 0.11935602E+03</rscale>
<asrwt>0</asrwt>
<pdfrwt beam="2">  1        2 0.24180631E-01 0.13025105E+03</pdfrwt>
<pdfrwt beam="1">  1       -2 0.15187474E-01 0.13025105E+03</pdfrwt>
<totfact> 0.70806726E+03</totfact>
</mgrwt>
</event>
<event>
 6    1  0.8353100E-006  0.1295033E+03  0.7546771E-02  0.1241902E+00
         -1   -1    0    0    0  501 -0.00000000000E+00  0.00000000000E+00  0.23070400046E+02  0.23070400046E+02  0.00000000000E+00 0.  1.
          1   -1    0    0  501    0  0.00000000000E+00 -0.00000000000E+00 -0.56106914001E+03  0.56106914001E+03  0.00000000000E+00 0. -1.
          5    1    1    2  502    0  0.63701047769E+02  0.14481483248E+02 -0.85127350090E+02  0.10740713467E+03  0.47000000000E+01 0. -1.
         -5    1    1    2    0  502 -0.36665071496E+02  0.59441232626E+01 -0.23432087275E+03  0.23729311300E+03  0.47000000000E+01 0. -1.
        -11    1    1    2    0    0 -0.28958112686E+02  0.12926790008E+02 -0.18699031145E+02  0.36814779044E+02  0.00000000000E+00 0.  1.
         11    1    1    2    0    0  0.19221364132E+01 -0.33352396518E+02 -0.19985148597E+03  0.20262451334E+03  0.00000000000E+00 0. -1.
<mgrwt>
<rscale>  0 0.12072761E+03</rscale>
<asrwt>0</asrwt>
<pdfrwt beam="2">  1        1 0.86318329E-01 0.12950326E+03</pdfrwt>
<pdfrwt beam="1">  1       -1 0.35492923E-02 0.12950326E+03</pdfrwt>
<totfact> 0.10776293E+04</totfact>
</mgrwt>
</event>
<event>
 6    1  0.8353100E-006  0.1494667E+03  0.7546771E-02  0.1210458E+00
         -1   -1    0    0    0  501 -0.00000000000E+00  0.00000000000E+00  0.41631481914E+02  0.41631481914E+02  0.00000000000E+00 0.  1.
          1   -1    0    0  501    0  0.00000000000E+00 -0.00000000000E+00 -0.49637222176E+03  0.49637222176E+03  0.00000000000E+00 0. -1.
          5    1    1    2  502    0 -0.36155843971E+02  0.70891241864E+02 -0.21388213411E+03  0.22825527490E+03  0.47000000000E+01 0. -1.
         -5    1    1    2    0  502 -0.43408509143E+02 -0.51266232399E+02 -0.12119187523E+03  0.13864373722E+03  0.47000000000E+01 0. -1.
        -11    1    1    2    0    0  0.90635007750E+02 -0.37745803304E+02 -0.82240760350E+02  0.12807416976E+03  0.00000000000E+00 0.  1.
         11    1    1    2    0    0 -0.11070654636E+02  0.18120793839E+02 -0.37425970153E+02  0.43030521788E+02  0.00000000000E+00 0. -1.
<mgrwt>
<rscale>  0 0.14215520E+03</rscale>
<asrwt>0</asrwt>
<pdfrwt beam="2">  1        1 0.76364955E-01 0.14946670E+03</pdfrwt>
<pdfrwt beam="1">  1       -1 0.64048436E-02 0.14946670E+03</pdfrwt>
<totfact> 0.53404029E+03</totfact>
</mgrwt>
</event>
<event>
 6    1  0.8353100E-006  0.3744604E+03  0.7546771E-02  0.1053000E+00
          1   -1    0    0  501    0  0.00000000000E+00  0.00000000000E+00  0.22888337663E+03  0.22888337663E+03  0.00000000000E+00 0. -1.
         -1   -1    0    0    0  501 -0.00000000000E+00 -0.00000000000E+00 -0.15315721500E+03  0.15315721500E+03  0.00000000000E+00 0.  1.
          5    1    1    2  502    0  0.55726770259E+02 -0.15297212032E+03  0.39954488944E+02  0.16770329068E+03  0.47000000000E+01 0. -1.
         -5    1    1    2    0  502  0.23570821875E+02  0.23453308453E+02  0.12819177930E+02  0.35945272903E+02  0.47000000000E+01 0. -1.
        -11    1    1    2    0    0 -0.72533142130E+02  0.75984750954E+02  0.51888989135E+02  0.11716316093E+03  0.00000000000E+00 0. -1.
         11    1    1    2    0    0 -0.67644500053E+01  0.53534060916E+02 -0.28936494377E+02  0.61228867120E+02  0.00000000000E+00 0.  1.
<mgrwt>
<rscale>  0 0.37446036E+03</rscale>
<asrwt>0</asrwt>
<pdfrwt beam="1">  1        1 0.35212827E-01 0.37446036E+03</pdfrwt>
<pdfrwt beam="2">  1       -1 0.23562648E-01 0.37446036E+03</pdfrwt>
<totfact> 0.19076979E+03</totfact>
</mgrwt>
</event>
<event>
 6    1  0.8353100E-006  0.2495305E+03  0.7546771E-02  0.1113602E+00
          2   -1    0    0  501    0  0.00000000000E+00  0.00000000000E+00  0.15309194528E+03  0.15309194528E+03  0.00000000000E+00 0.  1.
         -2   -1    0    0    0  501 -0.00000000000E+00 -0.00000000000E+00 -0.10167989592E+03  0.10167989592E+03  0.00000000000E+00 0. -1.
          5    1    1    2  502    0  0.27062656650E+02 -0.20202735569E+02 -0.16514064959E+02  0.37885910981E+02  0.47000000000E+01 0. -1.
         -5    1    1    2    0  502 -0.33955514922E+02  0.70554107242E+02  0.77240652297E+02  0.11008663593E+03  0.47000000000E+01 0. -1.
        -11    1    1    2    0    0 -0.41748989559E+02 -0.35945705122E+02 -0.10365849312E+02  0.56058207944E+02  0.00000000000E+00 0. -1.
         11    1    1    2    0    0  0.48641847831E+02 -0.14405666551E+02  0.10513113332E+01  0.50741086357E+02  0.00000000000E+00 0.  1.
<mgrwt>
<rscale>  0 0.24953054E+03</rscale>
<asrwt>0</asrwt>
<pdfrwt beam="1">  1        2 0.23552607E-01 0.24953054E+03</pdfrwt>
<pdfrwt beam="2">  1       -2 0.15643061E-01 0.24953054E+03</pdfrwt>
<totfact> 0.72426157E+03</totfact>
</mgrwt>
</event>
<event>
 6    1  0.8353100E-006  0.1353601E+03  0.7546771E-02  0.1232814E+00
          3   -1    0    0  501    0  0.00000000000E+00  0.00000000000E+00  0.52527540703E+02  0.52527540703E+02  0.00000000000E+00 0. -1.
         -3   -1    0    0    0  501 -0.00000000000E+00 -0.00000000000E+00 -0.27065710699E+03  0.27065710699E+03  0.00000000000E+00 0.  1.
          5    1    1    2  502    0  0.35222302087E+02 -0.66590187943E+02 -0.25346773266E+02  0.79620428344E+02  0.47000000000E+01 0. -1.
         -5    1    1    2    0  502 -0.30341311641E+02  0.14913775873E+02 -0.97027739762E+02  0.10285663900E+03  0.47000000000E+01 0. -1.
        -11    1    1    2    0    0 -0.38460341023E+02  0.37177891584E+02 -0.88513951331E+02  0.10342201426E+03  0.00000000000E+00 0.  1.
         11    1    1    2    0    0  0.33579350577E+02  0.14498520486E+02 -0.72411019328E+01  0.37285566090E+02  0.00000000000E+00 0. -1.
<mgrwt>
<rscale>  0 0.12645401E+03</rscale>
<asrwt>0</asrwt>
<pdfrwt beam="1">  1        3 0.80811601E-02 0.13536011E+03</pdfrwt>
<pdfrwt beam="2">  1       -3 0.41639555E-01 0.13536011E+03</pdfrwt>
<totfact> 0.13853237E+03</totfact>
</mgrwt>
</event>
<event>
 6    1  0.8353100E-006  0.1820661E+03  0.7546771E-02  0.1171157E+00
         -1   -1    0    0    0  501 -0.00000000000E+00  0.00000000000E+00  0.13653784592E+03  0.13653784592E+03  0.00000000000E+00 0.  1.
          1   -1    0    0  501    0  0.00000000000E+00 -0.00000000000E+00 -0.27353958443E+03  0.27353958443E+03  0.00000000000E+00 0. -1.
          5    1    1    2  502    0  0.23870727490E+02 -0.30549821624E+02 -0.10035279564E+01  0.39066613630E+02  0.47000000000E+01 0.  1.
         -5    1    1    2    0  502  0.10106315936E+03  0.74288504862E+02 -0.16501987745E+03  0.20733112185E+03  0.47000000000E+01 0.  1.
        -11    1    1    2    0    0 -0.10142183228E+03 -0.42120300158E+02  0.59696411818E+02  0.12499667729E+03  0.00000000000E+00 0.  1.
         11    1    1    2    0    0 -0.23512054561E+02 -0.16183830803E+01 -0.30674744919E+02  0.38683017583E+02  0.00000000000E+00 0. -1.
<mgrwt>
<rscale>  0 0.17657796E+03</rscale>
<asrwt>0</asrwt>
<pdfrwt beam="2">  1        1 0.42083013E-01 0.18206612E+03</pdfrwt>
<pdfrwt beam="1">  1       -1 0.21005823E-01 0.18206612E+03</pdfrwt>
<totfact> 0.18113002E+03</totfact>
</mgrwt>
</event>
<event>
 6    1  0.8353100E-006  0.1273256E+03  0.7546771E-02  0.1246780E+00
          1   -1    0    0  501    0  0.00000000000E+00  0.00000000000E+00  0.73093174370E+02  0.73093174370E+02  0.00000000000E+00 0. -1.
         -1   -1    0    0    0  501 -0.00000000000E+00 -0.00000000000E+00 -0.17298869999E+03  0.17298869999E+03  0.00000000000E+00 0.  1.
          5    1    1    2  502    0  0.54256035655E+02 -0.27127498841E+02  0.10845717114E+02  0.61800794316E+02  0.47000000000E+01 0.  1.
         -5    1    1    2    0  502 -0.34420536185E+02  0.41177813632E+02 -0.44554939490E+02  0.69911503200E+02  0.47000000000E+01 0.  1.
        -11    1    1    2    0    0 -0.33462773959E+02 -0.48421125160E+01 -0.83743996990E+02  0.90312016512E+02  0.00000000000E+00 0.  1.
         11    1    1    2    0    0  0.13627274489E+02 -0.92082022750E+01  0.17557693750E+02  0.24057560328E+02  0.00000000000E+00 0. -1.
<mgrwt>
<rscale>  0 0.11779460E+03</rscale>
<asrwt>0</asrwt>
<pdfrwt beam="1">  1        1 0.11245104E-01 0.12732564E+03</pdfrwt>
<pdfrwt beam="2">  1       -1 0.26613646E-01 0.12732564E+03</pdfrwt>
<totfact> 0.64771736E+03</totfact>
</mgrwt>
</event>
<event>
 6    1  0.8353100E-006  0.1298609E+03  0.7546771E-02  0.1241009E+00
         -1   -1    0    0    0  501 -0.00000000000E+00  0.00000000000E+00  0.43098917763E+02  0.43098917763E+02  0.00000000000E+00 0.  1.
          1   -1    0    0  501    0  0.00000000000E+00 -0.00000000000E+00 -0.31603902624E+03  0.31603902624E+03  0.00000000000E+00 0. -1.
          5    1    1    2  502    0 -0.53357750128E+02 -0.15618055013E+02 -0.98965449995E+02  0.11360996186E+03  0.47000000000E+01 0. -1.
         -5    1    1    2    0  502  0.51873706863E+02  0.50792075229E+02 -0.91144488610E+02  0.11661957029E+03  0.47000000000E+01 0. -1.
        -11    1    1    2    0    0  0.14940815995E+02  0.16107422876E+02  0.82938412974E+01  0.23483288904E+02  0.00000000000E+00 0.  1.
         11    1    1    2    0    0 -0.13456772731E+02 -0.51281443092E+02 -0.91124011164E+02  0.10542512295E+03  0.00000000000E+00 0. -1.
<mgrwt>
<rscale>  0 0.12127485E+03</rscale>
<asrwt>0</asrwt>
<pdfrwt beam="2">  1        1 0.48621390E-01 0.12986088E+03</pdfrwt>
<pdfrwt beam="1">  1       -1 0.66306026E-02 0.12986088E+03</pdfrwt>
<totfact> 0.88973762E+03</totfact>
</mgrwt>
</event>
<event>
 6    1  0.8353100E-006  0.1389726E+03  0.7546771E-02  0.1227242E+00
         -2   -1    0    0    0  501 -0.00000000000E+00  0.00000000000E+00  0.24599924125E+02  0.24599924125E+02  0.00000000000E+00 0.  1.
          2   -1    0    0  501    0  0.00000000000E+00 -0.00000000000E+00 -0.76164672514E+03  0.76164672514E+03  0.00000000000E+00 0. -1.
          5    1    1    2  502    0 -0.10698263627E+02  0.76539209039E+02 -0.43834366448E+03  0.44512915155E+03  0.47000000000E+01 0.  1.
         -5    1    1    2    0  502 -0.36432492438E+02 -0.38231896453E+02 -0.14070496615E+03  0.15036283421E+03  0.47000000000E+01 0.  1.
        -11    1    1    2    0    0  0.84038420967E+00  0.19683034115E+02 -0.44194345653E+01  0.20190578978E+02  0.00000000000E+00 0.  1.
         11    1    1    2    0    0  0.46290371855E+02 -0.57990346702E+02 -0.15357873581E+03  0.17056408452E+03  0.00000000000E+00 0. -1.
<mgrwt>
<rscale>  0 0.13014390E+03</rscale>
<asrwt>0</asrwt>
<pdfrwt beam="2">  1        2 0.11717643E+00 0.13897262E+03</pdfrwt>
<pdfrwt beam="1">  1       -2 0.37846033E-02 0.13897262E+03</pdfrwt>
<totfact> 0.10824212E+04</totfact>
</mgrwt>
</event>
<event>
 6    1  0.8353100E-006  0.1299288E+03  0.7546771E-02  0.1241233E+00
         -1   -1    0    0    0  501 -0.00000000000E+00  0.00000000000E+00  0.20268482774E+03  0.20268482774E+03  0.00000000000E+00 0.  1.
          1   -1    0    0  501    0  0.00000000000E+00 -0.00000000000E+00 -0.66667761812E+02  0.66667761812E+02  0.00000000000E+00 0. -1.
          5    1    1    2  502    0  0.10612722218E+02 -0.27405733632E+02 -0.35409927758E+02  0.46256427581E+02  0.47000000000E+01 0. -1.
         -5    1    1    2    0  502  0.24657443222E+02  0.24035377913E+02  0.86741997528E+02  0.93444919781E+02  0.47000000000E+01 0. -1.
        -11    1    1    2    0    0 -0.10881605010E+02  0.46806750897E+02  0.46673565798E+02  0.66990320207E+02  0.00000000000E+00 0.  1.
         11    1    1    2    0    0 -0.24388560430E+02 -0.43436395178E+02  0.38011430360E+02  0.62660921984E+02  0.00000000000E+00 0. -1.
<mgrwt>
<rscale>  0 0.12113699E+03</rscale>
<asrwt>0</asrwt>
<pdfrwt beam="2">  1        1 0.10256579E-01 0.12992877E+03</pdfrwt>
<pdfrwt beam="1">  1       -1 0.31182281E-01 0.12992877E+03</pdfrwt>
<totfact> 0.56219269E+03</totfact>
</mgrwt>
</event>
<event>
 6    1  0.8353100E-006  0.1225533E+03  0.7546771E-02  0.1253021E+00
         -2   -1    0    0    0  501 -0.00000000000E+00  0.00000000000E+00  0.63604696796E+02  0.63604696796E+02  0.00000000000E+00 0.  1.
          2   -1    0    0  501    0  0.00000000000E+00 -0.00000000000E+00 -0.18502855781E+03  0.18502855781E+03  0.00000000000E+00 0. -1.
          5    1    1    2  502    0  0.10481814901E+02 -0.32437774579E+02 -0.10380134820E+03  0.10935669870E+03  0.47000000000E+01 0. -1.
         -5    1    1    2    0  502 -0.25910914176E+02  0.25012421965E+02  0.17716080497E+02  0.40409729449E+02  0.47000000000E+01 0.  1.
        -11    1    1    2    0    0  0.88638335284E+01 -0.31644995851E+02 -0.47197840064E+02  0.57511819776E+02  0.00000000000E+00 0.  1.
         11    1    1    2    0    0  0.65652657462E+01  0.39070348466E+02  0.11859246756E+02  0.41355006676E+02  0.00000000000E+00 0. -1.
<mgrwt>
<rscale>  0 0.11417890E+03</rscale>
<asrwt>0</asrwt>
<pdfrwt beam="2">  1        2 0.28465932E-01 0.12255329E+03</pdfrwt>
<pdfrwt beam="1">  1       -2 0.97853379E-02 0.12255329E+03</pdfrwt>
<totfact> 0.11894227E+04</totfact>
</mgrwt>
</event>
<event>
 6    1  0.8353100E-006  0.1327441E+03  0.7546771E-02  0.1236800E+00
          1   -1    0    0  501    0  0.00000000000E+00  0.00000000000E+00  0.21803085825E+03  0.21803085825E+03  0.00000000000E+00 0. -1.
         -1   -1    0    0    0  501 -0.00000000000E+00 -0.00000000000E+00 -0.62641767713E+02  0.62641767713E+02  0.00000000000E+00 0.  1.
          5    1    1    2  502    0  0.16732612990E+02 -0.49595445474E+01  0.10744162292E+03  0.10895122649E+03  0.47000000000E+01 0. -1.
         -5    1    1    2    0  502 -0.16659191280E+02  0.49640984221E+02 -0.12761295224E+02  0.54098952155E+02  0.47000000000E+01 0. -1.
        -11    1    1    2    0    0  0.31215926634E+02 -0.58655441444E+02  0.38642019308E+02  0.76864169435E+02  0.00000000000E+00 0.  1.
         11    1    1    2    0    0 -0.31289348344E+02  0.13974001771E+02  0.22066743534E+02  0.40758277877E+02  0.00000000000E+00 0. -1.
<mgrwt>
<rscale>  0 0.12389875E+03</rscale>
<asrwt>0</asrwt>
<pdfrwt beam="1">  1        1 0.33543209E-01 0.13274410E+03</pdfrwt>
<pdfrwt beam="2">  1       -1 0.96371951E-02 0.13274410E+03</pdfrwt>
<totfact> 0.80242445E+03</totfact>
</mgrwt>
</event>
<event>
 6    1  0.8353100E-006  0.2728415E+03  0.7546771E-02  0.1101600E+00
         -1   -1    0    0    0  501 -0.00000000000E+00  0.00000000000E+00  0.85242926683E+03  0.85242926683E+03  0.00000000000E+00 0.  1.
          1   -1    0    0  501    0  0.00000000000E+00 -0.00000000000E+00 -0.10532154172E+03  0.10532154172E+03  0.00000000000E+00 0. -1.
          5    1    1    2  502    0 -0.93021003799E+02  0.18544686161E+03  0.17975572968E+03  0.27454991892E+03  0.47000000000E+01 0. -1.
         -5    1    1    2    0  502 -0.28798013650E+02  0.24259583040E+02 -0.18675077110E+02  0.42293042744E+02  0.47000000000E+01 0. -1.
        -11    1    1    2    0    0  0.86584898319E+02 -0.19857413007E+03  0.54034421372E+03  0.58215161175E+03  0.00000000000E+00 0.  1.
         11    1    1    2    0    0  0.35234119130E+02 -0.11132314574E+02  0.45682858817E+02  0.58756235144E+02  0.00000000000E+00 0. -1.
<mgrwt>
<rscale>  0 0.26944060E+03</rscale>
<asrwt>0</asrwt>
<pdfrwt beam="2">  1        1 0.16203315E-01 0.27284150E+03</pdfrwt>
<pdfrwt beam="1">  1       -1 0.13114296E+00 0.27284150E+03</pdfrwt>
<totfact> 0.17990303E+02</totfact>
</mgrwt>
</event>
<event>
 6    1  0.8353100E-006  0.1639854E+03  0.7546771E-02  0.1191471E+00
         -2   -1    0    0    0  501 -0.00000000000E+00  0.00000000000E+00  0.11287991884E+03  0.11287991884E+03  0.00000000000E+00 0.  1.
          2   -1    0    0  501    0  0.00000000000E+00 -0.00000000000E+00 -0.20627344859E+03  0.20627344859E+03  0.00000000000E+00 0. -1.
          5    1    1    2  502    0  0.52658242359E+02  0.48786302988E+02 -0.23426431892E+02  0.75656338523E+02  0.47000000000E+01 0.  1.
         -5    1    1    2    0  502  0.49671230639E+02 -0.76972976600E+02 -0.42265503859E+02  0.10099768857E+03  0.47000000000E+01 0.  1.
        -11    1    1    2    0    0 -0.63856425700E+02  0.26099537055E+02 -0.60610597584E+02  0.91828500354E+02  0.00000000000E+00 0. -1.
         11    1    1    2    0    0 -0.38473047298E+02  0.20871365575E+01  0.32909003588E+02  0.50670839982E+02  0.00000000000E+00 0.  1.
<mgrwt>
<rscale>  0 0.15756720E+03</rscale>
<asrwt>0</asrwt>
<pdfrwt beam="2">  1        2 0.31734377E-01 0.16398541E+03</pdfrwt>
<pdfrwt beam="1">  1       -2 0.17366141E-01 0.16398541E+03</pdfrwt>
<totfact> 0.42755536E+03</totfact>
</mgrwt>
</event>
<event>
 6    1  0.8353100E-006  0.2754812E+03  0.7546771E-02  0.1100083E+00
          2   -1    0    0  501    0  0.00000000000E+00  0.00000000000E+00  0.16024833329E+04  0.16024833329E+04  0.00000000000E+00 0.  1.
         -2   -1    0    0    0  501 -0.00000000000E+00 -0.00000000000E+00 -0.54847984891E+02  0.54847984891E+02  0.00000000000E+00 0. -1.
          5    1    1    2  502    0  0.92161346286E+02  0.42020350927E+02  0.66404166216E+03  0.67173867145E+03  0.47000000000E+01 0. -1.
         -5    1    1    2    0  502  0.15311304721E+03 -0.32324565930E+02  0.47468190013E+03  0.49983345136E+03  0.47000000000E+01 0. -1.
        -11    1    1    2    0    0 -0.43629237524E+02 -0.38256964800E+02  0.78369477156E+02  0.97513489694E+02  0.00000000000E+00 0.  1.
         11    1    1    2    0    0 -0.20164515597E+03  0.28561179804E+02  0.33054230856E+03  0.38824570528E+03  0.00000000000E+00 0. -1.
<mgrwt>
<rscale>  0 0.27210125E+03</rscale>
<asrwt>0</asrwt>
<pdfrwt beam="1">  1        2 0.24653586E+00 0.27548119E+03</pdfrwt>
<pdfrwt beam="2">  1       -2 0.84381527E-02 0.27548119E+03</pdfrwt>
<totfact> 0.10466900E+03</totfact>
</mgrwt>
</event>
<event>
 6    1  0.8353100E-006  0.1252216E+03  0.7546771E-02  0.1250041E+00
         -1   -1    0    0    0  501 -0.00000000000E+00  0.00000000000E+00  0.58579282632E+02  0.58579282632E+02  0.00000000000E+00 0.  1.
          1   -1    0    0  501    0  0.00000000000E+00 -0.00000000000E+00 -0.27381176264E+03  0.27381176264E+03  0.00000000000E+00 0. -1.
          5    1    1    2  502    0  0.57983578944E+02 -0.95611260097E+01 -0.13734406374E+03  0.14946234443E+03  0.47000000000E+01 0.  1.
         -5    1    1    2    0  502 -0.57804200072E+02  0.17014254274E+02 -0.67317549253E+02  0.90468518458E+02  0.47000000000E+01 0.  1.
        -11    1    1    2    0    0  0.93204157045E+01  0.29221639843E+02  0.25696801763E+02  0.40013747698E+02  0.00000000000E+00 0.  1.
         11    1    1    2    0    0 -0.94997945766E+01 -0.36674768107E+02 -0.36267668769E+02  0.52446434680E+02  0.00000000000E+00 0. -1.
<mgrwt>
<rscale>  0 0.11588675E+03</rscale>
<asrwt>0</asrwt>
<pdfrwt beam="2">  1        1 0.42124887E-01 0.12522158E+03</pdfrwt>
<pdfrwt beam="1">  1       -1 0.90121973E-02 0.12522158E+03</pdfrwt>
<totfact> 0.66776932E+03</totfact>
</mgrwt>
</event>
<event>
 6    1  0.8353100E-006  0.1337131E+03  0.7546771E-02  0.1235831E+00
         -1   -1    0    0    0  501 -0.00000000000E+00  0.00000000000E+00  0.26260794197E+02  0.26260794197E+02  0.00000000000E+00 0.  1.
          1   -1    0    0  501    0  0.00000000000E+00 -0.00000000000E+00 -0.56773866882E+03  0.56773866882E+03  0.00000000000E+00 0. -1.
          5    1    1    2  502    0  0.53612381214E+02 -0.34313734071E+02 -0.11892837530E+03  0.13497321296E+03  0.47000000000E+01 0.  1.
         -5    1    1    2    0  502 -0.56958982877E+02 -0.13059597840E+02 -0.27022576415E+03  0.27651208371E+03  0.47000000000E+01 0.  1.
        -11    1    1    2    0    0 -0.11918755379E+02  0.68434466882E+02 -0.81623991725E+02  0.10718119710E+03  0.00000000000E+00 0. -1.
         11    1    1    2    0    0  0.15265357041E+02 -0.21061134971E+02 -0.70699743443E+02  0.75332969241E+02  0.00000000000E+00 0.  1.
<mgrwt>
<rscale>  0 0.12451411E+03</rscale>
<asrwt>0</asrwt>
<pdfrwt beam="2">  1        1 0.87344416E-01 0.13371314E+03</pdfrwt>
<pdfrwt beam="1">  1       -1 0.40401219E-02 0.13371314E+03</pdfrwt>
<totfact> 0.87937786E+03</totfact>
</mgrwt>
</event>
<event>
 6    1  0.8353100E-006  0.1377197E+03  0.7546771E-02  0.1277214E+00
          2   -1    0    0  501    0  0.00000000000E+00  0.00000000000E+00  0.27974610370E+03  0.27974610370E+03  0.00000000000E+00 0.  1.
         -2   -1    0    0    0  501 -0.00000000000E+00 -0.00000000000E+00 -0.47465917183E+02  0.47465917183E+02  0.00000000000E+00 0. -1.
          5    1    1    2  502    0 -0.41614067036E+02  0.38764895664E+02  0.11871745614E+03  0.13172081120E+03  0.47000000000E+01 0. -1.
         -5    1    1    2    0  502  0.59953887190E+02 -0.52527338015E+02  0.12928307059E+03  0.15195325653E+03  0.47000000000E+01 0.  1.
        -11    1    1    2    0    0  0.60037327712E+01  0.14372283360E+02 -0.10045471945E+02  0.18534261322E+02  0.00000000000E+00 0. -1.
         11    1    1    2    0    0 -0.24343552926E+02 -0.60984100892E+00 -0.56748682713E+01  0.25003691827E+02  0.00000000000E+00 0.  1.
<mgrwt>
<rscale>  0 0.10148005E+03</rscale>
<asrwt>0</asrwt>
<pdfrwt beam="1">  1        2 0.43037861E-01 0.13771970E+03</pdfrwt>
<pdfrwt beam="2">  1       -2 0.73024490E-02 0.13771970E+03</pdfrwt>
<totfact> 0.12141102E+04</totfact>
</mgrwt>
</event>
<event>
 6    1  0.8353100E-006  0.2481600E+03  0.7546771E-02  0.1114473E+00
         -1   -1    0    0    0  501 -0.00000000000E+00  0.00000000000E+00  0.14602555410E+03  0.14602555410E+03  0.00000000000E+00 0.  1.
          1   -1    0    0  501    0  0.00000000000E+00 -0.00000000000E+00 -0.10543256163E+03  0.10543256163E+03  0.00000000000E+00 0. -1.
          5    1    1    2  502    0  0.28969110508E+02 -0.18497283774E+02 -0.57881337185E+02  0.67481094130E+02  0.47000000000E+01 0. -1.
         -5    1    1    2    0  502 -0.27649563672E+01  0.28822993396E+01  0.60918016405E+02  0.61229464770E+02  0.47000000000E+01 0. -1.
        -11    1    1    2    0    0 -0.68415429665E+02  0.26336268187E+02  0.23545280903E+02  0.76997729129E+02  0.00000000000E+00 0. -1.
         11    1    1    2    0    0  0.42211275524E+02 -0.10721283753E+02  0.14011032346E+02  0.45749827694E+02  0.00000000000E+00 0.  1.
<mgrwt>
<rscale>  0 0.24816001E+03</rscale>
<asrwt>0</asrwt>
<pdfrwt beam="2">  1        1 0.16220394E-01 0.24816001E+03</pdfrwt>
<pdfrwt beam="1">  1       -1 0.22465470E-01 0.24816001E+03</pdfrwt>
<totfact> 0.55219849E+03</totfact>
</mgrwt>
</event>
<event>
 6    1  0.8353100E-006  0.3123757E+03  0.7546771E-02  0.1079213E+00
         -1   -1    0    0    0  501 -0.00000000000E+00  0.00000000000E+00  0.21499710455E+03  0.21499710455E+03  0.00000000000E+00 0.  1.
          1   -1    0    0  501    0  0.00000000000E+00 -0.00000000000E+00 -0.11346501465E+03  0.11346501465E+03  0.00000000000E+00 0. -1.
          5    1    1    2  502    0 -0.24282718843E+02  0.21360121262E+01 -0.19324418208E+02  0.31460071857E+02  0.47000000000E+01 0. -1.
         -5    1    1    2    0  502  0.12669220560E+03  0.18284484369E+02  0.31279381411E+02  0.13185494693E+03  0.47000000000E+01 0. -1.
        -11    1    1    2    0    0 -0.36420592391E+02 -0.21194458323E+01 -0.15570561204E+02  0.39666030517E+02  0.00000000000E+00 0. -1.
         11    1    1    2    0    0 -0.65988894363E+02 -0.18301050663E+02  0.10514768790E+03  0.12548106991E+03  0.00000000000E+00 0.  1.
<mgrwt>
<rscale>  0 0.31237573E+03</rscale>
<asrwt>0</asrwt>
<pdfrwt beam="2">  1        1 0.17456156E-01 0.31237573E+03</pdfrwt>
<pdfrwt beam="1">  1       -1 0.33076478E-01 0.31237573E+03</pdfrwt>
<totfact> 0.26343703E+03</totfact>
</mgrwt>
</event>
<event>
 6    1  0.8353100E-006  0.1152721E+03  0.7546771E-02  0.1261210E+00
         -1   -1    0    0    0  501 -0.00000000000E+00  0.00000000000E+00  0.87603983370E+02  0.87603983370E+02  0.00000000000E+00 0.  1.
          1   -1    0    0  501    0  0.00000000000E+00 -0.00000000000E+00 -0.21973061263E+03  0.21973061263E+03  0.00000000000E+00 0. -1.
          5    1    1    2  502    0 -0.15219611568E+01  0.44892056018E+02 -0.50711539395E+02  0.67907019425E+02  0.47000000000E+01 0. -1.
         -5    1    1    2    0  502 -0.19696310151E+02 -0.65279610627E+02 -0.11948005662E+03  0.13764790637E+03  0.47000000000E+01 0.  1.
        -11    1    1    2    0    0  0.36031567997E+02 -0.24708882214E+02  0.31498540762E+02  0.53860568347E+02  0.00000000000E+00 0.  1.
         11    1    1    2    0    0 -0.14813296689E+02  0.45096436823E+02  0.65664259937E+01  0.47919101862E+02  0.00000000000E+00 0. -1.
<mgrwt>
<rscale>  0 0.10965507E+03</rscale>
<asrwt>0</asrwt>
<pdfrwt beam="2">  1        1 0.33804709E-01 0.11527206E+03</pdfrwt>
<pdfrwt beam="1">  1       -1 0.13477536E-01 0.11527206E+03</pdfrwt>
<totfact> 0.47050105E+03</totfact>
</mgrwt>
</event>
<event>
 6    1  0.8353100E-006  0.1214079E+03  0.7546771E-02  0.1276273E+00
         -2   -1    0    0    0  501 -0.00000000000E+00  0.00000000000E+00  0.13833070946E+02  0.13833070946E+02  0.00000000000E+00 0.  1.
          2   -1    0    0  501    0  0.00000000000E+00 -0.00000000000E+00 -0.64730806520E+03  0.64730806520E+03  0.00000000000E+00 0. -1.
          5    1    1    2  502    0 -0.46812639593E+02 -0.10931796718E+02 -0.19889110346E+03  0.20467214867E+03  0.47000000000E+01 0. -1.
         -5    1    1    2    0  502  0.70383230679E+02  0.19198274566E+02 -0.30324766912E+03  0.31193526850E+03  0.47000000000E+01 0.  1.
        -11    1    1    2    0    0 -0.24222406564E+02  0.19510485062E+02 -0.53460282821E+02  0.61849703689E+02  0.00000000000E+00 0. -1.
         11    1    1    2    0    0  0.65181547811E+00 -0.27776962911E+02 -0.77875938848E+02  0.82684015283E+02  0.00000000000E+00 0.  1.
<mgrwt>
<rscale>  0 0.10193767E+03</rscale>
<asrwt>0</asrwt>
<pdfrwt beam="2">  1        2 0.99585887E-01 0.12140789E+03</pdfrwt>
<pdfrwt beam="1">  1       -2 0.21281641E-02 0.12140789E+03</pdfrwt>
<totfact> 0.30201675E+04</totfact>
</mgrwt>
</event>
<event>
 6    1  0.8353100E-006  0.1356232E+03  0.7546771E-02  0.1234356E+00
         -1   -1    0    0    0  501 -0.00000000000E+00  0.00000000000E+00  0.32300145136E+02  0.32300145136E+02  0.00000000000E+00 0.  1.
          1   -1    0    0  501    0  0.00000000000E+00 -0.00000000000E+00 -0.52348104197E+03  0.52348104197E+03  0.00000000000E+00 0. -1.
          5    1    1    2  502    0  0.84053827183E+02  0.92257935048E+01 -0.23889128835E+03  0.25345867273E+03  0.47000000000E+01 0.  1.
         -5    1    1    2    0  502 -0.37590941783E+02 -0.33901332043E+02 -0.15569921927E+03  0.16378863239E+03  0.47000000000E+01 0.  1.
        -11    1    1    2    0    0 -0.30162244546E+02 -0.16377847750E+02 -0.22866988418E+01  0.34398021521E+02  0.00000000000E+00 0.  1.
         11    1    1    2    0    0 -0.16300640854E+02  0.41053386288E+02 -0.94303690368E+02  0.10413586047E+03  0.00000000000E+00 0. -1.
<mgrwt>
<rscale>  0 0.12545723E+03</rscale>
<asrwt>0</asrwt>
<pdfrwt beam="2">  1        1 0.80535534E-01 0.13562317E+03</pdfrwt>
<pdfrwt beam="1">  1       -1 0.49692538E-02 0.13562317E+03</pdfrwt>
<totfact> 0.72262953E+03</totfact>
</mgrwt>
</event>
<event>
 6    1  0.8353100E-006  0.1277280E+03  0.7546771E-02  0.1246550E+00
         -1   -1    0    0    0  501 -0.00000000000E+00  0.00000000000E+00  0.82265975115E+02  0.82265975115E+02  0.00000000000E+00 0.  1.
          1   -1    0    0  501    0  0.00000000000E+00 -0.00000000000E+00 -0.16409849030E+03  0.16409849030E+03  0.00000000000E+00 0. -1.
          5    1    1    2  502    0  0.66966859726E+02 -0.34752389974E+02 -0.58547611946E+02  0.95614861685E+02  0.47000000000E+01 0. -1.
         -5    1    1    2    0  502 -0.40824381755E+02  0.30900350189E+02 -0.26559723907E+02  0.57870292218E+02  0.47000000000E+01 0. -1.
        -11    1    1    2    0    0 -0.92718439343E+01  0.28156532008E+02 -0.34118171703E+02  0.45197422770E+02  0.00000000000E+00 0. -1.
         11    1    1    2    0    0 -0.16870634037E+02 -0.24304492223E+02  0.37392992375E+02  0.47681888740E+02  0.00000000000E+00 0.  1.
<mgrwt>
<rscale>  0 0.11793066E+03</rscale>
<asrwt>0</asrwt>
<pdfrwt beam="2">  1        1 0.25245921E-01 0.12772797E+03</pdfrwt>
<pdfrwt beam="1">  1       -1 0.12656304E-01 0.12772797E+03</pdfrwt>
<totfact> 0.75028636E+03</totfact>
</mgrwt>
</event>
<event>
 6    1  0.8353100E-006  0.1816587E+03  0.7546771E-02  0.1171662E+00
         -2   -1    0    0    0  501 -0.00000000000E+00  0.00000000000E+00  0.45451840923E+02  0.45451840923E+02  0.00000000000E+00 0. -1.
          2   -1    0    0  501    0  0.00000000000E+00 -0.00000000000E+00 -0.65478619121E+03  0.65478619121E+03  0.00000000000E+00 0.  1.
          5    1    1    2  502    0  0.93996150659E+02 -0.26463319403E+02 -0.25309093717E+03  0.27131659752E+03  0.47000000000E+01 0. -1.
         -5    1    1    2    0  502  0.37095681618E+02  0.40231329266E+02 -0.23831787023E+02  0.59872310144E+02  0.47000000000E+01 0. -1.
        -11    1    1    2    0    0 -0.11734909049E+03 -0.44115787529E+01 -0.33228274043E+03  0.35242316986E+03  0.00000000000E+00 0.  1.
         11    1    1    2    0    0 -0.13742741792E+02 -0.93564311097E+01 -0.12888565943E+00  0.16625954607E+02  0.00000000000E+00 0. -1.
<mgrwt>
<rscale>  0 0.17606919E+03</rscale>
<asrwt>0</asrwt>
<pdfrwt beam="2">  1        2 0.10073634E+00 0.18165874E+03</pdfrwt>
<pdfrwt beam="1">  1       -2 0.69925908E-02 0.18165874E+03</pdfrwt>
<totfact> 0.52056501E+03</totfact>
</mgrwt>
</event>
<event>
 6    1  0.8353100E-006  0.3481683E+03  0.7546771E-02  0.1063369E+00
         -1   -1    0    0    0  501 -0.00000000000E+00  0.00000000000E+00  0.46166103687E+02  0.46166103687E+02  0.00000000000E+00 0.  1.
          1   -1    0    0  501    0  0.00000000000E+00 -0.00000000000E+00 -0.65644017083E+03  0.65644017083E+03  0.00000000000E+00 0. -1.
          5    1    1    2  502    0 -0.14777927132E+03  0.31029196411E+02 -0.33937224386E+03  0.37147965484E+03  0.47000000000E+01 0. -1.
         -5    1    1    2    0  502  0.15117629950E+02 -0.74703127795E+00 -0.10858188047E+01  0.15886150997E+02  0.47000000000E+01 0. -1.
        -11    1    1    2    0    0  0.91866873938E+02 -0.17288548210E+02 -0.87765404654E+02  0.12822317529E+03  0.00000000000E+00 0.  1.
         11    1    1    2    0    0  0.40794767428E+02 -0.12993616923E+02 -0.18205059983E+03  0.18701729339E+03  0.00000000000E+00 0. -1.
<mgrwt>
<rscale>  0 0.34816826E+03</rscale>
<asrwt>0</asrwt>
<pdfrwt beam="2">  1        1 0.10099079E+00 0.34816826E+03</pdfrwt>
<pdfrwt beam="1">  1       -1 0.71024776E-02 0.34816826E+03</pdfrwt>
<totfact> 0.32081492E+03</totfact>
</mgrwt>
</event>
<event>
 6    1  0.8353100E-006  0.1532095E+03  0.7546771E-02  0.1201134E+00
          1   -1    0    0  501    0  0.00000000000E+00  0.00000000000E+00  0.64854556228E+02  0.64854556228E+02  0.00000000000E+00 0. -1.
         -1   -1    0    0    0  501 -0.00000000000E+00 -0.00000000000E+00 -0.33181356464E+03  0.33181356464E+03  0.00000000000E+00 0.  1.
          5    1    1    2  502    0 -0.13744417382E+02 -0.29097190971E+02 -0.27994075307E+02  0.42910532319E+02  0.47000000000E+01 0. -1.
         -5    1    1    2    0  502  0.39971592423E+02  0.11370842059E+03 -0.92576282447E+02  0.15205193581E+03  0.47000000000E+01 0. -1.
        -11    1    1    2    0    0 -0.22020521833E+02 -0.67881155824E+02 -0.16288790259E+03  0.17783482086E+03  0.00000000000E+00 0.  1.
         11    1    1    2    0    0 -0.42066532072E+01 -0.16730073791E+02  0.16499251934E+02  0.23870831880E+02  0.00000000000E+00 0. -1.
<mgrwt>
<rscale>  0 0.14946301E+03</rscale>
<asrwt>0</asrwt>
<pdfrwt beam="1">  1        1 0.99776238E-02 0.15320951E+03</pdfrwt>
<pdfrwt beam="2">  1       -1 0.51048242E-01 0.15320951E+03</pdfrwt>
<totfact> 0.24765510E+03</totfact>
</mgrwt>
</event>
<event>
 6    1  0.8353100E-006  0.3090213E+03  0.7546771E-02  0.1082288E+00
         -1   -1    0    0    0  501 -0.00000000000E+00  0.00000000000E+00  0.13326549578E+03  0.13326549578E+03  0.00000000000E+00 0.  1.
          1   -1    0    0  501    0  0.00000000000E+00 -0.00000000000E+00 -0.86914217613E+03  0.86914217613E+03  0.00000000000E+00 0. -1.
          5    1    1    2  502    0  0.24645427606E+03  0.10318996510E+03 -0.54382170044E+03  0.60593069814E+03  0.47000000000E+01 0.  1.
         -5    1    1    2    0  502  0.26494087201E+02 -0.29918085930E+02 -0.57981908265E+02  0.70576343121E+02  0.47000000000E+01 0.  1.
        -11    1    1    2    0    0 -0.12434199608E+03 -0.90646144067E+01 -0.10151662056E+03  0.16077538205E+03  0.00000000000E+00 0. -1.
         11    1    1    2    0    0 -0.14860636718E+03 -0.64207264765E+02 -0.32556451093E+02  0.16512524859E+03  0.00000000000E+00 0.  1.
<mgrwt>
<rscale>  0 0.30598269E+03</rscale>
<asrwt>0</asrwt>
<pdfrwt beam="2">  1        1 0.13371418E+00 0.30902135E+03</pdfrwt>
<pdfrwt beam="1">  1       -1 0.20502384E-01 0.30902135E+03</pdfrwt>
<totfact> 0.39234492E+02</totfact>
</mgrwt>
</event>
<event>
 6    1  0.8353100E-006  0.2170329E+03  0.7546771E-02  0.1139250E+00
          1   -1    0    0  501    0  0.00000000000E+00  0.00000000000E+00  0.58267994934E+03  0.58267994934E+03  0.00000000000E+00 0. -1.
         -1   -1    0    0    0  501 -0.00000000000E+00 -0.00000000000E+00 -0.82376861178E+02  0.82376861178E+02  0.00000000000E+00 0.  1.
          5    1    1    2  502    0  0.15082376704E+03  0.79170334842E+02  0.23458223397E+03  0.28994252036E+03  0.47000000000E+01 0.  1.
         -5    1    1    2    0  502  0.19749208643E+02 -0.30351452243E+02  0.12342416421E+03  0.12871230013E+03  0.47000000000E+01 0.  1.
        -11    1    1    2    0    0 -0.12552709010E+03 -0.63606347956E+02  0.63375650335E+02  0.15433499572E+03  0.00000000000E+00 0.  1.
         11    1    1    2    0    0 -0.45045885576E+02  0.14787465357E+02  0.78921039659E+02  0.92066994302E+02  0.00000000000E+00 0. -1.
<mgrwt>
<rscale>  0 0.21295111E+03</rscale>
<asrwt>0</asrwt>
<pdfrwt beam="1">  1        1 0.89643067E-01 0.21703290E+03</pdfrwt>
<pdfrwt beam="2">  1       -1 0.12673364E-01 0.21703290E+03</pdfrwt>
<totfact> 0.15354601E+03</totfact>
</mgrwt>
</event>
<event>
 6    1  0.1270184E-005  0.3342785E+03  0.7546771E-02  0.1069259E+00
          1   -1    0    0  501    0  0.00000000000E+00  0.00000000000E+00  0.28074705800E+03  0.28074705800E+03  0.00000000000E+00 0. -1.
         -1   -1    0    0    0  501 -0.00000000000E+00 -0.00000000000E+00 -0.99504273753E+02  0.99504273753E+02  0.00000000000E+00 0.  1.
          5    1    1    2  502    0 -0.13221754625E+03 -0.54246615766E+02  0.72712414365E+02  0.16041620885E+03  0.47000000000E+01 0. -1.
         -5    1    1    2    0  502  0.19917584939E+02  0.47160387642E+01  0.47820914931E+02  0.52229121343E+02  0.47000000000E+01 0. -1.
        -11    1    1    2    0    0  0.81788280734E+02 -0.66323884174E+01  0.39923134930E+01  0.82153819197E+02  0.00000000000E+00 0.  1.
         11    1    1    2    0    0  0.30511680575E+02  0.56162965419E+02  0.56717141459E+02  0.85452182368E+02  0.00000000000E+00 0. -1.
<mgrwt>
<rscale>  0 0.33427852E+03</rscale>
<asrwt>0</asrwt>
<pdfrwt beam="1">  1        1 0.43191855E-01 0.33427852E+03</pdfrwt>
<pdfrwt beam="2">  1       -1 0.15308350E-01 0.33427852E+03</pdfrwt>
<totfact> 0.29706936E+03</totfact>
</mgrwt>
</event>
<event>
 6    1  0.8353100E-006  0.3675013E+03  0.7546771E-02  0.1055653E+00
         -2   -1    0    0    0  501 -0.00000000000E+00  0.00000000000E+00  0.40439133488E+02  0.40439133488E+02  0.00000000000E+00 0.  1.
          2   -1    0    0  501    0  0.00000000000E+00 -0.00000000000E+00 -0.83494119745E+03  0.83494119745E+03  0.00000000000E+00 0. -1.
          5    1    1    2  502    0 -0.65506837834E+01  0.54937458612E+01  0.17713539351E+01  0.99156641926E+01  0.47000000000E+01 0. -1.
         -5    1    1    2    0  502 -0.50680995735E+02 -0.10741315333E+03 -0.63535959611E+03  0.64638228255E+03  0.47000000000E+01 0. -1.
        -11    1    1    2    0    0  0.15870612362E+02  0.10309268408E+03 -0.13362705808E+03  0.16951745780E+03  0.00000000000E+00 0. -1.
         11    1    1    2    0    0  0.41361067156E+02 -0.11732766107E+01 -0.27286763710E+02  0.49564926390E+02  0.00000000000E+00 0.  1.
<mgrwt>
<rscale>  0 0.36750128E+03</rscale>
<asrwt>0</asrwt>
<pdfrwt beam="2">  1        2 0.12845248E+00 0.36750128E+03</pdfrwt>
<pdfrwt beam="1">  1       -2 0.62214057E-02 0.36750128E+03</pdfrwt>
<totfact> 0.47192610E+03</totfact>
</mgrwt>
</event>
<event>
 6    1  0.8353100E-006  0.3085749E+03  0.7546771E-02  0.1081031E+00
         -1   -1    0    0    0  501 -0.00000000000E+00  0.00000000000E+00  0.68754289915E+02  0.68754289915E+02  0.00000000000E+00 0.  1.
          1   -1    0    0  501    0  0.00000000000E+00 -0.00000000000E+00 -0.34622728814E+03  0.34622728814E+03  0.00000000000E+00 0. -1.
          5    1    1    2  502    0  0.49985133994E+02  0.12376495651E+03 -0.14019915116E+03  0.19363411390E+03  0.47000000000E+01 0.  1.
         -5    1    1    2    0  502  0.33372927197E+01 -0.30509184631E+02 -0.38701039289E+02  0.49616613262E+02  0.47000000000E+01 0.  1.
        -11    1    1    2    0    0 -0.23868011018E+02 -0.72135941034E+02 -0.11003325088E+03  0.13371833172E+03  0.00000000000E+00 0. -1.
         11    1    1    2    0    0 -0.29454415696E+02 -0.21119830841E+02  0.11460443093E+02  0.38012519183E+02  0.00000000000E+00 0.  1.
<mgrwt>
<rscale>  0 0.30857486E+03</rscale>
<asrwt>0</asrwt>
<pdfrwt beam="2">  1        1 0.53265738E-01 0.30857486E+03</pdfrwt>
<pdfrwt beam="1">  1       -1 0.10577583E-01 0.30857486E+03</pdfrwt>
<totfact> 0.40710682E+03</totfact>
</mgrwt>
</event>
<event>
 6    1  0.8353100E-006  0.1555786E+03  0.7546771E-02  0.1202532E+00
         -1   -1    0    0    0  501 -0.00000000000E+00  0.00000000000E+00  0.29271493287E+03  0.29271493287E+03  0.00000000000E+00 0.  1.
          1   -1    0    0  501    0  0.00000000000E+00 -0.00000000000E+00 -0.16614045987E+03  0.16614045987E+03  0.00000000000E+00 0. -1.
          5    1    1    2  502    0 -0.62445844457E+01 -0.67056331169E+02 -0.61718542862E+02  0.91470295275E+02  0.47000000000E+01 0.  1.
         -5    1    1    2    0  502  0.84525174434E+02  0.17466479909E+02 -0.47637169684E+02  0.98696367557E+02  0.47000000000E+01 0.  1.
        -11    1    1    2    0    0 -0.53758004639E+02 -0.27501791107E+01  0.18142820798E+03  0.18924502952E+03  0.00000000000E+00 0. -1.
         11    1    1    2    0    0 -0.24522585349E+02  0.52340030371E+02  0.54501977577E+02  0.79443700388E+02  0.00000000000E+00 0.  1.
<mgrwt>
<rscale>  0 0.14833660E+03</rscale>
<asrwt>0</asrwt>
<pdfrwt beam="2">  1        1 0.25560071E-01 0.15557856E+03</pdfrwt>
<pdfrwt beam="1">  1       -1 0.45033066E-01 0.15557856E+03</pdfrwt>
<totfact> 0.92100084E+02</totfact>
</mgrwt>
</event>
<event>
 6    1  0.8353100E-006  0.1270517E+03  0.7546771E-02  0.1248750E+00
         -1   -1    0    0    0  501 -0.00000000000E+00  0.00000000000E+00  0.13186498953E+03  0.13186498953E+03  0.00000000000E+00 0.  1.
          1   -1    0    0  501    0  0.00000000000E+00 -0.00000000000E+00 -0.93010166675E+02  0.93010166675E+02  0.00000000000E+00 0. -1.
          5    1    1    2  502    0  0.50661024705E+02  0.16026110045E+02  0.96117608872E+00  0.53351564990E+02  0.47000000000E+01 0. -1.
         -5    1    1    2    0  502 -0.72812156624E+02 -0.10425936635E+02  0.14609747844E+00  0.73704963547E+02  0.47000000000E+01 0. -1.
        -11    1    1    2    0    0  0.14479414763E+02  0.35796211421E+02  0.40077758903E+02  0.55652933101E+02  0.00000000000E+00 0.  1.
         11    1    1    2    0    0  0.76717171550E+01 -0.41396384831E+02 -0.23302096183E+01  0.42165694564E+02  0.00000000000E+00 0. -1.
<mgrwt>
<rscale>  0 0.11663730E+03</rscale>
<asrwt>0</asrwt>
<pdfrwt beam="2">  1        1 0.14309256E-01 0.12705170E+03</pdfrwt>
<pdfrwt beam="1">  1       -1 0.20286922E-01 0.12705170E+03</pdfrwt>
<totfact> 0.73548516E+03</totfact>
</mgrwt>
</event>
<event>
 6    1  0.8353100E-006  0.2198455E+03  0.7546771E-02  0.1138021E+00
         -1   -1    0    0    0  501 -0.00000000000E+00  0.00000000000E+00  0.73267857534E+02  0.73267857534E+02  0.00000000000E+00 0.  1.
          1   -1    0    0  501    0  0.00000000000E+00 -0.00000000000E+00 -0.60087710477E+03  0.60087710477E+03  0.00000000000E+00 0. -1.
          5    1    1    2  502    0  0.39253962545E+02  0.14868147927E+01 -0.27120730623E+02  0.47965698402E+02  0.47000000000E+01 0.  1.
         -5    1    1    2    0  502  0.52220360276E+01 -0.17679679919E+03 -0.23445134205E+03  0.29372418976E+03  0.47000000000E+01 0.  1.
        -11    1    1    2    0    0 -0.45291301459E+02  0.40337779345E+02 -0.11414195170E+03  0.12925487831E+03  0.00000000000E+00 0.  1.
         11    1    1    2    0    0  0.81530288666E+00  0.13497220505E+03 -0.15189522286E+03  0.20320019582E+03  0.00000000000E+00 0. -1.
<mgrwt>
<rscale>  0 0.21453892E+03</rscale>
<asrwt>0</asrwt>
<pdfrwt beam="2">  1        1 0.92442631E-01 0.21984547E+03</pdfrwt>
<pdfrwt beam="1">  1       -1 0.11271978E-01 0.21984547E+03</pdfrwt>
<totfact> 0.17673209E+03</totfact>
</mgrwt>
</event>
<event>
 6    1  0.8353100E-006  0.1281417E+03  0.7546771E-02  0.1245879E+00
         -1   -1    0    0    0  501 -0.00000000000E+00  0.00000000000E+00  0.12164581511E+03  0.12164581511E+03  0.00000000000E+00 0.  1.
          1   -1    0    0  501    0  0.00000000000E+00 -0.00000000000E+00 -0.10741982557E+03  0.10741982557E+03  0.00000000000E+00 0. -1.
          5    1    1    2  502    0 -0.41819819916E+02 -0.27352750209E+02 -0.89187180994E+01  0.50977483405E+02  0.47000000000E+01 0.  1.
         -5    1    1    2    0  502  0.62168581329E+02  0.46763021403E+02 -0.11300932161E+02  0.78749690431E+02  0.47000000000E+01 0.  1.
        -11    1    1    2    0    0  0.13978492232E+02 -0.35673331273E+01 -0.25014618967E+02  0.28876552301E+02  0.00000000000E+00 0. -1.
         11    1    1    2    0    0 -0.34327253645E+02 -0.15842938067E+02  0.59460258766E+02  0.70461914549E+02  0.00000000000E+00 0.  1.
<mgrwt>
<rscale>  0 0.11832952E+03</rscale>
<asrwt>0</asrwt>
<pdfrwt beam="2">  1        1 0.16526127E-01 0.12814174E+03</pdfrwt>
<pdfrwt beam="1">  1       -1 0.18714741E-01 0.12814174E+03</pdfrwt>
<totfact> 0.69532101E+03</totfact>
</mgrwt>
</event>
<event>
 6    1  0.8353100E-006  0.1668517E+03  0.7546771E-02  0.1188059E+00
         -2   -1    0    0    0  501 -0.00000000000E+00  0.00000000000E+00  0.39030586372E+02  0.39030586372E+02  0.00000000000E+00 0.  1.
          2   -1    0    0  501    0  0.00000000000E+00 -0.00000000000E+00 -0.63771963035E+03  0.63771963035E+03  0.00000000000E+00 0. -1.
          5    1    1    2  502    0  0.34650047275E+02 -0.68976287145E+01 -0.34613685582E+02  0.49682997974E+02  0.47000000000E+01 0.  1.
         -5    1    1    2    0  502 -0.55636165720E+02  0.11540790455E+03 -0.22364273365E+03  0.25778388174E+03  0.47000000000E+01 0.  1.
        -11    1    1    2    0    0 -0.18755428709E+02 -0.44062370166E+01 -0.12575741655E+02  0.23007179507E+02  0.00000000000E+00 0.  1.
         11    1    1    2    0    0  0.39741547155E+02 -0.10410403882E+03 -0.32785688309E+03  0.34627615750E+03  0.00000000000E+00 0. -1.
<mgrwt>
<rscale>  0 0.16056586E+03</rscale>
<asrwt>0</asrwt>
<pdfrwt beam="2">  1        2 0.98110700E-01 0.16685174E+03</pdfrwt>
<pdfrwt beam="1">  1       -2 0.60047063E-02 0.16685174E+03</pdfrwt>
<totfact> 0.67543143E+03</totfact>
</mgrwt>
</event>
<event>
 6    1  0.8353100E-006  0.1437949E+03  0.7546771E-02  0.1218712E+00
         -2   -1    0    0    0  501 -0.00000000000E+00  0.00000000000E+00  0.12585784137E+02  0.12585784137E+02  0.00000000000E+00 0.  1.
          2   -1    0    0  501    0  0.00000000000E+00 -0.00000000000E+00 -0.14442637260E+04  0.14442637260E+04  0.00000000000E+00 0. -1.
          5    1    1    2  502    0  0.51425773896E+02  0.37009056028E+02 -0.26836285620E+03  0.27578069736E+03  0.47000000000E+01 0.  1.
         -5    1    1    2    0  502  0.14388043983E+02 -0.63841690916E+02 -0.72068189566E+03  0.72366239507E+03  0.47000000000E+01 0.  1.
        -11    1    1    2    0    0 -0.28118538794E+01  0.45914589654E+02 -0.23935323842E+03  0.24373352007E+03  0.00000000000E+00 0.  1.
         11    1    1    2    0    0 -0.63001963999E+02 -0.19081954765E+02 -0.20327995153E+03  0.21367289758E+03  0.00000000000E+00 0. -1.
<mgrwt>
<rscale>  0 0.13607387E+03</rscale>
<asrwt>0</asrwt>
<pdfrwt beam="2">  1        2 0.22219433E+00 0.14379490E+03</pdfrwt>
<pdfrwt beam="1">  1       -2 0.19362753E-02 0.14379490E+03</pdfrwt>
<totfact> 0.11553476E+04</totfact>
</mgrwt>
</event>
<event>
 6    1  0.8353100E-006  0.2088858E+03  0.7546771E-02  0.1147514E+00
          1   -1    0    0  501    0  0.00000000000E+00  0.00000000000E+00  0.71720256848E+03  0.71720256848E+03  0.00000000000E+00 0. -1.
         -1   -1    0    0    0  501 -0.00000000000E+00 -0.00000000000E+00 -0.54207667094E+02  0.54207667094E+02  0.00000000000E+00 0.  1.
          5    1    1    2  502    0 -0.14758137955E+03 -0.67332117066E+01  0.34730399647E+03  0.37744901072E+03  0.47000000000E+01 0. -1.
         -5    1    1    2    0  502 -0.13577999481E+02 -0.38417200713E+02  0.21273544776E+02  0.46204946574E+02  0.47000000000E+01 0. -1.
        -11    1    1    2    0    0  0.60976454055E+02 -0.10067620796E+02  0.15840712426E+03  0.17003617837E+03  0.00000000000E+00 0. -1.
         11    1    1    2    0    0  0.10018292497E+03  0.55218033216E+02  0.13601023588E+03  0.17772009991E+03  0.00000000000E+00 0.  1.
<mgrwt>
<rscale>  0 0.20266033E+03</rscale>
<asrwt>0</asrwt>
<pdfrwt beam="1">  1        1 0.11033885E+00 0.20888579E+03</pdfrwt>
<pdfrwt beam="2">  1       -1 0.83396416E-02 0.20888579E+03</pdfrwt>
<totfact> 0.21838145E+03</totfact>
</mgrwt>
</event>
<event>
 6    1  0.8353100E-006  0.1439931E+03  0.7546771E-02  0.1218559E+00
         -2   -1    0    0    0  501 -0.00000000000E+00  0.00000000000E+00  0.97323793159E+02  0.97323793159E+02  0.00000000000E+00 0. -1.
          2   -1    0    0  501    0  0.00000000000E+00 -0.00000000000E+00 -0.17382850159E+03  0.17382850159E+03  0.00000000000E+00 0.  1.
          5    1    1    2  502    0  0.24084913440E+02  0.54930577442E+02 -0.72659863925E+01  0.60599801582E+02  0.47000000000E+01 0.  1.
         -5    1    1    2    0  502  0.46609073064E+02 -0.65634351186E+02 -0.46632545826E+02  0.93150190970E+02  0.47000000000E+01 0.  1.
        -11    1    1    2    0    0 -0.41416447567E+02  0.24341270027E+02 -0.54058772672E+02  0.72319917439E+02  0.00000000000E+00 0.  1.
         11    1    1    2    0    0 -0.29277538938E+02 -0.13637496283E+02  0.31452596461E+02  0.45082384756E+02  0.00000000000E+00 0. -1.
<mgrwt>
<rscale>  0 0.13618345E+03</rscale>
<asrwt>0</asrwt>
<pdfrwt beam="2">  1        2 0.26742846E-01 0.14399308E+03</pdfrwt>
<pdfrwt beam="1">  1       -2 0.14972891E-01 0.14399308E+03</pdfrwt>
<totfact> 0.65312776E+03</totfact>
</mgrwt>
</event>
<event>
 6    1  0.8353100E-006  0.3408836E+03  0.7546771E-02  0.1067701E+00
         -1   -1    0    0    0  501 -0.00000000000E+00  0.00000000000E+00  0.34174708173E+03  0.34174708173E+03  0.00000000000E+00 0.  1.
          1   -1    0    0  501    0  0.00000000000E+00 -0.00000000000E+00 -0.33680906495E+03  0.33680906495E+03  0.00000000000E+00 0. -1.
          5    1    1    2  502    0  0.15485364188E+03  0.46998731764E+02  0.36477376434E+02  0.16595547651E+03  0.47000000000E+01 0. -1.
         -5    1    1    2    0  502  0.14422299266E+03  0.58495064345E+02 -0.87847734789E+02  0.17877712010E+03  0.47000000000E+01 0. -1.
        -11    1    1    2    0    0 -0.74776266258E+02  0.10948447422E+02  0.35852427768E+01  0.75658525377E+02  0.00000000000E+00 0.  1.
         11    1    1    2    0    0 -0.22430036828E+03 -0.11644224353E+03  0.52723132360E+02  0.25816502470E+03  0.00000000000E+00 0. -1.
<mgrwt>
<rscale>  0 0.33788343E+03</rscale>
<asrwt>0</asrwt>
<pdfrwt beam="2">  1        1 0.51816779E-01 0.34088363E+03</pdfrwt>
<pdfrwt beam="1">  1       -1 0.52576475E-01 0.34088363E+03</pdfrwt>
<totfact> 0.28333431E+02</totfact>
</mgrwt>
</event>
<event>
 6    1  0.8353100E-006  0.1457798E+03  0.7546771E-02  0.1214934E+00
          2   -1    0    0  501    0  0.00000000000E+00  0.00000000000E+00  0.45942392335E+03  0.45942392335E+03  0.00000000000E+00 0. -1.
         -2   -1    0    0    0  501 -0.00000000000E+00 -0.00000000000E+00 -0.78659595842E+02  0.78659595842E+02  0.00000000000E+00 0.  1.
          5    1    1    2  502    0 -0.30528315687E+02  0.48752211969E+02  0.14579370240E+03  0.15680130704E+03  0.47000000000E+01 0. -1.
         -5    1    1    2    0  502 -0.38070991659E+02 -0.79099568244E+02  0.24569927120E+03  0.26095280027E+03  0.47000000000E+01 0. -1.
        -11    1    1    2    0    0  0.28008847935E+02  0.42883584292E+02  0.31742344415E+02  0.60258391891E+02  0.00000000000E+00 0. -1.
         11    1    1    2    0    0  0.40590459411E+02 -0.12536228017E+02 -0.42470990503E+02  0.60071019988E+02  0.00000000000E+00 0.  1.
<mgrwt>
<rscale>  0 0.13881380E+03</rscale>
<asrwt>0</asrwt>
<pdfrwt beam="1">  1        2 0.70680602E-01 0.14577979E+03</pdfrwt>
<pdfrwt beam="2">  1       -2 0.12101477E-01 0.14577979E+03</pdfrwt>
<totfact> 0.32526098E+03</totfact>
</mgrwt>
</event>
<event>
 6    1  0.8353100E-006  0.3233173E+03  0.7546771E-02  0.1074133E+00
          2   -1    0    0  501    0  0.00000000000E+00  0.00000000000E+00  0.28225014607E+03  0.28225014607E+03  0.00000000000E+00 0. -1.
         -2   -1    0    0    0  501 -0.00000000000E+00 -0.00000000000E+00 -0.92589938508E+02  0.92589938508E+02  0.00000000000E+00 0.  1.
          5    1    1    2  502    0  0.46760307748E+02  0.66444670494E+02  0.21600588033E+03  0.23082905136E+03  0.47000000000E+01 0. -1.
         -5    1    1    2    0  502  0.12793315548E+02 -0.13327102845E+02 -0.11142948718E+02  0.22080215105E+02  0.47000000000E+01 0. -1.
        -11    1    1    2    0    0  0.17273688345E+01 -0.39141758572E+02 -0.38469076069E+02  0.54908386252E+02  0.00000000000E+00 0.  1.
         11    1    1    2    0    0 -0.61280992131E+02 -0.13975809077E+02  0.23266352024E+02  0.67022431860E+02  0.00000000000E+00 0. -1.
<mgrwt>
<rscale>  0 0.32331733E+03</rscale>
<asrwt>0</asrwt>
<pdfrwt beam="1">  1        2 0.43423099E-01 0.32331733E+03</pdfrwt>
<pdfrwt beam="2">  1       -2 0.14244606E-01 0.32331733E+03</pdfrwt>
<totfact> 0.43615280E+03</totfact>
</mgrwt>
</event>
<event>
 6    1  0.8353100E-006  0.2121863E+03  0.7546771E-02  0.1143128E+00
          2   -1    0    0  501    0  0.00000000000E+00  0.00000000000E+00  0.62898310901E+03  0.62898310901E+03  0.00000000000E+00 0. -1.
         -2   -1    0    0    0  501 -0.00000000000E+00 -0.00000000000E+00 -0.12202172889E+03  0.12202172889E+03  0.00000000000E+00 0.  1.
          5    1    1    2  502    0 -0.72779764408E+02  0.34673754432E+02  0.26608715186E+03  0.27807126018E+03  0.47000000000E+01 0. -1.
         -5    1    1    2    0  502  0.10690022458E+02  0.12515773696E+03  0.24657896645E+03  0.27677068558E+03  0.47000000000E+01 0. -1.
        -11    1    1    2    0    0 -0.21020276519E+02 -0.67167051156E+02  0.84542647333E+01  0.70885396085E+02  0.00000000000E+00 0. -1.
         11    1    1    2    0    0  0.83110018470E+02 -0.92664440233E+02 -0.14159002918E+02  0.12527749605E+03  0.00000000000E+00 0.  1.
<mgrwt>
<rscale>  0 0.20803975E+03</rscale>
<asrwt>0</asrwt>
<pdfrwt beam="1">  1        2 0.96766630E-01 0.21218632E+03</pdfrwt>
<pdfrwt beam="2">  1       -2 0.18772574E-01 0.21218632E+03</pdfrwt>
<totfact> 0.11187934E+03</totfact>
</mgrwt>
</event>
<event>
 6    1  0.8353100E-006  0.2078615E+03  0.7546771E-02  0.1145357E+00
         -2   -1    0    0    0  501 -0.00000000000E+00  0.00000000000E+00  0.16611822929E+03  0.16611822929E+03  0.00000000000E+00 0.  1.
          2   -1    0    0  501    0  0.00000000000E+00 -0.00000000000E+00 -0.24965868651E+03  0.24965868651E+03  0.00000000000E+00 0. -1.
          5    1    1    2  502    0 -0.87566127427E+02 -0.13826410240E+02 -0.46289065513E+02  0.10011874889E+03  0.47000000000E+01 0. -1.
         -5    1    1    2    0  502 -0.77813222996E+02  0.72958596158E+02  0.22450398687E+02  0.10910529239E+03  0.47000000000E+01 0.  1.
        -11    1    1    2    0    0  0.71041790109E+02 -0.49904717503E+02 -0.69568675633E+02  0.11125294333E+03  0.00000000000E+00 0. -1.
         11    1    1    2    0    0  0.94337560314E+02 -0.92274684154E+01  0.98668852456E+01  0.95299931185E+02  0.00000000000E+00 0.  1.
<mgrwt>
<rscale>  0 0.20528272E+03</rscale>
<asrwt>0</asrwt>
<pdfrwt beam="2">  1        2 0.38409028E-01 0.20786153E+03</pdfrwt>
<pdfrwt beam="1">  1       -2 0.25556651E-01 0.20786153E+03</pdfrwt>
<totfact> 0.18090716E+03</totfact>
</mgrwt>
</event>
<event>
 6    1  0.8353100E-006  0.1260033E+03  0.7546771E-02  0.1248770E+00
         -3   -1    0    0    0  501 -0.00000000000E+00  0.00000000000E+00  0.55778683332E+02  0.55778683332E+02  0.00000000000E+00 0.  1.
          3   -1    0    0  501    0  0.00000000000E+00 -0.00000000000E+00 -0.24267431033E+03  0.24267431033E+03  0.00000000000E+00 0. -1.
          5    1    1    2  502    0  0.46625982080E+02  0.26989997602E+01 -0.17194780651E+02  0.49990171897E+02  0.47000000000E+01 0.  1.
         -5    1    1    2    0  502 -0.56991976934E+02  0.92896154192E+01 -0.13970907423E+03  0.15124515798E+03  0.47000000000E+01 0.  1.
        -11    1    1    2    0    0 -0.29477062085E+02 -0.35472695782E+02 -0.17291819393E+02  0.49256637656E+02  0.00000000000E+00 0.  1.
         11    1    1    2    0    0  0.39843056939E+02  0.23484080603E+02 -0.12699952717E+02  0.47961026125E+02  0.00000000000E+00 0. -1.
<mgrwt>
<rscale>  0 0.11662549E+03</rscale>
<asrwt>0</asrwt>
<pdfrwt beam="2">  1        3 0.37334509E-01 0.12600333E+03</pdfrwt>
<pdfrwt beam="1">  1       -3 0.85813360E-02 0.12600333E+03</pdfrwt>
<totfact> 0.15307653E+03</totfact>
</mgrwt>
</event>
<event>
 6    1  0.8353100E-006  0.1580075E+03  0.7546771E-02  0.1198568E+00
         -2   -1    0    0    0  501 -0.00000000000E+00  0.00000000000E+00  0.31981866188E+02  0.31981866188E+02  0.00000000000E+00 0.  1.
          2   -1    0    0  501    0  0.00000000000E+00 -0.00000000000E+00 -0.74432600374E+03  0.74432600374E+03  0.00000000000E+00 0. -1.
          5    1    1    2  502    0 -0.57660043683E+02 -0.58149188641E+01 -0.19844677108E+03  0.20678903469E+03  0.47000000000E+01 0.  1.
         -5    1    1    2    0  502  0.43199550459E+02 -0.89754125320E+02 -0.31018010569E+03  0.32581557995E+03  0.47000000000E+01 0.  1.
        -11    1    1    2    0    0  0.34316536625E+02  0.19133019862E+02 -0.12950071236E+03  0.13532971454E+03  0.00000000000E+00 0.  1.
         11    1    1    2    0    0 -0.19856043401E+02  0.76436024322E+02 -0.74216548422E+02  0.10837354074E+03  0.00000000000E+00 0. -1.
<mgrwt>
<rscale>  0 0.15156059E+03</rscale>
<asrwt>0</asrwt>
<pdfrwt beam="2">  1        2 0.11451169E+00 0.15800752E+03</pdfrwt>
<pdfrwt beam="1">  1       -2 0.49202871E-02 0.15800752E+03</pdfrwt>
<totfact> 0.75765207E+03</totfact>
</mgrwt>
</event>
<event>
 6    1  0.8353100E-006  0.1396437E+03  0.7546771E-02  0.1229635E+00
          2   -1    0    0  501    0  0.00000000000E+00  0.00000000000E+00  0.52146570979E+03  0.52146570979E+03  0.00000000000E+00 0. -1.
         -2   -1    0    0    0  501 -0.00000000000E+00 -0.00000000000E+00 -0.37762635787E+02  0.37762635787E+02  0.00000000000E+00 0.  1.
          5    1    1    2  502    0 -0.51776574393E+02  0.29597208531E+02  0.80028907365E+02  0.99917588155E+02  0.47000000000E+01 0.  1.
         -5    1    1    2    0  502  0.33232549310E+02  0.29825012057E+02  0.33451035942E+03  0.33751030241E+03  0.47000000000E+01 0.  1.
        -11    1    1    2    0    0  0.38822237984E+02 -0.22680813170E+02  0.65807211279E+02  0.79700530139E+02  0.00000000000E+00 0. -1.
         11    1    1    2    0    0 -0.20278212901E+02 -0.36741407418E+02  0.33565959399E+01  0.42099924867E+02  0.00000000000E+00 0.  1.
<mgrwt>
<rscale>  0 0.12854228E+03</rscale>
<asrwt>0</asrwt>
<pdfrwt beam="1">  1        2 0.80225489E-01 0.13964367E+03</pdfrwt>
<pdfrwt beam="2">  1       -2 0.58096366E-02 0.13964367E+03</pdfrwt>
<totfact> 0.88313699E+03</totfact>
</mgrwt>
</event>
<event>
 6    1  0.8353100E-006  0.1334082E+03  0.7546771E-02  0.1233702E+00
          1   -1    0    0  501    0  0.00000000000E+00  0.00000000000E+00  0.26303749153E+02  0.26303749153E+02  0.00000000000E+00 0.  1.
         -1   -1    0    0    0  501 -0.00000000000E+00 -0.00000000000E+00 -0.55473207443E+03  0.55473207443E+03  0.00000000000E+00 0. -1.
          5    1    1    2  502    0 -0.43962787312E+02  0.37365769943E+02 -0.60464504831E+02  0.83707668562E+02  0.47000000000E+01 0. -1.
         -5    1    1    2    0  502  0.42398396227E+01 -0.61744095452E+02 -0.19281076793E+03  0.20255466372E+03  0.47000000000E+01 0. -1.
        -11    1    1    2    0    0  0.46288043097E+02 -0.16359065736E+02 -0.69924671553E+02  0.85438057429E+02  0.00000000000E+00 0.  1.
         11    1    1    2    0    0 -0.65650954082E+01  0.40737391245E+02 -0.20522838096E+03  0.20933543387E+03  0.00000000000E+00 0. -1.
<mgrwt>
<rscale>  0 0.12587890E+03</rscale>
<asrwt>0</asrwt>
<pdfrwt beam="1">  1        1 0.40467307E-02 0.13340824E+03</pdfrwt>
<pdfrwt beam="2">  1       -1 0.85343394E-01 0.13340824E+03</pdfrwt>
<totfact> 0.30651446E+03</totfact>
</mgrwt>
</event>
<event>
 6    1  0.8353100E-006  0.1254549E+03  0.7546771E-02  0.1250406E+00
          2   -1    0    0  501    0  0.00000000000E+00  0.00000000000E+00  0.44037456757E+03  0.44037456757E+03  0.00000000000E+00 0.  1.
         -2   -1    0    0    0  501 -0.00000000000E+00 -0.00000000000E+00 -0.28141523349E+02  0.28141523349E+02  0.00000000000E+00 0. -1.
          5    1    1    2  502    0 -0.33063084423E+02  0.54144009086E+02  0.10612507673E+03  0.12373101140E+03  0.47000000000E+01 0. -1.
         -5    1    1    2    0  502  0.34582101406E+02 -0.43417525298E+02  0.18679211813E+03  0.19492149352E+03  0.47000000000E+01 0. -1.
        -11    1    1    2    0    0 -0.44208867002E+02 -0.15069417094E+02  0.50696944129E+02  0.68932513353E+02  0.00000000000E+00 0.  1.
         11    1    1    2    0    0  0.42689850018E+02  0.43429333054E+01  0.68618905234E+02  0.80931072647E+02  0.00000000000E+00 0. -1.
<mgrwt>
<rscale>  0 0.11567603E+03</rscale>
<asrwt>0</asrwt>
<pdfrwt beam="1">  1        2 0.67749929E-01 0.12545492E+03</pdfrwt>
<pdfrwt beam="2">  1       -2 0.43294654E-02 0.12545492E+03</pdfrwt>
<totfact> 0.16378692E+04</totfact>
</mgrwt>
</event>
<event>
 6    1  0.8353100E-006  0.2923661E+03  0.7546771E-02  0.1089120E+00
         -2   -1    0    0    0  501 -0.00000000000E+00  0.00000000000E+00  0.30969580727E+02  0.30969580727E+02  0.00000000000E+00 0.  1.
          2   -1    0    0  501    0  0.00000000000E+00 -0.00000000000E+00 -0.69001522653E+03  0.69001522653E+03  0.00000000000E+00 0. -1.
          5    1    1    2  502    0  0.48820161733E+01  0.12376760694E+02  0.49682539272E+00  0.14119317359E+02  0.47000000000E+01 0. -1.
         -5    1    1    2    0  502  0.13534624131E+02 -0.10331995634E+03 -0.43828980153E+03  0.45053106391E+03  0.47000000000E+01 0. -1.
        -11    1    1    2    0    0 -0.39713390445E+01  0.26234518459E+02 -0.12549445026E+01  0.26563064174E+02  0.00000000000E+00 0.  1.
         11    1    1    2    0    0 -0.14445301260E+02  0.64708677181E+02 -0.21999772516E+03  0.22977136181E+03  0.00000000000E+00 0. -1.
<mgrwt>
<rscale>  0 0.29236609E+03</rscale>
<asrwt>0</asrwt>
<pdfrwt beam="2">  1        2 0.10615618E+00 0.29236609E+03</pdfrwt>
<pdfrwt beam="1">  1       -2 0.47645514E-02 0.29236609E+03</pdfrwt>
<totfact> 0.89851286E+03</totfact>
</mgrwt>
</event>
<event>
 6    1  0.8353100E-006  0.1269990E+03  0.7546771E-02  0.1245787E+00
          1   -1    0    0  501    0  0.00000000000E+00  0.00000000000E+00  0.29963635706E+03  0.29963635706E+03  0.00000000000E+00 0. -1.
         -1   -1    0    0    0  501 -0.00000000000E+00 -0.00000000000E+00 -0.46138051195E+02  0.46138051195E+02  0.00000000000E+00 0.  1.
          5    1    1    2  502    0  0.56581047947E+02 -0.34550328940E+02  0.70159162861E+02  0.96641286984E+02  0.47000000000E+01 0. -1.
         -5    1    1    2    0  502 -0.34837377855E+02  0.40544653310E+02  0.12711021590E+03  0.13797321767E+03  0.47000000000E+01 0. -1.
        -11    1    1    2    0    0 -0.58107418338E+02  0.36848798266E+01  0.32670308573E+02  0.66763758638E+02  0.00000000000E+00 0.  1.
         11    1    1    2    0    0  0.36363748246E+02 -0.96792041967E+01  0.23558618529E+02  0.44396144961E+02  0.00000000000E+00 0. -1.
<mgrwt>
<rscale>  0 0.11838408E+03</rscale>
<asrwt>0</asrwt>
<pdfrwt beam="1">  1        1 0.46097900E-01 0.12699905E+03</pdfrwt>
<pdfrwt beam="2">  1       -1 0.70981619E-02 0.12699905E+03</pdfrwt>
<totfact> 0.85684397E+03</totfact>
</mgrwt>
</event>
<event>
 6    1  0.8353100E-006  0.2717461E+03  0.7546771E-02  0.1100284E+00
         -2   -1    0    0    0  501 -0.00000000000E+00  0.00000000000E+00  0.36555370032E+02  0.36555370032E+02  0.00000000000E+00 0.  1.
          2   -1    0    0  501    0  0.00000000000E+00 -0.00000000000E+00 -0.50502807230E+03  0.50502807230E+03  0.00000000000E+00 0. -1.
          5    1    1    2  502    0 -0.73920152523E+02  0.19322383593E+02 -0.74566716840E+02  0.10686359865E+03  0.47000000000E+01 0.  1.
         -5    1    1    2    0  502  0.63932288335E+00 -0.16142088964E+00 -0.23950667391E+03  0.23955369260E+03  0.47000000000E+01 0.  1.
        -11    1    1    2    0    0  0.91432378883E+02 -0.92241835717E+01 -0.94596477937E+02  0.13188426407E+03  0.00000000000E+00 0.  1.
         11    1    1    2    0    0 -0.18151549243E+02 -0.99367791316E+01 -0.59802833580E+02  0.63281887010E+02  0.00000000000E+00 0. -1.
<mgrwt>
<rscale>  0 0.27174612E+03</rscale>
<asrwt>0</asrwt>
<pdfrwt beam="2">  1        2 0.77696627E-01 0.27174612E+03</pdfrwt>
<pdfrwt beam="1">  1       -2 0.56239030E-02 0.27174612E+03</pdfrwt>
<totfact> 0.10000514E+04</totfact>
</mgrwt>
</event>
<event>
 6    1  0.8353100E-006  0.1465022E+03  0.7546771E-02  0.1218027E+00
         -2   -1    0    0    0  501 -0.00000000000E+00  0.00000000000E+00  0.12360392760E+03  0.12360392760E+03  0.00000000000E+00 0. -1.
          2   -1    0    0  501    0  0.00000000000E+00 -0.00000000000E+00 -0.17591656855E+03  0.17591656855E+03  0.00000000000E+00 0.  1.
          5    1    1    2  502    0 -0.21047799196E+02 -0.58303034413E+02 -0.83060314062E+02  0.10374661173E+03  0.47000000000E+01 0. -1.
         -5    1    1    2    0  502 -0.54569319661E+02  0.47105130704E+02 -0.18677181728E+02  0.74616560522E+02  0.47000000000E+01 0. -1.
        -11    1    1    2    0    0  0.44774186266E+02 -0.32513179662E+02  0.14273598901E+02  0.57145168064E+02  0.00000000000E+00 0.  1.
         11    1    1    2    0    0  0.30842932590E+02  0.43711083371E+02  0.35151255937E+02  0.64012155831E+02  0.00000000000E+00 0. -1.
<mgrwt>
<rscale>  0 0.13656498E+03</rscale>
<asrwt>0</asrwt>
<pdfrwt beam="2">  1        2 0.27064087E-01 0.14650223E+03</pdfrwt>
<pdfrwt beam="1">  1       -2 0.19015989E-01 0.14650223E+03</pdfrwt>
<totfact> 0.43406997E+03</totfact>
</mgrwt>
</event>
<event>
 6    1  0.8353100E-006  0.1398208E+03  0.7546771E-02  0.1224795E+00
          1   -1    0    0  501    0  0.00000000000E+00  0.00000000000E+00  0.57552366038E+03  0.57552366038E+03  0.00000000000E+00 0. -1.
         -1   -1    0    0    0  501 -0.00000000000E+00 -0.00000000000E+00 -0.33842101974E+02  0.33842101974E+02  0.00000000000E+00 0.  1.
          5    1    1    2  502    0 -0.50131599862E+02 -0.17378165082E+02  0.35710153026E+03  0.36105231039E+03  0.47000000000E+01 0.  1.
         -5    1    1    2    0  502 -0.27504429887E+00  0.54601355461E+02  0.73510888857E+02  0.91691463333E+02  0.47000000000E+01 0.  1.
        -11    1    1    2    0    0  0.28944923788E+02 -0.24866377626E+02  0.12325107706E+03  0.12902315042E+03  0.00000000000E+00 0. -1.
         11    1    1    2    0    0  0.21461720373E+02 -0.12356812753E+02 -0.12181937765E+02  0.27598838209E+02  0.00000000000E+00 0.  1.
<mgrwt>
<rscale>  0 0.13180978E+03</rscale>
<asrwt>0</asrwt>
<pdfrwt beam="1">  1        1 0.88542094E-01 0.13982085E+03</pdfrwt>
<pdfrwt beam="2">  1       -1 0.52064777E-02 0.13982085E+03</pdfrwt>
<totfact> 0.59548042E+03</totfact>
</mgrwt>
</event>
<event>
 6    1  0.8353100E-006  0.1358535E+03  0.7546771E-02  0.1232402E+00
          1   -1    0    0  501    0  0.00000000000E+00  0.00000000000E+00  0.49224674969E+03  0.49224674969E+03  0.00000000000E+00 0. -1.
         -1   -1    0    0    0  501 -0.00000000000E+00 -0.00000000000E+00 -0.84691642146E+02  0.84691642146E+02  0.00000000000E+00 0.  1.
          5    1    1    2  502    0  0.66182510729E+02  0.55115415798E+02  0.34074042216E+03  0.35148820617E+03  0.47000000000E+01 0. -1.
         -5    1    1    2    0  502 -0.14317240849E+02 -0.43193364311E+02  0.10595168375E+03  0.11540580313E+03  0.47000000000E+01 0. -1.
        -11    1    1    2    0    0  0.13155071395E+02  0.11447177721E+02 -0.37017658498E+02  0.40919443078E+02  0.00000000000E+00 0.  1.
         11    1    1    2    0    0 -0.65020341275E+02 -0.23369229208E+02 -0.21193398686E+01  0.69124939456E+02  0.00000000000E+00 0. -1.
<mgrwt>
<rscale>  0 0.12672256E+03</rscale>
<asrwt>0</asrwt>
<pdfrwt beam="1">  1        1 0.75730268E-01 0.13585352E+03</pdfrwt>
<pdfrwt beam="2">  1       -1 0.13029484E-01 0.13585352E+03</pdfrwt>
<totfact> 0.18253262E+03</totfact>
</mgrwt>
</event>
<event>
 6    1  0.8353100E-006  0.3914900E+03  0.7546771E-02  0.1046767E+00
         -2   -1    0    0    0  501 -0.00000000000E+00  0.00000000000E+00  0.62996196168E+02  0.62996196168E+02  0.00000000000E+00 0.  1.
          2   -1    0    0  501    0  0.00000000000E+00 -0.00000000000E+00 -0.60822872842E+03  0.60822872842E+03  0.00000000000E+00 0. -1.
          5    1    1    2  502    0 -0.66013714560E+02 -0.11472359949E+03 -0.41538035375E+03  0.43598422342E+03  0.47000000000E+01 0. -1.
         -5    1    1    2    0  502  0.25444288242E+02 -0.89932332942E+01 -0.16218541467E+02  0.31834276128E+02  0.47000000000E+01 0. -1.
        -11    1    1    2    0    0  0.63334950676E+02  0.72076612966E+02 -0.11126288559E+03  0.14692101219E+03  0.00000000000E+00 0.  1.
         11    1    1    2    0    0 -0.22765524358E+02  0.51640219823E+02 -0.23707514511E+01  0.56485412852E+02  0.00000000000E+00 0. -1.
<mgrwt>
<rscale>  0 0.39148996E+03</rscale>
<asrwt>0</asrwt>
<pdfrwt beam="2">  1        2 0.93573648E-01 0.39148996E+03</pdfrwt>
<pdfrwt beam="1">  1       -2 0.96917227E-02 0.39148996E+03</pdfrwt>
<totfact> 0.34835331E+03</totfact>
</mgrwt>
</event>
<event>
 6    1  0.8353100E-006  0.1436589E+03  0.7546771E-02  0.1217656E+00
          1   -1    0    0  501    0  0.00000000000E+00  0.00000000000E+00  0.95098982877E+02  0.95098982877E+02  0.00000000000E+00 0. -1.
         -1   -1    0    0    0  501 -0.00000000000E+00 -0.00000000000E+00 -0.18149692863E+03  0.18149692863E+03  0.00000000000E+00 0.  1.
          5    1    1    2  502    0  0.43078853243E+02  0.25177555612E+02  0.26097731416E+02  0.56505561571E+02  0.47000000000E+01 0. -1.
         -5    1    1    2    0  502 -0.25697138081E+02  0.43430598871E+02 -0.84577141902E+02  0.98599912556E+02  0.47000000000E+01 0. -1.
        -11    1    1    2    0    0  0.31186459632E+02 -0.59950440715E+01 -0.27864073385E+02  0.42248578714E+02  0.00000000000E+00 0.  1.
         11    1    1    2    0    0 -0.48568174794E+02 -0.62613110411E+02 -0.54461877951E-01  0.79241858662E+02  0.00000000000E+00 0. -1.
<mgrwt>
<rscale>  0 0.13683260E+03</rscale>
<asrwt>0</asrwt>
<pdfrwt beam="1">  1        1 0.14630613E-01 0.14365886E+03</pdfrwt>
<pdfrwt beam="2">  1       -1 0.27922604E-01 0.14365886E+03</pdfrwt>
<totfact> 0.42744726E+03</totfact>
</mgrwt>
</event>
<event>
 6    1  0.8353100E-006  0.1186269E+03  0.7546771E-02  0.1257429E+00
          1   -1    0    0  501    0  0.00000000000E+00  0.00000000000E+00  0.21127767328E+03  0.21127767328E+03  0.00000000000E+00 0. -1.
         -1   -1    0    0    0  501 -0.00000000000E+00 -0.00000000000E+00 -0.70587687497E+02  0.70587687497E+02  0.00000000000E+00 0.  1.
          5    1    1    2  502    0 -0.12448654167E+02 -0.56079380509E+02  0.30046765335E+02  0.64998184713E+02  0.47000000000E+01 0. -1.
         -5    1    1    2    0  502 -0.43552769348E+00  0.40944516911E+02  0.11631022354E+03  0.12339692560E+03  0.47000000000E+01 0.  1.
        -11    1    1    2    0    0  0.49284317096E+02  0.38488826899E+01 -0.19195797611E+02  0.53030523810E+02  0.00000000000E+00 0.  1.
         11    1    1    2    0    0 -0.36400135236E+02  0.11285980908E+02  0.13528794519E+02  0.40439726648E+02  0.00000000000E+00 0. -1.
<mgrwt>
<rscale>  0 0.11171357E+03</rscale>
<asrwt>0</asrwt>
<pdfrwt beam="1">  1        1 0.32504257E-01 0.11862693E+03</pdfrwt>
<pdfrwt beam="2">  1       -1 0.10859644E-01 0.11862693E+03</pdfrwt>
<totfact> 0.68968555E+03</totfact>
</mgrwt>
</event>
<event>
 6    1  0.8353100E-006  0.1397102E+03  0.7546771E-02  0.1229583E+00
         -1   -1    0    0    0  501 -0.00000000000E+00  0.00000000000E+00  0.43581581038E+03  0.43581581038E+03  0.00000000000E+00 0.  1.
          1   -1    0    0  501    0  0.00000000000E+00 -0.00000000000E+00 -0.33407335678E+02  0.33407335678E+02  0.00000000000E+00 0. -1.
          5    1    1    2  502    0 -0.68224878704E+01  0.82438667257E+02  0.20802604741E+03  0.22391875000E+03  0.47000000000E+01 0. -1.
         -5    1    1    2    0  502  0.17290428583E+02 -0.20924386650E+02  0.10844425851E+01  0.27569093075E+02  0.47000000000E+01 0. -1.
        -11    1    1    2    0    0  0.43107802031E+01 -0.47144177588E+02  0.19124808774E+03  0.19702027148E+03  0.00000000000E+00 0.  1.
         11    1    1    2    0    0 -0.14778720916E+02 -0.14370103018E+02  0.20498969580E+01  0.20715031504E+02  0.00000000000E+00 0. -1.
<mgrwt>
<rscale>  0 0.12857673E+03</rscale>
<asrwt>0</asrwt>
<pdfrwt beam="2">  1        1 0.51395904E-02 0.13971019E+03</pdfrwt>
<pdfrwt beam="1">  1       -1 0.67048582E-01 0.13971019E+03</pdfrwt>
<totfact> 0.36019119E+03</totfact>
</mgrwt>
</event>
<event>
 6    1  0.8353100E-006  0.1371930E+03  0.7546771E-02  0.1228625E+00
         -2   -1    0    0    0  501 -0.00000000000E+00  0.00000000000E+00  0.23855074767E+03  0.23855074767E+03  0.00000000000E+00 0.  1.
          2   -1    0    0  501    0  0.00000000000E+00 -0.00000000000E+00 -0.63894405376E+02  0.63894405376E+02  0.00000000000E+00 0. -1.
          5    1    1    2  502    0  0.40747700598E+02  0.62679347185E+02  0.41280807390E+02  0.85529355933E+02  0.47000000000E+01 0. -1.
         -5    1    1    2    0  502 -0.61243446504E+02 -0.99885331235E+01  0.38389572293E+02  0.73118942788E+02  0.47000000000E+01 0. -1.
        -11    1    1    2    0    0  0.53270449608E+02 -0.15532280899E+02  0.33443097988E+02  0.64787601858E+02  0.00000000000E+00 0. -1.
         11    1    1    2    0    0 -0.32774703703E+02 -0.37158533162E+02  0.61542864623E+02  0.79009252468E+02  0.00000000000E+00 0.  1.
<mgrwt>
<rscale>  0 0.12921528E+03</rscale>
<asrwt>0</asrwt>
<pdfrwt beam="2">  1        2 0.98299087E-02 0.13719298E+03</pdfrwt>
<pdfrwt beam="1">  1       -2 0.36700115E-01 0.13719298E+03</pdfrwt>
<totfact> 0.43865160E+03</totfact>
</mgrwt>
</event>
<event>
 6    1  0.8353100E-006  0.2615894E+03  0.7546771E-02  0.1106192E+00
         -2   -1    0    0    0  501 -0.00000000000E+00  0.00000000000E+00  0.22742876617E+02  0.22742876617E+02  0.00000000000E+00 0. -1.
          2   -1    0    0  501    0  0.00000000000E+00 -0.00000000000E+00 -0.75220276292E+03  0.75220276292E+03  0.00000000000E+00 0.  1.
          5    1    1    2  502    0  0.19909701398E+02 -0.33112505469E+02 -0.22952681715E+03  0.23280353094E+03  0.47000000000E+01 0. -1.
         -5    1    1    2    0  502 -0.88478681350E+02  0.35170688917E+02 -0.25366367777E+03  0.27098488119E+03  0.47000000000E+01 0. -1.
        -11    1    1    2    0    0  0.30446729323E+02 -0.45750069375E+02 -0.10666587824E+03  0.11999034026E+03  0.00000000000E+00 0.  1.
         11    1    1    2    0    0  0.38122250630E+02  0.43691885927E+02 -0.13960351314E+03  0.15116688715E+03  0.00000000000E+00 0. -1.
<mgrwt>
<rscale>  0 0.26158941E+03</rscale>
<asrwt>0</asrwt>
<pdfrwt beam="2">  1        2 0.11572352E+00 0.26158941E+03</pdfrwt>
<pdfrwt beam="1">  1       -2 0.34989037E-02 0.26158941E+03</pdfrwt>
<totfact> 0.12818561E+04</totfact>
</mgrwt>
</event>
<event>
 6    1  0.8353100E-006  0.1722791E+03  0.7546771E-02  0.1181439E+00
         -2   -1    0    0    0  501 -0.00000000000E+00  0.00000000000E+00  0.48689934890E+02  0.48689934890E+02  0.00000000000E+00 0.  1.
          2   -1    0    0  501    0  0.00000000000E+00 -0.00000000000E+00 -0.57702735399E+03  0.57702735399E+03  0.00000000000E+00 0. -1.
          5    1    1    2  502    0  0.19366850706E+02 -0.10136961227E+03 -0.33451384328E+03  0.35010351975E+03  0.47000000000E+01 0.  1.
         -5    1    1    2    0  502  0.43441922629E+02  0.81969603323E+00 -0.29814804735E+02  0.52904490591E+02  0.47000000000E+01 0.  1.
        -11    1    1    2    0    0 -0.47583937706E+02  0.24853656515E+01 -0.77913944432E+02  0.91329025545E+02  0.00000000000E+00 0.  1.
         11    1    1    2    0    0 -0.15224835628E+02  0.98064550580E+02 -0.86094826659E+02  0.13138025300E+03  0.00000000000E+00 0. -1.
<mgrwt>
<rscale>  0 0.16660154E+03</rscale>
<asrwt>0</asrwt>
<pdfrwt beam="2">  1        2 0.88773440E-01 0.17227911E+03</pdfrwt>
<pdfrwt beam="1">  1       -2 0.74907592E-02 0.17227911E+03</pdfrwt>
<totfact> 0.54055852E+03</totfact>
</mgrwt>
</event>
<event>
 6    1  0.8353100E-006  0.3452715E+03  0.7546771E-02  0.1064573E+00
          1   -1    0    0  501    0  0.00000000000E+00  0.00000000000E+00  0.28629063533E+03  0.28629063533E+03  0.00000000000E+00 0. -1.
         -1   -1    0    0    0  501 -0.00000000000E+00 -0.00000000000E+00 -0.10410086093E+03  0.10410086093E+03  0.00000000000E+00 0.  1.
          5    1    1    2  502    0  0.12130809178E+03  0.70398195724E+02  0.11938162017E+03  0.18424337255E+03  0.47000000000E+01 0. -1.
         -5    1    1    2    0  502 -0.15434177076E+02 -0.18487621492E+02  0.56756838970E+02  0.61833928714E+02  0.47000000000E+01 0. -1.
        -11    1    1    2    0    0 -0.23449169741E+02 -0.26622377671E+02 -0.34098745864E+02  0.49207103389E+02  0.00000000000E+00 0.  1.
         11    1    1    2    0    0 -0.82424744963E+02 -0.25288196560E+02  0.40150061117E+02  0.95107091614E+02  0.00000000000E+00 0. -1.
<mgrwt>
<rscale>  0 0.34527150E+03</rscale>
<asrwt>0</asrwt>
<pdfrwt beam="1">  1        1 0.44044713E-01 0.34527150E+03</pdfrwt>
<pdfrwt beam="2">  1       -1 0.16015517E-01 0.34527150E+03</pdfrwt>
<totfact> 0.26974502E+03</totfact>
</mgrwt>
</event>
<event>
 6    1  0.8353100E-006  0.1355111E+03  0.7546771E-02  0.1231398E+00
         -3   -1    0    0    0  501 -0.00000000000E+00  0.00000000000E+00  0.25460983403E+02  0.25460983403E+02  0.00000000000E+00 0.  1.
          3   -1    0    0  501    0  0.00000000000E+00 -0.00000000000E+00 -0.57537744704E+03  0.57537744704E+03  0.00000000000E+00 0. -1.
          5    1    1    2  502    0 -0.82368826292E+02 -0.27857567943E+02 -0.29304025989E+03  0.30570468029E+03  0.47000000000E+01 0. -1.
         -5    1    1    2    0  502  0.31175279716E+02  0.17058301239E+02 -0.39255484904E+02  0.53159823190E+02  0.47000000000E+01 0. -1.
        -11    1    1    2    0    0  0.58727015836E+02  0.37965337219E+02 -0.19019331012E+03  0.20264186249E+03  0.00000000000E+00 0. -1.
         11    1    1    2    0    0 -0.75334692594E+01 -0.27166070515E+02 -0.27427408730E+02  0.39332064476E+02  0.00000000000E+00 0.  1.
<mgrwt>
<rscale>  0 0.12737895E+03</rscale>
<asrwt>0</asrwt>
<pdfrwt beam="2">  1        3 0.88519600E-01 0.13551114E+03</pdfrwt>
<pdfrwt beam="1">  1       -3 0.39170747E-02 0.13551114E+03</pdfrwt>
<totfact> 0.92518885E+02</totfact>
</mgrwt>
</event>
<event>
 6    1  0.8353100E-006  0.3175915E+03  0.7546771E-02  0.1076763E+00
         -2   -1    0    0    0  501 -0.00000000000E+00  0.00000000000E+00  0.28742180698E+03  0.28742180698E+03  0.00000000000E+00 0.  1.
          2   -1    0    0  501    0  0.00000000000E+00 -0.00000000000E+00 -0.87732025134E+02  0.87732025134E+02  0.00000000000E+00 0. -1.
          5    1    1    2  502    0 -0.23798426789E+01 -0.33657598028E+01  0.62982491510E+02  0.63291991808E+02  0.47000000000E+01 0.  1.
         -5    1    1    2    0  502  0.12169502345E+02  0.11046221181E+03 -0.54207437784E+01  0.11136189424E+03  0.47000000000E+01 0.  1.
        -11    1    1    2    0    0 -0.25984282609E+02 -0.88274636045E+02  0.49270467225E+02  0.10437994660E+03  0.00000000000E+00 0. -1.
         11    1    1    2    0    0  0.16194622943E+02 -0.18821815965E+02  0.92857566893E+02  0.96119999469E+02  0.00000000000E+00 0.  1.
<mgrwt>
<rscale>  0 0.31759154E+03</rscale>
<asrwt>0</asrwt>
<pdfrwt beam="2">  1        2 0.13497235E-01 0.31759154E+03</pdfrwt>
<pdfrwt beam="1">  1       -2 0.44218739E-01 0.31759154E+03</pdfrwt>
<totfact> 0.21747186E+03</totfact>
</mgrwt>
</event>
<event>
 6    1  0.8353100E-006  0.2937272E+03  0.7546771E-02  0.1090040E+00
         -2   -1    0    0    0  501 -0.00000000000E+00  0.00000000000E+00  0.59405373851E+03  0.59405373851E+03  0.00000000000E+00 0.  1.
          2   -1    0    0  501    0  0.00000000000E+00 -0.00000000000E+00 -0.25058108391E+03  0.25058108391E+03  0.00000000000E+00 0. -1.
          5    1    1    2  502    0 -0.16044547520E+03 -0.11127035439E+03 -0.91109640082E+02  0.21551542588E+03  0.47000000000E+01 0.  1.
         -5    1    1    2    0  502 -0.91792210482E+02  0.27429969163E+02 -0.16637187510E+02  0.97350393537E+02  0.47000000000E+01 0.  1.
        -11    1    1    2    0    0  0.64796808102E+02  0.49942071807E+02  0.79439296904E+02  0.11403262151E+03  0.00000000000E+00 0. -1.
         11    1    1    2    0    0  0.18744087758E+03  0.33898313417E+02  0.37178018529E+03  0.41773638148E+03  0.00000000000E+00 0.  1.
<mgrwt>
<rscale>  0 0.29059257E+03</rscale>
<asrwt>0</asrwt>
<pdfrwt beam="2">  1        2 0.38550936E-01 0.29372716E+03</pdfrwt>
<pdfrwt beam="1">  1       -2 0.91392883E-01 0.29372716E+03</pdfrwt>
<totfact> 0.14124959E+02</totfact>
</mgrwt>
</event>
<event>
 6    1  0.8353100E-006  0.3372941E+03  0.7546771E-02  0.1067954E+00
         -2   -1    0    0    0  501 -0.00000000000E+00  0.00000000000E+00  0.26482302187E+02  0.26482302187E+02  0.00000000000E+00 0. -1.
          2   -1    0    0  501    0  0.00000000000E+00 -0.00000000000E+00 -0.10739938803E+04  0.10739938803E+04  0.00000000000E+00 0.  1.
          5    1    1    2  502    0 -0.11509062374E+02 -0.18814871305E+02 -0.19964718809E+03  0.20091676787E+03  0.47000000000E+01 0. -1.
         -5    1    1    2    0  502  0.12243565467E+03  0.75664071557E+02 -0.46424012733E+03  0.48606226667E+03  0.47000000000E+01 0. -1.
        -11    1    1    2    0    0 -0.21586585271E+02 -0.60319277615E+02 -0.18172704245E+03  0.19268916387E+03  0.00000000000E+00 0.  1.
         11    1    1    2    0    0 -0.89340007021E+02  0.34700773626E+01 -0.20189722029E+03  0.22080798412E+03  0.00000000000E+00 0. -1.
<mgrwt>
<rscale>  0 0.33729412E+03</rscale>
<asrwt>0</asrwt>
<pdfrwt beam="2">  1        2 0.16522984E+00 0.33729412E+03</pdfrwt>
<pdfrwt beam="1">  1       -2 0.40742001E-02 0.33729412E+03</pdfrwt>
<totfact> 0.63512944E+03</totfact>
</mgrwt>
</event>
<event>
 6    1  0.8353100E-006  0.1660002E+03  0.7546771E-02  0.1188765E+00
         -1   -1    0    0    0  501 -0.00000000000E+00  0.00000000000E+00  0.34891931308E+02  0.34891931308E+02  0.00000000000E+00 0.  1.
          1   -1    0    0  501    0  0.00000000000E+00 -0.00000000000E+00 -0.69266587194E+03  0.69266587194E+03  0.00000000000E+00 0. -1.
          5    1    1    2  502    0 -0.17562351568E+02 -0.10854045799E+02 -0.14866997527E+03  0.15017023024E+03  0.47000000000E+01 0. -1.
         -5    1    1    2    0  502  0.91577712382E+02  0.91181234547E+02 -0.24408789102E+03  0.27622723161E+03  0.47000000000E+01 0. -1.
        -11    1    1    2    0    0 -0.53758460421E+02 -0.72251661296E+02 -0.26443048825E+03  0.27934523039E+03  0.00000000000E+00 0. -1.
         11    1    1    2    0    0 -0.20256900392E+02 -0.80755274522E+01 -0.58558608493E+00  0.21815111006E+02  0.00000000000E+00 0.  1.
<mgrwt>
<rscale>  0 0.15993933E+03</rscale>
<asrwt>0</asrwt>
<pdfrwt beam="2">  1        1 0.10656397E+00 0.16600016E+03</pdfrwt>
<pdfrwt beam="1">  1       -1 0.53679898E-02 0.16600016E+03</pdfrwt>
<totfact> 0.44350277E+03</totfact>
</mgrwt>
</event>
<event>
 6    1  0.8353100E-006  0.1726881E+03  0.7546771E-02  0.1181132E+00
         -3   -1    0    0    0  501 -0.00000000000E+00  0.00000000000E+00  0.26518085836E+03  0.26518085836E+03  0.00000000000E+00 0.  1.
          3   -1    0    0  501    0  0.00000000000E+00 -0.00000000000E+00 -0.10251264007E+03  0.10251264007E+03  0.00000000000E+00 0. -1.
          5    1    1    2  502    0 -0.18514390734E+02  0.55781663594E+02  0.18062527067E+02  0.61666210696E+02  0.47000000000E+01 0. -1.
         -5    1    1    2    0  502  0.11221539078E+03  0.17824098992E+02  0.32546355272E+02  0.11828502726E+03  0.47000000000E+01 0. -1.
        -11    1    1    2    0    0 -0.10093718991E+03 -0.29198872583E+02  0.70857438333E+02  0.12673463234E+03  0.00000000000E+00 0.  1.
         11    1    1    2    0    0  0.72361898674E+01 -0.44406890003E+02  0.41201897613E+02  0.61007628133E+02  0.00000000000E+00 0. -1.
<mgrwt>
<rscale>  0 0.16688828E+03</rscale>
<asrwt>0</asrwt>
<pdfrwt beam="2">  1        3 0.15771175E-01 0.17268813E+03</pdfrwt>
<pdfrwt beam="1">  1       -3 0.40797055E-01 0.17268813E+03</pdfrwt>
<totfact> 0.48762090E+02</totfact>
</mgrwt>
</event>
<event>
 6    1  0.8353100E-006  0.1875930E+03  0.7546771E-02  0.1165383E+00
          2   -1    0    0  501    0  0.00000000000E+00  0.00000000000E+00  0.22184027184E+03  0.22184027184E+03  0.00000000000E+00 0. -1.
         -2   -1    0    0    0  501 -0.00000000000E+00 -0.00000000000E+00 -0.14315427082E+03  0.14315427082E+03  0.00000000000E+00 0.  1.
          5    1    1    2  502    0 -0.65822562380E+02 -0.24057209576E+02  0.24270366014E+02  0.74313523112E+02  0.47000000000E+01 0. -1.
         -5    1    1    2    0  502  0.33728020133E+02 -0.11208885724E+03  0.28622508082E+02  0.12059365335E+03  0.47000000000E+01 0. -1.
        -11    1    1    2    0    0  0.28321590185E+01  0.11536397131E+03 -0.14294046103E+02  0.11628063792E+03  0.00000000000E+00 0.  1.
         11    1    1    2    0    0  0.29262383228E+02  0.20782095506E+02  0.40087173030E+02  0.53806728272E+02  0.00000000000E+00 0. -1.
<mgrwt>
<rscale>  0 0.18252299E+03</rscale>
<asrwt>0</asrwt>
<pdfrwt beam="1">  1        2 0.34129273E-01 0.18759305E+03</pdfrwt>
<pdfrwt beam="2">  1       -2 0.22023734E-01 0.18759305E+03</pdfrwt>
<totfact> 0.26565430E+03</totfact>
</mgrwt>
</event>
<event>
 6    1  0.8353100E-006  0.1456921E+03  0.7546771E-02  0.1215678E+00
          2   -1    0    0  501    0  0.00000000000E+00  0.00000000000E+00  0.38410531422E+03  0.38410531422E+03  0.00000000000E+00 0.  1.
         -2   -1    0    0    0  501 -0.00000000000E+00 -0.00000000000E+00 -0.51373783946E+02  0.51373783946E+02  0.00000000000E+00 0. -1.
          5    1    1    2  502    0  0.31215572675E+02 -0.48940285892E+02  0.26779003939E+02  0.64099677164E+02  0.47000000000E+01 0.  1.
         -5    1    1    2    0  502  0.23169768024E+02 -0.24682767901E+01  0.22925584837E+03  0.23048484669E+03  0.47000000000E+01 0.  1.
        -11    1    1    2    0    0 -0.70815838450E+02  0.80663719241E+01  0.39674384863E+02  0.81572091709E+02  0.00000000000E+00 0. -1.
         11    1    1    2    0    0  0.16430497752E+02  0.43342190758E+02  0.37022293104E+02  0.59322482608E+02  0.00000000000E+00 0.  1.
<mgrwt>
<rscale>  0 0.13826821E+03</rscale>
<asrwt>0</asrwt>
<pdfrwt beam="1">  1        2 0.59093123E-01 0.14569213E+03</pdfrwt>
<pdfrwt beam="2">  1       -2 0.79036593E-02 0.14569213E+03</pdfrwt>
<totfact> 0.77043281E+03</totfact>
</mgrwt>
</event>
<event>
 6    1  0.8353100E-006  0.1353537E+03  0.7546771E-02  0.1228732E+00
          1   -1    0    0  501    0  0.00000000000E+00  0.00000000000E+00  0.84934891025E+02  0.84934891025E+02  0.00000000000E+00 0. -1.
         -1   -1    0    0    0  501 -0.00000000000E+00 -0.00000000000E+00 -0.19687969472E+03  0.19687969472E+03  0.00000000000E+00 0.  1.
          5    1    1    2  502    0 -0.21302843851E+02 -0.58337091698E+01  0.38593135466E+02  0.44714241847E+02  0.47000000000E+01 0.  1.
         -5    1    1    2    0  502  0.69676779192E+02 -0.12856728358E+02 -0.58689310994E+02  0.92123147187E+02  0.47000000000E+01 0.  1.
        -11    1    1    2    0    0  0.23479777557E+02  0.72614033447E+00 -0.59850339068E+02  0.64295336693E+02  0.00000000000E+00 0.  1.
         11    1    1    2    0    0 -0.71853712898E+02  0.17964297193E+02 -0.31998289102E+02  0.80681860021E+02  0.00000000000E+00 0. -1.
<mgrwt>
<rscale>  0 0.12914338E+03</rscale>
<asrwt>0</asrwt>
<pdfrwt beam="1">  1        1 0.13066906E-01 0.13535367E+03</pdfrwt>
<pdfrwt beam="2">  1       -1 0.30289184E-01 0.13535367E+03</pdfrwt>
<totfact> 0.43063642E+03</totfact>
</mgrwt>
</event>
<event>
 6    1  0.8353100E-006  0.2400674E+03  0.7546771E-02  0.1153480E+00
         -2   -1    0    0    0  501 -0.00000000000E+00  0.00000000000E+00  0.75649519484E+02  0.75649519484E+02  0.00000000000E+00 0.  1.
          2   -1    0    0  501    0  0.00000000000E+00 -0.00000000000E+00 -0.40875991837E+03  0.40875991837E+03  0.00000000000E+00 0. -1.
          5    1    1    2  502    0  0.15520722811E+02  0.99898629182E+02 -0.28174545865E+03  0.29937137876E+03  0.47000000000E+01 0. -1.
         -5    1    1    2    0  502  0.24901275703E+02 -0.54684975183E+02  0.12293204019E+02  0.61512054977E+02  0.47000000000E+01 0.  1.
        -11    1    1    2    0    0  0.99783754244E+01 -0.12356002845E+02  0.16761764359E+02  0.23091026976E+02  0.00000000000E+00 0. -1.
         11    1    1    2    0    0 -0.50400373939E+02 -0.32857651155E+02 -0.80419908616E+02  0.10043497715E+03  0.00000000000E+00 0.  1.
<mgrwt>
<rscale>  0 0.19562875E+03</rscale>
<asrwt>0</asrwt>
<pdfrwt beam="2">  1        2 0.62886142E-01 0.24006736E+03</pdfrwt>
<pdfrwt beam="1">  1       -2 0.11638387E-01 0.24006736E+03</pdfrwt>
<totfact> 0.40112440E+03</totfact>
</mgrwt>
</event>
<event>
 6    1  0.8353100E-006  0.3131462E+03  0.7546771E-02  0.1078848E+00
         -1   -1    0    0    0  501 -0.00000000000E+00  0.00000000000E+00  0.79383899506E+02  0.79383899506E+02  0.00000000000E+00 0.  1.
          1   -1    0    0  501    0  0.00000000000E+00 -0.00000000000E+00 -0.30881747020E+03  0.30881747020E+03  0.00000000000E+00 0. -1.
          5    1    1    2  502    0 -0.30579855571E+02  0.14975388273E+02 -0.19469146570E+02  0.39503512361E+02  0.47000000000E+01 0.  1.
         -5    1    1    2    0  502  0.10042883917E+03  0.21065571928E+02 -0.20300001181E+03  0.22751001045E+03  0.47000000000E+01 0.  1.
        -11    1    1    2    0    0 -0.89032742059E+01 -0.46363698270E+02  0.22975915244E+02  0.52504794925E+02  0.00000000000E+00 0.  1.
         11    1    1    2    0    0 -0.60945709391E+02  0.10322738069E+02 -0.29940327557E+02  0.68683051975E+02  0.00000000000E+00 0. -1.
<mgrwt>
<rscale>  0 0.31314620E+03</rscale>
<asrwt>0</asrwt>
<pdfrwt beam="2">  1        1 0.47510379E-01 0.31314620E+03</pdfrwt>
<pdfrwt beam="1">  1       -1 0.12212908E-01 0.31314620E+03</pdfrwt>
<totfact> 0.37609089E+03</totfact>
</mgrwt>
</event>
<event>
 6    1  0.8353100E-006  0.1406874E+03  0.7546771E-02  0.1219247E+00
          2   -1    0    0  501    0  0.00000000000E+00  0.00000000000E+00  0.42466887152E+03  0.42466887152E+03  0.00000000000E+00 0. -1.
         -2   -1    0    0    0  501 -0.00000000000E+00 -0.00000000000E+00 -0.49601586306E+02  0.49601586306E+02  0.00000000000E+00 0.  1.
          5    1    1    2  502    0 -0.99154841170E+01  0.79934288168E+02  0.24676357679E+03  0.25961925984E+03  0.47000000000E+01 0. -1.
         -5    1    1    2    0  502 -0.22455929288E+02 -0.42169937773E+02  0.52957315687E+02  0.71478246318E+02  0.47000000000E+01 0.  1.
        -11    1    1    2    0    0  0.51428429740E+02 -0.42313828041E+02  0.94607978875E+02  0.11569793903E+03  0.00000000000E+00 0.  1.
         11    1    1    2    0    0 -0.19057016336E+02  0.45494776455E+01 -0.19261586141E+02  0.27475012632E+02  0.00000000000E+00 0. -1.
<mgrwt>
<rscale>  0 0.13569149E+03</rscale>
<asrwt>0</asrwt>
<pdfrwt beam="1">  1        2 0.65333670E-01 0.14068740E+03</pdfrwt>
<pdfrwt beam="2">  1       -2 0.76310136E-02 0.14068740E+03</pdfrwt>
<totfact> 0.72874830E+03</totfact>
</mgrwt>
</event>
<event>
 6    1  0.8353100E-006  0.1250052E+03  0.7546771E-02  0.1251461E+00
         -1   -1    0    0    0  501 -0.00000000000E+00  0.00000000000E+00  0.10853285754E+03  0.10853285754E+03  0.00000000000E+00 0.  1.
          1   -1    0    0  501    0  0.00000000000E+00 -0.00000000000E+00 -0.14055794168E+03  0.14055794168E+03  0.00000000000E+00 0. -1.
          5    1    1    2  502    0  0.21255782177E+02  0.59540101551E+02 -0.34390582914E+02  0.72122355493E+02  0.47000000000E+01 0. -1.
         -5    1    1    2    0  502 -0.21544869506E+02 -0.57123153990E+02 -0.44522046804E+02  0.75706926865E+02  0.47000000000E+01 0. -1.
        -11    1    1    2    0    0 -0.35387378130E+02 -0.24819885240E+02  0.39375364145E+02  0.58469757446E+02  0.00000000000E+00 0.  1.
         11    1    1    2    0    0  0.35676465459E+02  0.22402937678E+02  0.75121814249E+01  0.42791759417E+02  0.00000000000E+00 0. -1.
<mgrwt>
<rscale>  0 0.11506871E+03</rscale>
<asrwt>0</asrwt>
<pdfrwt beam="2">  1        1 0.21624299E-01 0.12500517E+03</pdfrwt>
<pdfrwt beam="1">  1       -1 0.16697363E-01 0.12500517E+03</pdfrwt>
<totfact> 0.59055639E+03</totfact>
</mgrwt>
</event>
<event>
 6    1  0.8353100E-006  0.1307768E+03  0.7546771E-02  0.1239690E+00
          2   -1    0    0  501    0  0.00000000000E+00  0.00000000000E+00  0.35475316612E+03  0.35475316612E+03  0.00000000000E+00 0. -1.
         -2   -1    0    0    0  501 -0.00000000000E+00 -0.00000000000E+00 -0.47987941209E+02  0.47987941209E+02  0.00000000000E+00 0.  1.
          5    1    1    2  502    0 -0.22252657403E+02  0.23652448814E+02  0.23427084712E+03  0.23655768621E+03  0.47000000000E+01 0.  1.
         -5    1    1    2    0  502 -0.63850312529E+01 -0.49210667295E+02  0.29675534110E+02  0.58010220862E+02  0.47000000000E+01 0.  1.
        -11    1    1    2    0    0  0.48981278202E+02  0.48105594842E+02  0.25658881150E+02  0.73291827998E+02  0.00000000000E+00 0.  1.
         11    1    1    2    0    0 -0.20343589546E+02 -0.22547376361E+02  0.17159962529E+02  0.34881372255E+02  0.00000000000E+00 0. -1.
<mgrwt>
<rscale>  0 0.12208899E+03</rscale>
<asrwt>0</asrwt>
<pdfrwt beam="1">  1        2 0.54577409E-01 0.13077676E+03</pdfrwt>
<pdfrwt beam="2">  1       -2 0.73827604E-02 0.13077676E+03</pdfrwt>
<totfact> 0.92457255E+03</totfact>
</mgrwt>
</event>
<event>
 6    1  0.8539444E-006  0.2902699E+03  0.7546771E-02  0.1090208E+00
          1   -1    0    0  501    0  0.00000000000E+00  0.00000000000E+00  0.10812105047E+03  0.10812105047E+03  0.00000000000E+00 0. -1.
         -1   -1    0    0    0  501 -0.00000000000E+00 -0.00000000000E+00 -0.19482006592E+03  0.19482006592E+03  0.00000000000E+00 0.  1.
          5    1    1    2  502    0  0.57472991834E+02  0.77718940446E+02  0.25838303979E+02  0.10016529562E+03  0.47000000000E+01 0.  1.
         -5    1    1    2    0  502 -0.50020394646E+01  0.24038611016E+01 -0.60682281412E+02  0.61116513516E+02  0.47000000000E+01 0.  1.
        -11    1    1    2    0    0 -0.36662286350E+02 -0.14203952859E+02 -0.61697541637E+02  0.73160523244E+02  0.00000000000E+00 0.  1.
         11    1    1    2    0    0 -0.15808666019E+02 -0.65918848689E+02  0.98425036243E+01  0.68498784014E+02  0.00000000000E+00 0. -1.
<mgrwt>
<rscale>  0 0.29026988E+03</rscale>
<asrwt>0</asrwt>
<pdfrwt beam="1">  1        1 0.16634008E-01 0.29026988E+03</pdfrwt>
<pdfrwt beam="2">  1       -1 0.29972318E-01 0.29026988E+03</pdfrwt>
<totfact> 0.33174385E+03</totfact>
</mgrwt>
</event>
<event>
 6    1  0.8353100E-006  0.1602993E+03  0.7546771E-02  0.1195894E+00
         -1   -1    0    0    0  501 -0.00000000000E+00  0.00000000000E+00  0.20602425498E+03  0.20602425498E+03  0.00000000000E+00 0.  1.
          1   -1    0    0  501    0  0.00000000000E+00 -0.00000000000E+00 -0.11488330485E+03  0.11488330485E+03  0.00000000000E+00 0. -1.
          5    1    1    2  502    0  0.59888807075E+02 -0.35152624694E+02  0.15342927635E+02  0.71273218422E+02  0.47000000000E+01 0. -1.
         -5    1    1    2    0  502  0.27788641608E+02  0.83982349866E+02 -0.97744475461E+01  0.89122800204E+02  0.47000000000E+01 0. -1.
        -11    1    1    2    0    0  0.16403080136E+02 -0.23514249080E+02  0.17148144398E+02  0.33407181923E+02  0.00000000000E+00 0.  1.
         11    1    1    2    0    0 -0.10408052882E+03 -0.25315476092E+02  0.68424325636E+02  0.12710435928E+03  0.00000000000E+00 0. -1.
<mgrwt>
<rscale>  0 0.15378810E+03</rscale>
<asrwt>0</asrwt>
<pdfrwt beam="2">  1        1 0.17674355E-01 0.16029933E+03</pdfrwt>
<pdfrwt beam="1">  1       -1 0.31696039E-01 0.16029933E+03</pdfrwt>
<totfact> 0.27201731E+03</totfact>
</mgrwt>
</event>
<event>
 6    1  0.8353100E-006  0.1376545E+03  0.7546771E-02  0.1229567E+00
         -1   -1    0    0    0  501 -0.00000000000E+00  0.00000000000E+00  0.13078901411E+03  0.13078901411E+03  0.00000000000E+00 0.  1.
          1   -1    0    0  501    0  0.00000000000E+00 -0.00000000000E+00 -0.11492915894E+03  0.11492915894E+03  0.00000000000E+00 0. -1.
          5    1    1    2  502    0  0.34015203291E+02  0.27254374805E+02 -0.25148545925E+02  0.50540818781E+02  0.47000000000E+01 0.  1.
         -5    1    1    2    0  502 -0.22921432934E+02 -0.82696376725E+02  0.15991425191E+02  0.87417952909E+02  0.47000000000E+01 0.  1.
        -11    1    1    2    0    0 -0.32125139329E+02  0.35379350781E+01  0.38388723291E+02  0.50182025043E+02  0.00000000000E+00 0.  1.
         11    1    1    2    0    0  0.21031368972E+02  0.51904066842E+02 -0.13371747391E+02  0.57577376320E+02  0.00000000000E+00 0. -1.
<mgrwt>
<rscale>  0 0.12858758E+03</rscale>
<asrwt>0</asrwt>
<pdfrwt beam="2">  1        1 0.17681409E-01 0.13765453E+03</pdfrwt>
<pdfrwt beam="1">  1       -1 0.20121387E-01 0.13765453E+03</pdfrwt>
<totfact> 0.57060212E+03</totfact>
</mgrwt>
</event>
<event>
 6    1  0.8353100E-006  0.1340341E+03  0.7546771E-02  0.1235465E+00
          2   -1    0    0  501    0  0.00000000000E+00  0.00000000000E+00  0.68368064221E+03  0.68368064221E+03  0.00000000000E+00 0. -1.
         -2   -1    0    0    0  501 -0.00000000000E+00 -0.00000000000E+00 -0.33260598023E+02  0.33260598023E+02  0.00000000000E+00 0.  1.
          5    1    1    2  502    0 -0.62774112036E+02 -0.45908237788E+02  0.48720886427E+03  0.49339915166E+03  0.47000000000E+01 0. -1.
         -5    1    1    2    0  502  0.41288315012E+02  0.25689202073E+01  0.89941268615E+02  0.99110272463E+02  0.47000000000E+01 0. -1.
        -11    1    1    2    0    0  0.34906833822E+02  0.26025353391E+02 -0.43708888822E+01  0.43759693055E+02  0.00000000000E+00 0.  1.
         11    1    1    2    0    0 -0.13421036798E+02  0.17313964190E+02  0.77640800190E+02  0.80672123059E+02  0.00000000000E+00 0. -1.
<mgrwt>
<rscale>  0 0.12474730E+03</rscale>
<asrwt>0</asrwt>
<pdfrwt beam="1">  1        2 0.10518163E+00 0.13403411E+03</pdfrwt>
<pdfrwt beam="2">  1       -2 0.51170156E-02 0.13403411E+03</pdfrwt>
<totfact> 0.78373690E+03</totfact>
</mgrwt>
</event>
<event>
 6    1  0.8353100E-006  0.1381710E+03  0.7546771E-02  0.1227159E+00
          2   -1    0    0  501    0  0.00000000000E+00  0.00000000000E+00  0.23897933173E+03  0.23897933173E+03  0.00000000000E+00 0. -1.
         -2   -1    0    0    0  501 -0.00000000000E+00 -0.00000000000E+00 -0.69836210767E+02  0.69836210767E+02  0.00000000000E+00 0.  1.
          5    1    1    2  502    0 -0.69991186125E+01  0.45379147341E+02  0.11857526287E+03  0.12724165057E+03  0.47000000000E+01 0. -1.
         -5    1    1    2    0  502 -0.51611053890E+02 -0.39954317833E+02  0.19948094506E+02  0.68410999639E+02  0.47000000000E+01 0. -1.
        -11    1    1    2    0    0  0.19869065194E+02 -0.95560140126E-01  0.60672504240E+02  0.63843101853E+02  0.00000000000E+00 0. -1.
         11    1    1    2    0    0  0.38741107308E+02 -0.53292693678E+01 -0.30052740656E+02  0.49319790434E+02  0.00000000000E+00 0.  1.
<mgrwt>
<rscale>  0 0.13020007E+03</rscale>
<asrwt>0</asrwt>
<pdfrwt beam="1">  1        2 0.36766051E-01 0.13817105E+03</pdfrwt>
<pdfrwt beam="2">  1       -2 0.10744033E-01 0.13817105E+03</pdfrwt>
<totfact> 0.78706408E+03</totfact>
</mgrwt>
</event>
<event>
 6    1  0.8353100E-006  0.1719371E+03  0.7546771E-02  0.1182465E+00
         -2   -1    0    0    0  501 -0.00000000000E+00  0.00000000000E+00  0.25808496850E+02  0.25808496850E+02  0.00000000000E+00 0.  1.
          2   -1    0    0  501    0  0.00000000000E+00 -0.00000000000E+00 -0.10889129108E+04  0.10889129108E+04  0.00000000000E+00 0. -1.
          5    1    1    2  502    0 -0.11186246945E+03 -0.86008430018E+02 -0.59406415236E+03  0.61061032519E+03  0.47000000000E+01 0. -1.
         -5    1    1    2    0  502  0.84086318569E+01  0.29135910903E+02 -0.13912560980E+03  0.14246975712E+03  0.47000000000E+01 0. -1.
        -11    1    1    2    0    0  0.99474111821E+02  0.15560890645E+02 -0.18176095643E+03  0.20778422828E+03  0.00000000000E+00 0.  1.
         11    1    1    2    0    0  0.39797257747E+01  0.41311628470E+02 -0.14815369533E+03  0.15385709702E+03  0.00000000000E+00 0. -1.
<mgrwt>
<rscale>  0 0.16564708E+03</rscale>
<asrwt>0</asrwt>
<pdfrwt beam="2">  1        2 0.16752508E+00 0.17193715E+03</pdfrwt>
<pdfrwt beam="1">  1       -2 0.39705377E-02 0.17193715E+03</pdfrwt>
<totfact> 0.63381781E+03</totfact>
</mgrwt>
</event>
<event>
 6    1  0.8353100E-006  0.1194856E+03  0.7546771E-02  0.1255197E+00
         -4   -1    0    0    0  501 -0.00000000000E+00  0.00000000000E+00  0.59367322644E+02  0.59367322644E+02  0.00000000000E+00 0.  1.
          4   -1    0    0  501    0  0.00000000000E+00 -0.00000000000E+00 -0.31364490180E+03  0.31364490180E+03  0.00000000000E+00 0. -1.
          5    1    1    2  502    0  0.38590582496E+02 -0.50601963145E+02 -0.15740421996E+03  0.16984690222E+03  0.47000000000E+01 0. -1.
         -5    1    1    2    0  502 -0.33494626719E+02  0.42264062663E+02 -0.93070904927E+02  0.10766812135E+03  0.47000000000E+01 0.  1.
        -11    1    1    2    0    0 -0.36763756152E+02 -0.27935520258E+02  0.53533083256E+01  0.46482523259E+02  0.00000000000E+00 0.  1.
         11    1    1    2    0    0  0.31667800374E+02  0.36273420741E+02 -0.91557625916E+01  0.49014677612E+02  0.00000000000E+00 0. -1.
<mgrwt>
<rscale>  0 0.11295309E+03</rscale>
<asrwt>0</asrwt>
<pdfrwt beam="2">  1        4 0.48253062E-01 0.11948556E+03</pdfrwt>
<pdfrwt beam="1">  1       -4 0.91334342E-02 0.11948556E+03</pdfrwt>
<totfact> 0.59563299E+02</totfact>
</mgrwt>
</event>
<event>
 6    1  0.8353100E-006  0.2701975E+03  0.7546771E-02  0.1137986E+00
          1   -1    0    0  501    0  0.00000000000E+00  0.00000000000E+00  0.13185421242E+04  0.13185421242E+04  0.00000000000E+00 0. -1.
         -1   -1    0    0    0  501 -0.00000000000E+00 -0.00000000000E+00 -0.29543028544E+02  0.29543028544E+02  0.00000000000E+00 0.  1.
          5    1    1    2  502    0 -0.45876114262E+02  0.13966283003E+03  0.40787070970E+03  0.43357920820E+03  0.47000000000E+01 0. -1.
         -5    1    1    2    0  502  0.40829428646E+01 -0.10136870221E+03  0.66936637434E+03  0.67702711711E+03  0.47000000000E+01 0.  1.
        -11    1    1    2    0    0  0.29260546809E+02  0.26371641417E+02  0.10363301571E+03  0.11086678951E+03  0.00000000000E+00 0. -1.
         11    1    1    2    0    0  0.12532624588E+02 -0.64665769237E+02  0.10812899587E+03  0.12661203789E+03  0.00000000000E+00 0.  1.
<mgrwt>
<rscale>  0 0.21458434E+03</rscale>
<asrwt>0</asrwt>
<pdfrwt beam="1">  1        1 0.20285259E+00 0.27019747E+03</pdfrwt>
<pdfrwt beam="2">  1       -1 0.45450823E-02 0.27019747E+03</pdfrwt>
<totfact> 0.19252411E+03</totfact>
</mgrwt>
</event>
<event>
 6    1  0.8353100E-006  0.5733906E+03  0.7546771E-02  0.9962204E-01
          2   -1    0    0  501    0  0.00000000000E+00  0.00000000000E+00  0.17423989664E+04  0.17423989664E+04  0.00000000000E+00 0. -1.
         -2   -1    0    0    0  501 -0.00000000000E+00 -0.00000000000E+00 -0.47173002756E+02  0.47173002756E+02  0.00000000000E+00 0.  1.
          5    1    1    2  502    0 -0.10661409886E+03 -0.65115457950E+02  0.14052575144E+04  0.14108073436E+04  0.47000000000E+01 0. -1.
         -5    1    1    2    0  502  0.21836104718E+02 -0.30278550246E+01  0.32483897635E+01  0.22773348708E+02  0.47000000000E+01 0.  1.
        -11    1    1    2    0    0 -0.55193108453E+02  0.73594230329E+01  0.10366466126E+03  0.11767243655E+03  0.00000000000E+00 0.  1.
         11    1    1    2    0    0  0.13997110259E+03  0.60783889942E+02  0.18305539826E+03  0.23831884035E+03  0.00000000000E+00 0. -1.
<mgrwt>
<rscale>  0 0.57339059E+03</rscale>
<asrwt>0</asrwt>
<pdfrwt beam="1">  1        2 0.26806133E+00 0.57339059E+03</pdfrwt>
<pdfrwt beam="2">  1       -2 0.72573864E-02 0.57339059E+03</pdfrwt>
<totfact> 0.10955712E+03</totfact>
</mgrwt>
</event>
<event>
 6    1  0.8353100E-006  0.1453343E+03  0.7546771E-02  0.1216913E+00
         -2   -1    0    0    0  501 -0.00000000000E+00  0.00000000000E+00  0.14600388456E+02  0.14600388456E+02  0.00000000000E+00 0.  1.
          2   -1    0    0  501    0  0.00000000000E+00 -0.00000000000E+00 -0.13680272074E+04  0.13680272074E+04  0.00000000000E+00 0. -1.
          5    1    1    2  502    0 -0.10365767645E+02  0.54483093613E+02 -0.55951905551E+03  0.56228064177E+03  0.47000000000E+01 0. -1.
         -5    1    1    2    0  502 -0.63982924848E+02 -0.52808652794E+02 -0.44411859413E+03  0.45182516988E+03  0.47000000000E+01 0. -1.
        -11    1    1    2    0    0  0.84584043057E+02  0.15324284365E+02 -0.32788797878E+03  0.33896876060E+03  0.00000000000E+00 0. -1.
         11    1    1    2    0    0 -0.10235350564E+02 -0.16998725183E+02 -0.21901190561E+02  0.29553023653E+02  0.00000000000E+00 0.  1.
<mgrwt>
<rscale>  0 0.13736940E+03</rscale>
<asrwt>0</asrwt>
<pdfrwt beam="2">  1        2 0.21046574E+00 0.14533432E+03</pdfrwt>
<pdfrwt beam="1">  1       -2 0.22462135E-02 0.14533432E+03</pdfrwt>
<totfact> 0.10219094E+04</totfact>
</mgrwt>
</event>
<event>
 6    1  0.8353100E-006  0.1354511E+03  0.7546771E-02  0.1231926E+00
          1   -1    0    0  501    0  0.00000000000E+00  0.00000000000E+00  0.15539230234E+04  0.15539230234E+04  0.00000000000E+00 0. -1.
         -1   -1    0    0    0  501 -0.00000000000E+00 -0.00000000000E+00 -0.11055488269E+02  0.11055488269E+02  0.00000000000E+00 0.  1.
          5    1    1    2  502    0  0.75617221584E+02 -0.29486103244E+02  0.48063946701E+03  0.48746669808E+03  0.47000000000E+01 0.  1.
         -5    1    1    2    0  502 -0.23439572814E+02  0.28737884030E+02  0.68443943862E+03  0.68545949165E+03  0.47000000000E+01 0.  1.
        -11    1    1    2    0    0  0.10285063519E+01  0.26247704765E+02  0.32640249506E+02  0.41897323525E+02  0.00000000000E+00 0.  1.
         11    1    1    2    0    0 -0.53206155121E+02 -0.25499485552E+02  0.34514838000E+03  0.35015499842E+03  0.00000000000E+00 0. -1.
<mgrwt>
<rscale>  0 0.12703282E+03</rscale>
<asrwt>0</asrwt>
<pdfrwt beam="1">  1        1 0.23906491E+00 0.13545106E+03</pdfrwt>
<pdfrwt beam="2">  1       -1 0.17008456E-02 0.13545106E+03</pdfrwt>
<totfact> 0.56260127E+03</totfact>
</mgrwt>
</event>
<event>
 6    1  0.8353100E-006  0.1409870E+03  0.7546771E-02  0.1222037E+00
          1   -1    0    0  501    0  0.00000000000E+00  0.00000000000E+00  0.45231595670E+03  0.45231595670E+03  0.00000000000E+00 0. -1.
         -1   -1    0    0    0  501 -0.00000000000E+00 -0.00000000000E+00 -0.36430508954E+02  0.36430508954E+02  0.00000000000E+00 0.  1.
          5    1    1    2  502    0  0.21056604720E+02  0.63641617263E+02  0.86451939988E+02  0.10949732407E+03  0.47000000000E+01 0.  1.
         -5    1    1    2    0  502 -0.70144178876E+02 -0.20757085040E+02  0.11558830140E+03  0.13687150116E+03  0.47000000000E+01 0.  1.
        -11    1    1    2    0    0  0.23998234927E+02 -0.12432534933E+02  0.22342262822E+01  0.27119641803E+02  0.00000000000E+00 0.  1.
         11    1    1    2    0    0  0.25089339229E+02 -0.30451997291E+02  0.21161098008E+03  0.21525799863E+03  0.00000000000E+00 0. -1.
<mgrwt>
<rscale>  0 0.13372076E+03</rscale>
<asrwt>0</asrwt>
<pdfrwt beam="1">  1        1 0.69587066E-01 0.14098702E+03</pdfrwt>
<pdfrwt beam="2">  1       -1 0.56046940E-02 0.14098702E+03</pdfrwt>
<totfact> 0.73258234E+03</totfact>
</mgrwt>
</event>
<event>
 6    1  0.8353100E-006  0.1346407E+03  0.7546771E-02  0.1233292E+00
          2   -1    0    0  501    0  0.00000000000E+00  0.00000000000E+00  0.13473018614E+03  0.13473018614E+03  0.00000000000E+00 0.  1.
         -2   -1    0    0    0  501 -0.00000000000E+00 -0.00000000000E+00 -0.13963309946E+03  0.13963309946E+03  0.00000000000E+00 0. -1.
          5    1    1    2  502    0 -0.26416327617E+02 -0.56354093395E+02  0.10525336056E+02  0.63296752731E+02  0.47000000000E+01 0.  1.
         -5    1    1    2    0  502  0.62925574273E+02  0.22172635480E+02  0.54233641910E+02  0.86108254985E+02  0.47000000000E+01 0.  1.
        -11    1    1    2    0    0 -0.49548462045E+02  0.17015751037E+02 -0.84050540788E+02  0.99040796044E+02  0.00000000000E+00 0. -1.
         11    1    1    2    0    0  0.13039215389E+02  0.17165706879E+02  0.14388649504E+02  0.25917481844E+02  0.00000000000E+00 0.  1.
<mgrwt>
<rscale>  0 0.12614440E+03</rscale>
<asrwt>0</asrwt>
<pdfrwt beam="1">  1        2 0.20727721E-01 0.13464075E+03</pdfrwt>
<pdfrwt beam="2">  1       -2 0.21482015E-01 0.13464075E+03</pdfrwt>
<totfact> 0.47233106E+03</totfact>
</mgrwt>
</event>
<event>
 6    1  0.8353100E-006  0.1436613E+03  0.7546771E-02  0.1217734E+00
          2   -1    0    0  501    0  0.00000000000E+00  0.00000000000E+00  0.55506057764E+02  0.55506057764E+02  0.00000000000E+00 0. -1.
         -2   -1    0    0    0  501 -0.00000000000E+00 -0.00000000000E+00 -0.30848031759E+03  0.30848031759E+03  0.00000000000E+00 0.  1.
          5    1    1    2  502    0  0.43385752276E+02  0.38647327057E+01 -0.46846866573E+02  0.64140303766E+02  0.47000000000E+01 0.  1.
         -5    1    1    2    0  502 -0.72292977553E+02 -0.68521087715E+02 -0.93392762614E+02  0.13662251708E+03  0.47000000000E+01 0.  1.
        -11    1    1    2    0    0  0.27522105979E+02  0.40621607354E+02 -0.12636582173E+03  0.13555774490E+03  0.00000000000E+00 0.  1.
         11    1    1    2    0    0  0.13851192977E+01  0.24034747656E+02  0.13631191093E+02  0.27665809602E+02  0.00000000000E+00 0. -1.
<mgrwt>
<rscale>  0 0.13677593E+03</rscale>
<asrwt>0</asrwt>
<pdfrwt beam="1">  1        2 0.85393934E-02 0.14366126E+03</pdfrwt>
<pdfrwt beam="2">  1       -2 0.47458511E-01 0.14366126E+03</pdfrwt>
<totfact> 0.32058981E+03</totfact>
</mgrwt>
</event>
<event>
 6    1  0.8353100E-006  0.1341593E+03  0.7546771E-02  0.1233898E+00
         -2   -1    0    0    0  501 -0.00000000000E+00  0.00000000000E+00  0.25724984008E+02  0.25724984008E+02  0.00000000000E+00 0.  1.
          2   -1    0    0  501    0  0.00000000000E+00 -0.00000000000E+00 -0.59910660261E+03  0.59910660261E+03  0.00000000000E+00 0. -1.
          5    1    1    2  502    0 -0.81046689827E+01  0.72070702856E+02 -0.39559788776E+03  0.40221841165E+03  0.47000000000E+01 0. -1.
         -5    1    1    2    0  502 -0.33324468561E+01 -0.24709886904E+02 -0.14406606912E+02  0.29177457661E+02  0.47000000000E+01 0. -1.
        -11    1    1    2    0    0  0.47140900763E+01  0.19424071427E+02 -0.38401647209E+01  0.20353477863E+02  0.00000000000E+00 0.  1.
         11    1    1    2    0    0  0.67230257625E+01 -0.66784887379E+02 -0.15953695921E+03  0.17308223944E+03  0.00000000000E+00 0. -1.
<mgrwt>
<rscale>  0 0.12575251E+03</rscale>
<asrwt>0</asrwt>
<pdfrwt beam="2">  1        2 0.92170246E-01 0.13415927E+03</pdfrwt>
<pdfrwt beam="1">  1       -2 0.39576899E-02 0.13415927E+03</pdfrwt>
<totfact> 0.13402093E+04</totfact>
</mgrwt>
</event>
<event>
 6    1  0.8353100E-006  0.1266291E+03  0.7546771E-02  0.1247604E+00
          2   -1    0    0  501    0  0.00000000000E+00  0.00000000000E+00  0.31549463233E+03  0.31549463233E+03  0.00000000000E+00 0. -1.
         -2   -1    0    0    0  501 -0.00000000000E+00 -0.00000000000E+00 -0.59527842725E+02  0.59527842725E+02  0.00000000000E+00 0.  1.
          5    1    1    2  502    0  0.19437025449E+02 -0.72380659222E+00 -0.73313387286E+01  0.21311038967E+02  0.47000000000E+01 0.  1.
         -5    1    1    2    0  502 -0.16936681492E+02  0.20805948601E+02  0.25891348457E+03  0.26034212331E+03  0.47000000000E+01 0.  1.
        -11    1    1    2    0    0 -0.36092331580E+02 -0.21186429115E+02  0.29677274187E+02  0.51305572608E+02  0.00000000000E+00 0. -1.
         11    1    1    2    0    0  0.33591987623E+02  0.11042871056E+01 -0.25292630430E+02  0.42063740164E+02  0.00000000000E+00 0.  1.
<mgrwt>
<rscale>  0 0.11730900E+03</rscale>
<asrwt>0</asrwt>
<pdfrwt beam="1">  1        2 0.48537635E-01 0.12662910E+03</pdfrwt>
<pdfrwt beam="2">  1       -2 0.91581298E-02 0.12662910E+03</pdfrwt>
<totfact> 0.74859852E+03</totfact>
</mgrwt>
</event>
<event>
 6    1  0.8353100E-006  0.1283809E+03  0.7546771E-02  0.1241520E+00
         -1   -1    0    0    0  501 -0.00000000000E+00  0.00000000000E+00  0.14754909933E+02  0.14754909933E+02  0.00000000000E+00 0.  1.
          1   -1    0    0  501    0  0.00000000000E+00 -0.00000000000E+00 -0.11714513934E+04  0.11714513934E+04  0.00000000000E+00 0. -1.
          5    1    1    2  502    0  0.25312095558E+02 -0.20527525019E+02 -0.88235311805E+03  0.88296726802E+03  0.47000000000E+01 0. -1.
         -5    1    1    2    0  502 -0.17439715102E+02 -0.18446914612E+02 -0.35912693073E+02  0.44229445455E+02  0.47000000000E+01 0.  1.
        -11    1    1    2    0    0  0.27008929818E+02  0.53548031324E+02 -0.11198100926E+03  0.12702999797E+03  0.00000000000E+00 0.  1.
         11    1    1    2    0    0 -0.34881310274E+02 -0.14573591694E+02 -0.12644966307E+03  0.13197959188E+03  0.00000000000E+00 0. -1.
<mgrwt>
<rscale>  0 0.12096108E+03</rscale>
<asrwt>0</asrwt>
<pdfrwt beam="2">  1        1 0.18022333E+00 0.12838086E+03</pdfrwt>
<pdfrwt beam="1">  1       -1 0.22699857E-02 0.12838086E+03</pdfrwt>
<totfact> 0.66355368E+03</totfact>
</mgrwt>
</event>
<event>
 6    1  0.8353100E-006  0.1290913E+03  0.7546771E-02  0.1243143E+00
         -1   -1    0    0    0  501 -0.00000000000E+00  0.00000000000E+00  0.37928164940E+03  0.37928164940E+03  0.00000000000E+00 0.  1.
          1   -1    0    0  501    0  0.00000000000E+00 -0.00000000000E+00 -0.37869362476E+02  0.37869362476E+02  0.00000000000E+00 0. -1.
          5    1    1    2  502    0 -0.44082335947E+02 -0.25878926735E+02 -0.94888604392E+00  0.51341616417E+02  0.47000000000E+01 0.  1.
         -5    1    1    2    0  502  0.11844885514E+02  0.25308420100E+02  0.12331701100E+03  0.12653059963E+03  0.47000000000E+01 0.  1.
        -11    1    1    2    0    0  0.28011319222E+02  0.27041461799E+02  0.20566761522E+03  0.20932043046E+03  0.00000000000E+00 0.  1.
         11    1    1    2    0    0  0.42261312108E+01 -0.26470955164E+02  0.13376546751E+02  0.29958365364E+02  0.00000000000E+00 0. -1.
<mgrwt>
<rscale>  0 0.11997234E+03</rscale>
<asrwt>0</asrwt>
<pdfrwt beam="2">  1        1 0.58260560E-02 0.12909131E+03</pdfrwt>
<pdfrwt beam="1">  1       -1 0.58351020E-01 0.12909131E+03</pdfrwt>
<totfact> 0.39446588E+03</totfact>
</mgrwt>
</event>
<event>
 6    1  0.8353100E-006  0.1488392E+03  0.7546771E-02  0.1210850E+00
         -2   -1    0    0    0  501 -0.00000000000E+00  0.00000000000E+00  0.81311279640E+02  0.81311279640E+02  0.00000000000E+00 0.  1.
          2   -1    0    0  501    0  0.00000000000E+00 -0.00000000000E+00 -0.23750955653E+03  0.23750955653E+03  0.00000000000E+00 0. -1.
          5    1    1    2  502    0 -0.29851537222E+02 -0.73061123286E+01 -0.53533310097E+02  0.61906371577E+02  0.47000000000E+01 0. -1.
         -5    1    1    2    0  502  0.11056329126E+03  0.37353230655E+01 -0.65256683117E+02  0.12852516759E+03  0.47000000000E+01 0. -1.
        -11    1    1    2    0    0 -0.91041155594E+02  0.44760039269E+01 -0.16585646059E+01  0.91166207882E+02  0.00000000000E+00 0.  1.
         11    1    1    2    0    0  0.10329401557E+02 -0.90521466385E+00 -0.35749719071E+02  0.37223089122E+02  0.00000000000E+00 0. -1.
<mgrwt>
<rscale>  0 0.14185810E+03</rscale>
<asrwt>0</asrwt>
<pdfrwt beam="2">  1        2 0.36539931E-01 0.14883920E+03</pdfrwt>
<pdfrwt beam="1">  1       -2 0.12509428E-01 0.14883920E+03</pdfrwt>
<totfact> 0.62475900E+03</totfact>
</mgrwt>
</event>
<event>
 6    1  0.8353100E-006  0.2990370E+03  0.7546771E-02  0.1087291E+00
          2   -1    0    0  501    0  0.00000000000E+00  0.00000000000E+00  0.11110957063E+04  0.11110957063E+04  0.00000000000E+00 0. -1.
         -2   -1    0    0    0  501 -0.00000000000E+00 -0.00000000000E+00 -0.80303731026E+02  0.80303731026E+02  0.00000000000E+00 0.  1.
          5    1    1    2  502    0  0.22252047595E+03 -0.15864904701E+03  0.53659419625E+03  0.60219623362E+03  0.47000000000E+01 0. -1.
         -5    1    1    2    0  502  0.43648295645E+01  0.92536092359E+01  0.10570740578E+03  0.10630534633E+03  0.47000000000E+01 0. -1.
        -11    1    1    2    0    0 -0.89890781051E+02  0.28412156847E+02  0.19580978443E+03  0.21732251346E+03  0.00000000000E+00 0. -1.
         11    1    1    2    0    0 -0.13699452447E+03  0.12098328093E+03  0.19268058883E+03  0.26557534394E+03  0.00000000000E+00 0.  1.
<mgrwt>
<rscale>  0 0.29593476E+03</rscale>
<asrwt>0</asrwt>
<pdfrwt beam="1">  1        2 0.17093779E+00 0.29903702E+03</pdfrwt>
<pdfrwt beam="2">  1       -2 0.12354421E-01 0.29903702E+03</pdfrwt>
<totfact> 0.10614187E+03</totfact>
</mgrwt>
</event>
<event>
 6    1  0.8353100E-006  0.1415105E+03  0.7546771E-02  0.1221664E+00
         -1   -1    0    0    0  501 -0.00000000000E+00  0.00000000000E+00  0.17966832792E+03  0.17966832792E+03  0.00000000000E+00 0.  1.
          1   -1    0    0  501    0  0.00000000000E+00 -0.00000000000E+00 -0.94544769591E+02  0.94544769591E+02  0.00000000000E+00 0. -1.
          5    1    1    2  502    0  0.48650620124E+02 -0.70524217013E+01 -0.47247526914E+02  0.68344994621E+02  0.47000000000E+01 0.  1.
         -5    1    1    2    0  502  0.13504240425E+02  0.30230474656E+02  0.66544931315E+02  0.74475257577E+02  0.47000000000E+01 0.  1.
        -11    1    1    2    0    0 -0.75900506937E+02 -0.43088272683E+01  0.74545209217E+02  0.10647272497E+03  0.00000000000E+00 0.  1.
         11    1    1    2    0    0  0.13745646388E+02 -0.18869225686E+02 -0.87190552905E+01  0.24920120340E+02  0.00000000000E+00 0. -1.
<mgrwt>
<rscale>  0 0.13398174E+03</rscale>
<asrwt>0</asrwt>
<pdfrwt beam="2">  1        1 0.14545349E-01 0.14151055E+03</pdfrwt>
<pdfrwt beam="1">  1       -1 0.27641281E-01 0.14151055E+03</pdfrwt>
<totfact> 0.43764259E+03</totfact>
</mgrwt>
</event>
<event>
 6    1  0.8353100E-006  0.1516124E+03  0.7546771E-02  0.1207326E+00
          2   -1    0    0  501    0  0.00000000000E+00  0.00000000000E+00  0.64533371450E+03  0.64533371450E+03  0.00000000000E+00 0. -1.
         -2   -1    0    0    0  501 -0.00000000000E+00 -0.00000000000E+00 -0.30473263604E+02  0.30473263604E+02  0.00000000000E+00 0.  1.
          5    1    1    2  502    0  0.71433343570E+02 -0.55422284140E+02  0.23126374985E+03  0.24835330509E+03  0.47000000000E+01 0. -1.
         -5    1    1    2    0  502  0.14283330227E+02  0.59195627739E+02  0.15803299595E+03  0.16942447779E+03  0.47000000000E+01 0. -1.
        -11    1    1    2    0    0 -0.21564314113E+02 -0.29096169914E+02  0.15570334622E+03  0.15985974719E+03  0.00000000000E+00 0. -1.
         11    1    1    2    0    0 -0.64152359684E+02  0.25322826316E+02  0.69860358867E+02  0.98169448030E+02  0.00000000000E+00 0.  1.
<mgrwt>
<rscale>  0 0.14455688E+03</rscale>
<asrwt>0</asrwt>
<pdfrwt beam="1">  1        2 0.99282100E-01 0.15161240E+03</pdfrwt>
<pdfrwt beam="2">  1       -2 0.46881949E-02 0.15161240E+03</pdfrwt>
<totfact> 0.96334677E+03</totfact>
</mgrwt>
</event>
<event>
 6    1  0.8353100E-006  0.1324213E+03  0.7546771E-02  0.1235714E+00
         -1   -1    0    0    0  501 -0.00000000000E+00  0.00000000000E+00  0.11827370610E+02  0.11827370610E+02  0.00000000000E+00 0.  1.
          1   -1    0    0  501    0  0.00000000000E+00 -0.00000000000E+00 -0.12659792098E+04  0.12659792098E+04  0.00000000000E+00 0. -1.
          5    1    1    2  502    0  0.52865248065E+01 -0.24836928588E+02 -0.84888821494E+03  0.84928093810E+03  0.47000000000E+01 0.  1.
         -5    1    1    2    0  502  0.11000432523E+02 -0.15716806302E+02 -0.15273803922E+02  0.24968111708E+02  0.47000000000E+01 0.  1.
        -11    1    1    2    0    0  0.35855121840E+02  0.36446142721E+02 -0.20892402274E+03  0.21508872206E+03  0.00000000000E+00 0.  1.
         11    1    1    2    0    0 -0.52142079169E+02  0.41075921698E+01 -0.18106579760E+03  0.18846880854E+03  0.00000000000E+00 0. -1.
<mgrwt>
<rscale>  0 0.12458862E+03</rscale>
<asrwt>0</asrwt>
<pdfrwt beam="2">  1        1 0.19476604E+00 0.13242132E+03</pdfrwt>
<pdfrwt beam="1">  1       -1 0.18195954E-02 0.13242132E+03</pdfrwt>
<totfact> 0.78828210E+03</totfact>
</mgrwt>
</event>
<event>
 6    1  0.8353100E-006  0.2507282E+03  0.7546771E-02  0.1112845E+00
         -2   -1    0    0    0  501 -0.00000000000E+00  0.00000000000E+00  0.92581156514E+02  0.92581156514E+02  0.00000000000E+00 0.  1.
          2   -1    0    0  501    0  0.00000000000E+00 -0.00000000000E+00 -0.16975543850E+03  0.16975543850E+03  0.00000000000E+00 0. -1.
          5    1    1    2  502    0 -0.52293876258E+01  0.81380707363E+01  0.32860794463E+02  0.34575952669E+02  0.47000000000E+01 0. -1.
         -5    1    1    2    0  502 -0.25135093251E+02  0.24714235133E+02 -0.11776774085E+03  0.12301990536E+03  0.47000000000E+01 0. -1.
        -11    1    1    2    0    0  0.16597317178E+02  0.30004068675E+02 -0.13691942655E+02  0.36921326740E+02  0.00000000000E+00 0. -1.
         11    1    1    2    0    0  0.13767163698E+02 -0.62856374544E+02  0.21424607061E+02  0.67819410236E+02  0.00000000000E+00 0.  1.
<mgrwt>
<rscale>  0 0.25072818E+03</rscale>
<asrwt>0</asrwt>
<pdfrwt beam="2">  1        2 0.26116221E-01 0.25072818E+03</pdfrwt>
<pdfrwt beam="1">  1       -2 0.14243255E-01 0.25072818E+03</pdfrwt>
<totfact> 0.75338562E+03</totfact>
</mgrwt>
</event>
<event>
 6    1  0.8353100E-006  0.1596996E+03  0.7546771E-02  0.1198213E+00
         -1   -1    0    0    0  501 -0.00000000000E+00  0.00000000000E+00  0.83954019714E+02  0.83954019714E+02  0.00000000000E+00 0.  1.
          1   -1    0    0  501    0  0.00000000000E+00 -0.00000000000E+00 -0.30378276755E+03  0.30378276755E+03  0.00000000000E+00 0. -1.
          5    1    1    2  502    0 -0.63764604164E+01  0.94759838242E+02 -0.89867076969E+02  0.13083679801E+03  0.47000000000E+01 0. -1.
         -5    1    1    2    0  502  0.29998215354E+01 -0.59158988935E+02 -0.10972843897E+03  0.12478463535E+03  0.47000000000E+01 0.  1.
        -11    1    1    2    0    0  0.22774994807E+02  0.33639409623E+02 -0.40545177889E+02  0.57395310943E+02  0.00000000000E+00 0. -1.
         11    1    1    2    0    0 -0.19398355926E+02 -0.69240258930E+02  0.20311945992E+02  0.74720042956E+02  0.00000000000E+00 0.  1.
<mgrwt>
<rscale>  0 0.15185450E+03</rscale>
<asrwt>0</asrwt>
<pdfrwt beam="2">  1        1 0.46735811E-01 0.15969955E+03</pdfrwt>
<pdfrwt beam="1">  1       -1 0.12916003E-01 0.15969955E+03</pdfrwt>
<totfact> 0.34260840E+03</totfact>
</mgrwt>
</event>
<event>
 6    1  0.8353100E-006  0.1782493E+03  0.7546771E-02  0.1174917E+00
         -1   -1    0    0    0  501 -0.00000000000E+00  0.00000000000E+00  0.10565214946E+03  0.10565214946E+03  0.00000000000E+00 0.  1.
          1   -1    0    0  501    0  0.00000000000E+00 -0.00000000000E+00 -0.27144730179E+03  0.27144730179E+03  0.00000000000E+00 0. -1.
          5    1    1    2  502    0  0.30347528720E+02 -0.12541428664E+03 -0.65136411860E+02  0.14461866388E+03  0.47000000000E+01 0. -1.
         -5    1    1    2    0  502  0.41236301462E+02  0.20382371925E+02 -0.47210352499E+02  0.66081623971E+02  0.47000000000E+01 0. -1.
        -11    1    1    2    0    0 -0.48900627120E+02  0.11529820562E+03 -0.62421232535E+02  0.13993340496E+03  0.00000000000E+00 0. -1.
         11    1    1    2    0    0 -0.22683203061E+02 -0.10266290906E+02  0.89728445658E+01  0.26465758438E+02  0.00000000000E+00 0.  1.
<mgrwt>
<rscale>  0 0.17284119E+03</rscale>
<asrwt>0</asrwt>
<pdfrwt beam="2">  1        1 0.41761123E-01 0.17824931E+03</pdfrwt>
<pdfrwt beam="1">  1       -1 0.16254177E-01 0.17824931E+03</pdfrwt>
<totfact> 0.27584063E+03</totfact>
</mgrwt>
</event>
<event>
 6    1  0.8353100E-006  0.3656926E+03  0.7546771E-02  0.1056352E+00
         -1   -1    0    0    0  501 -0.00000000000E+00  0.00000000000E+00  0.96607008721E+02  0.96607008721E+02  0.00000000000E+00 0.  1.
          1   -1    0    0  501    0  0.00000000000E+00 -0.00000000000E+00 -0.34606973818E+03  0.34606973818E+03  0.00000000000E+00 0. -1.
          5    1    1    2  502    0 -0.80418327685E+02 -0.68147607326E+02 -0.22908799539E+03  0.25221935581E+03  0.47000000000E+01 0.  1.
         -5    1    1    2    0  502  0.78568701883E+00 -0.30319972102E+02  0.78641733129E+01  0.31683643008E+02  0.47000000000E+01 0.  1.
        -11    1    1    2    0    0  0.45236697009E+02  0.16660323144E+02  0.25995586017E+02  0.54769477046E+02  0.00000000000E+00 0.  1.
         11    1    1    2    0    0  0.34395943657E+02  0.81807256284E+02 -0.54234493402E+02  0.10400427104E+03  0.00000000000E+00 0. -1.
<mgrwt>
<rscale>  0 0.36569256E+03</rscale>
<asrwt>0</asrwt>
<pdfrwt beam="2">  1        1 0.53241498E-01 0.36569256E+03</pdfrwt>
<pdfrwt beam="1">  1       -1 0.14862617E-01 0.36569256E+03</pdfrwt>
<totfact> 0.23906280E+03</totfact>
</mgrwt>
</event>
<event>
 6    1  0.8353100E-006  0.1884238E+03  0.7546771E-02  0.1164439E+00
          2   -1    0    0  501    0  0.00000000000E+00  0.00000000000E+00  0.19776615611E+04  0.19776615611E+04  0.00000000000E+00 0. -1.
         -2   -1    0    0    0  501 -0.00000000000E+00 -0.00000000000E+00 -0.17885610651E+02  0.17885610651E+02  0.00000000000E+00 0.  1.
          5    1    1    2  502    0 -0.51273543789E+02 -0.35167140446E+02  0.83433358658E+03  0.83666022241E+03  0.47000000000E+01 0.  1.
         -5    1    1    2    0  502 -0.88041934559E+02  0.56886001881E+02  0.49821209697E+03  0.50914122110E+03  0.47000000000E+01 0.  1.
        -11    1    1    2    0    0  0.33761367675E+02 -0.88278900770E+01  0.40514929410E+02  0.53471684989E+02  0.00000000000E+00 0.  1.
         11    1    1    2    0    0  0.10555411067E+03 -0.12890971359E+02  0.58671533752E+03  0.59627404329E+03  0.00000000000E+00 0. -1.
<mgrwt>
<rscale>  0 0.18352057E+03</rscale>
<asrwt>0</asrwt>
<pdfrwt beam="1">  1        2 0.30425545E+00 0.18842380E+03</pdfrwt>
<pdfrwt beam="2">  1       -2 0.27516340E-02 0.18842380E+03</pdfrwt>
<totfact> 0.36762558E+03</totfact>
</mgrwt>
</event>
<event>
 6    1  0.8353100E-006  0.1391088E+03  0.7546771E-02  0.1225608E+00
          1   -1    0    0  501    0  0.00000000000E+00  0.00000000000E+00  0.61566216838E+02  0.61566216838E+02  0.00000000000E+00 0.  1.
         -1   -1    0    0    0  501 -0.00000000000E+00 -0.00000000000E+00 -0.26142542559E+03  0.26142542559E+03  0.00000000000E+00 0. -1.
          5    1    1    2  502    0 -0.35475031560E+02 -0.35702556635E+01 -0.93789502674E+02  0.10044792383E+03  0.47000000000E+01 0. -1.
         -5    1    1    2    0  502  0.89015837876E+01  0.58620066936E+02  0.12349696852E+02  0.60746649733E+02  0.47000000000E+01 0. -1.
        -11    1    1    2    0    0  0.38247531875E+02 -0.68527614526E+02 -0.54779241788E+02  0.95706180459E+02  0.00000000000E+00 0. -1.
         11    1    1    2    0    0 -0.11674084103E+02  0.13477803254E+02 -0.63640161146E+02  0.66090888410E+02  0.00000000000E+00 0.  1.
<mgrwt>
<rscale>  0 0.13125349E+03</rscale>
<asrwt>0</asrwt>
<pdfrwt beam="1">  1        1 0.94717257E-02 0.13910877E+03</pdfrwt>
<pdfrwt beam="2">  1       -1 0.40219296E-01 0.13910877E+03</pdfrwt>
<totfact> 0.40516142E+03</totfact>
</mgrwt>
</event>
<event>
 6    1  0.8353100E-006  0.1792008E+03  0.7546771E-02  0.1174201E+00
         -4   -1    0    0    0  501 -0.00000000000E+00  0.00000000000E+00  0.13531514965E+03  0.13531514965E+03  0.00000000000E+00 0.  1.
          4   -1    0    0  501    0  0.00000000000E+00 -0.00000000000E+00 -0.20981895068E+03  0.20981895068E+03  0.00000000000E+00 0. -1.
          5    1    1    2  502    0 -0.72248144704E+02 -0.43918397935E+02 -0.51626548089E+02  0.99176663373E+02  0.47000000000E+01 0.  1.
         -5    1    1    2    0  502 -0.54293064018E+02  0.65719654054E+02  0.64891854284E+01  0.85621313100E+02  0.47000000000E+01 0.  1.
        -11    1    1    2    0    0  0.86224947822E+02 -0.45754927686E+02  0.11299237624E+02  0.98264580624E+02  0.00000000000E+00 0.  1.
         11    1    1    2    0    0  0.40316260900E+02  0.23953671567E+02 -0.40665676000E+02  0.62071543231E+02  0.00000000000E+00 0. -1.
<mgrwt>
<rscale>  0 0.17354431E+03</rscale>
<asrwt>0</asrwt>
<pdfrwt beam="2">  1        4 0.32279839E-01 0.17920076E+03</pdfrwt>
<pdfrwt beam="1">  1       -4 0.20817715E-01 0.17920076E+03</pdfrwt>
<totfact> 0.33873425E+02</totfact>
</mgrwt>
</event>
<event>
 6    1  0.8353100E-006  0.1817718E+03  0.7546771E-02  0.1174570E+00
          1   -1    0    0  501    0  0.00000000000E+00  0.00000000000E+00  0.70300575819E+03  0.70300575819E+03  0.00000000000E+00 0. -1.
         -1   -1    0    0    0  501 -0.00000000000E+00 -0.00000000000E+00 -0.92222206659E+02  0.92222206659E+02  0.00000000000E+00 0.  1.
          5    1    1    2  502    0 -0.59988718174E+02 -0.82358458479E+02  0.39707455952E+03  0.40996567882E+03  0.47000000000E+01 0. -1.
         -5    1    1    2    0  502 -0.55455814746E+02  0.54387437702E+02  0.22201879810E+03  0.23526108365E+03  0.47000000000E+01 0.  1.
        -11    1    1    2    0    0  0.11607366407E+03  0.14926770593E+02  0.20091188738E+02  0.11874156743E+03  0.00000000000E+00 0.  1.
         11    1    1    2    0    0 -0.62913115217E+00  0.13044250184E+02 -0.28400994838E+02  0.31259634941E+02  0.00000000000E+00 0. -1.
<mgrwt>
<rscale>  0 0.17318159E+03</rscale>
<asrwt>0</asrwt>
<pdfrwt beam="1">  1        1 0.10815473E+00 0.18177181E+03</pdfrwt>
<pdfrwt beam="2">  1       -1 0.14188032E-01 0.18177181E+03</pdfrwt>
<totfact> 0.98621174E+02</totfact>
</mgrwt>
</event>
<event>
 6    1  0.8353100E-006  0.1345516E+03  0.7546771E-02  0.1233010E+00
         -4   -1    0    0    0  501 -0.00000000000E+00  0.00000000000E+00  0.66426873190E+02  0.66426873190E+02  0.00000000000E+00 0.  1.
          4   -1    0    0  501    0  0.00000000000E+00 -0.00000000000E+00 -0.24958248992E+03  0.24958248992E+03  0.00000000000E+00 0. -1.
          5    1    1    2  502    0 -0.45193581782E+02  0.20257882953E+02 -0.46811055675E+02  0.68309637603E+02  0.47000000000E+01 0. -1.
         -5    1    1    2    0  502  0.45511550933E+02 -0.70048477746E+02 -0.11295400633E+03  0.14056595623E+03  0.47000000000E+01 0. -1.
        -11    1    1    2    0    0  0.20566484267E+02  0.32742108370E+02 -0.53954661492E+02  0.66378697128E+02  0.00000000000E+00 0. -1.
         11    1    1    2    0    0 -0.20884453418E+02  0.17048486424E+02  0.30564106768E+02  0.40755072156E+02  0.00000000000E+00 0.  1.
<mgrwt>
<rscale>  0 0.12632719E+03</rscale>
<asrwt>0</asrwt>
<pdfrwt beam="2">  1        4 0.38397306E-01 0.13455162E+03</pdfrwt>
<pdfrwt beam="1">  1       -4 0.10219519E-01 0.13455162E+03</pdfrwt>
<totfact> 0.79622276E+02</totfact>
</mgrwt>
</event>
<event>
 6    1  0.8353100E-006  0.1368969E+03  0.7546771E-02  0.1238039E+00
         -1   -1    0    0    0  501 -0.00000000000E+00  0.00000000000E+00  0.13468595707E+02  0.13468595707E+02  0.00000000000E+00 0.  1.
          1   -1    0    0  501    0  0.00000000000E+00 -0.00000000000E+00 -0.96935255585E+03  0.96935255585E+03  0.00000000000E+00 0. -1.
          5    1    1    2  502    0  0.45436980862E+02  0.39710085030E+01 -0.39106300961E+03  0.39374186420E+03  0.47000000000E+01 0. -1.
         -5    1    1    2    0  502 -0.58998950820E+02  0.50170151179E+02 -0.24948299214E+03  0.26126954211E+03  0.47000000000E+01 0. -1.
        -11    1    1    2    0    0  0.26542827069E+02  0.57597609897E+01 -0.12210377124E+03  0.12508807884E+03  0.00000000000E+00 0. -1.
         11    1    1    2    0    0 -0.12980857111E+02 -0.59900920671E+02 -0.19323418715E+03  0.20272166641E+03  0.00000000000E+00 0.  1.
<mgrwt>
<rscale>  0 0.12311902E+03</rscale>
<asrwt>0</asrwt>
<pdfrwt beam="2">  1        1 0.14913113E+00 0.13689690E+03</pdfrwt>
<pdfrwt beam="1">  1       -1 0.20720921E-02 0.13689690E+03</pdfrwt>
<totfact> 0.10580892E+04</totfact>
</mgrwt>
</event>
<event>
 6    1  0.8353100E-006  0.1626633E+03  0.7546771E-02  0.1192668E+00
         -4   -1    0    0    0  501 -0.00000000000E+00  0.00000000000E+00  0.47831765842E+02  0.47831765842E+02  0.00000000000E+00 0.  1.
          4   -1    0    0  501    0  0.00000000000E+00 -0.00000000000E+00 -0.64621910535E+03  0.64621910535E+03  0.00000000000E+00 0. -1.
          5    1    1    2  502    0  0.28756064220E+02  0.44286585469E+02 -0.73564038481E+02  0.90675082794E+02  0.47000000000E+01 0. -1.
         -5    1    1    2    0  502 -0.70970097964E+02  0.50917053838E+02 -0.41967186307E+03  0.42869087211E+03  0.47000000000E+01 0. -1.
        -11    1    1    2    0    0  0.18434956719E+01 -0.59032846808E+02 -0.10501075404E+03  0.12048042970E+03  0.00000000000E+00 0. -1.
         11    1    1    2    0    0  0.40370538072E+02 -0.36170792499E+02 -0.14068392247E+00  0.54204486587E+02  0.00000000000E+00 0.  1.
<mgrwt>
<rscale>  0 0.15653245E+03</rscale>
<asrwt>0</asrwt>
<pdfrwt beam="2">  1        4 0.99418319E-01 0.16266327E+03</pdfrwt>
<pdfrwt beam="1">  1       -4 0.73587336E-02 0.16266327E+03</pdfrwt>
<totfact> 0.18960878E+02</totfact>
</mgrwt>
</event>
<event>
 6    1  0.8353100E-006  0.1569250E+03  0.7546771E-02  0.1200406E+00
          2   -1    0    0  501    0  0.00000000000E+00  0.00000000000E+00  0.13905553268E+04  0.13905553268E+04  0.00000000000E+00 0. -1.
         -2   -1    0    0    0  501 -0.00000000000E+00 -0.00000000000E+00 -0.15336477090E+02  0.15336477090E+02  0.00000000000E+00 0.  1.
          5    1    1    2  502    0 -0.40873980127E+02  0.30533369381E+02  0.49344009092E+03  0.49609291693E+03  0.47000000000E+01 0. -1.
         -5    1    1    2    0  502  0.71271473538E+02  0.59326478525E+02  0.36865987316E+03  0.38017291602E+03  0.47000000000E+01 0. -1.
        -11    1    1    2    0    0 -0.53246149264E+02 -0.93054787415E+02  0.44389963168E+03  0.45666314596E+03  0.00000000000E+00 0. -1.
         11    1    1    2    0    0  0.22848655854E+02  0.31949395089E+01  0.69219253949E+02  0.72962824986E+02  0.00000000000E+00 0.  1.
<mgrwt>
<rscale>  0 0.15005491E+03</rscale>
<asrwt>0</asrwt>
<pdfrwt beam="1">  1        2 0.21393149E+00 0.15692502E+03</pdfrwt>
<pdfrwt beam="2">  1       -2 0.23594591E-02 0.15692502E+03</pdfrwt>
<totfact> 0.92812403E+03</totfact>
</mgrwt>
</event>
<event>
 6    1  0.8353100E-006  0.2301696E+03  0.7546771E-02  0.1129919E+00
          2   -1    0    0  501    0  0.00000000000E+00  0.00000000000E+00  0.83575784730E+03  0.83575784730E+03  0.00000000000E+00 0. -1.
         -2   -1    0    0    0  501 -0.00000000000E+00 -0.00000000000E+00 -0.58599687255E+02  0.58599687255E+02  0.00000000000E+00 0.  1.
          5    1    1    2  502    0 -0.11036670926E+03 -0.16589859571E+03  0.34195456176E+03  0.39580066559E+03  0.47000000000E+01 0.  1.
         -5    1    1    2    0  502  0.28101959818E+02 -0.89902408491E+01  0.36725607948E+02  0.47343477431E+02  0.47000000000E+01 0.  1.
        -11    1    1    2    0    0  0.69418462450E+02  0.97520433709E+02  0.31349559298E+03  0.33557211555E+03  0.00000000000E+00 0.  1.
         11    1    1    2    0    0  0.12846286994E+02  0.77368402853E+02  0.84982397359E+02  0.11564127598E+03  0.00000000000E+00 0. -1.
<mgrwt>
<rscale>  0 0.22540132E+03</rscale>
<asrwt>0</asrwt>
<pdfrwt beam="1">  1        2 0.12857812E+00 0.23016963E+03</pdfrwt>
<pdfrwt beam="2">  1       -2 0.90153371E-02 0.23016963E+03</pdfrwt>
<totfact> 0.26124600E+03</totfact>
</mgrwt>
</event>
<event>
 6    1  0.8353100E-006  0.1403748E+03  0.7546771E-02  0.1223224E+00
          2   -1    0    0  501    0  0.00000000000E+00  0.00000000000E+00  0.10905257963E+03  0.10905257963E+03  0.00000000000E+00 0. -1.
         -2   -1    0    0    0  501 -0.00000000000E+00 -0.00000000000E+00 -0.15086264007E+03  0.15086264007E+03  0.00000000000E+00 0.  1.
          5    1    1    2  502    0 -0.31707980141E+02 -0.24176910036E+02 -0.55325807205E+02  0.68359007647E+02  0.47000000000E+01 0. -1.
         -5    1    1    2    0  502  0.27835015562E+02 -0.39580206109E+02  0.53152789618E+02  0.72032561049E+02  0.47000000000E+01 0. -1.
        -11    1    1    2    0    0  0.21622765077E+02  0.29412345935E+02 -0.64105425868E+02  0.73770832236E+02  0.00000000000E+00 0.  1.
         11    1    1    2    0    0 -0.17749800498E+02  0.34344770210E+02  0.24468383011E+02  0.45752818773E+02  0.00000000000E+00 0. -1.
<mgrwt>
<rscale>  0 0.13289403E+03</rscale>
<asrwt>0</asrwt>
<pdfrwt beam="1">  1        2 0.16777320E-01 0.14037475E+03</pdfrwt>
<pdfrwt beam="2">  1       -2 0.23209637E-01 0.14037475E+03</pdfrwt>
<totfact> 0.52774162E+03</totfact>
</mgrwt>
</event>
<event>
 6    1  0.8353100E-006  0.1290463E+03  0.7546771E-02  0.1242944E+00
         -1   -1    0    0    0  501 -0.00000000000E+00  0.00000000000E+00  0.14581816882E+03  0.14581816882E+03  0.00000000000E+00 0.  1.
          1   -1    0    0  501    0  0.00000000000E+00 -0.00000000000E+00 -0.93389609628E+02  0.93389609628E+02  0.00000000000E+00 0. -1.
          5    1    1    2  502    0 -0.45159270857E+02  0.33777713289E+02  0.23202950711E+02  0.61161757504E+02  0.47000000000E+01 0. -1.
         -5    1    1    2    0  502  0.63158984484E+02 -0.71178674451E+01 -0.23377710931E+02  0.67884672249E+02  0.47000000000E+01 0. -1.
        -11    1    1    2    0    0 -0.48373854316E+02  0.34971690908E+01  0.46014312164E+02  0.66854894338E+02  0.00000000000E+00 0.  1.
         11    1    1    2    0    0  0.30374140689E+02 -0.30157014934E+02  0.65890072460E+01  0.43306454355E+02  0.00000000000E+00 0. -1.
<mgrwt>
<rscale>  0 0.12009293E+03</rscale>
<asrwt>0</asrwt>
<pdfrwt beam="2">  1        1 0.14367632E-01 0.12904631E+03</pdfrwt>
<pdfrwt beam="1">  1       -1 0.22433565E-01 0.12904631E+03</pdfrwt>
<totfact> 0.62275755E+03</totfact>
</mgrwt>
</event>
<event>
 6    1  0.8353100E-006  0.2249541E+03  0.7546771E-02  0.1133137E+00
          2   -1    0    0  501    0  0.00000000000E+00  0.00000000000E+00  0.13004050950E+04  0.13004050950E+04  0.00000000000E+00 0. -1.
         -2   -1    0    0    0  501 -0.00000000000E+00 -0.00000000000E+00 -0.43354650046E+02  0.43354650046E+02  0.00000000000E+00 0.  1.
          5    1    1    2  502    0 -0.36488361032E+02  0.29059016498E+02  0.51962303274E+03  0.52173366106E+03  0.47000000000E+01 0.  1.
         -5    1    1    2    0  502 -0.66498944626E+02  0.12705950951E+03  0.39846415141E+03  0.42351150935E+03  0.47000000000E+01 0.  1.
        -11    1    1    2    0    0  0.11977038299E+03 -0.11979046208E+03  0.26804609254E+03  0.31708580412E+03  0.00000000000E+00 0. -1.
         11    1    1    2    0    0 -0.16783077338E+02 -0.36328063921E+02  0.70917168277E+02  0.81428770528E+02  0.00000000000E+00 0.  1.
<mgrwt>
<rscale>  0 0.22100419E+03</rscale>
<asrwt>0</asrwt>
<pdfrwt beam="1">  1        2 0.20006229E+00 0.22495412E+03</pdfrwt>
<pdfrwt beam="2">  1       -2 0.66699472E-02 0.22495412E+03</pdfrwt>
<totfact> 0.22024122E+03</totfact>
</mgrwt>
</event>
<event>
 6    1  0.8353100E-006  0.1387881E+03  0.7546771E-02  0.1228132E+00
          1   -1    0    0  501    0  0.00000000000E+00  0.00000000000E+00  0.92538773631E+03  0.92538773631E+03  0.00000000000E+00 0. -1.
         -1   -1    0    0    0  501 -0.00000000000E+00 -0.00000000000E+00 -0.19503737664E+02  0.19503737664E+02  0.00000000000E+00 0.  1.
          5    1    1    2  502    0 -0.31721489474E+02 -0.56425610098E+02  0.59903843835E+03  0.60254397598E+03  0.47000000000E+01 0.  1.
         -5    1    1    2    0  502 -0.25767766396E+02  0.38195379017E+02  0.10089674547E+03  0.11101850301E+03  0.47000000000E+01 0.  1.
        -11    1    1    2    0    0  0.27878429772E+02  0.91157019174E+00  0.60936028291E+01  0.28551178648E+02  0.00000000000E+00 0.  1.
         11    1    1    2    0    0  0.29610826098E+02  0.17318660889E+02  0.19985521199E+03  0.20277781633E+03  0.00000000000E+00 0. -1.
<mgrwt>
<rscale>  0 0.12954504E+03</rscale>
<asrwt>0</asrwt>
<pdfrwt beam="1">  1        1 0.14236731E+00 0.13878815E+03</pdfrwt>
<pdfrwt beam="2">  1       -1 0.30005757E-02 0.13878815E+03</pdfrwt>
<totfact> 0.66780322E+03</totfact>
</mgrwt>
</event>
<event>
 6    1  0.8353100E-006  0.1418573E+03  0.7546771E-02  0.1221507E+00
          1   -1    0    0  501    0  0.00000000000E+00  0.00000000000E+00  0.17245256317E+03  0.17245256317E+03  0.00000000000E+00 0. -1.
         -1   -1    0    0    0  501 -0.00000000000E+00 -0.00000000000E+00 -0.99960297292E+02  0.99960297292E+02  0.00000000000E+00 0.  1.
          5    1    1    2  502    0 -0.21166616950E+01  0.77917889870E+02  0.29741099671E+01  0.78144821637E+02  0.47000000000E+01 0.  1.
         -5    1    1    2    0  502  0.36585661868E+02 -0.20376052881E+02  0.69190644457E+02  0.81013143783E+02  0.47000000000E+01 0.  1.
        -11    1    1    2    0    0 -0.18197198507E+02  0.86388644289E+01  0.32228968860E+02  0.38006242197E+02  0.00000000000E+00 0. -1.
         11    1    1    2    0    0 -0.16271801666E+02 -0.66180701418E+02 -0.31901457409E+02  0.75248652842E+02  0.00000000000E+00 0.  1.
<mgrwt>
<rscale>  0 0.13409194E+03</rscale>
<asrwt>0</asrwt>
<pdfrwt beam="1">  1        1 0.26531163E-01 0.14185734E+03</pdfrwt>
<pdfrwt beam="2">  1       -1 0.15378507E-01 0.14185734E+03</pdfrwt>
<totfact> 0.52408566E+03</totfact>
</mgrwt>
</event>
<event>
 6    1  0.8353100E-006  0.1272119E+03  0.7546771E-02  0.1246601E+00
         -2   -1    0    0    0  501 -0.00000000000E+00  0.00000000000E+00  0.48043700917E+02  0.48043700917E+02  0.00000000000E+00 0.  1.
          2   -1    0    0  501    0  0.00000000000E+00 -0.00000000000E+00 -0.26525290498E+03  0.26525290498E+03  0.00000000000E+00 0. -1.
          5    1    1    2  502    0  0.49182399778E+02  0.26712579057E+01 -0.80624191643E+01  0.50131194575E+02  0.47000000000E+01 0. -1.
         -5    1    1    2    0  502 -0.29195087538E+02  0.10186790186E+02 -0.14771245387E+03  0.15098735993E+03  0.47000000000E+01 0. -1.
        -11    1    1    2    0    0 -0.29666755250E+01  0.33351728214E+02 -0.51969707670E-01  0.33483453218E+02  0.00000000000E+00 0.  1.
         11    1    1    2    0    0 -0.17020636715E+02 -0.46209776306E+02 -0.61382361325E+02  0.78694598177E+02  0.00000000000E+00 0. -1.
<mgrwt>
<rscale>  0 0.11790063E+03</rscale>
<asrwt>0</asrwt>
<pdfrwt beam="2">  1        2 0.40808139E-01 0.12721188E+03</pdfrwt>
<pdfrwt beam="1">  1       -2 0.73913386E-02 0.12721188E+03</pdfrwt>
<totfact> 0.12527885E+04</totfact>
</mgrwt>
</event>
<event>
 6    1  0.8353100E-006  0.1636168E+03  0.7546771E-02  0.1192050E+00
          2   -1    0    0  501    0  0.00000000000E+00  0.00000000000E+00  0.12517052684E+04  0.12517052684E+04  0.00000000000E+00 0.  1.
         -2   -1    0    0    0  501 -0.00000000000E+00 -0.00000000000E+00 -0.66231919120E+02  0.66231919120E+02  0.00000000000E+00 0. -1.
          5    1    1    2  502    0 -0.55910850045E+02  0.86732115401E+02  0.66759328107E+03  0.67553783161E+03  0.47000000000E+01 0.  1.
         -5    1    1    2    0  502 -0.40149734903E+02 -0.42957324122E+02  0.49865588483E+03  0.50213256655E+03  0.47000000000E+01 0.  1.
        -11    1    1    2    0    0  0.11179291814E+03 -0.45286967277E+02  0.25461813799E+02  0.12327558523E+03  0.00000000000E+00 0.  1.
         11    1    1    2    0    0 -0.15732333196E+02  0.15121759970E+01 -0.62376304401E+01  0.16991204123E+02  0.00000000000E+00 0. -1.
<mgrwt>
<rscale>  0 0.15706527E+03</rscale>
<asrwt>0</asrwt>
<pdfrwt beam="1">  1        2 0.19257002E+00 0.16361678E+03</pdfrwt>
<pdfrwt beam="2">  1       -2 0.10189527E-01 0.16361678E+03</pdfrwt>
<totfact> 0.12097388E+03</totfact>
</mgrwt>
</event>
<event>
 6    1  0.8353100E-006  0.1435454E+03  0.7546771E-02  0.1221485E+00
         -1   -1    0    0    0  501 -0.00000000000E+00  0.00000000000E+00  0.46967838286E+03  0.46967838286E+03  0.00000000000E+00 0.  1.
          1   -1    0    0  501    0  0.00000000000E+00 -0.00000000000E+00 -0.34494692628E+02  0.34494692628E+02  0.00000000000E+00 0. -1.
          5    1    1    2  502    0  0.39181904994E+02  0.49513987877E+01  0.18766109316E+03  0.19182938751E+03  0.47000000000E+01 0. -1.
         -5    1    1    2    0  502 -0.13030882087E+02  0.60649311274E+02  0.30410210745E+02  0.69246037890E+02  0.47000000000E+01 0. -1.
        -11    1    1    2    0    0 -0.12765416478E+01 -0.80116529464E+02  0.16880404190E+03  0.18685580648E+03  0.00000000000E+00 0.  1.
         11    1    1    2    0    0 -0.24874481259E+02  0.14515819403E+02  0.48308344430E+02  0.56241843608E+02  0.00000000000E+00 0. -1.
<mgrwt>
<rscale>  0 0.13410729E+03</rscale>
<asrwt>0</asrwt>
<pdfrwt beam="2">  1        1 0.53068761E-02 0.14354541E+03</pdfrwt>
<pdfrwt beam="1">  1       -1 0.72258208E-01 0.14354541E+03</pdfrwt>
<totfact> 0.29792312E+03</totfact>
</mgrwt>
</event>
<event>
 6    1  0.8353100E-006  0.1656688E+03  0.7546771E-02  0.1189281E+00
          1   -1    0    0  501    0  0.00000000000E+00  0.00000000000E+00  0.27173787521E+03  0.27173787521E+03  0.00000000000E+00 0. -1.
         -1   -1    0    0    0  501 -0.00000000000E+00 -0.00000000000E+00 -0.87252264260E+02  0.87252264260E+02  0.00000000000E+00 0.  1.
          5    1    1    2  502    0  0.25444043026E+02  0.16692373912E+02 -0.29057926563E+02  0.42337781808E+02  0.47000000000E+01 0.  1.
         -5    1    1    2    0  502  0.78531436539E+02  0.15109917682E+02  0.12688625921E+03  0.15005901810E+03  0.47000000000E+01 0.  1.
        -11    1    1    2    0    0 -0.99380385638E+02  0.13091716531E+01  0.88546168974E+02  0.13311122800E+03  0.00000000000E+00 0.  1.
         11    1    1    2    0    0 -0.45950939267E+01 -0.33111463247E+02 -0.18888906703E+01  0.33482111560E+02  0.00000000000E+00 0. -1.
<mgrwt>
<rscale>  0 0.15948402E+03</rscale>
<asrwt>0</asrwt>
<pdfrwt beam="1">  1        1 0.41805827E-01 0.16566878E+03</pdfrwt>
<pdfrwt beam="2">  1       -1 0.13423425E-01 0.16566878E+03</pdfrwt>
<totfact> 0.37120297E+03</totfact>
</mgrwt>
</event>
<event>
 6    1  0.8353100E-006  0.1258634E+03  0.7546771E-02  0.1265081E+00
          1   -1    0    0  501    0  0.00000000000E+00  0.00000000000E+00  0.16631127905E+03  0.16631127905E+03  0.00000000000E+00 0. -1.
         -1   -1    0    0    0  501 -0.00000000000E+00 -0.00000000000E+00 -0.86480056729E+02  0.86480056729E+02  0.00000000000E+00 0.  1.
          5    1    1    2  502    0 -0.86485035828E+01  0.55643960626E+02  0.10587616323E+03  0.12001207817E+03  0.47000000000E+01 0. -1.
         -5    1    1    2    0  502 -0.55273621602E+01 -0.51709726754E+02  0.14602448712E+02  0.54219637419E+02  0.47000000000E+01 0. -1.
        -11    1    1    2    0    0  0.27830340169E+02 -0.26610924520E+02 -0.13924228831E+02  0.40945735874E+02  0.00000000000E+00 0.  1.
         11    1    1    2    0    0 -0.13654474426E+02  0.22676690648E+02 -0.26723160785E+02  0.37613884311E+02  0.00000000000E+00 0. -1.
<mgrwt>
<rscale>  0 0.10759937E+03</rscale>
<asrwt>0</asrwt>
<pdfrwt beam="1">  1        1 0.25586351E-01 0.12586340E+03</pdfrwt>
<pdfrwt beam="2">  1       -1 0.13304624E-01 0.12586340E+03</pdfrwt>
<totfact> 0.68216542E+03</totfact>
</mgrwt>
</event>
<event>
 6    1  0.8353100E-006  0.1261982E+03  0.7546771E-02  0.1248859E+00
         -2   -1    0    0    0  501 -0.00000000000E+00  0.00000000000E+00  0.17007710969E+02  0.17007710969E+02  0.00000000000E+00 0.  1.
          2   -1    0    0  501    0  0.00000000000E+00 -0.00000000000E+00 -0.69909973625E+03  0.69909973625E+03  0.00000000000E+00 0. -1.
          5    1    1    2  502    0 -0.65223475927E+02  0.90864294762E+01 -0.14654765893E+03  0.16073260824E+03  0.47000000000E+01 0. -1.
         -5    1    1    2    0  502  0.52325113532E+02  0.23466577316E+01 -0.24768719093E+03  0.25320833094E+03  0.47000000000E+01 0. -1.
        -11    1    1    2    0    0  0.13043517740E+02 -0.50728971140E+02 -0.15427533756E+03  0.16292465022E+03  0.00000000000E+00 0.  1.
         11    1    1    2    0    0 -0.14515534493E+00  0.39295883933E+02 -0.13358183787E+03  0.13924185783E+03  0.00000000000E+00 0. -1.
<mgrwt>
<rscale>  0 0.11657380E+03</rscale>
<asrwt>0</asrwt>
<pdfrwt beam="2">  1        2 0.10755379E+00 0.12619819E+03</pdfrwt>
<pdfrwt beam="1">  1       -2 0.26165713E-02 0.12619819E+03</pdfrwt>
<totfact> 0.20507970E+04</totfact>
</mgrwt>
</event>
<event>
 6    1  0.8353100E-006  0.1433867E+03  0.7546771E-02  0.1222939E+00
          2   -1    0    0  501    0  0.00000000000E+00  0.00000000000E+00  0.66254725073E+02  0.66254725073E+02  0.00000000000E+00 0. -1.
         -2   -1    0    0    0  501 -0.00000000000E+00 -0.00000000000E+00 -0.25936377892E+03  0.25936377892E+03  0.00000000000E+00 0.  1.
          5    1    1    2  502    0  0.35569701129E+02 -0.38625966604E+02  0.31638838325E+02  0.61483941197E+02  0.47000000000E+01 0. -1.
         -5    1    1    2    0  502  0.15802127502E+02  0.93857385418E+01 -0.92261260833E+02  0.94191451693E+02  0.47000000000E+01 0.  1.
        -11    1    1    2    0    0 -0.94860955497E+01 -0.11309161438E+02  0.87417921662E+01  0.17155234521E+02  0.00000000000E+00 0. -1.
         11    1    1    2    0    0 -0.41885733081E+02  0.40549389500E+02 -0.14122842350E+03  0.15278787658E+03  0.00000000000E+00 0.  1.
<mgrwt>
<rscale>  0 0.13309159E+03</rscale>
<asrwt>0</asrwt>
<pdfrwt beam="1">  1        2 0.10193035E-01 0.14338671E+03</pdfrwt>
<pdfrwt beam="2">  1       -2 0.39902120E-01 0.14338671E+03</pdfrwt>
<totfact> 0.35956883E+03</totfact>
</mgrwt>
</event>
<event>
 6    1  0.8353100E-006  0.1402796E+03  0.7546771E-02  0.1223955E+00
          2   -1    0    0  501    0  0.00000000000E+00  0.00000000000E+00  0.68395634786E+03  0.68395634786E+03  0.00000000000E+00 0. -1.
         -2   -1    0    0    0  501 -0.00000000000E+00 -0.00000000000E+00 -0.23995048282E+02  0.23995048282E+02  0.00000000000E+00 0.  1.
          5    1    1    2  502    0  0.10610268231E+02 -0.54723120291E+02  0.29284289043E+03  0.29813796498E+03  0.47000000000E+01 0. -1.
         -5    1    1    2    0  502 -0.66443758377E+02  0.24116541634E+02  0.14057498640E+03  0.15741600112E+03  0.47000000000E+01 0. -1.
        -11    1    1    2    0    0  0.29295771901E+01  0.53530846898E+02  0.11073668222E+03  0.12303148695E+03  0.00000000000E+00 0. -1.
         11    1    1    2    0    0  0.52903912956E+02 -0.22924268241E+02  0.11580674052E+03  0.12936594309E+03  0.00000000000E+00 0.  1.
<mgrwt>
<rscale>  0 0.13238752E+03</rscale>
<asrwt>0</asrwt>
<pdfrwt beam="1">  1        2 0.10522404E+00 0.14027958E+03</pdfrwt>
<pdfrwt beam="2">  1       -2 0.36915464E-02 0.14027958E+03</pdfrwt>
<totfact> 0.12787741E+04</totfact>
</mgrwt>
</event>
<event>
 6    1  0.8353100E-006  0.3114543E+03  0.7546771E-02  0.1079651E+00
         -2   -1    0    0    0  501 -0.00000000000E+00  0.00000000000E+00  0.19123418987E+02  0.19123418987E+02  0.00000000000E+00 0.  1.
          2   -1    0    0  501    0  0.00000000000E+00 -0.00000000000E+00 -0.12681283257E+04  0.12681283257E+04  0.00000000000E+00 0. -1.
          5    1    1    2  502    0  0.92207032966E+02  0.36592999449E+02 -0.29057666884E+03  0.30707991633E+03  0.47000000000E+01 0.  1.
         -5    1    1    2    0  502 -0.93246058327E+01  0.34865582444E+02 -0.47112731866E+03  0.47253105454E+03  0.47000000000E+01 0.  1.
        -11    1    1    2    0    0 -0.56821879767E+02 -0.74937608056E+01 -0.10964929454E+03  0.12372489751E+03  0.00000000000E+00 0.  1.
         11    1    1    2    0    0 -0.26060547366E+02 -0.63964821087E+02 -0.37765162463E+03  0.38391587627E+03  0.00000000000E+00 0. -1.
<mgrwt>
<rscale>  0 0.31145433E+03</rscale>
<asrwt>0</asrwt>
<pdfrwt beam="2">  1        2 0.19509673E+00 0.31145433E+03</pdfrwt>
<pdfrwt beam="1">  1       -2 0.29420635E-02 0.31145433E+03</pdfrwt>
<totfact> 0.79905772E+03</totfact>
</mgrwt>
</event>
<event>
 6    1  0.8353100E-006  0.2733156E+03  0.7546771E-02  0.1099397E+00
          2   -1    0    0  501    0  0.00000000000E+00  0.00000000000E+00  0.12146299453E+04  0.12146299453E+04  0.00000000000E+00 0. -1.
         -2   -1    0    0    0  501 -0.00000000000E+00 -0.00000000000E+00 -0.15375343256E+02  0.15375343256E+02  0.00000000000E+00 0.  1.
          5    1    1    2  502    0  0.10066625771E+03 -0.20863830473E+02  0.76345338571E+03  0.77035846007E+03  0.47000000000E+01 0.  1.
         -5    1    1    2    0  502 -0.23283141048E+02  0.11565790230E+02  0.52355567464E+02  0.58643564056E+02  0.47000000000E+01 0.  1.
        -11    1    1    2    0    0 -0.97186154276E+01  0.41343488327E+02  0.14227547832E+03  0.14847911383E+03  0.00000000000E+00 0.  1.
         11    1    1    2    0    0 -0.67664501231E+02 -0.32045448084E+02  0.24117017060E+03  0.25252415064E+03  0.00000000000E+00 0. -1.
<mgrwt>
<rscale>  0 0.27331559E+03</rscale>
<asrwt>0</asrwt>
<pdfrwt beam="1">  1        2 0.18686607E+00 0.27331559E+03</pdfrwt>
<pdfrwt beam="2">  1       -2 0.23654384E-02 0.27331559E+03</pdfrwt>
<totfact> 0.11806958E+04</totfact>
</mgrwt>
</event>
<event>
 6    1  0.8353100E-006  0.3492362E+03  0.7546771E-02  0.1062929E+00
          2   -1    0    0  501    0  0.00000000000E+00  0.00000000000E+00  0.94696488718E+03  0.94696488718E+03  0.00000000000E+00 0. -1.
         -2   -1    0    0    0  501 -0.00000000000E+00 -0.00000000000E+00 -0.32199163805E+02  0.32199163805E+02  0.00000000000E+00 0.  1.
          5    1    1    2  502    0 -0.47198426228E+01  0.21857247546E+02  0.27801881788E+01  0.23018158723E+02  0.47000000000E+01 0.  1.
         -5    1    1    2    0  502 -0.62011174241E+02  0.97204447980E+02  0.48915798524E+03  0.50258503256E+03  0.47000000000E+01 0.  1.
        -11    1    1    2    0    0  0.32658968416E+02 -0.83909903527E+02  0.13950146249E+03  0.16603655671E+03  0.00000000000E+00 0.  1.
         11    1    1    2    0    0  0.34072048448E+02 -0.35151792000E+02  0.28332608747E+03  0.28752430299E+03  0.00000000000E+00 0. -1.
<mgrwt>
<rscale>  0 0.34923618E+03</rscale>
<asrwt>0</asrwt>
<pdfrwt beam="1">  1        2 0.14568688E+00 0.34923618E+03</pdfrwt>
<pdfrwt beam="2">  1       -2 0.49537182E-02 0.34923618E+03</pdfrwt>
<totfact> 0.56517501E+03</totfact>
</mgrwt>
</event>
<event>
 6    1  0.8353100E-006  0.1274905E+03  0.7546771E-02  0.1246592E+00
         -2   -1    0    0    0  501 -0.00000000000E+00  0.00000000000E+00  0.73311051907E+02  0.73311051907E+02  0.00000000000E+00 0.  1.
          2   -1    0    0  501    0  0.00000000000E+00 -0.00000000000E+00 -0.17225716947E+03  0.17225716947E+03  0.00000000000E+00 0. -1.
          5    1    1    2  502    0  0.26778241490E+02 -0.37292417575E+02  0.55441423354E+00  0.46154046421E+02  0.47000000000E+01 0. -1.
         -5    1    1    2    0  502 -0.51474245676E+02  0.41795488902E+02 -0.80214852340E+02  0.10417760506E+03  0.47000000000E+01 0. -1.
        -11    1    1    2    0    0  0.50526706358E+02 -0.21466591719E+02 -0.29961509038E+02  0.62541623254E+02  0.00000000000E+00 0. -1.
         11    1    1    2    0    0 -0.25830702172E+02  0.16963520392E+02  0.10675829579E+02  0.32694946643E+02  0.00000000000E+00 0.  1.
<mgrwt>
<rscale>  0 0.11790606E+03</rscale>
<asrwt>0</asrwt>
<pdfrwt beam="2">  1        2 0.26501103E-01 0.12749047E+03</pdfrwt>
<pdfrwt beam="1">  1       -2 0.11278623E-01 0.12749047E+03</pdfrwt>
<totfact> 0.10315494E+04</totfact>
</mgrwt>
</event>
<event>
 6    1  0.8353100E-006  0.1253913E+03  0.7546771E-02  0.1245462E+00
         -1   -1    0    0    0  501 -0.00000000000E+00  0.00000000000E+00  0.28473768525E+03  0.28473768525E+03  0.00000000000E+00 0.  1.
          1   -1    0    0  501    0  0.00000000000E+00 -0.00000000000E+00 -0.44715248238E+02  0.44715248238E+02  0.00000000000E+00 0. -1.
          5    1    1    2  502    0  0.36336441720E+02 -0.40411720918E+02  0.66055836711E+02  0.85667425245E+02  0.47000000000E+01 0. -1.
         -5    1    1    2    0  502 -0.11155470733E+02  0.69291548320E+02  0.66504766766E+02  0.96802568139E+02  0.47000000000E+01 0.  1.
        -11    1    1    2    0    0 -0.49719024652E+02  0.50003331608E+01  0.28247737581E+02  0.57401388681E+02  0.00000000000E+00 0. -1.
         11    1    1    2    0    0  0.24538053665E+02 -0.33880160562E+02  0.79214095954E+02  0.89581551422E+02  0.00000000000E+00 0.  1.
<mgrwt>
<rscale>  0 0.11857782E+03</rscale>
<asrwt>0</asrwt>
<pdfrwt beam="2">  1        1 0.68792691E-02 0.12539133E+03</pdfrwt>
<pdfrwt beam="1">  1       -1 0.43805797E-01 0.12539133E+03</pdfrwt>
<totfact> 0.53105356E+03</totfact>
</mgrwt>
</event>
<event>
 6    1  0.8353100E-006  0.1465987E+03  0.7546771E-02  0.1214251E+00
          4   -1    0    0  501    0  0.00000000000E+00  0.00000000000E+00  0.94731541582E+02  0.94731541582E+02  0.00000000000E+00 0. -1.
         -4   -1    0    0    0  501 -0.00000000000E+00 -0.00000000000E+00 -0.20112879380E+03  0.20112879380E+03  0.00000000000E+00 0.  1.
          5    1    1    2  502    0 -0.49258512720E+02 -0.41906860059E+02 -0.50232695786E+01  0.65037752365E+02  0.47000000000E+01 0.  1.
         -5    1    1    2    0  502 -0.17433004869E+02  0.79569474687E+02 -0.14131449216E+02  0.82806997395E+02  0.47000000000E+01 0.  1.
        -11    1    1    2    0    0  0.92577942436E+01  0.20237250572E+02  0.70531253108E+01  0.23345227384E+02  0.00000000000E+00 0. -1.
         11    1    1    2    0    0  0.57433723345E+02 -0.57899865199E+02 -0.94295658739E+02  0.12467035824E+03  0.00000000000E+00 0.  1.
<mgrwt>
<rscale>  0 0.13931711E+03</rscale>
<asrwt>0</asrwt>
<pdfrwt beam="1">  1        4 0.14574083E-01 0.14659866E+03</pdfrwt>
<pdfrwt beam="2">  1       -4 0.30942891E-01 0.14659866E+03</pdfrwt>
<totfact> 0.66797564E+02</totfact>
</mgrwt>
</event>
<event>
 6    1  0.8353100E-006  0.2246608E+03  0.7546771E-02  0.1133716E+00
         -2   -1    0    0    0  501 -0.00000000000E+00  0.00000000000E+00  0.31765476404E+02  0.31765476404E+02  0.00000000000E+00 0.  1.
          2   -1    0    0  501    0  0.00000000000E+00 -0.00000000000E+00 -0.16002545181E+04  0.16002545181E+04  0.00000000000E+00 0. -1.
          5    1    1    2  502    0 -0.97333382044E+02 -0.73117591159E+02 -0.63647754592E+03  0.64803219508E+03  0.47000000000E+01 0. -1.
         -5    1    1    2    0  502  0.23358789358E+02 -0.98277070703E+02 -0.40965438393E+03  0.42195120564E+03  0.47000000000E+01 0. -1.
        -11    1    1    2    0    0  0.50608747688E+02  0.90073402323E+02 -0.16403827492E+03  0.19386340239E+03  0.00000000000E+00 0.  1.
         11    1    1    2    0    0  0.23365844998E+02  0.81321259538E+02 -0.35831883690E+03  0.36817319137E+03  0.00000000000E+00 0. -1.
<mgrwt>
<rscale>  0 0.22022396E+03</rscale>
<asrwt>0</asrwt>
<pdfrwt beam="2">  1        2 0.24619294E+00 0.22466077E+03</pdfrwt>
<pdfrwt beam="1">  1       -2 0.48869976E-02 0.22466077E+03</pdfrwt>
<totfact> 0.24471642E+03</totfact>
</mgrwt>
</event>
<event>
 6    1  0.8353100E-006  0.1250932E+03  0.7546771E-02  0.1250174E+00
         -1   -1    0    0    0  501 -0.00000000000E+00  0.00000000000E+00  0.12132170635E+02  0.12132170635E+02  0.00000000000E+00 0.  1.
          1   -1    0    0  501    0  0.00000000000E+00 -0.00000000000E+00 -0.13576860367E+04  0.13576860367E+04  0.00000000000E+00 0. -1.
          5    1    1    2  502    0  0.40148983442E+01  0.48953881570E+02 -0.87173259525E+03  0.87312794570E+03  0.47000000000E+01 0. -1.
         -5    1    1    2    0  502 -0.12332306025E+00 -0.51828102930E+02 -0.23742436122E+03  0.24306086637E+03  0.47000000000E+01 0. -1.
        -11    1    1    2    0    0  0.18508877002E+02  0.37700736249E+02 -0.65663481187E+02  0.77946243035E+02  0.00000000000E+00 0.  1.
         11    1    1    2    0    0 -0.22400452286E+02 -0.34826514890E+02 -0.17073342837E+03  0.17568315219E+03  0.00000000000E+00 0. -1.
<mgrwt>
<rscale>  0 0.11581004E+03</rscale>
<asrwt>0</asrwt>
<pdfrwt beam="2">  1        1 0.20887484E+00 0.12509321E+03</pdfrwt>
<pdfrwt beam="1">  1       -1 0.18664872E-02 0.12509321E+03</pdfrwt>
<totfact> 0.65866934E+03</totfact>
</mgrwt>
</event>
<event>
 6    1  0.8353100E-006  0.3466394E+03  0.7546771E-02  0.1064003E+00
         -4   -1    0    0    0  501 -0.00000000000E+00  0.00000000000E+00  0.17141022982E+03  0.17141022982E+03  0.00000000000E+00 0.  1.
          4   -1    0    0  501    0  0.00000000000E+00 -0.00000000000E+00 -0.17525047652E+03  0.17525047652E+03  0.00000000000E+00 0. -1.
          5    1    1    2  502    0  0.29895052482E+02 -0.11930725206E+02 -0.44629028894E+02  0.55225868819E+02  0.47000000000E+01 0.  1.
         -5    1    1    2    0  502  0.65709543979E+02  0.10654603813E+03  0.30540119148E+02  0.12893638466E+03  0.47000000000E+01 0.  1.
        -11    1    1    2    0    0 -0.71003435712E+02 -0.10895331161E+02 -0.11043883758E+02  0.72678494016E+02  0.00000000000E+00 0. -1.
         11    1    1    2    0    0 -0.24601160748E+02 -0.83719981764E+02  0.21292546806E+02  0.89819958841E+02  0.00000000000E+00 0.  1.
<mgrwt>
<rscale>  0 0.34663943E+03</rscale>
<asrwt>0</asrwt>
<pdfrwt beam="2">  1        4 0.26961612E-01 0.34663943E+03</pdfrwt>
<pdfrwt beam="1">  1       -4 0.26370805E-01 0.34663943E+03</pdfrwt>
<totfact> 0.33928658E+02</totfact>
</mgrwt>
</event>
<event>
 6    1  0.8353100E-006  0.2015989E+03  0.7546771E-02  0.1152446E+00
         -2   -1    0    0    0  501 -0.00000000000E+00  0.00000000000E+00  0.83313243445E+02  0.83313243445E+02  0.00000000000E+00 0.  1.
          2   -1    0    0  501    0  0.00000000000E+00 -0.00000000000E+00 -0.47273794080E+03  0.47273794080E+03  0.00000000000E+00 0. -1.
          5    1    1    2  502    0 -0.92424217915E+02  0.85670232261E+02 -0.93323386801E+02  0.15688521051E+03  0.47000000000E+01 0. -1.
         -5    1    1    2    0  502 -0.18071309453E+02  0.27501771076E+02 -0.17832687553E+03  0.18139868846E+03  0.47000000000E+01 0. -1.
        -11    1    1    2    0    0  0.67119553058E+02 -0.99548021797E+02 -0.37974178221E+02  0.12592410912E+03  0.00000000000E+00 0.  1.
         11    1    1    2    0    0  0.43375974311E+02 -0.13623981541E+02 -0.79800256799E+02  0.91843176152E+02  0.00000000000E+00 0. -1.
<mgrwt>
<rscale>  0 0.19682516E+03</rscale>
<asrwt>0</asrwt>
<pdfrwt beam="2">  1        2 0.72728914E-01 0.20159894E+03</pdfrwt>
<pdfrwt beam="1">  1       -2 0.12817422E-01 0.20159894E+03</pdfrwt>
<totfact> 0.29076273E+03</totfact>
</mgrwt>
</event>
<event>
 6    1  0.8353100E-006  0.3154317E+03  0.7546771E-02  0.1077771E+00
         -2   -1    0    0    0  501 -0.00000000000E+00  0.00000000000E+00  0.37461856931E+02  0.37461856931E+02  0.00000000000E+00 0.  1.
          2   -1    0    0  501    0  0.00000000000E+00 -0.00000000000E+00 -0.66398993513E+03  0.66398993513E+03  0.00000000000E+00 0. -1.
          5    1    1    2  502    0 -0.10883602438E+03  0.38387676881E+02 -0.44036861595E+03  0.45526421104E+03  0.47000000000E+01 0.  1.
         -5    1    1    2    0  502  0.25062138227E+02  0.11890221453E+02 -0.29953620763E+02  0.41094981878E+02  0.47000000000E+01 0.  1.
        -11    1    1    2    0    0  0.32901451043E+02 -0.26171866848E+01  0.11092851589E+01  0.33024016419E+02  0.00000000000E+00 0.  1.
         11    1    1    2    0    0  0.50872435113E+02 -0.47660711649E+02 -0.15731512664E+03  0.17206858272E+03  0.00000000000E+00 0. -1.
<mgrwt>
<rscale>  0 0.31543174E+03</rscale>
<asrwt>0</asrwt>
<pdfrwt beam="2">  1        2 0.10215230E+00 0.31543174E+03</pdfrwt>
<pdfrwt beam="1">  1       -2 0.57633627E-02 0.31543174E+03</pdfrwt>
<totfact> 0.70527919E+03</totfact>
</mgrwt>
</event>
<event>
 6    1  0.8353100E-006  0.1404819E+03  0.7546771E-02  0.1223799E+00
          4   -1    0    0  501    0  0.00000000000E+00  0.00000000000E+00  0.27218618110E+02  0.27218618110E+02  0.00000000000E+00 0. -1.
         -4   -1    0    0    0  501 -0.00000000000E+00 -0.00000000000E+00 -0.58291042406E+03  0.58291042406E+03  0.00000000000E+00 0.  1.
          5    1    1    2  502    0  0.66866964933E+02 -0.73081225039E+02 -0.25504424304E+03  0.27364523084E+03  0.47000000000E+01 0.  1.
         -5    1    1    2    0  502 -0.21775731497E+02  0.27204772577E+02 -0.40814494345E+02  0.53872025039E+02  0.47000000000E+01 0.  1.
        -11    1    1    2    0    0  0.10107262338E+02  0.33977138433E+02 -0.18763750445E+03  0.19095663320E+03  0.00000000000E+00 0.  1.
         11    1    1    2    0    0 -0.55198495774E+02  0.11899314030E+02 -0.72195564119E+02  0.91655153093E+02  0.00000000000E+00 0. -1.
<mgrwt>
<rscale>  0 0.13249542E+03</rscale>
<asrwt>0</asrwt>
<pdfrwt beam="1">  1        4 0.41874794E-02 0.14048189E+03</pdfrwt>
<pdfrwt beam="2">  1       -4 0.89678533E-01 0.14048189E+03</pdfrwt>
<totfact> 0.58360554E+02</totfact>
</mgrwt>
</event>
<event>
 6    1  0.8353100E-006  0.1390178E+03  0.7546771E-02  0.1225646E+00
         -2   -1    0    0    0  501 -0.00000000000E+00  0.00000000000E+00  0.35288549770E+02  0.35288549770E+02  0.00000000000E+00 0.  1.
          2   -1    0    0  501    0  0.00000000000E+00 -0.00000000000E+00 -0.44256625708E+03  0.44256625708E+03  0.00000000000E+00 0. -1.
          5    1    1    2  502    0 -0.21364788896E+02 -0.19558816807E+02 -0.24345850319E+03  0.24522058294E+03  0.47000000000E+01 0.  1.
         -5    1    1    2    0  502 -0.33229538075E+02 -0.72812733650E+01  0.89851711420E+00  0.34352823399E+02  0.47000000000E+01 0.  1.
        -11    1    1    2    0    0  0.40587756195E+02 -0.30627106739E+02 -0.84414711712E+02  0.98545569021E+02  0.00000000000E+00 0.  1.
         11    1    1    2    0    0  0.14006570776E+02  0.57467196911E+02 -0.80303009517E+02  0.99735831491E+02  0.00000000000E+00 0. -1.
<mgrwt>
<rscale>  0 0.13122744E+03</rscale>
<asrwt>0</asrwt>
<pdfrwt beam="2">  1        2 0.68087118E-01 0.13901778E+03</pdfrwt>
<pdfrwt beam="1">  1       -2 0.54290075E-02 0.13901778E+03</pdfrwt>
<totfact> 0.11701488E+04</totfact>
</mgrwt>
</event>
<event>
 6    1  0.8353100E-006  0.1359633E+03  0.7546771E-02  0.1232190E+00
          1   -1    0    0  501    0  0.00000000000E+00  0.00000000000E+00  0.59507882077E+02  0.59507882077E+02  0.00000000000E+00 0.  1.
         -1   -1    0    0    0  501 -0.00000000000E+00 -0.00000000000E+00 -0.28712378905E+03  0.28712378905E+03  0.00000000000E+00 0. -1.
          5    1    1    2  502    0  0.47039709328E+02  0.71693418087E+02 -0.49398278885E+02  0.99070482019E+02  0.47000000000E+01 0.  1.
         -5    1    1    2    0  502 -0.43920613625E+02 -0.18305221589E+02 -0.78525040636E+01  0.48454651569E+02  0.47000000000E+01 0.  1.
        -11    1    1    2    0    0  0.28041673420E+01 -0.69342112553E+02 -0.74789927915E+02  0.10202806107E+03  0.00000000000E+00 0.  1.
         11    1    1    2    0    0 -0.59232630446E+01  0.15953916055E+02 -0.95575196105E+02  0.97078476466E+02  0.00000000000E+00 0. -1.
<mgrwt>
<rscale>  0 0.12686078E+03</rscale>
<asrwt>0</asrwt>
<pdfrwt beam="1">  1        1 0.91550587E-02 0.13596328E+03</pdfrwt>
<pdfrwt beam="2">  1       -1 0.44172891E-01 0.13596328E+03</pdfrwt>
<totfact> 0.35864190E+03</totfact>
</mgrwt>
</event>
<event>
 6    1  0.8353100E-006  0.3093911E+03  0.7546771E-02  0.1082863E+00
          2   -1    0    0  501    0  0.00000000000E+00  0.00000000000E+00  0.12549275286E+04  0.12549275286E+04  0.00000000000E+00 0. -1.
         -2   -1    0    0    0  501 -0.00000000000E+00 -0.00000000000E+00 -0.74081132083E+02  0.74081132083E+02  0.00000000000E+00 0.  1.
          5    1    1    2  502    0 -0.13833437904E+03 -0.18266224077E+02  0.34597061141E+03  0.37307882455E+03  0.47000000000E+01 0. -1.
         -5    1    1    2    0  502 -0.11378123007E+03 -0.95621620907E+02  0.14810331635E+03  0.20987221115E+03  0.47000000000E+01 0.  1.
        -11    1    1    2    0    0  0.15384150087E+03  0.32737093449E+02  0.45694711647E+03  0.48325934231E+03  0.00000000000E+00 0.  1.
         11    1    1    2    0    0  0.98274108239E+02  0.81150751535E+02  0.22982535233E+03  0.26279828271E+03  0.00000000000E+00 0. -1.
<mgrwt>
<rscale>  0 0.30480597E+03</rscale>
<asrwt>0</asrwt>
<pdfrwt beam="1">  1        2 0.19306576E+00 0.30939112E+03</pdfrwt>
<pdfrwt beam="2">  1       -2 0.11397098E-01 0.30939112E+03</pdfrwt>
<totfact> 0.99934164E+02</totfact>
</mgrwt>
</event>
<event>
 6    1  0.8353100E-006  0.2736043E+03  0.7546771E-02  0.1101217E+00
          2   -1    0    0  501    0  0.00000000000E+00  0.00000000000E+00  0.33560327555E+03  0.33560327555E+03  0.00000000000E+00 0. -1.
         -2   -1    0    0    0  501 -0.00000000000E+00 -0.00000000000E+00 -0.21206294922E+03  0.21206294922E+03  0.00000000000E+00 0.  1.
          5    1    1    2  502    0 -0.79120300669E+02 -0.15442667878E+03  0.89255435557E+02  0.19518259112E+03  0.47000000000E+01 0. -1.
         -5    1    1    2    0  502  0.93457574117E+01 -0.78735117449E+02 -0.29753582566E+02  0.84817024098E+02  0.47000000000E+01 0. -1.
        -11    1    1    2    0    0 -0.71767838614E+01  0.13147220441E+02 -0.15337472267E+02  0.21438136287E+02  0.00000000000E+00 0.  1.
         11    1    1    2    0    0  0.76951327118E+02  0.22001457579E+03  0.79375945613E+02  0.24622847327E+03  0.00000000000E+00 0. -1.
<mgrwt>
<rscale>  0 0.27011017E+03</rscale>
<asrwt>0</asrwt>
<pdfrwt beam="1">  1        2 0.51631273E-01 0.27360430E+03</pdfrwt>
<pdfrwt beam="2">  1       -2 0.32625069E-01 0.27360430E+03</pdfrwt>
<totfact> 0.84943944E+02</totfact>
</mgrwt>
</event>
<event>
 6    1  0.8353100E-006  0.1404190E+03  0.7546771E-02  0.1224335E+00
          4   -1    0    0  501    0  0.00000000000E+00  0.00000000000E+00  0.37344743843E+02  0.37344743843E+02  0.00000000000E+00 0. -1.
         -4   -1    0    0    0  501 -0.00000000000E+00 -0.00000000000E+00 -0.43061364095E+03  0.43061364095E+03  0.00000000000E+00 0.  1.
          5    1    1    2  502    0  0.18566159792E+02  0.32370653059E+02 -0.87493584238E+02  0.95235386026E+02  0.47000000000E+01 0.  1.
         -5    1    1    2    0  502 -0.85887592412E+01 -0.95578558261E+02 -0.95982214827E+02  0.13580759606E+03  0.47000000000E+01 0.  1.
        -11    1    1    2    0    0 -0.15065713738E+02 -0.12567727870E+02 -0.77935430368E+01  0.21110727778E+02  0.00000000000E+00 0. -1.
         11    1    1    2    0    0  0.50883131874E+01  0.75775633073E+02 -0.20199955501E+03  0.21580467493E+03  0.00000000000E+00 0.  1.
<mgrwt>
<rscale>  0 0.13212598E+03</rscale>
<asrwt>0</asrwt>
<pdfrwt beam="1">  1        4 0.57453451E-02 0.14041898E+03</pdfrwt>
<pdfrwt beam="2">  1       -4 0.66248253E-01 0.14041898E+03</pdfrwt>
<totfact> 0.68287372E+02</totfact>
</mgrwt>
</event>
<event>
 6    1  0.1646349E-005  0.2588566E+03  0.7546771E-02  0.1110474E+00
         -1   -1    0    0    0  501 -0.00000000000E+00  0.00000000000E+00  0.12212631613E+03  0.12212631613E+03  0.00000000000E+00 0.  1.
          1   -1    0    0  501    0  0.00000000000E+00 -0.00000000000E+00 -0.54853666952E+03  0.54853666952E+03  0.00000000000E+00 0. -1.
          5    1    1    2  502    0  0.12796817945E+03 -0.26188988238E+02 -0.79701280472E+02  0.15308854355E+03  0.47000000000E+01 0.  1.
         -5    1    1    2    0  502  0.82011252331E+02 -0.59196770277E+02 -0.22493578849E+03  0.24667448604E+03  0.47000000000E+01 0.  1.
        -11    1    1    2    0    0 -0.14442729716E+03  0.88899012737E+02 -0.57629718892E+02  0.17911857283E+03  0.00000000000E+00 0. -1.
         11    1    1    2    0    0 -0.65552134621E+02 -0.35132542225E+01 -0.64143565539E+02  0.91781383236E+02  0.00000000000E+00 0.  1.
<mgrwt>
<rscale>  0 0.25453221E+03</rscale>
<asrwt>0</asrwt>
<pdfrwt beam="2">  1        1 0.84390257E-01 0.25885659E+03</pdfrwt>
<pdfrwt beam="1">  1       -1 0.18788664E-01 0.25885659E+03</pdfrwt>
<totfact> 0.89168556E+02</totfact>
</mgrwt>
</event>
<event>
 6    1  0.8353100E-006  0.1387647E+03  0.7546771E-02  0.1231333E+00
          1   -1    0    0  501    0  0.00000000000E+00  0.00000000000E+00  0.60522196466E+03  0.60522196466E+03  0.00000000000E+00 0. -1.
         -1   -1    0    0    0  501 -0.00000000000E+00 -0.00000000000E+00 -0.72562467861E+02  0.72562467861E+02  0.00000000000E+00 0.  1.
          5    1    1    2  502    0  0.56356008994E+02  0.46038484013E+02  0.28875310790E+03  0.29781871848E+03  0.47000000000E+01 0. -1.
         -5    1    1    2    0  502 -0.74687378409E+01 -0.65228096658E+02  0.27000619689E+03  0.27791351712E+03  0.47000000000E+01 0.  1.
        -11    1    1    2    0    0 -0.26650675961E+02  0.26303016774E+02  0.25576973360E+02  0.45346320544E+02  0.00000000000E+00 0. -1.
         11    1    1    2    0    0 -0.22236595193E+02 -0.71134041293E+01 -0.51676781351E+02  0.56705876370E+02  0.00000000000E+00 0.  1.
<mgrwt>
<rscale>  0 0.12742148E+03</rscale>
<asrwt>0</asrwt>
<pdfrwt beam="1">  1        1 0.93111068E-01 0.13876472E+03</pdfrwt>
<pdfrwt beam="2">  1       -1 0.11163457E-01 0.13876472E+03</pdfrwt>
<totfact> 0.17611713E+03</totfact>
</mgrwt>
</event>
<event>
 6    1  0.8353100E-006  0.2187114E+03  0.7546771E-02  0.1138423E+00
         -2   -1    0    0    0  501 -0.00000000000E+00  0.00000000000E+00  0.16460807466E+03  0.16460807466E+03  0.00000000000E+00 0. -1.
          2   -1    0    0  501    0  0.00000000000E+00 -0.00000000000E+00 -0.38215392436E+03  0.38215392436E+03  0.00000000000E+00 0.  1.
          5    1    1    2  502    0  0.59374896372E+02  0.33854546066E+00 -0.11245553059E+02  0.60613904311E+02  0.47000000000E+01 0. -1.
         -5    1    1    2    0  502  0.10750077688E+03  0.65708974383E+02 -0.25082474115E+03  0.28072981159E+03  0.47000000000E+01 0. -1.
        -11    1    1    2    0    0 -0.14804126015E+03 -0.52133675121E+02  0.21072745749E+01  0.15696679711E+03  0.00000000000E+00 0.  1.
         11    1    1    2    0    0 -0.18834413096E+02 -0.13913844723E+02  0.42417169931E+02  0.48451486010E+02  0.00000000000E+00 0. -1.
<mgrwt>
<rscale>  0 0.21401840E+03</rscale>
<asrwt>0</asrwt>
<pdfrwt beam="2">  1        2 0.58792910E-01 0.21871144E+03</pdfrwt>
<pdfrwt beam="1">  1       -2 0.25324320E-01 0.21871144E+03</pdfrwt>
<totfact> 0.11636326E+03</totfact>
</mgrwt>
</event>
<event>
 6    1  0.8353100E-006  0.1447662E+03  0.7546771E-02  0.1217279E+00
          2   -1    0    0  501    0  0.00000000000E+00  0.00000000000E+00  0.98585990312E+02  0.98585990312E+02  0.00000000000E+00 0. -1.
         -2   -1    0    0    0  501 -0.00000000000E+00 -0.00000000000E+00 -0.17467520672E+03  0.17467520672E+03  0.00000000000E+00 0.  1.
          5    1    1    2  502    0 -0.30900139822E+02 -0.62505400520E+02 -0.12393614673E+01  0.69895420108E+02  0.47000000000E+01 0. -1.
         -5    1    1    2    0  502  0.65552751651E+02 -0.51572640174E+00 -0.53963739501E+02  0.85038840559E+02  0.47000000000E+01 0. -1.
        -11    1    1    2    0    0  0.16368412410E+02  0.61736260196E+02 -0.21177950045E+02  0.67288901877E+02  0.00000000000E+00 0.  1.
         11    1    1    2    0    0 -0.51021024238E+02  0.12848667263E+01  0.29183460495E+00  0.51038034487E+02  0.00000000000E+00 0. -1.
<mgrwt>
<rscale>  0 0.13710488E+03</rscale>
<asrwt>0</asrwt>
<pdfrwt beam="1">  1        2 0.15167076E-01 0.14476617E+03</pdfrwt>
<pdfrwt beam="2">  1       -2 0.26873109E-01 0.14476617E+03</pdfrwt>
<totfact> 0.46027356E+03</totfact>
</mgrwt>
</event>
<event>
 6    1  0.8353100E-006  0.1878508E+03  0.7546771E-02  0.1165466E+00
          1   -1    0    0  501    0  0.00000000000E+00  0.00000000000E+00  0.66711111028E+03  0.66711111028E+03  0.00000000000E+00 0. -1.
         -1   -1    0    0    0  501 -0.00000000000E+00 -0.00000000000E+00 -0.65091860937E+02  0.65091860937E+02  0.00000000000E+00 0.  1.
          5    1    1    2  502    0  0.25250733044E+02 -0.56833115690E+02  0.34780046197E+03  0.35334806339E+03  0.47000000000E+01 0.  1.
         -5    1    1    2    0  502 -0.57842772253E+02 -0.79547894927E+02  0.15757429392E+03  0.18581012350E+03  0.47000000000E+01 0.  1.
        -11    1    1    2    0    0 -0.21687631382E+02  0.38100839941E+02 -0.15798613730E+01  0.43869389341E+02  0.00000000000E+00 0.  1.
         11    1    1    2    0    0  0.54279670592E+02  0.98280170677E+02  0.98224354825E+02  0.14917539498E+03  0.00000000000E+00 0. -1.
<mgrwt>
<rscale>  0 0.18243622E+03</rscale>
<asrwt>0</asrwt>
<pdfrwt beam="1">  1        1 0.10263247E+00 0.18785076E+03</pdfrwt>
<pdfrwt beam="2">  1       -1 0.10014133E-01 0.18785076E+03</pdfrwt>
<totfact> 0.18280210E+03</totfact>
</mgrwt>
</event>
<event>
 6    1  0.8353100E-006  0.1486043E+03  0.7546771E-02  0.1211909E+00
         -2   -1    0    0    0  501 -0.00000000000E+00  0.00000000000E+00  0.13431701093E+03  0.13431701093E+03  0.00000000000E+00 0.  1.
          2   -1    0    0  501    0  0.00000000000E+00 -0.00000000000E+00 -0.13533558327E+03  0.13533558327E+03  0.00000000000E+00 0. -1.
          5    1    1    2  502    0  0.17404869139E+02 -0.32790279890E+02 -0.48581576875E+02  0.61322031414E+02  0.47000000000E+01 0. -1.
         -5    1    1    2    0  502 -0.56137219732E+02 -0.37626811734E+02  0.55274369151E+02  0.87432890182E+02  0.47000000000E+01 0. -1.
        -11    1    1    2    0    0 -0.14213601994E+02 -0.52099718232E+01  0.19468096592E+02  0.24661246379E+02  0.00000000000E+00 0.  1.
         11    1    1    2    0    0  0.52945952587E+02  0.75627063448E+02 -0.27179461208E+02  0.96236426226E+02  0.00000000000E+00 0. -1.
<mgrwt>
<rscale>  0 0.14106091E+03</rscale>
<asrwt>0</asrwt>
<pdfrwt beam="2">  1        2 0.20820859E-01 0.14860428E+03</pdfrwt>
<pdfrwt beam="1">  1       -2 0.20664155E-01 0.14860428E+03</pdfrwt>
<totfact> 0.50519363E+03</totfact>
</mgrwt>
</event>
<event>
 6    1  0.8353100E-006  0.1388247E+03  0.7546771E-02  0.1243063E+00
         -1   -1    0    0    0  501 -0.00000000000E+00  0.00000000000E+00  0.65472827138E+02  0.65472827138E+02  0.00000000000E+00 0.  1.
          1   -1    0    0  501    0  0.00000000000E+00 -0.00000000000E+00 -0.17994524181E+03  0.17994524181E+03  0.00000000000E+00 0. -1.
          5    1    1    2  502    0  0.28124190871E+02 -0.67294706488E+02 -0.31438681736E+02  0.79561475242E+02  0.47000000000E+01 0.  1.
         -5    1    1    2    0  502 -0.61547232135E+02  0.17000404765E+02 -0.51364952273E+02  0.82082421185E+02  0.47000000000E+01 0.  1.
        -11    1    1    2    0    0  0.11117441001E+01  0.36884919825E+02 -0.47726430613E+00  0.36904756694E+02  0.00000000000E+00 0.  1.
         11    1    1    2    0    0  0.32311297164E+02  0.13409381898E+02 -0.31191516361E+02  0.46869415829E+02  0.00000000000E+00 0. -1.
<mgrwt>
<rscale>  0 0.12002077E+03</rscale>
<asrwt>0</asrwt>
<pdfrwt beam="2">  1        1 0.27683883E-01 0.13882474E+03</pdfrwt>
<pdfrwt beam="1">  1       -1 0.10072743E-01 0.13882474E+03</pdfrwt>
<totfact> 0.95546512E+03</totfact>
</mgrwt>
</event>
<event>
 6    1  0.8353100E-006  0.1286321E+03  0.7546771E-02  0.1243984E+00
         -2   -1    0    0    0  501 -0.00000000000E+00  0.00000000000E+00  0.44710866229E+02  0.44710866229E+02  0.00000000000E+00 0.  1.
          2   -1    0    0  501    0  0.00000000000E+00 -0.00000000000E+00 -0.29343673917E+03  0.29343673917E+03  0.00000000000E+00 0. -1.
          5    1    1    2  502    0 -0.57000873738E+02 -0.15573114196E+02 -0.16573668772E+03  0.17601807052E+03  0.47000000000E+01 0. -1.
         -5    1    1    2    0  502  0.39269165492E+02 -0.90674563576E+01 -0.10042928623E+02  0.41799958595E+02  0.47000000000E+01 0. -1.
        -11    1    1    2    0    0 -0.35970804566E+02  0.66619479472E+01 -0.15715497349E+02  0.39815288376E+02  0.00000000000E+00 0.  1.
         11    1    1    2    0    0  0.53702512812E+02  0.17978622607E+02 -0.57230759245E+02  0.80514287905E+02  0.00000000000E+00 0. -1.
<mgrwt>
<rscale>  0 0.11946410E+03</rscale>
<asrwt>0</asrwt>
<pdfrwt beam="2">  1        2 0.45144114E-01 0.12863211E+03</pdfrwt>
<pdfrwt beam="1">  1       -2 0.68785948E-02 0.12863211E+03</pdfrwt>
<totfact> 0.12579147E+04</totfact>
</mgrwt>
</event>
<event>
 6    1  0.8353100E-006  0.2085861E+03  0.7546771E-02  0.1146553E+00
          2   -1    0    0  501    0  0.00000000000E+00  0.00000000000E+00  0.21399720467E+04  0.21399720467E+04  0.00000000000E+00 0. -1.
         -2   -1    0    0    0  501 -0.00000000000E+00 -0.00000000000E+00 -0.21994405050E+02  0.21994405050E+02  0.00000000000E+00 0.  1.
          5    1    1    2  502    0  0.44623633820E+02  0.26639436657E+02  0.77804963651E+03  0.77979757319E+03  0.47000000000E+01 0. -1.
         -5    1    1    2    0  502  0.11576758575E+03 -0.73092957498E+02  0.74799018440E+03  0.76043153558E+03  0.47000000000E+01 0. -1.
        -11    1    1    2    0    0 -0.95735122934E+02  0.23259003566E+02  0.19052841293E+03  0.21449305616E+03  0.00000000000E+00 0. -1.
         11    1    1    2    0    0 -0.64656096634E+02  0.23194517275E+02  0.40140940783E+03  0.40724428684E+03  0.00000000000E+00 0.  1.
<mgrwt>
<rscale>  0 0.20382293E+03</rscale>
<asrwt>0</asrwt>
<pdfrwt beam="1">  1        2 0.32922630E+00 0.20858613E+03</pdfrwt>
<pdfrwt beam="2">  1       -2 0.33837563E-02 0.20858613E+03</pdfrwt>
<totfact> 0.22241619E+03</totfact>
</mgrwt>
</event>
<event>
 6    1  0.8353100E-006  0.3559167E+03  0.7546771E-02  0.1060898E+00
          2   -1    0    0  501    0  0.00000000000E+00  0.00000000000E+00  0.20486381809E+04  0.20486381809E+04  0.00000000000E+00 0. -1.
         -2   -1    0    0    0  501 -0.00000000000E+00 -0.00000000000E+00 -0.61681613246E+02  0.61681613246E+02  0.00000000000E+00 0.  1.
          5    1    1    2  502    0 -0.32792830796E+03 -0.13309099384E+02  0.98727439868E+03  0.10404071009E+04  0.47000000000E+01 0. -1.
         -5    1    1    2    0  502 -0.38189222299E+01 -0.18247527921E+02  0.15086755386E+03  0.15208768935E+03  0.47000000000E+01 0. -1.
        -11    1    1    2    0    0  0.17332181469E+03  0.67793593670E+02  0.47849122038E+03  0.51341043111E+03  0.00000000000E+00 0.  1.
         11    1    1    2    0    0  0.15842541550E+03 -0.36236966365E+02  0.37032339472E+03  0.40441457279E+03  0.00000000000E+00 0. -1.
<mgrwt>
<rscale>  0 0.35421676E+03</rscale>
<asrwt>0</asrwt>
<pdfrwt beam="1">  1        2 0.31517505E+00 0.35591673E+03</pdfrwt>
<pdfrwt beam="2">  1       -2 0.94894806E-02 0.35591673E+03</pdfrwt>
<totfact> 0.49946649E+02</totfact>
</mgrwt>
</event>
<event>
 6    1  0.8353100E-006  0.1688758E+03  0.7546771E-02  0.1185720E+00
         -2   -1    0    0    0  501 -0.00000000000E+00  0.00000000000E+00  0.35856040592E+03  0.35856040592E+03  0.00000000000E+00 0.  1.
          2   -1    0    0  501    0  0.00000000000E+00 -0.00000000000E+00 -0.75971629399E+02  0.75971629399E+02  0.00000000000E+00 0. -1.
          5    1    1    2  502    0 -0.45133688978E+02  0.16325193450E+02  0.46015015053E+02  0.66656083235E+02  0.47000000000E+01 0.  1.
         -5    1    1    2    0  502  0.65883110111E+02  0.95316856814E+02  0.38515071351E+02  0.12219405923E+03  0.47000000000E+01 0.  1.
        -11    1    1    2    0    0 -0.43405304338E+02 -0.33670359983E+02  0.12466196705E+03  0.13622892357E+03  0.00000000000E+00 0. -1.
         11    1    1    2    0    0  0.22655883204E+02 -0.77971690281E+02  0.73396723066E+02  0.10945296929E+03  0.00000000000E+00 0.  1.
<mgrwt>
<rscale>  0 0.16266498E+03</rscale>
<asrwt>0</asrwt>
<pdfrwt beam="2">  1        2 0.11687943E-01 0.16887581E+03</pdfrwt>
<pdfrwt beam="1">  1       -2 0.55163139E-01 0.16887581E+03</pdfrwt>
<totfact> 0.16275423E+03</totfact>
</mgrwt>
</event>
<event>
 6    1  0.8353100E-006  0.3178701E+03  0.7546771E-02  0.1076634E+00
          3   -1    0    0  501    0  0.00000000000E+00  0.00000000000E+00  0.40099593954E+03  0.40099593954E+03  0.00000000000E+00 0. -1.
         -3   -1    0    0    0  501 -0.00000000000E+00 -0.00000000000E+00 -0.62994033247E+02  0.62994033247E+02  0.00000000000E+00 0.  1.
          5    1    1    2  502    0 -0.32307978777E+02 -0.73937260219E+01  0.45900017894E+02  0.56809984332E+02  0.47000000000E+01 0.  1.
         -5    1    1    2    0  502  0.62607125294E+02  0.11199875343E+03  0.78934822982E+02  0.15071884151E+03  0.47000000000E+01 0.  1.
        -11    1    1    2    0    0 -0.20178099281E+02 -0.43256411471E+02  0.17953222220E+03  0.18576891998E+03  0.00000000000E+00 0. -1.
         11    1    1    2    0    0 -0.10121047236E+02 -0.61348615935E+02  0.33634843217E+02  0.70692226960E+02  0.00000000000E+00 0.  1.
<mgrwt>
<rscale>  0 0.31787011E+03</rscale>
<asrwt>0</asrwt>
<pdfrwt beam="1">  1        3 0.61691682E-01 0.31787011E+03</pdfrwt>
<pdfrwt beam="2">  1       -3 0.96913900E-02 0.31787011E+03</pdfrwt>
<totfact> 0.51975410E+02</totfact>
</mgrwt>
</event>
<event>
 6    1  0.8353100E-006  0.1458221E+03  0.7546771E-02  0.1225743E+00
         -2   -1    0    0    0  501 -0.00000000000E+00  0.00000000000E+00  0.18384384974E+03  0.18384384974E+03  0.00000000000E+00 0.  1.
          2   -1    0    0  501    0  0.00000000000E+00 -0.00000000000E+00 -0.82842040261E+02  0.82842040261E+02  0.00000000000E+00 0. -1.
          5    1    1    2  502    0  0.50001843593E+02  0.63006558701E+02  0.14493807297E+02  0.81866789676E+02  0.47000000000E+01 0. -1.
         -5    1    1    2    0  502 -0.52794240407E+02 -0.37728643439E+02  0.18546237302E+02  0.67651572591E+02  0.47000000000E+01 0.  1.
        -11    1    1    2    0    0 -0.42425138104E+02  0.22084210049E+01  0.28488963520E+02  0.51150664794E+02  0.00000000000E+00 0.  1.
         11    1    1    2    0    0  0.45217534918E+02 -0.27486336267E+02  0.39472801361E+02  0.66016862943E+02  0.00000000000E+00 0. -1.
<mgrwt>
<rscale>  0 0.13116078E+03</rscale>
<asrwt>0</asrwt>
<pdfrwt beam="2">  1        2 0.12744929E-01 0.14582214E+03</pdfrwt>
<pdfrwt beam="1">  1       -2 0.28283669E-01 0.14582214E+03</pdfrwt>
<totfact> 0.51665074E+03</totfact>
</mgrwt>
</event>
<event>
 6    1  0.8353100E-006  0.1263251E+03  0.7546771E-02  0.1249381E+00
          1   -1    0    0  501    0  0.00000000000E+00  0.00000000000E+00  0.10906305317E+04  0.10906305317E+04  0.00000000000E+00 0. -1.
         -1   -1    0    0    0  501 -0.00000000000E+00 -0.00000000000E+00 -0.15187731450E+02  0.15187731450E+02  0.00000000000E+00 0.  1.
          5    1    1    2  502    0  0.44545971848E+02  0.50051998782E+02  0.55307444361E+03  0.55713820221E+03  0.47000000000E+01 0. -1.
         -5    1    1    2    0  502 -0.26275112625E+02 -0.50975465509E+02  0.34204352901E+03  0.34684974465E+03  0.47000000000E+01 0. -1.
        -11    1    1    2    0    0 -0.34773720530E+02 -0.18019924617E+02  0.29774459629E+02  0.49198046393E+02  0.00000000000E+00 0.  1.
         11    1    1    2    0    0  0.16502861306E+02  0.18943391344E+02  0.15055036796E+03  0.15263226985E+03  0.00000000000E+00 0. -1.
<mgrwt>
<rscale>  0 0.11626950E+03</rscale>
<asrwt>0</asrwt>
<pdfrwt beam="1">  1        1 0.16778925E+00 0.12632507E+03</pdfrwt>
<pdfrwt beam="2">  1       -1 0.23365749E-02 0.12632507E+03</pdfrwt>
<totfact> 0.72386544E+03</totfact>
</mgrwt>
</event>
<event>
 6    1  0.8353100E-006  0.1317132E+03  0.7546771E-02  0.1238586E+00
         -1   -1    0    0    0  501 -0.00000000000E+00  0.00000000000E+00  0.11476704581E+03  0.11476704581E+03  0.00000000000E+00 0.  1.
          1   -1    0    0  501    0  0.00000000000E+00 -0.00000000000E+00 -0.11666847767E+03  0.11666847767E+03  0.00000000000E+00 0. -1.
          5    1    1    2  502    0  0.45199585081E+02  0.16820588741E+02  0.54632776021E+02  0.73025782521E+02  0.47000000000E+01 0. -1.
         -5    1    1    2    0  502 -0.57624358745E+01 -0.29707266343E+02 -0.50153158880E+02  0.58763565978E+02  0.47000000000E+01 0. -1.
        -11    1    1    2    0    0 -0.52108887831E+02  0.22188802195E+02  0.27004570234E+02  0.62744927663E+02  0.00000000000E+00 0.  1.
         11    1    1    2    0    0  0.12671738625E+02 -0.93021245931E+01 -0.33385619235E+02  0.36901247315E+02  0.00000000000E+00 0. -1.
<mgrwt>
<rscale>  0 0.12277616E+03</rscale>
<asrwt>0</asrwt>
<pdfrwt beam="2">  1        1 0.17948997E-01 0.13171319E+03</pdfrwt>
<pdfrwt beam="1">  1       -1 0.17656469E-01 0.13171319E+03</pdfrwt>
<totfact> 0.68752510E+03</totfact>
</mgrwt>
</event>
<event>
 6    1  0.8353100E-006  0.1554464E+03  0.7546771E-02  0.1207052E+00
         -1   -1    0    0    0  501 -0.00000000000E+00  0.00000000000E+00  0.45448247307E+02  0.45448247307E+02  0.00000000000E+00 0.  1.
          1   -1    0    0  501    0  0.00000000000E+00 -0.00000000000E+00 -0.40821367485E+03  0.40821367485E+03  0.00000000000E+00 0. -1.
          5    1    1    2  502    0  0.36232508887E+02 -0.34216126203E+02 -0.59406939137E+02  0.77684055058E+02  0.47000000000E+01 0. -1.
         -5    1    1    2    0  502 -0.99540334604E+02 -0.33084232442E+02 -0.15087063496E+03  0.18381208650E+03  0.47000000000E+01 0. -1.
        -11    1    1    2    0    0  0.70392907058E+02  0.51991361001E+02 -0.15187766138E+03  0.17528572962E+03  0.00000000000E+00 0. -1.
         11    1    1    2    0    0 -0.70850813413E+01  0.15308997644E+02 -0.61019205686E+00  0.16880050972E+02  0.00000000000E+00 0.  1.
<mgrwt>
<rscale>  0 0.14476945E+03</rscale>
<asrwt>0</asrwt>
<pdfrwt beam="2">  1        1 0.62802102E-01 0.15544637E+03</pdfrwt>
<pdfrwt beam="1">  1       -1 0.69920382E-02 0.15544637E+03</pdfrwt>
<totfact> 0.60335534E+03</totfact>
</mgrwt>
</event>
<event>
 6    1  0.8353100E-006  0.1333958E+03  0.7546771E-02  0.1237422E+00
          1   -1    0    0  501    0  0.00000000000E+00  0.00000000000E+00  0.52253522481E+03  0.52253522481E+03  0.00000000000E+00 0. -1.
         -1   -1    0    0    0  501 -0.00000000000E+00 -0.00000000000E+00 -0.41250116586E+02  0.41250116586E+02  0.00000000000E+00 0.  1.
          5    1    1    2  502    0 -0.11110164259E+02 -0.74268305757E+01  0.39274450827E+03  0.39299991392E+03  0.47000000000E+01 0.  1.
         -5    1    1    2    0  502  0.27381192004E+02 -0.36204449574E+02  0.42987120644E+02  0.62693495562E+02  0.47000000000E+01 0.  1.
        -11    1    1    2    0    0  0.43542304557E+01  0.62518059494E+02  0.10980930790E+02  0.63624271523E+02  0.00000000000E+00 0.  1.
         11    1    1    2    0    0 -0.20625258201E+02 -0.18886779344E+02  0.34572548518E+02  0.44467660393E+02  0.00000000000E+00 0. -1.
<mgrwt>
<rscale>  0 0.12350652E+03</rscale>
<asrwt>0</asrwt>
<pdfrwt beam="1">  1        1 0.80390030E-01 0.13339577E+03</pdfrwt>
<pdfrwt beam="2">  1       -1 0.63461722E-02 0.13339577E+03</pdfrwt>
<totfact> 0.50323368E+03</totfact>
</mgrwt>
</event>
<event>
 6    1  0.8353100E-006  0.1340489E+03  0.7546771E-02  0.1233911E+00
         -1   -1    0    0    0  501 -0.00000000000E+00  0.00000000000E+00  0.30965615911E+03  0.30965615911E+03  0.00000000000E+00 0.  1.
          1   -1    0    0  501    0  0.00000000000E+00 -0.00000000000E+00 -0.11180034441E+03  0.11180034441E+03  0.00000000000E+00 0. -1.
          5    1    1    2  502    0  0.87262930636E+02 -0.18005401369E+02 -0.55014481072E+02  0.10482221458E+03  0.47000000000E+01 0.  1.
         -5    1    1    2    0  502 -0.39932838188E+02  0.77634720155E+01 -0.24494353712E+01  0.41024295206E+02  0.47000000000E+01 0.  1.
        -11    1    1    2    0    0  0.17478883188E+02 -0.22692308735E+02  0.10171135855E+03  0.10566765206E+03  0.00000000000E+00 0.  1.
         11    1    1    2    0    0 -0.64808975635E+02  0.32934238089E+02  0.15360837260E+03  0.16994234168E+03  0.00000000000E+00 0. -1.
<mgrwt>
<rscale>  0 0.12574421E+03</rscale>
<asrwt>0</asrwt>
<pdfrwt beam="2">  1        1 0.17200053E-01 0.13404888E+03</pdfrwt>
<pdfrwt beam="1">  1       -1 0.47639409E-01 0.13404888E+03</pdfrwt>
<totfact> 0.13716534E+03</totfact>
</mgrwt>
</event>
<event>
 6    1  0.8353100E-006  0.2079504E+03  0.7546771E-02  0.1168297E+00
         -2   -1    0    0    0  501 -0.00000000000E+00  0.00000000000E+00  0.28706773574E+02  0.28706773574E+02  0.00000000000E+00 0.  1.
          2   -1    0    0  501    0  0.00000000000E+00 -0.00000000000E+00 -0.93612667131E+03  0.93612667131E+03  0.00000000000E+00 0. -1.
          5    1    1    2  502    0 -0.24407055829E+02 -0.71706254237E+02 -0.38185968615E+03  0.38932814075E+03  0.47000000000E+01 0. -1.
         -5    1    1    2    0  502 -0.20856991482E+02  0.11706515156E+03 -0.27447576019E+03  0.29916265933E+03  0.47000000000E+01 0.  1.
        -11    1    1    2    0    0  0.61678347633E+02 -0.51801281367E+02 -0.24465684214E+03  0.25757438096E+03  0.00000000000E+00 0.  1.
         11    1    1    2    0    0 -0.16414300322E+02  0.64423840446E+01 -0.64276092484E+01  0.18768263849E+02  0.00000000000E+00 0. -1.
<mgrwt>
<rscale>  0 0.17949006E+03</rscale>
<asrwt>0</asrwt>
<pdfrwt beam="2">  1        2 0.14401949E+00 0.20795039E+03</pdfrwt>
<pdfrwt beam="1">  1       -2 0.44164266E-02 0.20795039E+03</pdfrwt>
<totfact> 0.67268433E+03</totfact>
</mgrwt>
</event>
<event>
 6    1  0.8353100E-006  0.2770362E+03  0.7546771E-02  0.1098724E+00
          2   -1    0    0  501    0  0.00000000000E+00  0.00000000000E+00  0.20523538301E+04  0.20523538301E+04  0.00000000000E+00 0. -1.
         -2   -1    0    0    0  501 -0.00000000000E+00 -0.00000000000E+00 -0.38143065930E+02  0.38143065930E+02  0.00000000000E+00 0.  1.
          5    1    1    2  502    0  0.10421376863E+02 -0.44319412431E+02  0.46266343950E+03  0.46492188985E+03  0.47000000000E+01 0. -1.
         -5    1    1    2    0  502 -0.11127012386E+03 -0.18140967284E+03  0.80584919883E+03  0.83348997062E+03  0.47000000000E+01 0. -1.
        -11    1    1    2    0    0  0.94426476058E+01  0.81058215038E+02  0.13393614062E+03  0.15683904993E+03  0.00000000000E+00 0.  1.
         11    1    1    2    0    0  0.91406099394E+02  0.14467087023E+03  0.61176198526E+03  0.63524598567E+03  0.00000000000E+00 0. -1.
<mgrwt>
<rscale>  0 0.27451349E+03</rscale>
<asrwt>0</asrwt>
<pdfrwt beam="1">  1        2 0.31574666E+00 0.27703618E+03</pdfrwt>
<pdfrwt beam="2">  1       -2 0.58681656E-02 0.27703618E+03</pdfrwt>
<totfact> 0.10671828E+03</totfact>
</mgrwt>
</event>
<event>
 6    1  0.8353100E-006  0.2106070E+03  0.7546771E-02  0.1145886E+00
          2   -1    0    0  501    0  0.00000000000E+00  0.00000000000E+00  0.24951327874E+04  0.24951327874E+04  0.00000000000E+00 0.  1.
         -2   -1    0    0    0  501 -0.00000000000E+00 -0.00000000000E+00 -0.17063243958E+02  0.17063243958E+02  0.00000000000E+00 0. -1.
          5    1    1    2  502    0  0.94802737156E+02  0.29045661112E+02  0.13872709766E+04  0.13908177674E+04  0.47000000000E+01 0.  1.
         -5    1    1    2    0  502  0.69386660967E+02  0.13053567782E+02  0.24595771265E+03  0.25593395782E+03  0.47000000000E+01 0.  1.
        -11    1    1    2    0    0 -0.66291675429E+02  0.72139043571E+01  0.18700961531E+03  0.19854274821E+03  0.00000000000E+00 0. -1.
         11    1    1    2    0    0 -0.97897722694E+02 -0.49313133252E+02  0.65783123883E+03  0.66690155795E+03  0.00000000000E+00 0.  1.
<mgrwt>
<rscale>  0 0.20463533E+03</rscale>
<asrwt>0</asrwt>
<pdfrwt beam="1">  1        2 0.38386629E+00 0.21060696E+03</pdfrwt>
<pdfrwt beam="2">  1       -2 0.26251164E-02 0.21060696E+03</pdfrwt>
<totfact> 0.20970592E+03</totfact>
</mgrwt>
</event>
<event>
 6    1  0.8353100E-006  0.1458718E+03  0.7546771E-02  0.1215161E+00
          2   -1    0    0  501    0  0.00000000000E+00  0.00000000000E+00  0.17051537227E+04  0.17051537227E+04  0.00000000000E+00 0. -1.
         -2   -1    0    0    0  501 -0.00000000000E+00 -0.00000000000E+00 -0.11272647736E+02  0.11272647736E+02  0.00000000000E+00 0.  1.
          5    1    1    2  502    0 -0.69934073688E+01 -0.32010229781E+02  0.10842521498E+04  0.10847572894E+04  0.47000000000E+01 0. -1.
         -5    1    1    2    0  502  0.15786545888E+02 -0.37201812667E+02  0.93159835239E+02  0.10165645478E+03  0.47000000000E+01 0.  1.
        -11    1    1    2    0    0  0.40031068919E+02  0.12564056540E+02  0.23833549432E+03  0.24200030961E+03  0.00000000000E+00 0.  1.
         11    1    1    2    0    0 -0.48824207438E+02  0.56647985907E+02  0.27813359557E+03  0.28801231662E+03  0.00000000000E+00 0. -1.
<mgrwt>
<rscale>  0 0.13864734E+03</rscale>
<asrwt>0</asrwt>
<pdfrwt beam="1">  1        2 0.26233114E+00 0.14587183E+03</pdfrwt>
<pdfrwt beam="2">  1       -2 0.17342549E-02 0.14587183E+03</pdfrwt>
<totfact> 0.99325848E+03</totfact>
</mgrwt>
</event>
<event>
 6    1  0.8353100E-006  0.1663077E+03  0.7546771E-02  0.1188632E+00
          2   -1    0    0  501    0  0.00000000000E+00  0.00000000000E+00  0.15328478570E+04  0.15328478570E+04  0.00000000000E+00 0. -1.
         -2   -1    0    0    0  501 -0.00000000000E+00 -0.00000000000E+00 -0.18449932993E+02  0.18449932993E+02  0.00000000000E+00 0.  1.
          5    1    1    2  502    0  0.16167475085E+02  0.52098710942E+02  0.23043162430E+03  0.23684696834E+03  0.47000000000E+01 0. -1.
         -5    1    1    2    0  502  0.93137246146E+02 -0.42844273292E+02  0.88125436690E+03  0.88720996813E+03  0.47000000000E+01 0. -1.
        -11    1    1    2    0    0 -0.71711581255E+02 -0.38035616889E+02  0.33449596358E+03  0.34420460294E+03  0.00000000000E+00 0. -1.
         11    1    1    2    0    0 -0.37593139976E+02  0.28781179239E+02  0.68215969200E+02  0.83036250551E+02  0.00000000000E+00 0.  1.
<mgrwt>
<rscale>  0 0.16005740E+03</rscale>
<asrwt>0</asrwt>
<pdfrwt beam="1">  1        2 0.23582265E+00 0.16630771E+03</pdfrwt>
<pdfrwt beam="2">  1       -2 0.28384524E-02 0.16630771E+03</pdfrwt>
<totfact> 0.59623256E+03</totfact>
</mgrwt>
</event>
<event>
 6    1  0.8353100E-006  0.2621849E+03  0.7546771E-02  0.1105838E+00
         -1   -1    0    0    0  501 -0.00000000000E+00  0.00000000000E+00  0.16114123138E+03  0.16114123138E+03  0.00000000000E+00 0.  1.
          1   -1    0    0  501    0  0.00000000000E+00 -0.00000000000E+00 -0.10664700697E+03  0.10664700697E+03  0.00000000000E+00 0. -1.
          5    1    1    2  502    0  0.91697338466E+02 -0.41856201282E+02  0.84552033322E+01  0.10126166072E+03  0.47000000000E+01 0.  1.
         -5    1    1    2    0  502 -0.20685788872E+02  0.28319008337E+02  0.34427934951E+02  0.49368419049E+02  0.47000000000E+01 0.  1.
        -11    1    1    2    0    0 -0.36840491669E+02 -0.12228319705E+02  0.47473188689E+02  0.61322567408E+02  0.00000000000E+00 0.  1.
         11    1    1    2    0    0 -0.34171057924E+02  0.25765512650E+02 -0.35862102559E+02  0.55835591174E+02  0.00000000000E+00 0. -1.
<mgrwt>
<rscale>  0 0.26218490E+03</rscale>
<asrwt>0</asrwt>
<pdfrwt beam="2">  1        1 0.16407232E-01 0.26218490E+03</pdfrwt>
<pdfrwt beam="1">  1       -1 0.24790959E-01 0.26218490E+03</pdfrwt>
<totfact> 0.46330863E+03</totfact>
</mgrwt>
</event>
<event>
 6    1  0.8353100E-006  0.2171681E+03  0.7546771E-02  0.1140025E+00
          1   -1    0    0  501    0  0.00000000000E+00  0.00000000000E+00  0.17757334530E+03  0.17757334530E+03  0.00000000000E+00 0. -1.
         -1   -1    0    0    0  501 -0.00000000000E+00 -0.00000000000E+00 -0.24583932292E+03  0.24583932292E+03  0.00000000000E+00 0.  1.
          5    1    1    2  502    0 -0.35649044142E+02 -0.11870315456E+03 -0.88973021982E+01  0.12434848306E+03  0.47000000000E+01 0. -1.
         -5    1    1    2    0  502  0.64697263218E+02 -0.56491318571E+02 -0.54712028599E+02  0.10194361684E+03  0.47000000000E+01 0. -1.
        -11    1    1    2    0    0 -0.37823892047E+02  0.10583914801E+03 -0.39340959830E+02  0.11908099421E+03  0.00000000000E+00 0.  1.
         11    1    1    2    0    0  0.87756729715E+01  0.69355325128E+02  0.34684313003E+02  0.78039574115E+02  0.00000000000E+00 0. -1.
<mgrwt>
<rscale>  0 0.21195792E+03</rscale>
<asrwt>0</asrwt>
<pdfrwt beam="1">  1        1 0.27318976E-01 0.21716806E+03</pdfrwt>
<pdfrwt beam="2">  1       -1 0.37821434E-01 0.21716806E+03</pdfrwt>
<totfact> 0.11606804E+03</totfact>
</mgrwt>
</event>
<event>
 6    1  0.8353100E-006  0.1434044E+03  0.7546771E-02  0.1220191E+00
         -4   -1    0    0    0  501 -0.00000000000E+00  0.00000000000E+00  0.76749931865E+02  0.76749931865E+02  0.00000000000E+00 0.  1.
          4   -1    0    0  501    0  0.00000000000E+00 -0.00000000000E+00 -0.26809144769E+03  0.26809144769E+03  0.00000000000E+00 0. -1.
          5    1    1    2  502    0  0.22336097651E+02 -0.25018757781E+01  0.15782202009E+02  0.27862672896E+02  0.47000000000E+01 0.  1.
         -5    1    1    2    0  502  0.42680328570E+02 -0.24211503161E+02 -0.19785425140E+03  0.20390243287E+03  0.47000000000E+01 0.  1.
        -11    1    1    2    0    0 -0.36089713416E+02  0.11925598480E+02  0.39280522630E+02  0.54659370392E+02  0.00000000000E+00 0.  1.
         11    1    1    2    0    0 -0.28926712805E+02  0.14787780459E+02 -0.48549989058E+02  0.58416903394E+02  0.00000000000E+00 0. -1.
<mgrwt>
<rscale>  0 0.13502021E+03</rscale>
<asrwt>0</asrwt>
<pdfrwt beam="2">  1        4 0.41244839E-01 0.14340444E+03</pdfrwt>
<pdfrwt beam="1">  1       -4 0.11807682E-01 0.14340444E+03</pdfrwt>
<totfact> 0.54800324E+02</totfact>
</mgrwt>
</event>
<event>
 6    1  0.8353100E-006  0.3005274E+03  0.7546771E-02  0.1130921E+00
         -1   -1    0    0    0  501 -0.00000000000E+00  0.00000000000E+00  0.12166083185E+03  0.12166083185E+03  0.00000000000E+00 0.  1.
          1   -1    0    0  501    0  0.00000000000E+00 -0.00000000000E+00 -0.54545404902E+03  0.54545404902E+03  0.00000000000E+00 0. -1.
          5    1    1    2  502    0 -0.61291320169E+02  0.99996326635E+02 -0.72207112337E+02  0.13781091517E+03  0.47000000000E+01 0. -1.
         -5    1    1    2    0  502  0.78165748536E+02 -0.10816510449E+03 -0.40207366379E+03  0.42366837879E+03  0.47000000000E+01 0.  1.
        -11    1    1    2    0    0  0.14285532316E+01  0.48432770551E+02  0.28922770154E+02  0.56429608017E+02  0.00000000000E+00 0. -1.
         11    1    1    2    0    0 -0.18302981599E+02 -0.40263992694E+02  0.21564788793E+02  0.49205978892E+02  0.00000000000E+00 0.  1.
<mgrwt>
<rscale>  0 0.22402050E+03</rscale>
<asrwt>0</asrwt>
<pdfrwt beam="2">  1        1 0.83916009E-01 0.30052744E+03</pdfrwt>
<pdfrwt beam="1">  1       -1 0.18717051E-01 0.30052744E+03</pdfrwt>
<totfact> 0.90392908E+02</totfact>
</mgrwt>
</event>
<event>
 6    1  0.8353100E-006  0.1299345E+03  0.7546771E-02  0.1241378E+00
          2   -1    0    0  501    0  0.00000000000E+00  0.00000000000E+00  0.74292776900E+03  0.74292776900E+03  0.00000000000E+00 0. -1.
         -2   -1    0    0    0  501 -0.00000000000E+00 -0.00000000000E+00 -0.26674329322E+02  0.26674329322E+02  0.00000000000E+00 0.  1.
          5    1    1    2  502    0 -0.81589481838E+01 -0.13169218862E+02  0.56776861345E+03  0.56799937076E+03  0.47000000000E+01 0. -1.
         -5    1    1    2    0  502 -0.22973926084E+02  0.30124469454E+02  0.48006366748E+02  0.61335032306E+02  0.47000000000E+01 0. -1.
        -11    1    1    2    0    0  0.40506764750E+02 -0.35918150366E+02  0.21075734325E+02  0.58095594442E+02  0.00000000000E+00 0.  1.
         11    1    1    2    0    0 -0.93738904817E+01  0.18962899774E+02  0.79402725151E+02  0.82172100812E+02  0.00000000000E+00 0. -1.
<mgrwt>
<rscale>  0 0.12104835E+03</rscale>
<asrwt>0</asrwt>
<pdfrwt beam="1">  1        2 0.11429656E+00 0.12993446E+03</pdfrwt>
<pdfrwt beam="2">  1       -2 0.41037435E-02 0.12993446E+03</pdfrwt>
<totfact> 0.98515009E+03</totfact>
</mgrwt>
</event>
<event>
 6    1  0.8353100E-006  0.1256665E+03  0.7546771E-02  0.1250018E+00
         -1   -1    0    0    0  501 -0.00000000000E+00  0.00000000000E+00  0.36418463550E+02  0.36418463550E+02  0.00000000000E+00 0.  1.
          1   -1    0    0  501    0  0.00000000000E+00 -0.00000000000E+00 -0.37586257317E+03  0.37586257317E+03  0.00000000000E+00 0. -1.
          5    1    1    2  502    0  0.20362377357E+02  0.48156459239E+02 -0.17366283316E+03  0.18142364950E+03  0.47000000000E+01 0. -1.
         -5    1    1    2    0  502 -0.26253832097E+02 -0.59646611452E+02 -0.96535606981E+02  0.11656841499E+03  0.47000000000E+01 0. -1.
        -11    1    1    2    0    0  0.43161646614E+02 -0.91665495000E+01 -0.52311197357E+02  0.68435478643E+02  0.00000000000E+00 0. -1.
         11    1    1    2    0    0 -0.37270191874E+02  0.20656701713E+02 -0.16934472121E+02  0.45853493585E+02  0.00000000000E+00 0.  1.
<mgrwt>
<rscale>  0 0.11589994E+03</rscale>
<asrwt>0</asrwt>
<pdfrwt beam="2">  1        1 0.57825013E-01 0.12566652E+03</pdfrwt>
<pdfrwt beam="1">  1       -1 0.56028404E-02 0.12566652E+03</pdfrwt>
<totfact> 0.91919317E+03</totfact>
</mgrwt>
</event>
<event>
 6    1  0.8353100E-006  0.1315896E+03  0.7546771E-02  0.1238492E+00
          2   -1    0    0  501    0  0.00000000000E+00  0.00000000000E+00  0.32462421778E+03  0.32462421778E+03  0.00000000000E+00 0. -1.
         -2   -1    0    0    0  501 -0.00000000000E+00 -0.00000000000E+00 -0.62789264043E+02  0.62789264043E+02  0.00000000000E+00 0.  1.
          5    1    1    2  502    0  0.77818351964E+02 -0.11946248144E+02  0.16783321311E+03  0.18544132811E+03  0.47000000000E+01 0. -1.
         -5    1    1    2    0  502 -0.41456974933E+02  0.31107713727E+02  0.87550912676E+02  0.10185098396E+03  0.47000000000E+01 0. -1.
        -11    1    1    2    0    0 -0.52049877909E+02 -0.33204257271E+02  0.29906729098E+02  0.68601202151E+02  0.00000000000E+00 0. -1.
         11    1    1    2    0    0  0.15688500877E+02  0.14042791688E+02 -0.23455901155E+02  0.31519967594E+02  0.00000000000E+00 0.  1.
<mgrwt>
<rscale>  0 0.12283491E+03</rscale>
<asrwt>0</asrwt>
<pdfrwt beam="1">  1        2 0.49942187E-01 0.13158959E+03</pdfrwt>
<pdfrwt beam="2">  1       -2 0.96598869E-02 0.13158959E+03</pdfrwt>
<totfact> 0.67004034E+03</totfact>
</mgrwt>
</event>
<event>
 6    1  0.8353100E-006  0.1772354E+03  0.7546771E-02  0.1176349E+00
         -2   -1    0    0    0  501 -0.00000000000E+00  0.00000000000E+00  0.54830996313E+02  0.54830996313E+02  0.00000000000E+00 0.  1.
          2   -1    0    0  501    0  0.00000000000E+00 -0.00000000000E+00 -0.64184552256E+03  0.64184552256E+03  0.00000000000E+00 0. -1.
          5    1    1    2  502    0 -0.57472745863E+01 -0.10969824535E+03 -0.28776107680E+03  0.30805074829E+03  0.47000000000E+01 0.  1.
         -5    1    1    2    0  502 -0.66726766368E+02  0.70643562988E+01 -0.18227574747E+03  0.19429077332E+03  0.47000000000E+01 0.  1.
        -11    1    1    2    0    0  0.79861366449E+02  0.59352852610E+02 -0.11251687874E+03  0.15020202051E+03  0.00000000000E+00 0.  1.
         11    1    1    2    0    0 -0.73873254949E+01  0.43281036441E+02 -0.44608232314E+01  0.44132976755E+02  0.00000000000E+00 0. -1.
<mgrwt>
<rscale>  0 0.17144512E+03</rscale>
<asrwt>0</asrwt>
<pdfrwt beam="2">  1        2 0.98745473E-01 0.17723540E+03</pdfrwt>
<pdfrwt beam="1">  1       -2 0.84355372E-02 0.17723540E+03</pdfrwt>
<totfact> 0.39801703E+03</totfact>
</mgrwt>
</event>
<event>
 6    1  0.8353100E-006  0.2499310E+03  0.7546771E-02  0.1115774E+00
          1   -1    0    0  501    0  0.00000000000E+00  0.00000000000E+00  0.68278731661E+03  0.68278731661E+03  0.00000000000E+00 0. -1.
         -1   -1    0    0    0  501 -0.00000000000E+00 -0.00000000000E+00 -0.98337721951E+02  0.98337721951E+02  0.00000000000E+00 0.  1.
          5    1    1    2  502    0  0.87606169168E+01 -0.66406033943E+01  0.14355064083E+01  0.12041457588E+02  0.47000000000E+01 0.  1.
         -5    1    1    2    0  502 -0.18996011248E+03  0.12498417931E+03  0.43618488320E+03  0.49191994445E+03  0.47000000000E+01 0.  1.
        -11    1    1    2    0    0  0.12726645913E+03 -0.11857482938E+03  0.13900875787E+03  0.22266606510E+03  0.00000000000E+00 0. -1.
         11    1    1    2    0    0  0.53933036431E+02  0.23125345995E+00  0.78204471746E+01  0.54497571422E+02  0.00000000000E+00 0.  1.
<mgrwt>
<rscale>  0 0.24613154E+03</rscale>
<asrwt>0</asrwt>
<pdfrwt beam="1">  1        1 0.10504420E+00 0.24993097E+03</pdfrwt>
<pdfrwt beam="2">  1       -1 0.15128881E-01 0.24993097E+03</pdfrwt>
<totfact> 0.92914800E+02</totfact>
</mgrwt>
</event>
<event>
 6    1  0.8353100E-006  0.1604077E+03  0.7546771E-02  0.1206817E+00
         -1   -1    0    0    0  501 -0.00000000000E+00  0.00000000000E+00  0.26318043886E+02  0.26318043886E+02  0.00000000000E+00 0.  1.
          1   -1    0    0  501    0  0.00000000000E+00 -0.00000000000E+00 -0.68605045798E+03  0.68605045798E+03  0.00000000000E+00 0. -1.
          5    1    1    2  502    0 -0.15608601329E+02 -0.62847661653E+02 -0.12810344172E+03  0.14361768272E+03  0.47000000000E+01 0.  1.
         -5    1    1    2    0  502 -0.83308233995E+02  0.44876088619E+02 -0.23176945628E+03  0.25038629365E+03  0.47000000000E+01 0.  1.
        -11    1    1    2    0    0  0.61900760629E+02  0.24042143553E+02 -0.15298484477E+03  0.16677557244E+03  0.00000000000E+00 0.  1.
         11    1    1    2    0    0  0.37016074694E+02 -0.60705705183E+01 -0.14687467133E+03  0.15158895306E+03  0.00000000000E+00 0. -1.
<mgrwt>
<rscale>  0 0.14495170E+03</rscale>
<asrwt>0</asrwt>
<pdfrwt beam="2">  1        1 0.10554623E+00 0.16040770E+03</pdfrwt>
<pdfrwt beam="1">  1       -1 0.40489296E-02 0.16040770E+03</pdfrwt>
<totfact> 0.68200524E+03</totfact>
</mgrwt>
</event>
<event>
 6    1  0.8353100E-006  0.1884890E+03  0.7546771E-02  0.1164936E+00
         -1   -1    0    0    0  501 -0.00000000000E+00  0.00000000000E+00  0.17162146899E+03  0.17162146899E+03  0.00000000000E+00 0.  1.
          1   -1    0    0  501    0  0.00000000000E+00 -0.00000000000E+00 -0.21971417133E+03  0.21971417133E+03  0.00000000000E+00 0. -1.
          5    1    1    2  502    0 -0.11943951889E+03  0.97728005415E+01 -0.97981874254E+02  0.15486718176E+03  0.47000000000E+01 0. -1.
         -5    1    1    2    0  502 -0.13045316686E+02 -0.58247030363E+02 -0.54155069116E+01  0.60119169561E+02  0.47000000000E+01 0. -1.
        -11    1    1    2    0    0  0.84481896703E+02  0.72973248350E+02  0.49591609147E+02  0.12215405660E+03  0.00000000000E+00 0.  1.
         11    1    1    2    0    0  0.48002938876E+02 -0.24499018528E+02  0.57130696847E+01  0.54195232399E+02  0.00000000000E+00 0. -1.
<mgrwt>
<rscale>  0 0.18299436E+03</rscale>
<asrwt>0</asrwt>
<pdfrwt beam="2">  1        1 0.33802180E-01 0.18848903E+03</pdfrwt>
<pdfrwt beam="1">  1       -1 0.26403303E-01 0.18848903E+03</pdfrwt>
<totfact> 0.16362437E+03</totfact>
</mgrwt>
</event>
<event>
 6    1  0.8820920E-006  0.1476786E+03  0.7546771E-02  0.1212907E+00
          1   -1    0    0  501    0  0.00000000000E+00  0.00000000000E+00  0.21156689462E+02  0.21156689462E+02  0.00000000000E+00 0. -1.
         -1   -1    0    0    0  501 -0.00000000000E+00 -0.00000000000E+00 -0.85120568967E+03  0.85120568967E+03  0.00000000000E+00 0.  1.
          5    1    1    2  502    0  0.47102768894E+02  0.39742879995E+02 -0.47850894476E+03  0.48248426665E+03  0.47000000000E+01 0.  1.
         -5    1    1    2    0  502  0.65517247569E+01  0.17753318013E+02 -0.13052358970E+01  0.19542237295E+02  0.47000000000E+01 0.  1.
        -11    1    1    2    0    0 -0.44650345511E+02 -0.73344664221E+02 -0.33711180533E+03  0.34787564217E+03  0.00000000000E+00 0.  1.
         11    1    1    2    0    0 -0.90041481405E+01  0.15848466214E+02 -0.13123014232E+02  0.22460233026E+02  0.00000000000E+00 0. -1.
<mgrwt>
<rscale>  0 0.14031369E+03</rscale>
<asrwt>0</asrwt>
<pdfrwt beam="1">  1        1 0.32548750E-02 0.14767858E+03</pdfrwt>
<pdfrwt beam="2">  1       -1 0.13095473E+00 0.14767858E+03</pdfrwt>
<totfact> 0.15880528E+03</totfact>
</mgrwt>
</event>
<event>
 6    1  0.8353100E-006  0.3429960E+03  0.7546771E-02  0.1097423E+00
         -1   -1    0    0    0  501 -0.00000000000E+00  0.00000000000E+00  0.87690645505E+02  0.87690645505E+02  0.00000000000E+00 0.  1.
          1   -1    0    0  501    0  0.00000000000E+00 -0.00000000000E+00 -0.68298812693E+03  0.68298812693E+03  0.00000000000E+00 0. -1.
          5    1    1    2  502    0  0.77053700799E+02  0.17337808776E+03 -0.23883465829E+03  0.30505953210E+03  0.47000000000E+01 0. -1.
         -5    1    1    2    0  502  0.32480748927E+02 -0.14871196729E+03 -0.15752285483E+03  0.21910223198E+03  0.47000000000E+01 0.  1.
        -11    1    1    2    0    0 -0.63270621964E+02  0.32295933919E+02 -0.11341126294E+03  0.13382194706E+03  0.00000000000E+00 0. -1.
         11    1    1    2    0    0 -0.46263827763E+02 -0.56962054390E+02 -0.85528705357E+02  0.11269506129E+03  0.00000000000E+00 0.  1.
<mgrwt>
<rscale>  0 0.27684853E+03</rscale>
<asrwt>0</asrwt>
<pdfrwt beam="2">  1        1 0.10507510E+00 0.34299603E+03</pdfrwt>
<pdfrwt beam="1">  1       -1 0.13490868E-01 0.34299603E+03</pdfrwt>
<totfact> 0.11134799E+03</totfact>
</mgrwt>
</event>
<event>
 6    1  0.8353100E-006  0.1680341E+03  0.7546771E-02  0.1187327E+00
         -2   -1    0    0    0  501 -0.00000000000E+00  0.00000000000E+00  0.30001619091E+03  0.30001619091E+03  0.00000000000E+00 0.  1.
          2   -1    0    0  501    0  0.00000000000E+00 -0.00000000000E+00 -0.11614369669E+03  0.11614369669E+03  0.00000000000E+00 0. -1.
          5    1    1    2  502    0  0.46302223440E+02  0.41186325103E+02  0.44763320727E+02  0.76590170084E+02  0.47000000000E+01 0.  1.
         -5    1    1    2    0  502  0.64183883762E+02 -0.21051373587E+02 -0.62901887063E+02  0.92420066332E+02  0.47000000000E+01 0.  1.
        -11    1    1    2    0    0 -0.15604980671E+02 -0.60151817083E+01 -0.62536288784E+01  0.17855131108E+02  0.00000000000E+00 0. -1.
         11    1    1    2    0    0 -0.94881126531E+02 -0.14119769808E+02  0.20826468944E+03  0.22929452008E+03  0.00000000000E+00 0.  1.
<mgrwt>
<rscale>  0 0.16121920E+03</rscale>
<asrwt>0</asrwt>
<pdfrwt beam="2">  1        2 0.17868261E-01 0.16803408E+03</pdfrwt>
<pdfrwt beam="1">  1       -2 0.46156337E-01 0.16803408E+03</pdfrwt>
<totfact> 0.14039990E+03</totfact>
</mgrwt>
</event>
<event>
 6    1  0.8353100E-006  0.3897449E+03  0.7546771E-02  0.1047390E+00
         -1   -1    0    0    0  501 -0.00000000000E+00  0.00000000000E+00  0.31469099408E+02  0.31469099408E+02  0.00000000000E+00 0.  1.
          1   -1    0    0  501    0  0.00000000000E+00 -0.00000000000E+00 -0.12067479204E+04  0.12067479204E+04  0.00000000000E+00 0. -1.
          5    1    1    2  502    0  0.64521283132E+02  0.71249836109E+02 -0.98972725983E+03  0.99439512970E+03  0.47000000000E+01 0. -1.
         -5    1    1    2    0  502 -0.19111710312E+02 -0.16621926603E+02 -0.10228945404E+03  0.10548349787E+03  0.47000000000E+01 0.  1.
        -11    1    1    2    0    0  0.14564999115E+02 -0.45677483928E+02 -0.24261275663E+02  0.53732497001E+02  0.00000000000E+00 0.  1.
         11    1    1    2    0    0 -0.59974571935E+02 -0.89504255777E+01 -0.59000831479E+02  0.84605895256E+02  0.00000000000E+00 0. -1.
<mgrwt>
<rscale>  0 0.38974489E+03</rscale>
<asrwt>0</asrwt>
<pdfrwt beam="2">  1        1 0.18565352E+00 0.38974489E+03</pdfrwt>
<pdfrwt beam="1">  1       -1 0.48414002E-02 0.38974489E+03</pdfrwt>
<totfact> 0.20927415E+03</totfact>
</mgrwt>
</event>
<event>
 6    1  0.8353100E-006  0.3757317E+03  0.7546771E-02  0.1053483E+00
          1   -1    0    0  501    0  0.00000000000E+00  0.00000000000E+00  0.82652446908E+03  0.82652446908E+03  0.00000000000E+00 0. -1.
         -1   -1    0    0    0  501 -0.00000000000E+00 -0.00000000000E+00 -0.18359371221E+03  0.18359371221E+03  0.00000000000E+00 0.  1.
          5    1    1    2  502    0  0.20277173657E+03 -0.15114788475E+03  0.31745977631E+03  0.40591237945E+03  0.47000000000E+01 0. -1.
         -5    1    1    2    0  502  0.12220037212E+03  0.99327320022E+01  0.16320195653E+03  0.20417776257E+03  0.47000000000E+01 0. -1.
        -11    1    1    2    0    0 -0.18414983940E+03  0.89539196424E+02  0.14078455229E+03  0.24849289972E+03  0.00000000000E+00 0.  1.
         11    1    1    2    0    0 -0.14082226930E+03  0.51675956322E+02  0.21484471729E+02  0.15153513955E+03  0.00000000000E+00 0. -1.
<mgrwt>
<rscale>  0 0.37318243E+03</rscale>
<asrwt>0</asrwt>
<pdfrwt beam="1">  1        1 0.12715761E+00 0.37573166E+03</pdfrwt>
<pdfrwt beam="2">  1       -1 0.28245187E-01 0.37573166E+03</pdfrwt>
<totfact> 0.24721822E+02</totfact>
</mgrwt>
</event>
<event>
 6    1  0.8353100E-006  0.1329602E+03  0.7546771E-02  0.1241733E+00
          2   -1    0    0  501    0  0.00000000000E+00  0.00000000000E+00  0.98345445969E+02  0.98345445969E+02  0.00000000000E+00 0. -1.
         -2   -1    0    0    0  501 -0.00000000000E+00 -0.00000000000E+00 -0.12862235394E+03  0.12862235394E+03  0.00000000000E+00 0.  1.
          5    1    1    2  502    0 -0.15039957812E+02  0.53079809638E+02  0.15106491209E+02  0.57393053577E+02  0.47000000000E+01 0. -1.
         -5    1    1    2    0  502  0.20075953165E+02 -0.69705435813E+02 -0.21146128903E+02  0.75704296080E+02  0.47000000000E+01 0.  1.
        -11    1    1    2    0    0  0.37787435613E+02  0.32814436300E+01 -0.30381452481E+02  0.48597230552E+02  0.00000000000E+00 0.  1.
         11    1    1    2    0    0 -0.42823430966E+02  0.13344182545E+02  0.61441822001E+01  0.45273219704E+02  0.00000000000E+00 0. -1.
<mgrwt>
<rscale>  0 0.12083095E+03</rscale>
<asrwt>0</asrwt>
<pdfrwt beam="1">  1        2 0.15130069E-01 0.13296025E+03</pdfrwt>
<pdfrwt beam="2">  1       -2 0.19788055E-01 0.13296025E+03</pdfrwt>
<totfact> 0.77854142E+03</totfact>
</mgrwt>
</event>
<event>
 6    1  0.8353100E-006  0.1851068E+03  0.7546771E-02  0.1168329E+00
         -1   -1    0    0    0  501 -0.00000000000E+00  0.00000000000E+00  0.16313271792E+03  0.16313271792E+03  0.00000000000E+00 0.  1.
          1   -1    0    0  501    0  0.00000000000E+00 -0.00000000000E+00 -0.23766989539E+03  0.23766989539E+03  0.00000000000E+00 0. -1.
          5    1    1    2  502    0  0.10570708429E+03 -0.35337516678E+02 -0.37730069960E+02  0.11776406894E+03  0.47000000000E+01 0.  1.
         -5    1    1    2    0  502  0.30361178030E+02  0.46586241513E+02 -0.94405891291E+02  0.10966604461E+03  0.47000000000E+01 0.  1.
        -11    1    1    2    0    0 -0.82774443614E+02 -0.31136225818E+02  0.72739794455E+02  0.11450830001E+03  0.00000000000E+00 0.  1.
         11    1    1    2    0    0 -0.53293818705E+02  0.19887500983E+02 -0.15141010676E+02  0.58864199747E+02  0.00000000000E+00 0. -1.
<mgrwt>
<rscale>  0 0.17945801E+03</rscale>
<asrwt>0</asrwt>
<pdfrwt beam="2">  1        1 0.36564599E-01 0.18510685E+03</pdfrwt>
<pdfrwt beam="1">  1       -1 0.25097341E-01 0.18510685E+03</pdfrwt>
<totfact> 0.16128248E+03</totfact>
</mgrwt>
</event>
<event>
 6    1  0.8353100E-006  0.1316522E+03  0.7546771E-02  0.1239080E+00
          1   -1    0    0  501    0  0.00000000000E+00  0.00000000000E+00  0.50400590716E+02  0.50400590716E+02  0.00000000000E+00 0. -1.
         -1   -1    0    0    0  501 -0.00000000000E+00 -0.00000000000E+00 -0.26418749230E+03  0.26418749230E+03  0.00000000000E+00 0.  1.
          5    1    1    2  502    0 -0.14906716771E+01  0.60599538599E+02 -0.16121981128E+02  0.62900989308E+02  0.47000000000E+01 0. -1.
         -5    1    1    2    0  502 -0.27766123807E+02 -0.31448876325E+02 -0.11675079512E+03  0.12414840963E+03  0.47000000000E+01 0. -1.
        -11    1    1    2    0    0  0.17587176507E+02  0.27418968296E+02 -0.55675132479E+02  0.64504488034E+02  0.00000000000E+00 0.  1.
         11    1    1    2    0    0  0.11669618977E+02 -0.56569630570E+02 -0.25238992853E+02  0.63034196038E+02  0.00000000000E+00 0. -1.
<mgrwt>
<rscale>  0 0.12246836E+03</rscale>
<asrwt>0</asrwt>
<pdfrwt beam="1">  1        1 0.77539371E-02 0.13165220E+03</pdfrwt>
<pdfrwt beam="2">  1       -1 0.40644229E-01 0.13165220E+03</pdfrwt>
<totfact> 0.51788127E+03</totfact>
</mgrwt>
</event>
<event>
 6    1  0.8353100E-006  0.2497731E+03  0.7546771E-02  0.1113448E+00
          1   -1    0    0  501    0  0.00000000000E+00  0.00000000000E+00  0.41352697396E+03  0.41352697396E+03  0.00000000000E+00 0. -1.
         -1   -1    0    0    0  501 -0.00000000000E+00 -0.00000000000E+00 -0.37716175692E+02  0.37716175692E+02  0.00000000000E+00 0.  1.
          5    1    1    2  502    0  0.21656163219E+02  0.71949935288E+02  0.57998553050E+02  0.95035281602E+02  0.47000000000E+01 0.  1.
         -5    1    1    2    0  502  0.59331771587E+01 -0.18689661292E+02  0.17453395488E+03  0.17569489872E+03  0.47000000000E+01 0.  1.
        -11    1    1    2    0    0 -0.26848588869E+02 -0.24809008767E+02  0.22321369048E+01  0.36623982245E+02  0.00000000000E+00 0.  1.
         11    1    1    2    0    0 -0.74075150877E+00 -0.28451265228E+02  0.14104615343E+03  0.14388898709E+03  0.00000000000E+00 0. -1.
<mgrwt>
<rscale>  0 0.24977315E+03</rscale>
<asrwt>0</asrwt>
<pdfrwt beam="1">  1        1 0.63619531E-01 0.24977315E+03</pdfrwt>
<pdfrwt beam="2">  1       -1 0.58024889E-02 0.24977315E+03</pdfrwt>
<totfact> 0.80661414E+03</totfact>
</mgrwt>
</event>
<event>
 6    1  0.8353100E-006  0.1274813E+03  0.7546771E-02  0.1246354E+00
          2   -1    0    0  501    0  0.00000000000E+00  0.00000000000E+00  0.59012287682E+03  0.59012287682E+03  0.00000000000E+00 0. -1.
         -2   -1    0    0    0  501 -0.00000000000E+00 -0.00000000000E+00 -0.20837102773E+02  0.20837102773E+02  0.00000000000E+00 0.  1.
          5    1    1    2  502    0 -0.15663217277E+02 -0.20277718651E+02  0.54312518020E+01  0.26610350342E+02  0.47000000000E+01 0.  1.
         -5    1    1    2    0  502 -0.77440487933E+01  0.29131951174E+02  0.34397750911E+03  0.34532775395E+03  0.47000000000E+01 0.  1.
        -11    1    1    2    0    0  0.25902306778E+02 -0.25898874643E+02  0.21871005618E+03  0.22175610449E+03  0.00000000000E+00 0. -1.
         11    1    1    2    0    0 -0.24950407073E+01  0.17044642120E+02  0.11669569477E+01  0.17265770809E+02  0.00000000000E+00 0.  1.
<mgrwt>
<rscale>  0 0.11804726E+03</rscale>
<asrwt>0</asrwt>
<pdfrwt beam="1">  1        2 0.90788122E-01 0.12748126E+03</pdfrwt>
<pdfrwt beam="2">  1       -2 0.32057086E-02 0.12748126E+03</pdfrwt>
<totfact> 0.18539014E+04</totfact>
</mgrwt>
</event>
<event>
 6    1  0.8353100E-006  0.1501653E+03  0.7546771E-02  0.1209271E+00
          2   -1    0    0  501    0  0.00000000000E+00  0.00000000000E+00  0.52932467825E+03  0.52932467825E+03  0.00000000000E+00 0. -1.
         -2   -1    0    0    0  501 -0.00000000000E+00 -0.00000000000E+00 -0.35647706196E+02  0.35647706196E+02  0.00000000000E+00 0.  1.
          5    1    1    2  502    0 -0.60860389443E+02  0.18822279631E+02  0.15884309408E+03  0.17120596879E+03  0.47000000000E+01 0. -1.
         -5    1    1    2    0  502  0.53382739824E+02  0.64059789480E+02  0.13407656439E+03  0.15796198485E+03  0.47000000000E+01 0. -1.
        -11    1    1    2    0    0 -0.25931562110E+02  0.45351035584E+01  0.71758812496E+02  0.76435202941E+02  0.00000000000E+00 0. -1.
         11    1    1    2    0    0  0.33409211729E+02 -0.87417172670E+02  0.12899850108E+03  0.15936922785E+03  0.00000000000E+00 0.  1.
<mgrwt>
<rscale>  0 0.14305875E+03</rscale>
<asrwt>0</asrwt>
<pdfrwt beam="1">  1        2 0.81434560E-01 0.15016529E+03</pdfrwt>
<pdfrwt beam="2">  1       -2 0.54842629E-02 0.15016529E+03</pdfrwt>
<totfact> 0.95219125E+03</totfact>
</mgrwt>
</event>
<event>
 6    1  0.8353100E-006  0.1302910E+03  0.7546771E-02  0.1240953E+00
         -2   -1    0    0    0  501 -0.00000000000E+00  0.00000000000E+00  0.19845081066E+02  0.19845081066E+02  0.00000000000E+00 0.  1.
          2   -1    0    0  501    0  0.00000000000E+00 -0.00000000000E+00 -0.68098437811E+03  0.68098437811E+03  0.00000000000E+00 0. -1.
          5    1    1    2  502    0 -0.28472968806E+02 -0.64111969663E+02 -0.27276309987E+03  0.28167863472E+03  0.47000000000E+01 0.  1.
         -5    1    1    2    0  502 -0.77748941051E+01  0.57990546984E+02 -0.16941181987E+03  0.17929251861E+03  0.47000000000E+01 0.  1.
        -11    1    1    2    0    0  0.40339331509E+02 -0.22643213600E+02 -0.19972311306E+03  0.20501048432E+03  0.00000000000E+00 0.  1.
         11    1    1    2    0    0 -0.40914685973E+01  0.28764636278E+02 -0.19241264234E+02  0.34847821521E+02  0.00000000000E+00 0. -1.
<mgrwt>
<rscale>  0 0.12130925E+03</rscale>
<asrwt>0</asrwt>
<pdfrwt beam="2">  1        2 0.10476680E+00 0.13029100E+03</pdfrwt>
<pdfrwt beam="1">  1       -2 0.30530903E-02 0.13029100E+03</pdfrwt>
<totfact> 0.16918568E+04</totfact>
</mgrwt>
</event>
<event>
 6    1  0.8353100E-006  0.1755899E+03  0.7546771E-02  0.1178478E+00
         -2   -1    0    0    0  501 -0.00000000000E+00  0.00000000000E+00  0.96533926010E+02  0.96533926010E+02  0.00000000000E+00 0. -1.
          2   -1    0    0  501    0  0.00000000000E+00 -0.00000000000E+00 -0.29556919301E+03  0.29556919301E+03  0.00000000000E+00 0.  1.
          5    1    1    2  502    0  0.11496601811E+03  0.49552315734E+02 -0.11487773689E+03  0.16997529746E+03  0.47000000000E+01 0. -1.
         -5    1    1    2    0  502  0.83365595191E+01 -0.49183621298E+02 -0.38915314367E+02  0.63443033667E+02  0.47000000000E+01 0. -1.
        -11    1    1    2    0    0 -0.18670418064E+02 -0.35712329694E+02 -0.28886897687E+01  0.40401726837E+02  0.00000000000E+00 0. -1.
         11    1    1    2    0    0 -0.10463215957E+03  0.35343635257E+02 -0.42353525978E+02  0.11828306105E+03  0.00000000000E+00 0.  1.
<mgrwt>
<rscale>  0 0.16939711E+03</rscale>
<asrwt>0</asrwt>
<pdfrwt beam="2">  1        2 0.45472183E-01 0.17558990E+03</pdfrwt>
<pdfrwt beam="1">  1       -2 0.14851374E-01 0.17558990E+03</pdfrwt>
<totfact> 0.37762717E+03</totfact>
</mgrwt>
</event>
<event>
 6    1  0.8353100E-006  0.2497848E+03  0.7546771E-02  0.1113441E+00
          4   -1    0    0  501    0  0.00000000000E+00  0.00000000000E+00  0.44678756953E+02  0.44678756953E+02  0.00000000000E+00 0.  1.
         -4   -1    0    0    0  501 -0.00000000000E+00 -0.00000000000E+00 -0.34911681538E+03  0.34911681538E+03  0.00000000000E+00 0. -1.
          5    1    1    2  502    0 -0.58368473050E+02 -0.52785262746E+02 -0.13642868008E+03  0.15756915103E+03  0.47000000000E+01 0. -1.
         -5    1    1    2    0  502  0.37800218324E+01  0.35634634912E+02 -0.53842200977E-01  0.36141508952E+02  0.47000000000E+01 0. -1.
        -11    1    1    2    0    0  0.38658899352E+02 -0.31643409437E+02 -0.46588998619E+02  0.68310692078E+02  0.00000000000E+00 0.  1.
         11    1    1    2    0    0  0.15929551866E+02  0.48794037271E+02 -0.12136653752E+03  0.13177422026E+03  0.00000000000E+00 0. -1.
<mgrwt>
<rscale>  0 0.24978475E+03</rscale>
<asrwt>0</asrwt>
<pdfrwt beam="1">  1        4 0.68736552E-02 0.24978475E+03</pdfrwt>
<pdfrwt beam="2">  1       -4 0.53710277E-01 0.24978475E+03</pdfrwt>
<totfact> 0.87908591E+02</totfact>
</mgrwt>
</event>
<event>
 6    1  0.8353100E-006  0.1700451E+03  0.7546771E-02  0.1184296E+00
         -2   -1    0    0    0  501 -0.00000000000E+00  0.00000000000E+00  0.21506000519E+02  0.21506000519E+02  0.00000000000E+00 0.  1.
          2   -1    0    0  501    0  0.00000000000E+00 -0.00000000000E+00 -0.12885160939E+04  0.12885160939E+04  0.00000000000E+00 0. -1.
          5    1    1    2  502    0 -0.30920363265E+02 -0.10397485572E+03 -0.45794724458E+03  0.47064276082E+03  0.47000000000E+01 0.  1.
         -5    1    1    2    0  502 -0.50561250750E+02  0.22385646447E+02 -0.41689143839E+03  0.42056880370E+03  0.47000000000E+01 0.  1.
        -11    1    1    2    0    0  0.16555771378E+02  0.69140234985E+02 -0.27735768002E+03  0.28632455068E+03  0.00000000000E+00 0. -1.
         11    1    1    2    0    0  0.64925842637E+02  0.12448974288E+02 -0.11481373038E+03  0.13248597921E+03  0.00000000000E+00 0.  1.
<mgrwt>
<rscale>  0 0.16396058E+03</rscale>
<asrwt>0</asrwt>
<pdfrwt beam="2">  1        2 0.19823325E+00 0.17004509E+03</pdfrwt>
<pdfrwt beam="1">  1       -2 0.33086154E-02 0.17004509E+03</pdfrwt>
<totfact> 0.64204170E+03</totfact>
</mgrwt>
</event>
<event>
 6    1  0.8353100E-006  0.1968449E+03  0.7546771E-02  0.1157162E+00
         -3   -1    0    0    0  501 -0.00000000000E+00  0.00000000000E+00  0.24077384993E+03  0.24077384993E+03  0.00000000000E+00 0.  1.
          3   -1    0    0  501    0  0.00000000000E+00 -0.00000000000E+00 -0.14689336027E+03  0.14689336027E+03  0.00000000000E+00 0. -1.
          5    1    1    2  502    0  0.57409797603E+02 -0.24807180752E+02 -0.32483942179E+02  0.70629863210E+02  0.47000000000E+01 0. -1.
         -5    1    1    2    0  502  0.86875831775E+02 -0.23188653325E+02  0.10700878755E+03  0.13985025707E+03  0.47000000000E+01 0. -1.
        -11    1    1    2    0    0 -0.15242013814E+03  0.38303940984E+02  0.38936164756E+01  0.15720766729E+03  0.00000000000E+00 0.  1.
         11    1    1    2    0    0  0.81345087634E+01  0.96918930939E+01  0.15462027804E+02  0.19979422624E+02  0.00000000000E+00 0. -1.
<mgrwt>
<rscale>  0 0.19144741E+03</rscale>
<asrwt>0</asrwt>
<pdfrwt beam="2">  1        3 0.22598978E-01 0.19684494E+03</pdfrwt>
<pdfrwt beam="1">  1       -3 0.37042131E-01 0.19684494E+03</pdfrwt>
<totfact> 0.31673551E+02</totfact>
</mgrwt>
</event>
<event>
 6    1  0.8353100E-006  0.1608522E+03  0.7546771E-02  0.1195609E+00
          4   -1    0    0  501    0  0.00000000000E+00  0.00000000000E+00  0.69985505367E+02  0.69985505367E+02  0.00000000000E+00 0. -1.
         -4   -1    0    0    0  501 -0.00000000000E+00 -0.00000000000E+00 -0.37044847538E+03  0.37044847538E+03  0.00000000000E+00 0.  1.
          5    1    1    2  502    0  0.17391106596E+02  0.40322821993E+02  0.25555742714E+02  0.51025156029E+02  0.47000000000E+01 0. -1.
         -5    1    1    2    0  502  0.76543603949E+02 -0.25727502752E+01 -0.10046267933E+03  0.12641353681E+03  0.47000000000E+01 0. -1.
        -11    1    1    2    0    0 -0.61874322551E+02  0.16000663995E+02 -0.67286172883E+02  0.92800226835E+02  0.00000000000E+00 0.  1.
         11    1    1    2    0    0 -0.32060387993E+02 -0.53750735713E+02 -0.15826986051E+03  0.17019506108E+03  0.00000000000E+00 0. -1.
<mgrwt>
<rscale>  0 0.15402811E+03</rscale>
<asrwt>0</asrwt>
<pdfrwt beam="1">  1        4 0.10767001E-01 0.16085223E+03</pdfrwt>
<pdfrwt beam="2">  1       -4 0.56992074E-01 0.16085223E+03</pdfrwt>
<totfact> 0.33953257E+02</totfact>
</mgrwt>
</event>
<event>
 6    1  0.8353100E-006  0.1553481E+03  0.7546771E-02  0.1202534E+00
          2   -1    0    0  501    0  0.00000000000E+00  0.00000000000E+00  0.82702332348E+02  0.82702332348E+02  0.00000000000E+00 0.  1.
         -2   -1    0    0    0  501 -0.00000000000E+00 -0.00000000000E+00 -0.27275668972E+03  0.27275668972E+03  0.00000000000E+00 0. -1.
          5    1    1    2  502    0  0.84107288577E+02 -0.21161763197E+02 -0.64821694797E+02  0.10837803435E+03  0.47000000000E+01 0. -1.
         -5    1    1    2    0  502  0.35328024304E+01  0.49911179762E+02  0.18778064788E+02  0.53649904710E+02  0.47000000000E+01 0. -1.
        -11    1    1    2    0    0  0.70128271324E+01 -0.17516717238E+02 -0.70721435781E+02  0.73195195240E+02  0.00000000000E+00 0. -1.
         11    1    1    2    0    0 -0.94652918140E+02 -0.11232699327E+02 -0.73289291582E+02  0.12023588777E+03  0.00000000000E+00 0.  1.
<mgrwt>
<rscale>  0 0.14833464E+03</rscale>
<asrwt>0</asrwt>
<pdfrwt beam="1">  1        2 0.12723436E-01 0.15534812E+03</pdfrwt>
<pdfrwt beam="2">  1       -2 0.41962567E-01 0.15534812E+03</pdfrwt>
<totfact> 0.25081113E+03</totfact>
</mgrwt>
</event>
<event>
 6    1  0.8353100E-006  0.1443360E+03  0.7546771E-02  0.1218008E+00
          1   -1    0    0  501    0  0.00000000000E+00  0.00000000000E+00  0.16306857237E+04  0.16306857237E+04  0.00000000000E+00 0. -1.
         -1   -1    0    0    0  501 -0.00000000000E+00 -0.00000000000E+00 -0.12166292144E+02  0.12166292144E+02  0.00000000000E+00 0.  1.
          5    1    1    2  502    0  0.72731381962E+02  0.45239935414E+02  0.76770801281E+03  0.77248572065E+03  0.47000000000E+01 0.  1.
         -5    1    1    2    0  502 -0.52541827592E+02  0.24050617102E+02  0.43159771434E+03  0.43547417013E+03  0.47000000000E+01 0.  1.
        -11    1    1    2    0    0 -0.36476381636E+02 -0.68111952795E+02  0.40758888380E+03  0.41484751744E+03  0.00000000000E+00 0. -1.
         11    1    1    2    0    0  0.16286827266E+02 -0.11785997215E+01  0.11624820565E+02  0.20044607576E+02  0.00000000000E+00 0.  1.
<mgrwt>
<rscale>  0 0.13657860E+03</rscale>
<asrwt>0</asrwt>
<pdfrwt beam="1">  1        1 0.25087455E+00 0.14433596E+03</pdfrwt>
<pdfrwt beam="2">  1       -1 0.18717385E-02 0.14433596E+03</pdfrwt>
<totfact> 0.43822909E+03</totfact>
</mgrwt>
</event>
<event>
 6    1  0.8353100E-006  0.1283584E+03  0.7546771E-02  0.1248629E+00
         -2   -1    0    0    0  501 -0.00000000000E+00  0.00000000000E+00  0.17637141228E+03  0.17637141228E+03  0.00000000000E+00 0.  1.
          2   -1    0    0  501    0  0.00000000000E+00 -0.00000000000E+00 -0.70013193971E+02  0.70013193971E+02  0.00000000000E+00 0. -1.
          5    1    1    2  502    0 -0.36922968077E+01  0.44189345922E+02 -0.37523468656E+02  0.58278915988E+02  0.47000000000E+01 0.  1.
         -5    1    1    2    0  502 -0.83549861350E+01 -0.17639097495E+02  0.71833157736E+02  0.74585763414E+02  0.47000000000E+01 0.  1.
        -11    1    1    2    0    0 -0.32003487330E+02 -0.28686850717E+02  0.42433019045E+02  0.60396355110E+02  0.00000000000E+00 0.  1.
         11    1    1    2    0    0  0.44050770272E+02  0.21366022907E+01  0.29615510188E+02  0.53123571742E+02  0.00000000000E+00 0. -1.
<mgrwt>
<rscale>  0 0.11670776E+03</rscale>
<asrwt>0</asrwt>
<pdfrwt beam="2">  1        2 0.10771261E-01 0.12835836E+03</pdfrwt>
<pdfrwt beam="1">  1       -2 0.27134063E-01 0.12835836E+03</pdfrwt>
<totfact> 0.67500735E+03</totfact>
</mgrwt>
</event>
<event>
 6    1  0.8353100E-006  0.1967765E+03  0.7546771E-02  0.1157094E+00
         -1   -1    0    0    0  501 -0.00000000000E+00  0.00000000000E+00  0.22205719618E+03  0.22205719618E+03  0.00000000000E+00 0.  1.
          1   -1    0    0  501    0  0.00000000000E+00 -0.00000000000E+00 -0.16210827493E+03  0.16210827493E+03  0.00000000000E+00 0. -1.
          5    1    1    2  502    0  0.14735299078E+02 -0.81699703465E+02 -0.63290226960E+02  0.10449743257E+03  0.47000000000E+01 0.  1.
         -5    1    1    2    0  502  0.22963913154E+02 -0.65547313097E+02  0.60604688127E+02  0.92297398580E+02  0.47000000000E+01 0.  1.
        -11    1    1    2    0    0 -0.60730387586E+02  0.56496895983E+02  0.30779875044E+02  0.88473046403E+02  0.00000000000E+00 0.  1.
         11    1    1    2    0    0  0.23031175354E+02  0.90750120579E+02  0.31854585039E+02  0.98897593557E+02  0.00000000000E+00 0. -1.
<mgrwt>
<rscale>  0 0.19152373E+03</rscale>
<asrwt>0</asrwt>
<pdfrwt beam="2">  1        1 0.24939735E-01 0.19677651E+03</pdfrwt>
<pdfrwt beam="1">  1       -1 0.34162646E-01 0.19677651E+03</pdfrwt>
<totfact> 0.15520405E+03</totfact>
</mgrwt>
</event>
<event>
 6    1  0.8353100E-006  0.1323090E+03  0.7546771E-02  0.1236912E+00
          1   -1    0    0  501    0  0.00000000000E+00  0.00000000000E+00  0.54575074742E+03  0.54575074742E+03  0.00000000000E+00 0. -1.
         -1   -1    0    0    0  501 -0.00000000000E+00 -0.00000000000E+00 -0.25440809276E+02  0.25440809276E+02  0.00000000000E+00 0.  1.
          5    1    1    2  502    0  0.22434471930E+02  0.73192757909E+01  0.25267557119E+03  0.25381865890E+03  0.47000000000E+01 0.  1.
         -5    1    1    2    0  502 -0.55073276983E+02 -0.35866320392E+02  0.76572505129E+02  0.10101929181E+03  0.47000000000E+01 0.  1.
        -11    1    1    2    0    0  0.23728127548E+02 -0.31509254920E+02  0.58576372722E+02  0.70619038678E+02  0.00000000000E+00 0.  1.
         11    1    1    2    0    0  0.89106775047E+01  0.60056299521E+02  0.13248548910E+03  0.14573456730E+03  0.00000000000E+00 0. -1.
<mgrwt>
<rscale>  0 0.12382807E+03</rscale>
<asrwt>0</asrwt>
<pdfrwt beam="1">  1        1 0.83961645E-01 0.13230902E+03</pdfrwt>
<pdfrwt beam="2">  1       -1 0.39139710E-02 0.13230902E+03</pdfrwt>
<totfact> 0.97044232E+03</totfact>
</mgrwt>
</event>
<event>
 6    1  0.8353100E-006  0.1570931E+03  0.7546771E-02  0.1198101E+00
          2   -1    0    0  501    0  0.00000000000E+00  0.00000000000E+00  0.31030369049E+03  0.31030369049E+03  0.00000000000E+00 0. -1.
         -2   -1    0    0    0  501 -0.00000000000E+00 -0.00000000000E+00 -0.72658096576E+02  0.72658096576E+02  0.00000000000E+00 0.  1.
          5    1    1    2  502    0  0.49336919786E+02 -0.51329618644E+02  0.74728059995E+02  0.10332102571E+03  0.47000000000E+01 0. -1.
         -5    1    1    2    0  502 -0.74021028562E+02 -0.43015109791E+02  0.88808089800E+02  0.12344382995E+03  0.47000000000E+01 0.  1.
        -11    1    1    2    0    0  0.35755085072E+02  0.26705569763E+02 -0.11930484358E+02  0.46194696902E+02  0.00000000000E+00 0.  1.
         11    1    1    2    0    0 -0.11070976295E+02  0.67639158672E+02  0.86039928479E+02  0.11000223450E+03  0.00000000000E+00 0. -1.
<mgrwt>
<rscale>  0 0.15194647E+03</rscale>
<asrwt>0</asrwt>
<pdfrwt beam="1">  1        2 0.47739029E-01 0.15709305E+03</pdfrwt>
<pdfrwt beam="2">  1       -2 0.11178169E-01 0.15709305E+03</pdfrwt>
<totfact> 0.56426950E+03</totfact>
</mgrwt>
</event>
<event>
 6    1  0.8353100E-006  0.1284051E+03  0.7546771E-02  0.1243863E+00
          2   -1    0    0  501    0  0.00000000000E+00  0.00000000000E+00  0.16057186428E+03  0.16057186428E+03  0.00000000000E+00 0. -1.
         -2   -1    0    0    0  501 -0.00000000000E+00 -0.00000000000E+00 -0.12814026383E+03  0.12814026383E+03  0.00000000000E+00 0.  1.
          5    1    1    2  502    0 -0.87597050106E+00  0.25667401461E+02  0.12095697762E+03  0.12374273012E+03  0.47000000000E+01 0.  1.
         -5    1    1    2    0  502 -0.28343214175E+02 -0.28996518281E+02 -0.14227128449E+02  0.43227734686E+02  0.47000000000E+01 0.  1.
        -11    1    1    2    0    0  0.50316853055E+02  0.20578668715E+02 -0.14864519613E+02  0.56357974154E+02  0.00000000000E+00 0. -1.
         11    1    1    2    0    0 -0.21097668379E+02 -0.17249551895E+02 -0.59433729112E+02  0.65383689157E+02  0.00000000000E+00 0.  1.
<mgrwt>
<rscale>  0 0.11953685E+03</rscale>
<asrwt>0</asrwt>
<pdfrwt beam="1">  1        2 0.24703364E-01 0.12840512E+03</pdfrwt>
<pdfrwt beam="2">  1       -2 0.19713887E-01 0.12840512E+03</pdfrwt>
<totfact> 0.44811722E+03</totfact>
</mgrwt>
</event>
<event>
 6    1  0.8353100E-006  0.1374373E+03  0.7546771E-02  0.1236529E+00
          2   -1    0    0  501    0  0.00000000000E+00  0.00000000000E+00  0.10901558355E+04  0.10901558355E+04  0.00000000000E+00 0. -1.
         -2   -1    0    0    0  501 -0.00000000000E+00 -0.00000000000E+00 -0.13667533278E+02  0.13667533278E+02  0.00000000000E+00 0.  1.
          5    1    1    2  502    0  0.26974989906E+02  0.35740684754E+02  0.32996316940E+03  0.33302076480E+03  0.47000000000E+01 0. -1.
         -5    1    1    2    0  502 -0.59599477752E+02 -0.68693383364E+02  0.49315944618E+03  0.50149696711E+03  0.47000000000E+01 0.  1.
        -11    1    1    2    0    0 -0.20728585527E+02  0.27550658456E+02  0.66620783715E+02  0.75013611179E+02  0.00000000000E+00 0.  1.
         11    1    1    2    0    0  0.53353073374E+02  0.54020401539E+01  0.18674490294E+03  0.19429202570E+03  0.00000000000E+00 0. -1.
<mgrwt>
<rscale>  0 0.12407031E+03</rscale>
<asrwt>0</asrwt>
<pdfrwt beam="1">  1        2 0.16771621E+00 0.13743728E+03</pdfrwt>
<pdfrwt beam="2">  1       -2 0.21026983E-02 0.13743728E+03</pdfrwt>
<totfact> 0.15959860E+04</totfact>
</mgrwt>
</event>
<event>
 6    1  0.8353100E-006  0.1972626E+03  0.7546771E-02  0.1156523E+00
          4   -1    0    0  501    0  0.00000000000E+00  0.00000000000E+00  0.21438905044E+03  0.21438905044E+03  0.00000000000E+00 0. -1.
         -4   -1    0    0    0  501 -0.00000000000E+00 -0.00000000000E+00 -0.17445880233E+03  0.17445880233E+03  0.00000000000E+00 0.  1.
          5    1    1    2  502    0  0.11826830786E+03 -0.68030922114E+02  0.61828079336E+02  0.14986794321E+03  0.47000000000E+01 0.  1.
         -5    1    1    2    0  502 -0.25044500445E+02 -0.52785453554E+02  0.68733327059E+01  0.59015792902E+02  0.47000000000E+01 0.  1.
        -11    1    1    2    0    0 -0.44383967487E+02  0.14676737215E+01  0.95742066789E+01  0.45428582078E+02  0.00000000000E+00 0.  1.
         11    1    1    2    0    0 -0.48839839924E+02  0.11934870195E+03 -0.38345370610E+02  0.13453553459E+03  0.00000000000E+00 0. -1.
<mgrwt>
<rscale>  0 0.19216508E+03</rscale>
<asrwt>0</asrwt>
<pdfrwt beam="1">  1        4 0.32982931E-01 0.19726259E+03</pdfrwt>
<pdfrwt beam="2">  1       -4 0.26839816E-01 0.19726259E+03</pdfrwt>
<totfact> 0.20643129E+02</totfact>
</mgrwt>
</event>
<event>
 6    1  0.8353100E-006  0.1260140E+03  0.7546771E-02  0.1244157E+00
          2   -1    0    0  501    0  0.00000000000E+00  0.00000000000E+00  0.50664539338E+03  0.50664539338E+03  0.00000000000E+00 0. -1.
         -2   -1    0    0    0  501 -0.00000000000E+00 -0.00000000000E+00 -0.28366412285E+02  0.28366412285E+02  0.00000000000E+00 0.  1.
          5    1    1    2  502    0 -0.44809516835E+02 -0.40884510522E+02  0.26901395931E+03  0.27580796998E+03  0.47000000000E+01 0.  1.
         -5    1    1    2    0  502  0.28889633247E+02  0.42077029621E+02  0.77578120119E+02  0.92981407024E+02  0.47000000000E+01 0.  1.
        -11    1    1    2    0    0 -0.32607134444E+01  0.43854183820E+02  0.29620783759E+02  0.53020868732E+02  0.00000000000E+00 0.  1.
         11    1    1    2    0    0  0.19180597032E+02 -0.45046702919E+02  0.10206611791E+03  0.11320155993E+03  0.00000000000E+00 0. -1.
<mgrwt>
<rscale>  0 0.11935976E+03</rscale>
<asrwt>0</asrwt>
<pdfrwt beam="1">  1        2 0.77945439E-01 0.12601403E+03</pdfrwt>
<pdfrwt beam="2">  1       -2 0.43640638E-02 0.12601403E+03</pdfrwt>
<totfact> 0.13905383E+04</totfact>
</mgrwt>
</event>
<event>
 6    1  0.8353100E-006  0.1268570E+03  0.7546771E-02  0.1248703E+00
          2   -1    0    0  501    0  0.00000000000E+00  0.00000000000E+00  0.15808184438E+03  0.15808184438E+03  0.00000000000E+00 0. -1.
         -2   -1    0    0    0  501 -0.00000000000E+00 -0.00000000000E+00 -0.75124272608E+02  0.75124272608E+02  0.00000000000E+00 0.  1.
          5    1    1    2  502    0  0.52402036991E+02  0.13775365961E+01  0.22076963584E+02  0.57073228479E+02  0.47000000000E+01 0.  1.
         -5    1    1    2    0  502 -0.73954080120E+02 -0.41623544630E+01  0.32799078435E+02  0.81144320240E+02  0.47000000000E+01 0.  1.
        -11    1    1    2    0    0 -0.32141365774E+02  0.49755235624E+00 -0.40094218315E+01  0.32394296035E+02  0.00000000000E+00 0.  1.
         11    1    1    2    0    0  0.53693408903E+02  0.22872655106E+01  0.32090951588E+02  0.62594272238E+02  0.00000000000E+00 0. -1.
<mgrwt>
<rscale>  0 0.11666457E+03</rscale>
<asrwt>0</asrwt>
<pdfrwt beam="1">  1        2 0.24320284E-01 0.12685705E+03</pdfrwt>
<pdfrwt beam="2">  1       -2 0.11557580E-01 0.12685705E+03</pdfrwt>
<totfact> 0.10901099E+04</totfact>
</mgrwt>
</event>
<event>
 6    1  0.8353100E-006  0.2342300E+03  0.7546771E-02  0.1126440E+00
         -1   -1    0    0    0  501 -0.00000000000E+00  0.00000000000E+00  0.52096692349E+02  0.52096692349E+02  0.00000000000E+00 0.  1.
          1   -1    0    0  501    0  0.00000000000E+00 -0.00000000000E+00 -0.98653336661E+03  0.98653336661E+03  0.00000000000E+00 0. -1.
          5    1    1    2  502    0 -0.17057363880E+03 -0.90809769569E+02 -0.42859501621E+03  0.47016758546E+03  0.47000000000E+01 0.  1.
         -5    1    1    2    0  502 -0.19528902616E+02  0.35128604885E+02 -0.74471736017E+02  0.84755686440E+02  0.47000000000E+01 0.  1.
        -11    1    1    2    0    0  0.86219269831E+02 -0.52740669300E+01 -0.10587852516E+03  0.13664494269E+03  0.00000000000E+00 0.  1.
         11    1    1    2    0    0  0.10388327158E+03  0.60955231614E+02 -0.32549139687E+03  0.34706184437E+03  0.00000000000E+00 0. -1.
<mgrwt>
<rscale>  0 0.23028466E+03</rscale>
<asrwt>0</asrwt>
<pdfrwt beam="2">  1        1 0.15177435E+00 0.23422997E+03</pdfrwt>
<pdfrwt beam="1">  1       -1 0.80148764E-02 0.23422997E+03</pdfrwt>
<totfact> 0.14060825E+03</totfact>
</mgrwt>
</event>
<event>
 6    1  0.8353100E-006  0.1295926E+03  0.7546771E-02  0.1242039E+00
          2   -1    0    0  501    0  0.00000000000E+00  0.00000000000E+00  0.20989815340E+04  0.20989815340E+04  0.00000000000E+00 0. -1.
         -2   -1    0    0    0  501 -0.00000000000E+00 -0.00000000000E+00 -0.12398001447E+02  0.12398001447E+02  0.00000000000E+00 0.  1.
          5    1    1    2  502    0 -0.69116703512E+02  0.11722702109E+00  0.90282265070E+03  0.90547664855E+03  0.47000000000E+01 0.  1.
         -5    1    1    2    0  502  0.51558348859E+02  0.29518624315E+02  0.96048472976E+03  0.96233186511E+03  0.47000000000E+01 0.  1.
        -11    1    1    2    0    0 -0.21368625987E+02 -0.46638969865E+02  0.88895319164E+02  0.10263619954E+03  0.00000000000E+00 0.  1.
         11    1    1    2    0    0  0.38926980639E+02  0.17003118530E+02  0.13438083289E+03  0.14093482220E+03  0.00000000000E+00 0. -1.
<mgrwt>
<rscale>  0 0.12064390E+03</rscale>
<asrwt>0</asrwt>
<pdfrwt beam="1">  1        2 0.32291995E+00 0.12959263E+03</pdfrwt>
<pdfrwt beam="2">  1       -2 0.19073865E-02 0.12959263E+03</pdfrwt>
<totfact> 0.54240256E+03</totfact>
</mgrwt>
</event>
<event>
 6    1  0.8353100E-006  0.1459954E+03  0.7546771E-02  0.1215791E+00
          2   -1    0    0  501    0  0.00000000000E+00  0.00000000000E+00  0.11530901001E+03  0.11530901001E+03  0.00000000000E+00 0. -1.
         -2   -1    0    0    0  501 -0.00000000000E+00 -0.00000000000E+00 -0.15455821763E+03  0.15455821763E+03  0.00000000000E+00 0.  1.
          5    1    1    2  502    0 -0.91407023647E+02 -0.24313123024E+02 -0.53350910915E+02  0.10869582153E+03  0.47000000000E+01 0. -1.
         -5    1    1    2    0  502  0.34480329623E+02 -0.25172121094E+02  0.90112334306E+01  0.43884178689E+02  0.47000000000E+01 0. -1.
        -11    1    1    2    0    0  0.61728279608E+02  0.36816295204E+02 -0.31347291273E+02  0.78412197814E+02  0.00000000000E+00 0.  1.
         11    1    1    2    0    0 -0.48015855840E+01  0.12668948914E+02  0.36437761137E+02  0.38875029613E+02  0.00000000000E+00 0. -1.
<mgrwt>
<rscale>  0 0.13818619E+03</rscale>
<asrwt>0</asrwt>
<pdfrwt beam="1">  1        2 0.17739848E-01 0.14599537E+03</pdfrwt>
<pdfrwt beam="2">  1       -2 0.23778187E-01 0.14599537E+03</pdfrwt>
<totfact> 0.47573746E+03</totfact>
</mgrwt>
</event>
<event>
 6    1  0.8353100E-006  0.2939690E+03  0.7546771E-02  0.1088295E+00
         -2   -1    0    0    0  501 -0.00000000000E+00  0.00000000000E+00  0.39320871583E+03  0.39320871583E+03  0.00000000000E+00 0.  1.
          2   -1    0    0  501    0  0.00000000000E+00 -0.00000000000E+00 -0.54943968786E+02  0.54943968786E+02  0.00000000000E+00 0. -1.
          5    1    1    2  502    0  0.34751083659E+02 -0.62258881372E+02  0.77607031165E+01  0.71875758347E+02  0.47000000000E+01 0.  1.
         -5    1    1    2    0  502 -0.15860304659E+00  0.66964021283E+01  0.11457693518E+03  0.11486875568E+03  0.47000000000E+01 0.  1.
        -11    1    1    2    0    0 -0.44338371129E+02 -0.20198681233E+01  0.75753469150E+01  0.45026180190E+02  0.00000000000E+00 0. -1.
         11    1    1    2    0    0  0.97458905172E+01  0.57582347367E+02  0.20835176184E+03  0.21638199040E+03  0.00000000000E+00 0.  1.
<mgrwt>
<rscale>  0 0.29396903E+03</rscale>
<asrwt>0</asrwt>
<pdfrwt beam="2">  1        2 0.84529185E-02 0.29396903E+03</pdfrwt>
<pdfrwt beam="1">  1       -2 0.60493647E-01 0.29396903E+03</pdfrwt>
<totfact> 0.20605598E+03</totfact>
</mgrwt>
</event>
<event>
 6    1  0.8353100E-006  0.2753686E+03  0.7546771E-02  0.1129978E+00
          1   -1    0    0  501    0  0.00000000000E+00  0.00000000000E+00  0.60428086108E+02  0.60428086108E+02  0.00000000000E+00 0. -1.
         -1   -1    0    0    0  501 -0.00000000000E+00 -0.00000000000E+00 -0.84612375580E+03  0.84612375580E+03  0.00000000000E+00 0.  1.
          5    1    1    2  502    0 -0.13280971268E+03  0.67612696069E+02 -0.68538990534E+02  0.16410234512E+03  0.47000000000E+01 0. -1.
         -5    1    1    2    0  502  0.64832572833E+02 -0.21564450767E+02 -0.23938808604E+03  0.24899203556E+03  0.47000000000E+01 0.  1.
        -11    1    1    2    0    0  0.37126925374E+02  0.24877957671E+02 -0.21218942015E+03  0.21684480946E+03  0.00000000000E+00 0.  1.
         11    1    1    2    0    0  0.30850214470E+02 -0.70926202972E+02 -0.26557917297E+03  0.27661265177E+03  0.00000000000E+00 0. -1.
<mgrwt>
<rscale>  0 0.22532005E+03</rscale>
<asrwt>0</asrwt>
<pdfrwt beam="1">  1        1 0.92966294E-02 0.27536863E+03</pdfrwt>
<pdfrwt beam="2">  1       -1 0.13017287E+00 0.27536863E+03</pdfrwt>
<totfact> 0.38466080E+02</totfact>
</mgrwt>
</event>
<event>
 6    1  0.8353100E-006  0.2457142E+03  0.7546771E-02  0.1118616E+00
         -1   -1    0    0    0  501 -0.00000000000E+00  0.00000000000E+00  0.38109509089E+02  0.38109509089E+02  0.00000000000E+00 0.  1.
          1   -1    0    0  501    0  0.00000000000E+00 -0.00000000000E+00 -0.17832086559E+04  0.17832086559E+04  0.00000000000E+00 0. -1.
          5    1    1    2  502    0 -0.16386169414E+03  0.16630171203E+02 -0.71683083277E+03  0.73552413299E+03  0.47000000000E+01 0.  1.
         -5    1    1    2    0  502 -0.30488263902E+02  0.66899135272E+02 -0.55044731583E+03  0.55535517108E+03  0.47000000000E+01 0.  1.
        -11    1    1    2    0    0  0.39259721421E+02  0.19712352819E+02 -0.97095093435E+02  0.10657091418E+03  0.00000000000E+00 0. -1.
         11    1    1    2    0    0  0.15509023662E+03 -0.10324165929E+03 -0.38072590473E+03  0.42386794670E+03  0.00000000000E+00 0.  1.
<mgrwt>
<rscale>  0 0.24177473E+03</rscale>
<asrwt>0</asrwt>
<pdfrwt beam="2">  1        1 0.27433967E+00 0.24571421E+03</pdfrwt>
<pdfrwt beam="1">  1       -1 0.58630041E-02 0.24571421E+03</pdfrwt>
<totfact> 0.64779254E+02</totfact>
</mgrwt>
</event>
<event>
 6    1  0.8353100E-006  0.1649074E+03  0.7546771E-02  0.1189955E+00
         -1   -1    0    0    0  501 -0.00000000000E+00  0.00000000000E+00  0.14335245792E+03  0.14335245792E+03  0.00000000000E+00 0.  1.
          1   -1    0    0  501    0  0.00000000000E+00 -0.00000000000E+00 -0.16875907920E+03  0.16875907920E+03  0.00000000000E+00 0. -1.
          5    1    1    2  502    0 -0.49455366104E+02  0.76756875526E+02  0.13389978509E+02  0.92405804479E+02  0.47000000000E+01 0. -1.
         -5    1    1    2    0  502  0.47411806841E+02  0.30780192608E+02 -0.52023706947E+02  0.76966588657E+02  0.47000000000E+01 0. -1.
        -11    1    1    2    0    0 -0.35010098421E+02 -0.51597457937E+02 -0.23030382376E+02  0.66471070169E+02  0.00000000000E+00 0. -1.
         11    1    1    2    0    0  0.37053657684E+02 -0.55939610196E+02  0.36257489536E+02  0.76268073819E+02  0.00000000000E+00 0.  1.
<mgrwt>
<rscale>  0 0.15889040E+03</rscale>
<asrwt>0</asrwt>
<pdfrwt beam="2">  1        1 0.25962935E-01 0.16490738E+03</pdfrwt>
<pdfrwt beam="1">  1       -1 0.22054224E-01 0.16490738E+03</pdfrwt>
<totfact> 0.30501922E+03</totfact>
</mgrwt>
</event>
<event>
 6    1  0.8353100E-006  0.1682654E+03  0.7546771E-02  0.1187768E+00
          1   -1    0    0  501    0  0.00000000000E+00  0.00000000000E+00  0.14099846368E+03  0.14099846368E+03  0.00000000000E+00 0. -1.
         -1   -1    0    0    0  501 -0.00000000000E+00 -0.00000000000E+00 -0.22086083852E+03  0.22086083852E+03  0.00000000000E+00 0.  1.
          5    1    1    2  502    0 -0.14907221502E+02  0.80610679606E+02  0.10648152373E+02  0.82799638093E+02  0.47000000000E+01 0.  1.
         -5    1    1    2    0  502  0.84177166563E+02  0.82144756460E+01  0.34105754773E+02  0.91315746119E+02  0.47000000000E+01 0.  1.
        -11    1    1    2    0    0 -0.34104053439E+02  0.89339632963E+01 -0.21113295160E+02  0.41093471424E+02  0.00000000000E+00 0. -1.
         11    1    1    2    0    0 -0.35165891622E+02 -0.97759118548E+02 -0.10350298683E+03  0.14665044656E+03  0.00000000000E+00 0.  1.
<mgrwt>
<rscale>  0 0.16082575E+03</rscale>
<asrwt>0</asrwt>
<pdfrwt beam="1">  1        1 0.21692071E-01 0.16826543E+03</pdfrwt>
<pdfrwt beam="2">  1       -1 0.33978591E-01 0.16826543E+03</pdfrwt>
<totfact> 0.18618285E+03</totfact>
</mgrwt>
</event>
<event>
 6    1  0.8353100E-006  0.1251447E+03  0.7546771E-02  0.1250408E+00
          1   -1    0    0  501    0  0.00000000000E+00  0.00000000000E+00  0.76906813204E+02  0.76906813204E+02  0.00000000000E+00 0. -1.
         -1   -1    0    0    0  501 -0.00000000000E+00 -0.00000000000E+00 -0.15268845546E+03  0.15268845546E+03  0.00000000000E+00 0.  1.
          5    1    1    2  502    0  0.40581327314E+02 -0.22000849917E+02 -0.60612039882E+02  0.76333419302E+02  0.47000000000E+01 0. -1.
         -5    1    1    2    0  502 -0.45892130212E+02  0.19170255842E+02  0.22066074781E+02  0.54613075180E+02  0.47000000000E+01 0. -1.
        -11    1    1    2    0    0 -0.35040980280E+02  0.11632341419E+01  0.10041747007E+02  0.36469988972E+02  0.00000000000E+00 0. -1.
         11    1    1    2    0    0  0.40351783178E+02  0.16673599330E+01 -0.47277424160E+02  0.62178785208E+02  0.00000000000E+00 0.  1.
<mgrwt>
<rscale>  0 0.11567464E+03</rscale>
<asrwt>0</asrwt>
<pdfrwt beam="1">  1        1 0.11831818E-01 0.12514469E+03</pdfrwt>
<pdfrwt beam="2">  1       -1 0.23490531E-01 0.12514469E+03</pdfrwt>
<totfact> 0.74253262E+03</totfact>
</mgrwt>
</event>
<event>
 6    1  0.8353100E-006  0.1669445E+03  0.7546771E-02  0.1188161E+00
         -2   -1    0    0    0  501 -0.00000000000E+00  0.00000000000E+00  0.96067642108E+02  0.96067642108E+02  0.00000000000E+00 0.  1.
          2   -1    0    0  501    0  0.00000000000E+00 -0.00000000000E+00 -0.94542939844E+03  0.94542939844E+03  0.00000000000E+00 0. -1.
          5    1    1    2  502    0 -0.22599382884E+02 -0.68217599063E+02 -0.82095982209E+03  0.82411254839E+03  0.47000000000E+01 0. -1.
         -5    1    1    2    0  502 -0.24379172938E+02 -0.31971734647E+02 -0.59051155304E+02  0.71593748555E+02  0.47000000000E+01 0. -1.
        -11    1    1    2    0    0  0.28674689758E+02  0.10757827827E+03  0.46322016890E+02  0.12058628876E+03  0.00000000000E+00 0.  1.
         11    1    1    2    0    0  0.18303866063E+02 -0.73889445642E+01 -0.15672795830E+02  0.25204454840E+02  0.00000000000E+00 0. -1.
<mgrwt>
<rscale>  0 0.16047508E+03</rscale>
<asrwt>0</asrwt>
<pdfrwt beam="2">  1        2 0.14545068E+00 0.16694445E+03</pdfrwt>
<pdfrwt beam="1">  1       -2 0.14779637E-01 0.16694445E+03</pdfrwt>
<totfact> 0.10012198E+03</totfact>
</mgrwt>
</event>
<event>
 6    1  0.8353100E-006  0.1253327E+03  0.7546771E-02  0.1250565E+00
         -2   -1    0    0    0  501 -0.00000000000E+00  0.00000000000E+00  0.88985957684E+02  0.88985957684E+02  0.00000000000E+00 0.  1.
          2   -1    0    0  501    0  0.00000000000E+00 -0.00000000000E+00 -0.14105981895E+03  0.14105981895E+03  0.00000000000E+00 0. -1.
          5    1    1    2  502    0 -0.17857825413E+01 -0.33143048791E+02 -0.84936463682E+02  0.91312340707E+02  0.47000000000E+01 0.  1.
         -5    1    1    2    0  502  0.81520311905E+01  0.39685124481E+02  0.24765627769E+02  0.47715731540E+02  0.47000000000E+01 0.  1.
        -11    1    1    2    0    0 -0.36949611426E+02 -0.28631852639E+02 -0.12016373184E+02  0.48264376040E+02  0.00000000000E+00 0. -1.
         11    1    1    2    0    0  0.30583362776E+02  0.22089776949E+02  0.20113347828E+02  0.42753328353E+02  0.00000000000E+00 0.  1.
<mgrwt>
<rscale>  0 0.11558416E+03</rscale>
<asrwt>0</asrwt>
<pdfrwt beam="2">  1        2 0.21701511E-01 0.12533266E+03</pdfrwt>
<pdfrwt beam="1">  1       -2 0.13690147E-01 0.12533266E+03</pdfrwt>
<totfact> 0.94237340E+03</totfact>
</mgrwt>
</event>
<event>
 6    1  0.8353100E-006  0.1296437E+03  0.7546771E-02  0.1241739E+00
          2   -1    0    0  501    0  0.00000000000E+00  0.00000000000E+00  0.14349858019E+04  0.14349858019E+04  0.00000000000E+00 0. -1.
         -2   -1    0    0    0  501 -0.00000000000E+00 -0.00000000000E+00 -0.91850563389E+01  0.91850563389E+01  0.00000000000E+00 0.  1.
          5    1    1    2  502    0  0.15038673431E+02  0.15690706945E+02  0.27949325699E+02  0.35715749888E+02  0.47000000000E+01 0.  1.
         -5    1    1    2    0  502 -0.49070256121E+02 -0.10141519438E+02  0.88055763324E+03  0.88199465753E+03  0.47000000000E+01 0.  1.
        -11    1    1    2    0    0 -0.24789295736E+02 -0.25472181569E+02  0.17369394834E+03  0.17729334141E+03  0.00000000000E+00 0.  1.
         11    1    1    2    0    0  0.58820878426E+02  0.19922994062E+02  0.34359983830E+03  0.34916710943E+03  0.00000000000E+00 0. -1.
<mgrwt>
<rscale>  0 0.12082724E+03</rscale>
<asrwt>0</asrwt>
<pdfrwt beam="1">  1        2 0.22076687E+00 0.12964373E+03</pdfrwt>
<pdfrwt beam="2">  1       -2 0.14130867E-02 0.12964373E+03</pdfrwt>
<totfact> 0.18319049E+04</totfact>
</mgrwt>
</event>
<event>
 6    1  0.8353100E-006  0.1309634E+03  0.7546771E-02  0.1242848E+00
          1   -1    0    0  501    0  0.00000000000E+00  0.00000000000E+00  0.74984680588E+02  0.74984680588E+02  0.00000000000E+00 0. -1.
         -1   -1    0    0    0  501 -0.00000000000E+00 -0.00000000000E+00 -0.24992362902E+03  0.24992362902E+03  0.00000000000E+00 0.  1.
          5    1    1    2  502    0  0.58621859556E+02 -0.32678811959E+02  0.45795287013E+01  0.67435074346E+02  0.47000000000E+01 0. -1.
         -5    1    1    2    0  502 -0.39418950393E+02  0.48828012506E+02 -0.93035989172E+01  0.63613484484E+02  0.47000000000E+01 0.  1.
        -11    1    1    2    0    0 -0.41317282842E+02 -0.30228862807E+01 -0.16146560084E+03  0.16669551871E+03  0.00000000000E+00 0.  1.
         11    1    1    2    0    0  0.22114373679E+02 -0.13126314266E+02 -0.87492773793E+01  0.27164232072E+02  0.00000000000E+00 0. -1.
<mgrwt>
<rscale>  0 0.12015126E+03</rscale>
<asrwt>0</asrwt>
<pdfrwt beam="1">  1        1 0.11536105E-01 0.13096338E+03</pdfrwt>
<pdfrwt beam="2">  1       -1 0.38449789E-01 0.13096338E+03</pdfrwt>
<totfact> 0.33654706E+03</totfact>
</mgrwt>
</event>
<event>
 6    1  0.8353100E-006  0.2465032E+03  0.7546771E-02  0.1118025E+00
         -2   -1    0    0    0  501 -0.00000000000E+00  0.00000000000E+00  0.19803654875E+02  0.19803654875E+02  0.00000000000E+00 0.  1.
          2   -1    0    0  501    0  0.00000000000E+00 -0.00000000000E+00 -0.31336202152E+04  0.31336202152E+04  0.00000000000E+00 0. -1.
          5    1    1    2  502    0  0.82229449992E+02  0.60966775314E+02 -0.51491887345E+03  0.52501634867E+03  0.47000000000E+01 0. -1.
         -5    1    1    2    0  502  0.11986730703E+03  0.45419381445E+01 -0.15309689093E+04  0.15356681580E+04  0.47000000000E+01 0. -1.
        -11    1    1    2    0    0 -0.33660909354E+02 -0.16524474047E+02 -0.69047112714E+02  0.78572379594E+02  0.00000000000E+00 0.  1.
         11    1    1    2    0    0 -0.16843584767E+03 -0.48984239412E+02 -0.99888166492E+03  0.10141669838E+04  0.00000000000E+00 0. -1.
<mgrwt>
<rscale>  0 0.24267220E+03</rscale>
<asrwt>0</asrwt>
<pdfrwt beam="2">  1        2 0.48209570E+00 0.24650318E+03</pdfrwt>
<pdfrwt beam="1">  1       -2 0.30467144E-02 0.24650318E+03</pdfrwt>
<totfact> 0.72064903E+02</totfact>
</mgrwt>
</event>
<event>
 6    1  0.8353100E-006  0.3002225E+03  0.7546771E-02  0.1112861E+00
         -1   -1    0    0    0  501 -0.00000000000E+00  0.00000000000E+00  0.60613421765E+02  0.60613421765E+02  0.00000000000E+00 0.  1.
          1   -1    0    0  501    0  0.00000000000E+00 -0.00000000000E+00 -0.91906783548E+03  0.91906783548E+03  0.00000000000E+00 0. -1.
          5    1    1    2  502    0 -0.10528519639E+03  0.17674601846E+03 -0.46348028469E+03  0.50710964486E+03  0.47000000000E+01 0. -1.
         -5    1    1    2    0  502  0.57369520948E+02 -0.73894389471E+02 -0.24939017281E+03  0.26640043360E+03  0.47000000000E+01 0.  1.
        -11    1    1    2    0    0  0.13060169458E+02 -0.80824750090E+02 -0.36663071386E+02  0.89707240827E+02  0.00000000000E+00 0.  1.
         11    1    1    2    0    0  0.34855505984E+02 -0.22026878896E+02 -0.10892088483E+03  0.11646393795E+03  0.00000000000E+00 0. -1.
<mgrwt>
<rscale>  0 0.25070334E+03</rscale>
<asrwt>0</asrwt>
<pdfrwt beam="2">  1        1 0.14139505E+00 0.30022250E+03</pdfrwt>
<pdfrwt beam="1">  1       -1 0.93251417E-02 0.30022250E+03</pdfrwt>
<totfact> 0.12541009E+03</totfact>
</mgrwt>
</event>
<event>
 6    1  0.8353100E-006  0.1265201E+03  0.7546771E-02  0.1247377E+00
          1   -1    0    0  501    0  0.00000000000E+00  0.00000000000E+00  0.72487178966E+02  0.72487178966E+02  0.00000000000E+00 0. -1.
         -1   -1    0    0    0  501 -0.00000000000E+00 -0.00000000000E+00 -0.16844407900E+03  0.16844407900E+03  0.00000000000E+00 0.  1.
          5    1    1    2  502    0  0.61345105744E+02  0.39114960899E+02 -0.30844425625E+02  0.79162306415E+02  0.47000000000E+01 0.  1.
         -5    1    1    2    0  502 -0.44184379804E+02 -0.29609623629E+02 -0.15831141610E+02  0.55692946365E+02  0.47000000000E+01 0.  1.
        -11    1    1    2    0    0  0.25446843849E+02 -0.33704322582E+02 -0.10320487453E+02  0.43474540640E+02  0.00000000000E+00 0.  1.
         11    1    1    2    0    0 -0.42607569789E+02  0.24198985312E+02 -0.38960845348E+02  0.62601464549E+02  0.00000000000E+00 0. -1.
<mgrwt>
<rscale>  0 0.11744229E+03</rscale>
<asrwt>0</asrwt>
<pdfrwt beam="1">  1        1 0.11151874E-01 0.12652008E+03</pdfrwt>
<pdfrwt beam="2">  1       -1 0.25914474E-01 0.12652008E+03</pdfrwt>
<totfact> 0.68390808E+03</totfact>
</mgrwt>
</event>
<event>
 6    1  0.8353100E-006  0.1334919E+03  0.7546771E-02  0.1234071E+00
          2   -1    0    0  501    0  0.00000000000E+00  0.00000000000E+00  0.38532384336E+02  0.38532384336E+02  0.00000000000E+00 0. -1.
         -2   -1    0    0    0  501 -0.00000000000E+00 -0.00000000000E+00 -0.49286672035E+03  0.49286672035E+03  0.00000000000E+00 0.  1.
          5    1    1    2  502    0  0.38817370952E+02  0.19665268643E+02 -0.35079622694E+02  0.56090828188E+02  0.47000000000E+01 0. -1.
         -5    1    1    2    0  502 -0.73443534737E+02 -0.51211856867E+02 -0.79695653936E+02  0.11995871929E+03  0.47000000000E+01 0. -1.
        -11    1    1    2    0    0  0.54689633817E+02  0.51549112100E+02 -0.22011893630E+03  0.23259538500E+03  0.00000000000E+00 0. -1.
         11    1    1    2    0    0 -0.20063470032E+02 -0.20002523876E+02 -0.11944012308E+03  0.12275417220E+03  0.00000000000E+00 0.  1.
<mgrwt>
<rscale>  0 0.12564105E+03</rscale>
<asrwt>0</asrwt>
<pdfrwt beam="1">  1        2 0.59280592E-02 0.13349187E+03</pdfrwt>
<pdfrwt beam="2">  1       -2 0.75825649E-01 0.13349187E+03</pdfrwt>
<totfact> 0.19354236E+03</totfact>
</mgrwt>
</event>
<event>
 6    1  0.8353100E-006  0.1618127E+03  0.7546771E-02  0.1191472E+00
         -1   -1    0    0    0  501 -0.00000000000E+00  0.00000000000E+00  0.49943580994E+02  0.49943580994E+02  0.00000000000E+00 0.  1.
          1   -1    0    0  501    0  0.00000000000E+00 -0.00000000000E+00 -0.47476741213E+03  0.47476741213E+03  0.00000000000E+00 0. -1.
          5    1    1    2  502    0 -0.35684845741E+02 -0.11459861681E+03 -0.24288940620E+03  0.27096790370E+03  0.47000000000E+01 0. -1.
         -5    1    1    2    0  502 -0.95137977619E+00  0.18591806484E+02  0.19134397710E+01  0.19295378814E+02  0.47000000000E+01 0. -1.
        -11    1    1    2    0    0 -0.11242095959E+02 -0.98322970301E+01  0.22159891592E+01  0.15098655383E+02  0.00000000000E+00 0.  1.
         11    1    1    2    0    0  0.47878321476E+02  0.10583910736E+03 -0.18606385387E+03  0.21934905523E+03  0.00000000000E+00 0. -1.
<mgrwt>
<rscale>  0 0.15756638E+03</rscale>
<asrwt>0</asrwt>
<pdfrwt beam="2">  1        1 0.73041143E-01 0.16181272E+03</pdfrwt>
<pdfrwt beam="1">  1       -1 0.76836276E-02 0.16181272E+03</pdfrwt>
<totfact> 0.43200294E+03</totfact>
</mgrwt>
</event>
<event>
 6    1  0.1185250E-005  0.4206729E+03  0.7546771E-02  0.1037583E+00
         -1   -1    0    0    0  501 -0.00000000000E+00  0.00000000000E+00  0.37103920300E+03  0.37103920300E+03  0.00000000000E+00 0.  1.
          1   -1    0    0  501    0  0.00000000000E+00 -0.00000000000E+00 -0.47383142075E+03  0.47383142075E+03  0.00000000000E+00 0. -1.
          5    1    1    2  502    0 -0.38957397062E+03  0.10165403546E+03 -0.81920806856E+02  0.41089479201E+03  0.47000000000E+01 0. -1.
         -5    1    1    2    0  502  0.20202774249E+01  0.39085157090E+01 -0.21306991718E+02  0.22258389699E+02  0.47000000000E+01 0. -1.
        -11    1    1    2    0    0  0.28288474765E+03 -0.76837737189E+02 -0.40082726853E+02  0.29586220323E+03  0.00000000000E+00 0. -1.
         11    1    1    2    0    0  0.10466894555E+03 -0.28724813975E+02  0.40518307678E+02  0.11585523880E+03  0.00000000000E+00 0.  1.
<mgrwt>
<rscale>  0 0.41841589E+03</rscale>
<asrwt>0</asrwt>
<pdfrwt beam="2">  1        1 0.72897141E-01 0.42067291E+03</pdfrwt>
<pdfrwt beam="1">  1       -1 0.57082955E-01 0.42067291E+03</pdfrwt>
<totfact> 0.15418733E+02</totfact>
</mgrwt>
</event>
<event>
 6    1  0.8353100E-006  0.1606107E+03  0.7546771E-02  0.1195325E+00
          2   -1    0    0  501    0  0.00000000000E+00  0.00000000000E+00  0.21262817413E+03  0.21262817413E+03  0.00000000000E+00 0. -1.
         -2   -1    0    0    0  501 -0.00000000000E+00 -0.00000000000E+00 -0.14917442852E+03  0.14917442852E+03  0.00000000000E+00 0.  1.
          5    1    1    2  502    0 -0.24331049559E+02  0.12427997556E+02 -0.19006513929E+02  0.33612388603E+02  0.47000000000E+01 0. -1.
         -5    1    1    2    0  502 -0.67572087169E+02 -0.53941662174E+02  0.15191294707E+03  0.17485800917E+03  0.47000000000E+01 0. -1.
        -11    1    1    2    0    0  0.10432532940E+03  0.26578400478E+02 -0.33987599224E+02  0.11289527283E+03  0.00000000000E+00 0. -1.
         11    1    1    2    0    0 -0.12422192672E+02  0.14935264141E+02 -0.35465088302E+02  0.40436932055E+02  0.00000000000E+00 0.  1.
<mgrwt>
<rscale>  0 0.15426717E+03</rscale>
<asrwt>0</asrwt>
<pdfrwt beam="1">  1        2 0.32712027E-01 0.16061067E+03</pdfrwt>
<pdfrwt beam="2">  1       -2 0.22949912E-01 0.16061067E+03</pdfrwt>
<totfact> 0.25739368E+03</totfact>
</mgrwt>
</event>
<event>
 6    1  0.8353100E-006  0.2111862E+03  0.7546771E-02  0.1146320E+00
          3   -1    0    0  501    0  0.00000000000E+00  0.00000000000E+00  0.84907471532E+03  0.84907471532E+03  0.00000000000E+00 0. -1.
         -3   -1    0    0    0  501 -0.00000000000E+00 -0.00000000000E+00 -0.48186808478E+02  0.48186808478E+02  0.00000000000E+00 0.  1.
          5    1    1    2  502    0  0.35150982235E+02  0.16731602525E+02  0.27534331158E+03  0.27812149739E+03  0.47000000000E+01 0. -1.
         -5    1    1    2    0  502  0.10420390679E+03 -0.97239057003E+02  0.24556730056E+03  0.28397055745E+03  0.47000000000E+01 0.  1.
        -11    1    1    2    0    0 -0.28031871937E+02  0.11501685861E+02  0.51586681282E+01  0.30735752452E+02  0.00000000000E+00 0.  1.
         11    1    1    2    0    0 -0.11132301708E+03  0.69005768617E+02  0.27481862657E+03  0.30443371650E+03  0.00000000000E+00 0. -1.
<mgrwt>
<rscale>  0 0.20410620E+03</rscale>
<asrwt>0</asrwt>
<pdfrwt beam="1">  1        3 0.13062687E+00 0.21118620E+03</pdfrwt>
<pdfrwt beam="2">  1       -3 0.74133558E-02 0.21118620E+03</pdfrwt>
<totfact> 0.14346870E+02</totfact>
</mgrwt>
</event>
<event>
 6    1  0.8353100E-006  0.3263256E+03  0.7546771E-02  0.1072774E+00
         -1   -1    0    0    0  501 -0.00000000000E+00  0.00000000000E+00  0.30668763516E+02  0.30668763516E+02  0.00000000000E+00 0.  1.
          1   -1    0    0  501    0  0.00000000000E+00 -0.00000000000E+00 -0.86805276117E+03  0.86805276117E+03  0.00000000000E+00 0. -1.
          5    1    1    2  502    0  0.15572186120E+02 -0.40204778332E+02 -0.20497004581E+03  0.20950829783E+03  0.47000000000E+01 0.  1.
         -5    1    1    2    0  502  0.10360680528E+03  0.53605189465E+02 -0.21213723910E+03  0.24214083640E+03  0.47000000000E+01 0.  1.
        -11    1    1    2    0    0 -0.65872163710E+02  0.39933337084E+02 -0.20944280701E+03  0.22315936631E+03  0.00000000000E+00 0.  1.
         11    1    1    2    0    0 -0.53306827688E+02 -0.53333748217E+02 -0.21083390573E+03  0.22391302414E+03  0.00000000000E+00 0. -1.
<mgrwt>
<rscale>  0 0.32632563E+03</rscale>
<asrwt>0</asrwt>
<pdfrwt beam="2">  1        1 0.13354659E+00 0.32632563E+03</pdfrwt>
<pdfrwt beam="1">  1       -1 0.47182708E-02 0.32632563E+03</pdfrwt>
<totfact> 0.38985597E+03</totfact>
</mgrwt>
</event>
<event>
 6    1  0.8353100E-006  0.2438663E+03  0.7546771E-02  0.1117244E+00
          2   -1    0    0  501    0  0.00000000000E+00  0.00000000000E+00  0.64706564836E+02  0.64706564836E+02  0.00000000000E+00 0. -1.
         -2   -1    0    0    0  501 -0.00000000000E+00 -0.00000000000E+00 -0.22977109322E+03  0.22977109322E+03  0.00000000000E+00 0.  1.
          5    1    1    2  502    0  0.66554781941E+01  0.34006093700E+02 -0.27105248749E+02  0.44243579291E+02  0.47000000000E+01 0. -1.
         -5    1    1    2    0  502 -0.45211929579E+02 -0.79124259835E+02 -0.28726932630E+02  0.95666575820E+02  0.47000000000E+01 0.  1.
        -11    1    1    2    0    0  0.36002768809E+02 -0.55783581204E+00 -0.10210546879E+03  0.10826835780E+03  0.00000000000E+00 0.  1.
         11    1    1    2    0    0  0.25536825752E+01  0.45676001948E+02 -0.71268782157E+01  0.46299145151E+02  0.00000000000E+00 0. -1.
<mgrwt>
<rscale>  0 0.24386634E+03</rscale>
<asrwt>0</asrwt>
<pdfrwt beam="1">  1        2 0.99548561E-02 0.24386634E+03</pdfrwt>
<pdfrwt beam="2">  1       -2 0.35349399E-01 0.24386634E+03</pdfrwt>
<totfact> 0.47981986E+03</totfact>
</mgrwt>
</event>
<event>
 6    1  0.8353100E-006  0.1367387E+03  0.7546771E-02  0.1286835E+00
         -3   -1    0    0    0  501 -0.00000000000E+00  0.00000000000E+00  0.27335353248E+03  0.27335353248E+03  0.00000000000E+00 0. -1.
          3   -1    0    0  501    0  0.00000000000E+00 -0.00000000000E+00 -0.30991604719E+02  0.30991604719E+02  0.00000000000E+00 0.  1.
          5    1    1    2  502    0 -0.27142810427E+02 -0.60741189448E+02  0.11033842151E+03  0.12892975419E+03  0.47000000000E+01 0.  1.
         -5    1    1    2    0  502 -0.50194282623E+01  0.58613051439E+02  0.27087988116E+02  0.64934840873E+02  0.47000000000E+01 0. -1.
        -11    1    1    2    0    0  0.23763165858E+02 -0.39619687486E+01  0.69466718788E+02  0.73525575599E+02  0.00000000000E+00 0.  1.
         11    1    1    2    0    0  0.83990728315E+01  0.60901067575E+01  0.35468799350E+02  0.36954966541E+02  0.00000000000E+00 0. -1.
<mgrwt>
<rscale>  0 0.96954104E+02</rscale>
<asrwt>0</asrwt>
<pdfrwt beam="2">  1        3 0.47679394E-02 0.13673867E+03</pdfrwt>
<pdfrwt beam="1">  1       -3 0.42054388E-01 0.13673867E+03</pdfrwt>
<totfact> 0.31692123E+03</totfact>
</mgrwt>
</event>
<event>
 6    1  0.8353100E-006  0.2447166E+03  0.7546771E-02  0.1140226E+00
         -1   -1    0    0    0  501 -0.00000000000E+00  0.00000000000E+00  0.14058555449E+04  0.14058555449E+04  0.00000000000E+00 0.  1.
          1   -1    0    0  501    0  0.00000000000E+00 -0.00000000000E+00 -0.27607075409E+02  0.27607075409E+02  0.00000000000E+00 0. -1.
          5    1    1    2  502    0  0.16817824223E+03  0.10873576439E+02  0.42900175460E+03  0.46094115815E+03  0.47000000000E+01 0. -1.
         -5    1    1    2    0  502 -0.66515019116E+02 -0.28949114072E+02  0.27205705274E+03  0.28160154282E+03  0.47000000000E+01 0.  1.
        -11    1    1    2    0    0 -0.25118527242E+02 -0.34463393972E+02  0.16749518040E+03  0.17283894640E+03  0.00000000000E+00 0.  1.
         11    1    1    2    0    0 -0.76544695869E+02  0.52538931605E+02  0.50969448174E+03  0.51808097293E+03  0.00000000000E+00 0. -1.
<mgrwt>
<rscale>  0 0.21170080E+03</rscale>
<asrwt>0</asrwt>
<pdfrwt beam="2">  1        1 0.42472435E-02 0.24471659E+03</pdfrwt>
<pdfrwt beam="1">  1       -1 0.21628541E+00 0.24471659E+03</pdfrwt>
<totfact> 0.27282270E+02</totfact>
</mgrwt>
</event>
<event>
 6    1  0.8353100E-006  0.2020741E+03  0.7546771E-02  0.1153181E+00
          1   -1    0    0  501    0  0.00000000000E+00  0.00000000000E+00  0.60573258844E+03  0.60573258844E+03  0.00000000000E+00 0. -1.
         -1   -1    0    0    0  501 -0.00000000000E+00 -0.00000000000E+00 -0.10303735703E+03  0.10303735703E+03  0.00000000000E+00 0.  1.
          5    1    1    2  502    0 -0.11766782329E+01  0.16066420799E+03  0.39995553931E+03  0.43104628026E+03  0.47000000000E+01 0. -1.
         -5    1    1    2    0  502  0.24857983707E+02 -0.32380757236E+02  0.89495131415E+02  0.98477923110E+02  0.47000000000E+01 0.  1.
        -11    1    1    2    0    0 -0.48957258207E+01 -0.26914113720E+02 -0.50927636816E+02  0.57809703687E+02  0.00000000000E+00 0.  1.
         11    1    1    2    0    0 -0.18785579653E+02 -0.10136933703E+03  0.64172197499E+02  0.12143603841E+03  0.00000000000E+00 0. -1.
<mgrwt>
<rscale>  0 0.19597376E+03</rscale>
<asrwt>0</asrwt>
<pdfrwt beam="1">  1        1 0.93189627E-01 0.20207405E+03</pdfrwt>
<pdfrwt beam="2">  1       -1 0.15851901E-01 0.20207405E+03</pdfrwt>
<totfact> 0.10219943E+03</totfact>
</mgrwt>
</event>
<event>
 6    1  0.8353100E-006  0.1281896E+03  0.7546771E-02  0.1245035E+00
         -1   -1    0    0    0  501 -0.00000000000E+00  0.00000000000E+00  0.37796790329E+02  0.37796790329E+02  0.00000000000E+00 0.  1.
          1   -1    0    0  501    0  0.00000000000E+00 -0.00000000000E+00 -0.33707964016E+03  0.33707964016E+03  0.00000000000E+00 0. -1.
          5    1    1    2  502    0  0.41035701391E+02 -0.34318262010E+02 -0.24557988451E+02  0.59049612130E+02  0.47000000000E+01 0. -1.
         -5    1    1    2    0  502 -0.30703892512E+02  0.78175770327E+01 -0.17660262618E+03  0.17948376278E+03  0.47000000000E+01 0. -1.
        -11    1    1    2    0    0 -0.26739824174E+02 -0.26552650912E+02 -0.28285066720E+02  0.47118005759E+02  0.00000000000E+00 0.  1.
         11    1    1    2    0    0  0.16408015295E+02  0.53053335889E+02 -0.69837168477E+02  0.89225049822E+02  0.00000000000E+00 0. -1.
<mgrwt>
<rscale>  0 0.11883297E+03</rscale>
<asrwt>0</asrwt>
<pdfrwt beam="2">  1        1 0.51858407E-01 0.12818962E+03</pdfrwt>
<pdfrwt beam="1">  1       -1 0.58148907E-02 0.12818962E+03</pdfrwt>
<totfact> 0.99782328E+03</totfact>
</mgrwt>
</event>
<event>
 6    1  0.8353100E-006  0.6068477E+03  0.7546771E-02  0.9891300E-01
          1   -1    0    0  501    0  0.00000000000E+00  0.00000000000E+00  0.17466660036E+04  0.17466660036E+04  0.00000000000E+00 0. -1.
         -1   -1    0    0    0  501 -0.00000000000E+00 -0.00000000000E+00 -0.52709587755E+02  0.52709587755E+02  0.00000000000E+00 0.  1.
          5    1    1    2  502    0  0.20277750622E+02 -0.12830375213E+02  0.62988844272E+02  0.67568411267E+02  0.47000000000E+01 0.  1.
         -5    1    1    2    0  502 -0.10494377603E+03 -0.13757011605E+03  0.14721999573E+04  0.14823405604E+04  0.47000000000E+01 0.  1.
        -11    1    1    2    0    0  0.43272205626E+02  0.11608906037E+03  0.61472023965E+02  0.13830388081E+03  0.00000000000E+00 0.  1.
         11    1    1    2    0    0  0.41393819786E+02  0.34311430897E+02  0.97295590369E+02  0.11116273886E+03  0.00000000000E+00 0. -1.
<mgrwt>
<rscale>  0 0.60684774E+03</rscale>
<asrwt>0</asrwt>
<pdfrwt beam="1">  1        1 0.26871780E+00 0.60684774E+03</pdfrwt>
<pdfrwt beam="2">  1       -1 0.81091687E-02 0.60684774E+03</pdfrwt>
<totfact> 0.40174167E+02</totfact>
</mgrwt>
</event>
<event>
 6    1  0.8353100E-006  0.1311929E+03  0.7546771E-02  0.1237650E+00
         -2   -1    0    0    0  501 -0.00000000000E+00  0.00000000000E+00  0.44833563241E+02  0.44833563241E+02  0.00000000000E+00 0.  1.
          2   -1    0    0  501    0  0.00000000000E+00 -0.00000000000E+00 -0.31482046470E+03  0.31482046470E+03  0.00000000000E+00 0. -1.
          5    1    1    2  502    0  0.56740884124E+01  0.53779818616E+02 -0.60625154568E+02  0.81375447993E+02  0.47000000000E+01 0. -1.
         -5    1    1    2    0  502  0.31323005971E+02 -0.68538389797E+02 -0.12236874875E+03  0.14378748989E+03  0.47000000000E+01 0. -1.
        -11    1    1    2    0    0 -0.20553250914E+02 -0.12461049161E+02  0.14542048029E+02  0.28092437242E+02  0.00000000000E+00 0.  1.
         11    1    1    2    0    0 -0.16443843469E+02  0.27219620342E+02 -0.10153504617E+03  0.10639865281E+03  0.00000000000E+00 0. -1.
<mgrwt>
<rscale>  0 0.12336305E+03</rscale>
<asrwt>0</asrwt>
<pdfrwt beam="2">  1        2 0.48433916E-01 0.13119291E+03</pdfrwt>
<pdfrwt beam="1">  1       -2 0.68974714E-02 0.13119291E+03</pdfrwt>
<totfact> 0.11647130E+04</totfact>
</mgrwt>
</event>
<event>
 6    1  0.8353100E-006  0.3273704E+03  0.7546771E-02  0.1072306E+00
         -2   -1    0    0    0  501 -0.00000000000E+00  0.00000000000E+00  0.29584899715E+02  0.29584899715E+02  0.00000000000E+00 0.  1.
          2   -1    0    0  501    0  0.00000000000E+00 -0.00000000000E+00 -0.90562566242E+03  0.90562566242E+03  0.00000000000E+00 0. -1.
          5    1    1    2  502    0  0.83844488024E+01  0.55585341630E+01 -0.80789872241E+00  0.11132788694E+02  0.47000000000E+01 0.  1.
         -5    1    1    2    0  502 -0.41807327396E+02 -0.99748532030E+02 -0.65733289558E+03  0.66618784729E+03  0.47000000000E+01 0.  1.
        -11    1    1    2    0    0 -0.15757287662E+02  0.45666434880E+02 -0.16190761951E+03  0.16896092046E+03  0.00000000000E+00 0. -1.
         11    1    1    2    0    0  0.49180166255E+02  0.48523562986E+02 -0.55992348894E+02  0.88929005687E+02  0.00000000000E+00 0.  1.
<mgrwt>
<rscale>  0 0.32737040E+03</rscale>
<asrwt>0</asrwt>
<pdfrwt beam="2">  1        2 0.13932704E+00 0.32737040E+03</pdfrwt>
<pdfrwt beam="1">  1       -2 0.45515225E-02 0.32737040E+03</pdfrwt>
<totfact> 0.68278943E+03</totfact>
</mgrwt>
</event>
<event>
 6    1  0.8353100E-006  0.1548834E+03  0.7546771E-02  0.1256212E+00
          4   -1    0    0  501    0  0.00000000000E+00  0.00000000000E+00  0.23302654140E+02  0.23302654140E+02  0.00000000000E+00 0. -1.
         -4   -1    0    0    0  501 -0.00000000000E+00 -0.00000000000E+00 -0.42022165958E+03  0.42022165958E+03  0.00000000000E+00 0.  1.
          5    1    1    2  502    0 -0.25149588659E+02 -0.17031121339E+02  0.98140108732E+00  0.30750838231E+02  0.47000000000E+01 0. -1.
         -5    1    1    2    0  502  0.53090494507E+02  0.21149074613E+02 -0.30613690451E+03  0.31146071705E+03  0.47000000000E+01 0.  1.
        -11    1    1    2    0    0 -0.79138124082E+01 -0.16382099244E+02 -0.28299571505E+02  0.33643236316E+02  0.00000000000E+00 0. -1.
         11    1    1    2    0    0 -0.20027093440E+02  0.12264145970E+02 -0.63463930511E+02  0.67669522119E+02  0.00000000000E+00 0.  1.
<mgrwt>
<rscale>  0 0.11238697E+03</rscale>
<asrwt>0</asrwt>
<pdfrwt beam="1">  1        4 0.35850241E-02 0.15488340E+03</pdfrwt>
<pdfrwt beam="2">  1       -4 0.64649480E-01 0.15488340E+03</pdfrwt>
<totfact> 0.15625621E+03</totfact>
</mgrwt>
</event>
<event>
 6    1  0.8353100E-006  0.1937245E+03  0.7546771E-02  0.1159751E+00
          3   -1    0    0  501    0  0.00000000000E+00  0.00000000000E+00  0.12220380640E+03  0.12220380640E+03  0.00000000000E+00 0. -1.
         -3   -1    0    0    0  501 -0.00000000000E+00 -0.00000000000E+00 -0.31674722859E+03  0.31674722859E+03  0.00000000000E+00 0.  1.
          5    1    1    2  502    0  0.88095970192E+02  0.89897704325E+02 -0.44751948374E+02  0.13366871021E+03  0.47000000000E+01 0. -1.
         -5    1    1    2    0  502  0.48034522213E+02 -0.31818430783E+02  0.21004010612E+02  0.61505986078E+02  0.47000000000E+01 0. -1.
        -11    1    1    2    0    0 -0.10834821864E+03 -0.83020261060E+02 -0.13759487203E+03  0.19381447066E+03  0.00000000000E+00 0. -1.
         11    1    1    2    0    0 -0.27782273767E+02  0.24940987518E+02 -0.33200612395E+02  0.49961868034E+02  0.00000000000E+00 0.  1.
<mgrwt>
<rscale>  0 0.18857737E+03</rscale>
<asrwt>0</asrwt>
<pdfrwt beam="1">  1        3 0.18800586E-01 0.19372454E+03</pdfrwt>
<pdfrwt beam="2">  1       -3 0.48730343E-01 0.19372454E+03</pdfrwt>
<totfact> 0.25634607E+02</totfact>
</mgrwt>
</event>
<event>
 6    1  0.8353100E-006  0.1393318E+03  0.7546771E-02  0.1226844E+00
         -2   -1    0    0    0  501 -0.00000000000E+00  0.00000000000E+00  0.37310214832E+03  0.37310214832E+03  0.00000000000E+00 0.  1.
          2   -1    0    0  501    0  0.00000000000E+00 -0.00000000000E+00 -0.46919802394E+02  0.46919802394E+02  0.00000000000E+00 0. -1.
          5    1    1    2  502    0 -0.16861977299E+02  0.92467318182E+02  0.88330069083E+02  0.12906906025E+03  0.47000000000E+01 0. -1.
         -5    1    1    2    0  502 -0.89814901180E+01 -0.41095950991E+02  0.17079731200E+02  0.45643746236E+02  0.47000000000E+01 0. -1.
        -11    1    1    2    0    0 -0.22584659001E+02  0.36560922869E+01  0.11085396426E+03  0.11319026118E+03  0.00000000000E+00 0.  1.
         11    1    1    2    0    0  0.48428126418E+02 -0.55027459478E+02  0.10991858138E+03  0.13211888305E+03  0.00000000000E+00 0. -1.
<mgrwt>
<rscale>  0 0.13041338E+03</rscale>
<asrwt>0</asrwt>
<pdfrwt beam="2">  1        2 0.72184314E-02 0.13933176E+03</pdfrwt>
<pdfrwt beam="1">  1       -2 0.57400329E-01 0.13933176E+03</pdfrwt>
<totfact> 0.27044035E+03</totfact>
</mgrwt>
</event>
<event>
 6    1  0.8353100E-006  0.1326788E+03  0.7546771E-02  0.1237675E+00
         -2   -1    0    0    0  501 -0.00000000000E+00  0.00000000000E+00  0.30452882361E+02  0.30452882361E+02  0.00000000000E+00 0.  1.
          2   -1    0    0  501    0  0.00000000000E+00 -0.00000000000E+00 -0.76236576295E+03  0.76236576295E+03  0.00000000000E+00 0. -1.
          5    1    1    2  502    0 -0.21051993426E+02 -0.22973240365E+02 -0.43471399367E+03  0.43585468048E+03  0.47000000000E+01 0. -1.
         -5    1    1    2    0  502  0.32792489643E+02  0.66101804928E+02 -0.21768773157E+03  0.22990179310E+03  0.47000000000E+01 0. -1.
        -11    1    1    2    0    0  0.12963079290E+02  0.78574588370E+01  0.12067349233E+02  0.19375293586E+02  0.00000000000E+00 0.  1.
         11    1    1    2    0    0 -0.24703575507E+02 -0.50986023400E+02 -0.91578504572E+02  0.10768687815E+03  0.00000000000E+00 0. -1.
<mgrwt>
<rscale>  0 0.12334753E+03</rscale>
<asrwt>0</asrwt>
<pdfrwt beam="2">  1        2 0.11728704E+00 0.13267883E+03</pdfrwt>
<pdfrwt beam="1">  1       -2 0.46850589E-02 0.13267883E+03</pdfrwt>
<totfact> 0.78460543E+03</totfact>
</mgrwt>
</event>
<event>
 6    1  0.8353100E-006  0.3563448E+03  0.7546771E-02  0.1060041E+00
          2   -1    0    0  501    0  0.00000000000E+00  0.00000000000E+00  0.40584832820E+03  0.40584832820E+03  0.00000000000E+00 0.  1.
         -2   -1    0    0    0  501 -0.00000000000E+00 -0.00000000000E+00 -0.78219880963E+02  0.78219880963E+02  0.00000000000E+00 0. -1.
          5    1    1    2  502    0  0.55017559901E+01 -0.16706392204E+02  0.92778641983E+02  0.94548079133E+02  0.47000000000E+01 0. -1.
         -5    1    1    2    0  502  0.37767165680E+01  0.14306436262E+03  0.16147997036E+03  0.21582295120E+03  0.47000000000E+01 0. -1.
        -11    1    1    2    0    0  0.20162150442E+02 -0.41682228938E+02  0.70072744583E+02  0.83988749562E+02  0.00000000000E+00 0. -1.
         11    1    1    2    0    0 -0.29440623000E+02 -0.84675741474E+02  0.32970903123E+01  0.89708429266E+02  0.00000000000E+00 0.  1.
<mgrwt>
<rscale>  0 0.35634482E+03</rscale>
<asrwt>0</asrwt>
<pdfrwt beam="1">  1        2 0.62438203E-01 0.35634482E+03</pdfrwt>
<pdfrwt beam="2">  1       -2 0.12033828E-01 0.35634482E+03</pdfrwt>
<totfact> 0.38817764E+03</totfact>
</mgrwt>
</event>
<event>
 6    1  0.8353100E-006  0.1354947E+03  0.7546771E-02  0.1231873E+00
         -1   -1    0    0    0  501 -0.00000000000E+00  0.00000000000E+00  0.38213978736E+02  0.38213978736E+02  0.00000000000E+00 0.  1.
          1   -1    0    0  501    0  0.00000000000E+00 -0.00000000000E+00 -0.55998355179E+03  0.55998355179E+03  0.00000000000E+00 0. -1.
          5    1    1    2  502    0 -0.32632753645E+02 -0.30742201782E+02 -0.88077474665E+02  0.98942969049E+02  0.47000000000E+01 0.  1.
         -5    1    1    2    0  502  0.80624488325E+02  0.99909497707E+01 -0.36496268930E+03  0.37392510182E+03  0.47000000000E+01 0.  1.
        -11    1    1    2    0    0 -0.46224881175E+01  0.47305657567E+02 -0.54925771228E+02  0.72636306206E+02  0.00000000000E+00 0.  1.
         11    1    1    2    0    0 -0.43369246562E+02 -0.26554405555E+02 -0.13803637861E+02  0.52693153445E+02  0.00000000000E+00 0. -1.
<mgrwt>
<rscale>  0 0.12706782E+03</rscale>
<asrwt>0</asrwt>
<pdfrwt beam="2">  1        1 0.86151318E-01 0.13549473E+03</pdfrwt>
<pdfrwt beam="1">  1       -1 0.58790735E-02 0.13549473E+03</pdfrwt>
<totfact> 0.51492317E+03</totfact>
</mgrwt>
</event>
<event>
 6    1  0.8353100E-006  0.1262313E+03  0.7546771E-02  0.1240887E+00
          1   -1    0    0  501    0  0.00000000000E+00  0.00000000000E+00  0.91706333338E+03  0.91706333338E+03  0.00000000000E+00 0. -1.
         -1   -1    0    0    0  501 -0.00000000000E+00 -0.00000000000E+00 -0.20161690590E+02  0.20161690590E+02  0.00000000000E+00 0.  1.
          5    1    1    2  502    0 -0.49548935295E+02 -0.10784751734E+02  0.13618244460E+03  0.14539310876E+03  0.47000000000E+01 0.  1.
         -5    1    1    2    0  502  0.45929618027E+02 -0.64542321718E+01  0.57652626622E+03  0.57840799835E+03  0.47000000000E+01 0.  1.
        -11    1    1    2    0    0  0.15634837745E+02 -0.15622423006E+02 -0.36050225086E+01  0.22394294791E+02  0.00000000000E+00 0.  1.
         11    1    1    2    0    0 -0.12015520477E+02  0.32861406912E+02  0.18779795448E+03  0.19102962206E+03  0.00000000000E+00 0. -1.
<mgrwt>
<rscale>  0 0.12134972E+03</rscale>
<asrwt>0</asrwt>
<pdfrwt beam="1">  1        1 0.14108663E+00 0.12623128E+03</pdfrwt>
<pdfrwt beam="2">  1       -1 0.31017993E-02 0.12623128E+03</pdfrwt>
<totfact> 0.64263991E+03</totfact>
</mgrwt>
</event>
<event>
 6    1  0.8353100E-006  0.1772490E+03  0.7546771E-02  0.1176634E+00
          2   -1    0    0  501    0  0.00000000000E+00  0.00000000000E+00  0.13953967547E+04  0.13953967547E+04  0.00000000000E+00 0. -1.
         -2   -1    0    0    0  501 -0.00000000000E+00 -0.00000000000E+00 -0.19717809088E+02  0.19717809088E+02  0.00000000000E+00 0.  1.
          5    1    1    2  502    0 -0.13094279726E+02  0.21348063074E+02  0.84683397292E+02  0.88433973876E+02  0.47000000000E+01 0.  1.
         -5    1    1    2    0  502  0.81644991952E+02 -0.12667815410E+03  0.68316428317E+03  0.69960616581E+03  0.47000000000E+01 0.  1.
        -11    1    1    2    0    0  0.10390389248E+02 -0.37465956384E+01  0.12385825807E+02  0.16595356234E+02  0.00000000000E+00 0.  1.
         11    1    1    2    0    0 -0.78941101474E+02  0.10907668666E+03  0.59544543939E+03  0.61047906791E+03  0.00000000000E+00 0. -1.
<mgrwt>
<rscale>  0 0.17116958E+03</rscale>
<asrwt>0</asrwt>
<pdfrwt beam="1">  1        2 0.21467635E+00 0.17724898E+03</pdfrwt>
<pdfrwt beam="2">  1       -2 0.30335102E-02 0.17724898E+03</pdfrwt>
<totfact> 0.64006132E+03</totfact>
</mgrwt>
</event>
<event>
 6    1  0.8353100E-006  0.1346634E+03  0.7546771E-02  0.1236821E+00
          2   -1    0    0  501    0  0.00000000000E+00  0.00000000000E+00  0.23012355891E+03  0.23012355891E+03  0.00000000000E+00 0.  1.
         -2   -1    0    0    0  501 -0.00000000000E+00 -0.00000000000E+00 -0.59556709974E+02  0.59556709974E+02  0.00000000000E+00 0. -1.
          5    1    1    2  502    0 -0.65199951776E+02 -0.33438582915E+02  0.77721495468E+02  0.10692003272E+03  0.47000000000E+01 0. -1.
         -5    1    1    2    0  502  0.20687235595E+02  0.56404992155E+02  0.44172577163E+02  0.74718079671E+02  0.47000000000E+01 0. -1.
        -11    1    1    2    0    0  0.41534698173E+02 -0.41630211581E+02  0.61585218997E+02  0.85152480102E+02  0.00000000000E+00 0.  1.
         11    1    1    2    0    0  0.29780180078E+01  0.18663802341E+02 -0.12912442690E+02  0.22889676392E+02  0.00000000000E+00 0. -1.
<mgrwt>
<rscale>  0 0.12388575E+03</rscale>
<asrwt>0</asrwt>
<pdfrwt beam="1">  1        2 0.35403624E-01 0.13466343E+03</pdfrwt>
<pdfrwt beam="2">  1       -2 0.91625709E-02 0.13466343E+03</pdfrwt>
<totfact> 0.10503584E+04</totfact>
</mgrwt>
</event>
<event>
 6    1  0.8353100E-006  0.1683522E+03  0.7546771E-02  0.1186265E+00
         -1   -1    0    0    0  501 -0.00000000000E+00  0.00000000000E+00  0.23847074577E+03  0.23847074577E+03  0.00000000000E+00 0. -1.
          1   -1    0    0  501    0  0.00000000000E+00 -0.00000000000E+00 -0.11465742086E+03  0.11465742086E+03  0.00000000000E+00 0.  1.
          5    1    1    2  502    0 -0.29587030936E+02  0.93968257206E+02 -0.15328511735E+02  0.99812218861E+02  0.47000000000E+01 0.  1.
         -5    1    1    2    0  502  0.62409207962E+02  0.13901969409E+02  0.25014102813E+02  0.68818379314E+02  0.47000000000E+01 0.  1.
        -11    1    1    2    0    0  0.70558588478E+01 -0.92130859305E+02  0.44091299318E+02  0.10238126321E+03  0.00000000000E+00 0.  1.
         11    1    1    2    0    0 -0.39878035873E+02 -0.15739367311E+02  0.70036434510E+02  0.82116305247E+02  0.00000000000E+00 0. -1.
<mgrwt>
<rscale>  0 0.16217289E+03</rscale>
<asrwt>0</asrwt>
<pdfrwt beam="2">  1        1 0.17639603E-01 0.16835221E+03</pdfrwt>
<pdfrwt beam="1">  1       -1 0.36687807E-01 0.16835221E+03</pdfrwt>
<totfact> 0.21253393E+03</totfact>
</mgrwt>
</event>
<event>
 6    1  0.8353100E-006  0.1633287E+03  0.7546771E-02  0.1192367E+00
          2   -1    0    0  501    0  0.00000000000E+00  0.00000000000E+00  0.50154071741E+03  0.50154071741E+03  0.00000000000E+00 0.  1.
         -2   -1    0    0    0  501 -0.00000000000E+00 -0.00000000000E+00 -0.51614348277E+02  0.51614348277E+02  0.00000000000E+00 0. -1.
          5    1    1    2  502    0  0.12781260932E+02 -0.36771310755E+02  0.65336437767E+02  0.76199934552E+02  0.47000000000E+01 0.  1.
         -5    1    1    2    0  502 -0.11789784585E+03  0.35507391153E+02  0.27090429126E+03  0.29761031888E+03  0.47000000000E+01 0.  1.
        -11    1    1    2    0    0 -0.66703440897E+01 -0.17826037504E+02  0.38136994023E+00  0.19036978394E+02  0.00000000000E+00 0. -1.
         11    1    1    2    0    0  0.11178692901E+03  0.19089957106E+02  0.11330427017E+03  0.16030783386E+03  0.00000000000E+00 0.  1.
<mgrwt>
<rscale>  0 0.15679167E+03</rscale>
<asrwt>0</asrwt>
<pdfrwt beam="1">  1        2 0.77160107E-01 0.16332874E+03</pdfrwt>
<pdfrwt beam="2">  1       -2 0.79406693E-02 0.16332874E+03</pdfrwt>
<totfact> 0.57648469E+03</totfact>
</mgrwt>
</event>
<event>
 6    1  0.8353100E-006  0.2101454E+03  0.7546771E-02  0.1145314E+00
          1   -1    0    0  501    0  0.00000000000E+00  0.00000000000E+00  0.80350248841E+03  0.80350248841E+03  0.00000000000E+00 0. -1.
         -1   -1    0    0    0  501 -0.00000000000E+00 -0.00000000000E+00 -0.50418343655E+02  0.50418343655E+02  0.00000000000E+00 0.  1.
          5    1    1    2  502    0  0.10961627403E+03  0.65159989397E+02  0.16147649843E+03  0.20581132451E+03  0.47000000000E+01 0.  1.
         -5    1    1    2    0  502 -0.76761338367E+01  0.69531885789E+02  0.20478592434E+03  0.21645547112E+03  0.47000000000E+01 0.  1.
        -11    1    1    2    0    0 -0.40146064243E+02 -0.95024600516E+02  0.13845078526E+03  0.17265573004E+03  0.00000000000E+00 0.  1.
         11    1    1    2    0    0 -0.61794075955E+02 -0.39667274670E+02  0.24837093673E+03  0.25899830639E+03  0.00000000000E+00 0. -1.
<mgrwt>
<rscale>  0 0.20533573E+03</rscale>
<asrwt>0</asrwt>
<pdfrwt beam="1">  1        1 0.12361576E+00 0.21014539E+03</pdfrwt>
<pdfrwt beam="2">  1       -1 0.77566688E-02 0.21014539E+03</pdfrwt>
<totfact> 0.20574450E+03</totfact>
</mgrwt>
</event>
<event>
 6    1  0.8353100E-006  0.1329295E+03  0.7546771E-02  0.1235887E+00
         -1   -1    0    0    0  501 -0.00000000000E+00  0.00000000000E+00  0.33437298194E+02  0.33437298194E+02  0.00000000000E+00 0.  1.
          1   -1    0    0  501    0  0.00000000000E+00 -0.00000000000E+00 -0.90218255875E+03  0.90218255875E+03  0.00000000000E+00 0. -1.
          5    1    1    2  502    0  0.15898299862E+02 -0.68254475500E+02 -0.50185246733E+03  0.50674393763E+03  0.47000000000E+01 0. -1.
         -5    1    1    2    0  502 -0.48128727081E+02  0.36541505823E+02 -0.30150418191E+03  0.30753620556E+03  0.47000000000E+01 0. -1.
        -11    1    1    2    0    0 -0.13615439698E+02  0.13152962668E+02  0.16869604909E+02  0.25356738649E+02  0.00000000000E+00 0.  1.
         11    1    1    2    0    0  0.45845866917E+02  0.18560007009E+02 -0.82258216230E+02  0.95982975110E+02  0.00000000000E+00 0. -1.
<mgrwt>
<rscale>  0 0.12447821E+03</rscale>
<asrwt>0</asrwt>
<pdfrwt beam="2">  1        1 0.13879732E+00 0.13292948E+03</pdfrwt>
<pdfrwt beam="1">  1       -1 0.51441995E-02 0.13292948E+03</pdfrwt>
<totfact> 0.31476387E+03</totfact>
</mgrwt>
</event>
<event>
 6    1  0.8353100E-006  0.1307544E+03  0.7546771E-02  0.1238755E+00
          2   -1    0    0  501    0  0.00000000000E+00  0.00000000000E+00  0.14834322529E+03  0.14834322529E+03  0.00000000000E+00 0. -1.
         -2   -1    0    0    0  501 -0.00000000000E+00 -0.00000000000E+00 -0.92904414196E+02  0.92904414196E+02  0.00000000000E+00 0.  1.
          5    1    1    2  502    0 -0.14377419999E+02  0.44307734539E+02  0.87978972745E+01  0.47637994734E+02  0.47000000000E+01 0. -1.
         -5    1    1    2    0  502  0.81926548327E+01 -0.82168627680E+02  0.40591133093E+02  0.92133235338E+02  0.47000000000E+01 0. -1.
        -11    1    1    2    0    0  0.13908320065E+01  0.50934838190E+02  0.40001658262E+02  0.64779817990E+02  0.00000000000E+00 0. -1.
         11    1    1    2    0    0  0.47939331596E+01 -0.13073945049E+02 -0.33951877533E+02  0.36696591426E+02  0.00000000000E+00 0.  1.
<mgrwt>
<rscale>  0 0.12267054E+03</rscale>
<asrwt>0</asrwt>
<pdfrwt beam="1">  1        2 0.22822035E-01 0.13075443E+03</pdfrwt>
<pdfrwt beam="2">  1       -2 0.14292987E-01 0.13075443E+03</pdfrwt>
<totfact> 0.83368951E+03</totfact>
</mgrwt>
</event>
<event>
 6    1  0.8353100E-006  0.1401750E+03  0.7546771E-02  0.1227892E+00
         -2   -1    0    0    0  501 -0.00000000000E+00  0.00000000000E+00  0.41386527228E+03  0.41386527228E+03  0.00000000000E+00 0.  1.
          2   -1    0    0  501    0  0.00000000000E+00 -0.00000000000E+00 -0.41035682570E+02  0.41035682570E+02  0.00000000000E+00 0. -1.
          5    1    1    2  502    0 -0.76779022257E+02 -0.58925031462E+02  0.97919769183E+02  0.13775902434E+03  0.47000000000E+01 0. -1.
         -5    1    1    2    0  502  0.16488115448E+02  0.39101438561E+02  0.31896414395E+02  0.53294011857E+02  0.47000000000E+01 0. -1.
        -11    1    1    2    0    0 -0.80698050544E+01  0.21489682596E+02  0.19535954741E+02  0.30142689650E+02  0.00000000000E+00 0. -1.
         11    1    1    2    0    0  0.68360711864E+02 -0.16660896942E+01  0.22347745139E+03  0.23370522900E+03  0.00000000000E+00 0.  1.
<mgrwt>
<rscale>  0 0.12970655E+03</rscale>
<asrwt>0</asrwt>
<pdfrwt beam="2">  1        2 0.63131822E-02 0.14017497E+03</pdfrwt>
<pdfrwt beam="1">  1       -2 0.63671577E-01 0.14017497E+03</pdfrwt>
<totfact> 0.25930315E+03</totfact>
</mgrwt>
</event>
<event>
 6    1  0.8353100E-006  0.1334886E+03  0.7546771E-02  0.1236716E+00
          1   -1    0    0  501    0  0.00000000000E+00  0.00000000000E+00  0.77766548732E+03  0.77766548732E+03  0.00000000000E+00 0. -1.
         -1   -1    0    0    0  501 -0.00000000000E+00 -0.00000000000E+00 -0.18425794502E+02  0.18425794502E+02  0.00000000000E+00 0.  1.
          5    1    1    2  502    0  0.27543994430E+02 -0.17762868092E+02  0.26334020996E+02  0.42305576155E+02  0.47000000000E+01 0. -1.
         -5    1    1    2    0  502 -0.88961102208E+01 -0.25217458466E+02  0.49848815194E+03  0.49922699107E+03  0.47000000000E+01 0. -1.
        -11    1    1    2    0    0  0.11255496501E+02  0.61969047416E+02  0.16530481706E+03  0.17689695187E+03  0.00000000000E+00 0. -1.
         11    1    1    2    0    0 -0.29903380710E+02 -0.18988720858E+02  0.69112702817E+02  0.77661762717E+02  0.00000000000E+00 0.  1.
<mgrwt>
<rscale>  0 0.12395235E+03</rscale>
<asrwt>0</asrwt>
<pdfrwt beam="1">  1        1 0.11964082E+00 0.13348861E+03</pdfrwt>
<pdfrwt beam="2">  1       -1 0.28347382E-02 0.13348861E+03</pdfrwt>
<totfact> 0.94765385E+03</totfact>
</mgrwt>
</event>
<event>
 6    1  0.8353100E-006  0.1289345E+03  0.7546771E-02  0.1311320E+00
         -2   -1    0    0    0  501 -0.00000000000E+00  0.00000000000E+00  0.34107777735E+03  0.34107777735E+03  0.00000000000E+00 0.  1.
          2   -1    0    0  501    0  0.00000000000E+00 -0.00000000000E+00 -0.17719911211E+02  0.17719911211E+02  0.00000000000E+00 0. -1.
          5    1    1    2  502    0  0.29768460350E+02 -0.15998813112E+02  0.56070621118E+01  0.34578206983E+02  0.47000000000E+01 0. -1.
         -5    1    1    2    0  502 -0.24010832859E+02  0.73654724591E+01  0.25401778891E+03  0.25529962272E+03  0.47000000000E+01 0.  1.
        -11    1    1    2    0    0  0.17573684043E+01  0.15766283284E+02  0.37853904454E+02  0.41043661078E+02  0.00000000000E+00 0. -1.
         11    1    1    2    0    0 -0.75149958959E+01 -0.71329426305E+01  0.25879110658E+02  0.27876197774E+02  0.00000000000E+00 0.  1.
<mgrwt>
<rscale>  0 0.86592287E+02</rscale>
<asrwt>0</asrwt>
<pdfrwt beam="2">  1        2 0.27261404E-02 0.12893445E+03</pdfrwt>
<pdfrwt beam="1">  1       -2 0.52473499E-01 0.12893445E+03</pdfrwt>
<totfact> 0.11563819E+04</totfact>
</mgrwt>
</event>
<event>
 6    1  0.8353100E-006  0.1700136E+03  0.7546771E-02  0.1184846E+00
          2   -1    0    0  501    0  0.00000000000E+00  0.00000000000E+00  0.10649831190E+03  0.10649831190E+03  0.00000000000E+00 0. -1.
         -2   -1    0    0    0  501 -0.00000000000E+00 -0.00000000000E+00 -0.23368187046E+03  0.23368187046E+03  0.00000000000E+00 0.  1.
          5    1    1    2  502    0 -0.47561210631E+02 -0.16602005386E+02 -0.76076334867E+02  0.91364074265E+02  0.47000000000E+01 0.  1.
         -5    1    1    2    0  502 -0.54888560570E+02  0.69362028095E+02  0.13901934489E+02  0.89661579316E+02  0.47000000000E+01 0.  1.
        -11    1    1    2    0    0  0.58362540572E+01 -0.42663688701E+02 -0.40171623150E+02  0.58889825111E+02  0.00000000000E+00 0.  1.
         11    1    1    2    0    0  0.96613517144E+02 -0.10096334008E+02 -0.24837535034E+02  0.10026470367E+03  0.00000000000E+00 0. -1.
<mgrwt>
<rscale>  0 0.16345880E+03</rscale>
<asrwt>0</asrwt>
<pdfrwt beam="1">  1        2 0.16384356E-01 0.17001362E+03</pdfrwt>
<pdfrwt beam="2">  1       -2 0.35951057E-01 0.17001362E+03</pdfrwt>
<totfact> 0.25017999E+03</totfact>
</mgrwt>
</event>
<event>
 6    1  0.8353100E-006  0.1795592E+03  0.7546771E-02  0.1174828E+00
         -1   -1    0    0    0  501 -0.00000000000E+00  0.00000000000E+00  0.19461753676E+02  0.19461753676E+02  0.00000000000E+00 0.  1.
          1   -1    0    0  501    0  0.00000000000E+00 -0.00000000000E+00 -0.19038886207E+04  0.19038886207E+04  0.00000000000E+00 0. -1.
          5    1    1    2  502    0 -0.86911465449E+02 -0.13498392760E+02 -0.95969268252E+03  0.96372607328E+03  0.47000000000E+01 0.  1.
         -5    1    1    2    0  502  0.26726965057E+01 -0.84076137907E+02 -0.51290737090E+03  0.51978072434E+03  0.47000000000E+01 0.  1.
        -11    1    1    2    0    0  0.87631125717E+02  0.41995142678E+02 -0.23010832241E+03  0.24978520021E+03  0.00000000000E+00 0.  1.
         11    1    1    2    0    0 -0.33923567734E+01  0.55579387989E+02 -0.18171849121E+03  0.19005837656E+03  0.00000000000E+00 0. -1.
<mgrwt>
<rscale>  0 0.17292863E+03</rscale>
<asrwt>0</asrwt>
<pdfrwt beam="2">  1        1 0.29290589E+00 0.17955919E+03</pdfrwt>
<pdfrwt beam="1">  1       -1 0.29941165E-02 0.17955919E+03</pdfrwt>
<totfact> 0.14808187E+03</totfact>
</mgrwt>
</event>
<event>
 6    1  0.8353100E-006  0.1260249E+03  0.7546771E-02  0.1249075E+00
          1   -1    0    0  501    0  0.00000000000E+00  0.00000000000E+00  0.39072442926E+03  0.39072442926E+03  0.00000000000E+00 0. -1.
         -1   -1    0    0    0  501 -0.00000000000E+00 -0.00000000000E+00 -0.30833349004E+02  0.30833349004E+02  0.00000000000E+00 0.  1.
          5    1    1    2  502    0 -0.25258733503E+01  0.49304381997E+02  0.29399881729E+02  0.57651931156E+02  0.47000000000E+01 0.  1.
         -5    1    1    2    0  502 -0.83222832185E+01 -0.37473476966E+02  0.20366055226E+03  0.20729986112E+03  0.47000000000E+01 0.  1.
        -11    1    1    2    0    0 -0.26857297418E+02  0.22367202688E+02  0.80559392058E+02  0.87814701670E+02  0.00000000000E+00 0. -1.
         11    1    1    2    0    0  0.37705453987E+02 -0.34198107719E+02  0.46271254209E+02  0.68791284318E+02  0.00000000000E+00 0.  1.
<mgrwt>
<rscale>  0 0.11644785E+03</rscale>
<asrwt>0</asrwt>
<pdfrwt beam="1">  1        1 0.60111447E-01 0.12602494E+03</pdfrwt>
<pdfrwt beam="2">  1       -1 0.47435924E-02 0.12602494E+03</pdfrwt>
<totfact> 0.11201637E+04</totfact>
</mgrwt>
</event>
<event>
 6    1  0.8353100E-006  0.2861341E+03  0.7546771E-02  0.1092385E+00
         -2   -1    0    0    0  501 -0.00000000000E+00  0.00000000000E+00  0.12364551173E+03  0.12364551173E+03  0.00000000000E+00 0.  1.
          2   -1    0    0  501    0  0.00000000000E+00 -0.00000000000E+00 -0.16553916521E+03  0.16553916521E+03  0.00000000000E+00 0. -1.
          5    1    1    2  502    0 -0.20786531660E+02 -0.23103485906E+02  0.10245235217E+02  0.33059125882E+02  0.47000000000E+01 0. -1.
         -5    1    1    2    0  502  0.37440584480E+02  0.98590701857E+02 -0.66735464801E+02  0.12489049652E+03  0.47000000000E+01 0. -1.
        -11    1    1    2    0    0 -0.55097715849E+02 -0.38856833389E+02 -0.16885152003E+02  0.69503382299E+02  0.00000000000E+00 0. -1.
         11    1    1    2    0    0  0.38443663028E+02 -0.36630382562E+02  0.31481728102E+02  0.61731672243E+02  0.00000000000E+00 0.  1.
<mgrwt>
<rscale>  0 0.28613406E+03</rscale>
<asrwt>0</asrwt>
<pdfrwt beam="2">  1        2 0.25467564E-01 0.28613406E+03</pdfrwt>
<pdfrwt beam="1">  1       -2 0.19022387E-01 0.28613406E+03</pdfrwt>
<totfact> 0.48039017E+03</totfact>
</mgrwt>
</event>
<event>
 6    1  0.8353100E-006  0.3786504E+03  0.7546771E-02  0.1051434E+00
         -2   -1    0    0    0  501 -0.00000000000E+00  0.00000000000E+00  0.26192015007E+02  0.26192015007E+02  0.00000000000E+00 0.  1.
          2   -1    0    0  501    0  0.00000000000E+00 -0.00000000000E+00 -0.13685096625E+04  0.13685096625E+04  0.00000000000E+00 0. -1.
          5    1    1    2  502    0  0.15510402923E+03  0.34732167407E+02 -0.49738035679E+03  0.52218090032E+03  0.47000000000E+01 0.  1.
         -5    1    1    2    0  502 -0.21472998435E+01 -0.18336742254E+02 -0.26005357469E+03  0.26075045297E+03  0.47000000000E+01 0.  1.
        -11    1    1    2    0    0 -0.68366889088E+02 -0.20594159409E+02 -0.42385694356E+03  0.42982887238E+03  0.00000000000E+00 0. -1.
         11    1    1    2    0    0 -0.84589840300E+02  0.41987342560E+01 -0.16102677243E+03  0.18194145182E+03  0.00000000000E+00 0.  1.
<mgrwt>
<rscale>  0 0.37865037E+03</rscale>
<asrwt>0</asrwt>
<pdfrwt beam="2">  1        2 0.21053997E+00 0.37865037E+03</pdfrwt>
<pdfrwt beam="1">  1       -2 0.40295403E-02 0.37865037E+03</pdfrwt>
<totfact> 0.43836152E+03</totfact>
</mgrwt>
</event>
<event>
 6    1  0.8353100E-006  0.1405863E+03  0.7546771E-02  0.1226692E+00
         -1   -1    0    0    0  501 -0.00000000000E+00  0.00000000000E+00  0.21083023121E+03  0.21083023121E+03  0.00000000000E+00 0.  1.
          1   -1    0    0  501    0  0.00000000000E+00 -0.00000000000E+00 -0.71854132746E+02  0.71854132746E+02  0.00000000000E+00 0. -1.
          5    1    1    2  502    0 -0.65728387670E+02 -0.27349245922E+02  0.49197227431E+02  0.86664060516E+02  0.47000000000E+01 0.  1.
         -5    1    1    2    0  502  0.26668453304E+02  0.60832948628E+02  0.16977991153E+02  0.68718237929E+02  0.47000000000E+01 0. -1.
        -11    1    1    2    0    0  0.64089321974E+02 -0.14013000638E+02  0.69253924219E+02  0.95393455738E+02  0.00000000000E+00 0. -1.
         11    1    1    2    0    0 -0.25029387607E+02 -0.19470702069E+02  0.35469556570E+01  0.31908609770E+02  0.00000000000E+00 0.  1.
<mgrwt>
<rscale>  0 0.13051626E+03</rscale>
<asrwt>0</asrwt>
<pdfrwt beam="2">  1        1 0.11054482E-01 0.14058627E+03</pdfrwt>
<pdfrwt beam="1">  1       -1 0.32435420E-01 0.14058627E+03</pdfrwt>
<totfact> 0.47885023E+03</totfact>
</mgrwt>
</event>
<event>
 6    1  0.9477351E-006  0.3103663E+03  0.7546771E-02  0.1080170E+00
         -1   -1    0    0    0  501 -0.00000000000E+00  0.00000000000E+00  0.99439778584E+02  0.99439778584E+02  0.00000000000E+00 0.  1.
          1   -1    0    0  501    0  0.00000000000E+00 -0.00000000000E+00 -0.24217480292E+03  0.24217480292E+03  0.00000000000E+00 0. -1.
          5    1    1    2  502    0  0.19669784513E+02  0.28310920629E+01 -0.55146299653E+02  0.58805780928E+02  0.47000000000E+01 0.  1.
         -5    1    1    2    0  502 -0.91643719638E+02 -0.77230264803E+02 -0.26323938116E+02  0.12279301637E+03  0.47000000000E+01 0.  1.
        -11    1    1    2    0    0  0.25248350777E+02  0.93717317883E+02 -0.44230846238E+02  0.10666200189E+03  0.00000000000E+00 0. -1.
         11    1    1    2    0    0  0.46725584348E+02 -0.19318145143E+02 -0.17033940326E+02  0.53353782316E+02  0.00000000000E+00 0.  1.
<mgrwt>
<rscale>  0 0.31036629E+03</rscale>
<asrwt>0</asrwt>
<pdfrwt beam="2">  1        1 0.37257661E-01 0.31036629E+03</pdfrwt>
<pdfrwt beam="1">  1       -1 0.15298428E-01 0.31036629E+03</pdfrwt>
<totfact> 0.35777652E+03</totfact>
</mgrwt>
</event>
<event>
 6    1  0.8353100E-006  0.1463348E+03  0.7546771E-02  0.1214703E+00
         -4   -1    0    0    0  501 -0.00000000000E+00  0.00000000000E+00  0.92786589416E+02  0.92786589416E+02  0.00000000000E+00 0.  1.
          4   -1    0    0  501    0  0.00000000000E+00 -0.00000000000E+00 -0.21467624862E+03  0.21467624862E+03  0.00000000000E+00 0. -1.
          5    1    1    2  502    0  0.54537678535E+02  0.32126212960E+02 -0.12477422219E+03  0.13998981557E+03  0.47000000000E+01 0.  1.
         -5    1    1    2    0  502 -0.27500804649E+02  0.39001553634E+02  0.62033687385E+01  0.48352737522E+02  0.47000000000E+01 0.  1.
        -11    1    1    2    0    0 -0.41799522557E+02 -0.86170719456E+02 -0.11603113059E+02  0.96473961307E+02  0.00000000000E+00 0. -1.
         11    1    1    2    0    0  0.14762648672E+02  0.15042952863E+02  0.82843073110E+01  0.22646323637E+02  0.00000000000E+00 0.  1.
<mgrwt>
<rscale>  0 0.13898405E+03</rscale>
<asrwt>0</asrwt>
<pdfrwt beam="2">  1        4 0.33027115E-01 0.14633479E+03</pdfrwt>
<pdfrwt beam="1">  1       -4 0.14274860E-01 0.14633479E+03</pdfrwt>
<totfact> 0.61130828E+02</totfact>
</mgrwt>
</event>
<event>
 6    1  0.1356944E-005  0.4206603E+03  0.7546771E-02  0.1037601E+00
          1   -1    0    0  501    0  0.00000000000E+00  0.00000000000E+00  0.82048434367E+03  0.82048434367E+03  0.00000000000E+00 0. -1.
         -1   -1    0    0    0  501 -0.00000000000E+00 -0.00000000000E+00 -0.21228656288E+03  0.21228656288E+03  0.00000000000E+00 0.  1.
          5    1    1    2  502    0  0.13829994097E+03 -0.79227871129E+02  0.15690401901E+03  0.22370715325E+03  0.47000000000E+01 0.  1.
         -5    1    1    2    0  502  0.11499862094E+03 -0.23249306521E+03  0.19034603316E+03  0.32176297259E+03  0.47000000000E+01 0.  1.
        -11    1    1    2    0    0 -0.21449583505E+03  0.29447502862E+03  0.25437692691E+03  0.44433278821E+03  0.00000000000E+00 0. -1.
         11    1    1    2    0    0 -0.38802726855E+02  0.17245907722E+02  0.65708017028E+01  0.42967992501E+02  0.00000000000E+00 0.  1.
<mgrwt>
<rscale>  0 0.41836240E+03</rscale>
<asrwt>0</asrwt>
<pdfrwt beam="1">  1        1 0.12622836E+00 0.42066027E+03</pdfrwt>
<pdfrwt beam="2">  1       -1 0.32659472E-01 0.42066027E+03</pdfrwt>
<totfact> 0.19379885E+02</totfact>
</mgrwt>
</event>
<event>
 6    1  0.8353100E-006  0.1337574E+03  0.7546771E-02  0.1235145E+00
          3   -1    0    0  501    0  0.00000000000E+00  0.00000000000E+00  0.50142080861E+02  0.50142080861E+02  0.00000000000E+00 0. -1.
         -3   -1    0    0    0  501 -0.00000000000E+00 -0.00000000000E+00 -0.27682988872E+03  0.27682988872E+03  0.00000000000E+00 0.  1.
          5    1    1    2  502    0 -0.51586618953E+02 -0.69253143576E+01 -0.33622298437E+00  0.52262245262E+02  0.47000000000E+01 0.  1.
         -5    1    1    2    0  502  0.13221620999E+02  0.35143994959E+02 -0.12661655387E+03  0.13215049511E+03  0.47000000000E+01 0.  1.
        -11    1    1    2    0    0  0.29770838027E+00  0.18463646590E+02  0.72047644847E+01  0.19821793737E+02  0.00000000000E+00 0. -1.
         11    1    1    2    0    0  0.38067289573E+02 -0.46682327191E+02 -0.10693979549E+03  0.12273743547E+03  0.00000000000E+00 0.  1.
<mgrwt>
<rscale>  0 0.12495179E+03</rscale>
<asrwt>0</asrwt>
<pdfrwt beam="1">  1        3 0.77141664E-02 0.13375743E+03</pdfrwt>
<pdfrwt beam="2">  1       -3 0.42589213E-01 0.13375743E+03</pdfrwt>
<totfact> 0.14272146E+03</totfact>
</mgrwt>
</event>
<event>
 6    1  0.8353100E-006  0.1653389E+03  0.7546771E-02  0.1188964E+00
         -1   -1    0    0    0  501 -0.00000000000E+00  0.00000000000E+00  0.83396823607E+02  0.83396823607E+02  0.00000000000E+00 0.  1.
          1   -1    0    0  501    0  0.00000000000E+00 -0.00000000000E+00 -0.37350552904E+03  0.37350552904E+03  0.00000000000E+00 0. -1.
          5    1    1    2  502    0  0.13688071032E+02 -0.99202946376E+02 -0.12885975225E+03  0.16326516349E+03  0.47000000000E+01 0.  1.
         -5    1    1    2    0  502 -0.60960746712E+02  0.18510344367E+01 -0.13350455782E+03  0.14685093097E+03  0.47000000000E+01 0.  1.
        -11    1    1    2    0    0 -0.23042057039E+02  0.54405658971E+02  0.21895628699E+01  0.59124498359E+02  0.00000000000E+00 0. -1.
         11    1    1    2    0    0  0.70314732718E+02  0.42946252968E+02 -0.29933958231E+02  0.87661759831E+02  0.00000000000E+00 0.  1.
<mgrwt>
<rscale>  0 0.15976357E+03</rscale>
<asrwt>0</asrwt>
<pdfrwt beam="2">  1        1 0.57462388E-01 0.16533893E+03</pdfrwt>
<pdfrwt beam="1">  1       -1 0.12830281E-01 0.16533893E+03</pdfrwt>
<totfact> 0.26762404E+03</totfact>
</mgrwt>
</event>
<event>
 6    1  0.8353100E-006  0.1301539E+03  0.7546771E-02  0.1241118E+00
          2   -1    0    0  501    0  0.00000000000E+00  0.00000000000E+00  0.19394096092E+03  0.19394096092E+03  0.00000000000E+00 0. -1.
         -2   -1    0    0    0  501 -0.00000000000E+00 -0.00000000000E+00 -0.12005637641E+03  0.12005637641E+03  0.00000000000E+00 0.  1.
          5    1    1    2  502    0 -0.49464818377E+02 -0.48616223924E+01  0.73821116543E+01  0.50467704543E+02  0.47000000000E+01 0.  1.
         -5    1    1    2    0  502  0.34331909084E+02 -0.28096906694E+02  0.13622655566E+03  0.14334531947E+03  0.47000000000E+01 0.  1.
        -11    1    1    2    0    0  0.15727977463E+02  0.27585659241E+01 -0.84894320866E+02  0.86383011503E+02  0.00000000000E+00 0.  1.
         11    1    1    2    0    0 -0.59506816955E+00  0.30199963163E+02  0.15170238056E+02  0.33801301807E+02  0.00000000000E+00 0. -1.
<mgrwt>
<rscale>  0 0.12120752E+03</rscale>
<asrwt>0</asrwt>
<pdfrwt beam="1">  1        2 0.29837071E-01 0.13015390E+03</pdfrwt>
<pdfrwt beam="2">  1       -2 0.18470212E-01 0.13015390E+03</pdfrwt>
<totfact> 0.40714004E+03</totfact>
</mgrwt>
</event>
<event>
 6    1  0.8353100E-006  0.2134898E+03  0.7546771E-02  0.1142478E+00
         -2   -1    0    0    0  501 -0.00000000000E+00  0.00000000000E+00  0.30852986370E+02  0.30852986370E+02  0.00000000000E+00 0.  1.
          2   -1    0    0  501    0  0.00000000000E+00 -0.00000000000E+00 -0.13633341594E+04  0.13633341594E+04  0.00000000000E+00 0. -1.
          5    1    1    2  502    0 -0.69048729527E+02  0.12519185316E+03 -0.42422545830E+03  0.44769415522E+03  0.47000000000E+01 0. -1.
         -5    1    1    2    0  502  0.45088602254E+02  0.46206833057E+02 -0.32346078608E+03  0.32987425423E+03  0.47000000000E+01 0. -1.
        -11    1    1    2    0    0  0.21306164693E+02  0.21043660838E+01 -0.80804270386E+02  0.83592530307E+02  0.00000000000E+00 0. -1.
         11    1    1    2    0    0  0.26539625800E+01 -0.17350305230E+03 -0.50399065824E+03  0.53302620598E+03  0.00000000000E+00 0.  1.
<mgrwt>
<rscale>  0 0.20885193E+03</rscale>
<asrwt>0</asrwt>
<pdfrwt beam="2">  1        2 0.20974374E+00 0.21348984E+03</pdfrwt>
<pdfrwt beam="1">  1       -2 0.47466127E-02 0.21348984E+03</pdfrwt>
<totfact> 0.34211057E+03</totfact>
</mgrwt>
</event>
<event>
 6    1  0.8353100E-006  0.1388740E+03  0.7546771E-02  0.1227362E+00
         -2   -1    0    0    0  501 -0.00000000000E+00  0.00000000000E+00  0.22392342519E+02  0.22392342519E+02  0.00000000000E+00 0. -1.
          2   -1    0    0  501    0  0.00000000000E+00 -0.00000000000E+00 -0.67889419114E+03  0.67889419114E+03  0.00000000000E+00 0.  1.
          5    1    1    2  502    0 -0.13872474842E+02 -0.92903750572E+02 -0.28349782920E+03  0.29869158273E+03  0.47000000000E+01 0.  1.
         -5    1    1    2    0  502 -0.10288521294E+02  0.37453546572E+02 -0.57984410431E+02  0.69949293594E+02  0.47000000000E+01 0.  1.
        -11    1    1    2    0    0  0.34011926550E+02  0.68009540920E+02 -0.30370711699E+03  0.31308165342E+03  0.00000000000E+00 0.  1.
         11    1    1    2    0    0 -0.98509304143E+01 -0.12559336921E+02 -0.11312492004E+02  0.19564003916E+02  0.00000000000E+00 0. -1.
<mgrwt>
<rscale>  0 0.13006301E+03</rscale>
<asrwt>0</asrwt>
<pdfrwt beam="2">  1        2 0.10444526E+00 0.13887396E+03</pdfrwt>
<pdfrwt beam="1">  1       -2 0.34449757E-02 0.13887396E+03</pdfrwt>
<totfact> 0.14279977E+04</totfact>
</mgrwt>
</event>
<event>
 6    1  0.8353100E-006  0.3717749E+03  0.7546771E-02  0.1054016E+00
          3   -1    0    0  501    0  0.00000000000E+00  0.00000000000E+00  0.73860437057E+02  0.73860437057E+02  0.00000000000E+00 0. -1.
         -3   -1    0    0    0  501 -0.00000000000E+00 -0.00000000000E+00 -0.46783022214E+03  0.46783022214E+03  0.00000000000E+00 0.  1.
          5    1    1    2  502    0 -0.10230088224E+03 -0.21666880992E+02  0.57126944938E+01  0.10483152730E+03  0.47000000000E+01 0.  1.
         -5    1    1    2    0  502 -0.17950228003E+02 -0.76267894872E+01 -0.86395616133E+02  0.88694256241E+02  0.47000000000E+01 0.  1.
        -11    1    1    2    0    0  0.42364438069E+02  0.47495887783E+02 -0.19700005755E+03  0.20702566904E+03  0.00000000000E+00 0.  1.
         11    1    1    2    0    0  0.77886672171E+02 -0.18202217304E+02 -0.11628680589E+03  0.14113920661E+03  0.00000000000E+00 0. -1.
<mgrwt>
<rscale>  0 0.37177490E+03</rscale>
<asrwt>0</asrwt>
<pdfrwt beam="1">  1        3 0.11363144E-01 0.37177490E+03</pdfrwt>
<pdfrwt beam="2">  1       -3 0.71973881E-01 0.37177490E+03</pdfrwt>
<totfact> 0.28962592E+02</totfact>
</mgrwt>
</event>
<event>
 6    1  0.8353100E-006  0.2398450E+03  0.7546771E-02  0.1122516E+00
          2   -1    0    0  501    0  0.00000000000E+00  0.00000000000E+00  0.19948605732E+04  0.19948605732E+04  0.00000000000E+00 0. -1.
         -2   -1    0    0    0  501 -0.00000000000E+00 -0.00000000000E+00 -0.27067735850E+02  0.27067735850E+02  0.00000000000E+00 0.  1.
          5    1    1    2  502    0  0.11078598585E+03  0.74375512157E+02  0.90889849920E+03  0.91865326610E+03  0.47000000000E+01 0. -1.
         -5    1    1    2    0  502  0.62192346114E+02  0.35077911617E+02  0.13893706306E+03  0.15628162173E+03  0.47000000000E+01 0. -1.
        -11    1    1    2    0    0 -0.11099960004E+03 -0.16807929143E+02  0.50479280490E+03  0.51712589721E+03  0.00000000000E+00 0. -1.
         11    1    1    2    0    0 -0.61978731926E+02 -0.92645494631E+02  0.41516447019E+03  0.42986752400E+03  0.00000000000E+00 0.  1.
<mgrwt>
<rscale>  0 0.23595695E+03</rscale>
<asrwt>0</asrwt>
<pdfrwt beam="1">  1        2 0.30690151E+00 0.23984505E+03</pdfrwt>
<pdfrwt beam="2">  1       -2 0.41642686E-02 0.23984505E+03</pdfrwt>
<totfact> 0.19365695E+03</totfact>
</mgrwt>
</event>
<event>
 6    1  0.8353100E-006  0.1302064E+03  0.7546771E-02  0.1233245E+00
          2   -1    0    0  501    0  0.00000000000E+00  0.00000000000E+00  0.74774609250E+02  0.74774609250E+02  0.00000000000E+00 0. -1.
         -2   -1    0    0    0  501 -0.00000000000E+00 -0.00000000000E+00 -0.26061765483E+03  0.26061765483E+03  0.00000000000E+00 0.  1.
          5    1    1    2  502    0 -0.22650528674E+02  0.43139348635E+02  0.40572922664E+02  0.63579099580E+02  0.47000000000E+01 0. -1.
         -5    1    1    2    0  502  0.24066977956E+02  0.25645727046E+02 -0.57716540499E+02  0.67751101769E+02  0.47000000000E+01 0.  1.
        -11    1    1    2    0    0 -0.10933465402E+01 -0.85670945459E+02 -0.92787985198E+02  0.12629456243E+03  0.00000000000E+00 0.  1.
         11    1    1    2    0    0 -0.32310274157E+00  0.16885869778E+02 -0.75911442551E+02  0.77767500306E+02  0.00000000000E+00 0. -1.
<mgrwt>
<rscale>  0 0.12617442E+03</rscale>
<asrwt>0</asrwt>
<pdfrwt beam="1">  1        2 0.11503786E-01 0.13020644E+03</pdfrwt>
<pdfrwt beam="2">  1       -2 0.40095023E-01 0.13020644E+03</pdfrwt>
<totfact> 0.30576666E+03</totfact>
</mgrwt>
</event>
<event>
 6    1  0.8353100E-006  0.1552865E+03  0.7546771E-02  0.1202987E+00
          2   -1    0    0  501    0  0.00000000000E+00  0.00000000000E+00  0.22673782920E+03  0.22673782920E+03  0.00000000000E+00 0. -1.
         -2   -1    0    0    0  501 -0.00000000000E+00 -0.00000000000E+00 -0.98347808301E+02  0.98347808301E+02  0.00000000000E+00 0.  1.
          5    1    1    2  502    0 -0.14513434928E+02  0.53587070135E+02  0.13952553408E+03  0.15023873848E+03  0.47000000000E+01 0. -1.
         -5    1    1    2    0  502  0.17993875668E+02  0.38481365108E+02 -0.18566925732E+02  0.46598452263E+02  0.47000000000E+01 0. -1.
        -11    1    1    2    0    0  0.10948540264E+02 -0.76025626422E+02  0.41966565500E+02  0.87526904587E+02  0.00000000000E+00 0.  1.
         11    1    1    2    0    0 -0.14428981004E+02 -0.16042808820E+02 -0.34535152950E+02  0.40721542173E+02  0.00000000000E+00 0. -1.
<mgrwt>
<rscale>  0 0.14797240E+03</rscale>
<asrwt>0</asrwt>
<pdfrwt beam="1">  1        2 0.34882743E-01 0.15528649E+03</pdfrwt>
<pdfrwt beam="2">  1       -2 0.15130432E-01 0.15528649E+03</pdfrwt>
<totfact> 0.48344987E+03</totfact>
</mgrwt>
</event>
<event>
 6    1  0.8353100E-006  0.3247265E+03  0.7546771E-02  0.1073494E+00
          2   -1    0    0  501    0  0.00000000000E+00  0.00000000000E+00  0.41680404508E+03  0.41680404508E+03  0.00000000000E+00 0. -1.
         -2   -1    0    0    0  501 -0.00000000000E+00 -0.00000000000E+00 -0.63247521458E+02  0.63247521458E+02  0.00000000000E+00 0.  1.
          5    1    1    2  502    0  0.41600503574E+02  0.14554175917E+02  0.46053686839E+02  0.63917587608E+02  0.47000000000E+01 0.  1.
         -5    1    1    2    0  502 -0.67099980962E+02  0.58568796111E+02  0.27749544779E+03  0.29147645680E+03  0.47000000000E+01 0.  1.
        -11    1    1    2    0    0  0.55881735116E+02 -0.24900696562E+02  0.28876261506E+02  0.67650953337E+02  0.00000000000E+00 0. -1.
         11    1    1    2    0    0 -0.30382257728E+02 -0.48222275466E+02  0.11311274805E+01  0.57006568789E+02  0.00000000000E+00 0.  1.
<mgrwt>
<rscale>  0 0.32472649E+03</rscale>
<asrwt>0</asrwt>
<pdfrwt beam="1">  1        2 0.64123697E-01 0.32472649E+03</pdfrwt>
<pdfrwt beam="2">  1       -2 0.97303882E-02 0.32472649E+03</pdfrwt>
<totfact> 0.52948986E+03</totfact>
</mgrwt>
</event>
<event>
 6    1  0.8353100E-006  0.1376912E+03  0.7546771E-02  0.1262433E+00
          2   -1    0    0  501    0  0.00000000000E+00  0.00000000000E+00  0.51477721942E+03  0.51477721942E+03  0.00000000000E+00 0. -1.
         -2   -1    0    0    0  501 -0.00000000000E+00 -0.00000000000E+00 -0.18178011243E+02  0.18178011243E+02  0.00000000000E+00 0.  1.
          5    1    1    2  502    0 -0.82511798620E+02  0.17412705540E+02  0.24764823780E+03  0.26165461760E+03  0.47000000000E+01 0. -1.
         -5    1    1    2    0  502  0.44180670139E+02 -0.28979673557E+02  0.13885319938E+03  0.14864068781E+03  0.47000000000E+01 0.  1.
        -11    1    1    2    0    0  0.35752776919E+02 -0.59512896830E+01  0.77742651641E+02  0.85776446595E+02  0.00000000000E+00 0.  1.
         11    1    1    2    0    0  0.25783515615E+01  0.17518257700E+02  0.32355119346E+02  0.36883478653E+02  0.00000000000E+00 0. -1.
<mgrwt>
<rscale>  0 0.10899981E+03</rscale>
<asrwt>0</asrwt>
<pdfrwt beam="1">  1        2 0.79196484E-01 0.13769124E+03</pdfrwt>
<pdfrwt beam="2">  1       -2 0.27966175E-02 0.13769124E+03</pdfrwt>
<totfact> 0.26567635E+04</totfact>
</mgrwt>
</event>
<event>
 6    1  0.8353100E-006  0.1554615E+03  0.7546771E-02  0.1214407E+00
          2   -1    0    0  501    0  0.00000000000E+00  0.00000000000E+00  0.11851460061E+04  0.11851460061E+04  0.00000000000E+00 0. -1.
         -2   -1    0    0    0  501 -0.00000000000E+00 -0.00000000000E+00 -0.19788218603E+02  0.19788218603E+02  0.00000000000E+00 0.  1.
          5    1    1    2  502    0  0.10761724548E+02 -0.76980245652E+02  0.67076040903E+03  0.67526542134E+03  0.47000000000E+01 0. -1.
         -5    1    1    2    0  502 -0.16201234520E+01  0.70422652443E+02  0.32704525724E+03  0.33457833920E+03  0.47000000000E+01 0.  1.
        -11    1    1    2    0    0 -0.29278878203E+02 -0.27229034507E+02  0.14354658149E+03  0.14901105357E+03  0.00000000000E+00 0.  1.
         11    1    1    2    0    0  0.20137277108E+02  0.33786627717E+02  0.24005539720E+02  0.46079410576E+02  0.00000000000E+00 0. -1.
<mgrwt>
<rscale>  0 0.13920159E+03</rscale>
<asrwt>0</asrwt>
<pdfrwt beam="1">  1        2 0.18233010E+00 0.15546148E+03</pdfrwt>
<pdfrwt beam="2">  1       -2 0.30443422E-02 0.15546148E+03</pdfrwt>
<totfact> 0.82545246E+03</totfact>
</mgrwt>
</event>
<event>
 6    1  0.8353100E-006  0.1899721E+03  0.7546771E-02  0.1163446E+00
          2   -1    0    0  501    0  0.00000000000E+00  0.00000000000E+00  0.10475371562E+04  0.10475371562E+04  0.00000000000E+00 0.  1.
         -2   -1    0    0    0  501 -0.00000000000E+00 -0.00000000000E+00 -0.51226292763E+02  0.51226292763E+02  0.00000000000E+00 0. -1.
          5    1    1    2  502    0  0.54864247982E+02  0.47475115595E+02  0.53365715183E+03  0.53858705703E+03  0.47000000000E+01 0. -1.
         -5    1    1    2    0  502 -0.39839534862E+02  0.94786129471E+02  0.32828341826E+03  0.34404024704E+03  0.47000000000E+01 0. -1.
        -11    1    1    2    0    0 -0.29466708343E+02 -0.25484915260E+02  0.74599105066E+02  0.84159338656E+02  0.00000000000E+00 0.  1.
         11    1    1    2    0    0  0.14441995224E+02 -0.11677632981E+03  0.59771188242E+02  0.13197680619E+03  0.00000000000E+00 0. -1.
<mgrwt>
<rscale>  0 0.18457629E+03</rscale>
<asrwt>0</asrwt>
<pdfrwt beam="1">  1        2 0.16115955E+00 0.18997213E+03</pdfrwt>
<pdfrwt beam="2">  1       -2 0.78809689E-02 0.18997213E+03</pdfrwt>
<totfact> 0.23664721E+03</totfact>
</mgrwt>
</event>
<event>
 6    1  0.8353100E-006  0.1768470E+03  0.7546771E-02  0.1189786E+00
          2   -1    0    0  501    0  0.00000000000E+00  0.00000000000E+00  0.56829846851E+03  0.56829846851E+03  0.00000000000E+00 0. -1.
         -2   -1    0    0    0  501 -0.00000000000E+00 -0.00000000000E+00 -0.39884929807E+02  0.39884929807E+02  0.00000000000E+00 0.  1.
          5    1    1    2  502    0  0.18552343601E+02  0.79605554806E+02  0.25677541855E+03  0.26951241044E+03  0.47000000000E+01 0. -1.
         -5    1    1    2    0  502 -0.77042385521E+02 -0.37589349890E+02  0.13019178425E+03  0.15595024552E+03  0.47000000000E+01 0.  1.
        -11    1    1    2    0    0  0.78333793119E+01 -0.57256044447E+02  0.10008489329E+03  0.11557076759E+03  0.00000000000E+00 0.  1.
         11    1    1    2    0    0  0.50656662608E+02  0.15239839531E+02  0.41361442608E+02  0.67149974759E+02  0.00000000000E+00 0. -1.
<mgrwt>
<rscale>  0 0.15903930E+03</rscale>
<asrwt>0</asrwt>
<pdfrwt beam="1">  1        2 0.87430528E-01 0.17684698E+03</pdfrwt>
<pdfrwt beam="2">  1       -2 0.61361435E-02 0.17684698E+03</pdfrwt>
<totfact> 0.74831995E+03</totfact>
</mgrwt>
</event>
<event>
 6    1  0.8353100E-006  0.1261595E+03  0.7546771E-02  0.1248617E+00
          2   -1    0    0  501    0  0.00000000000E+00  0.00000000000E+00  0.63755695967E+02  0.63755695967E+02  0.00000000000E+00 0. -1.
         -2   -1    0    0    0  501 -0.00000000000E+00 -0.00000000000E+00 -0.25509129186E+03  0.25509129186E+03  0.00000000000E+00 0.  1.
          5    1    1    2  502    0  0.52032058614E+02 -0.46837285562E+02 -0.12085007313E+02  0.71198341583E+02  0.47000000000E+01 0.  1.
         -5    1    1    2    0  502 -0.35437520001E+02  0.43028363587E+02 -0.12988538244E+02  0.57428651582E+02  0.47000000000E+01 0.  1.
        -11    1    1    2    0    0  0.94633924429E+01 -0.38923272286E+02 -0.95363268537E+02  0.10343466492E+03  0.00000000000E+00 0. -1.
         11    1    1    2    0    0 -0.26057931055E+02  0.42732194261E+02 -0.70898781799E+02  0.86785329739E+02  0.00000000000E+00 0.  1.
<mgrwt>
<rscale>  0 0.11671479E+03</rscale>
<asrwt>0</asrwt>
<pdfrwt beam="1">  1        2 0.98085688E-02 0.12615950E+03</pdfrwt>
<pdfrwt beam="2">  1       -2 0.39244813E-01 0.12615950E+03</pdfrwt>
<totfact> 0.38575039E+03</totfact>
</mgrwt>
</event>
<event>
 6    1  0.8353100E-006  0.1609935E+03  0.7546771E-02  0.1198139E+00
          2   -1    0    0  501    0  0.00000000000E+00  0.00000000000E+00  0.26306950926E+03  0.26306950926E+03  0.00000000000E+00 0. -1.
         -2   -1    0    0    0  501 -0.00000000000E+00 -0.00000000000E+00 -0.79609791216E+02  0.79609791216E+02  0.00000000000E+00 0.  1.
          5    1    1    2  502    0  0.97786145483E+02 -0.51682990604E+02  0.36610688001E+02  0.11660057565E+03  0.47000000000E+01 0. -1.
         -5    1    1    2    0  502 -0.34851515065E+01  0.41637678802E+02  0.52996406136E+02  0.67650215376E+02  0.47000000000E+01 0.  1.
        -11    1    1    2    0    0 -0.80923851797E+02 -0.27210206799E+02  0.48344775389E+02  0.98113620110E+02  0.00000000000E+00 0. -1.
         11    1    1    2    0    0 -0.13377142179E+02  0.37255518600E+02  0.45507848515E+02  0.60314889335E+02  0.00000000000E+00 0.  1.
<mgrwt>
<rscale>  0 0.15191503E+03</rscale>
<asrwt>0</asrwt>
<pdfrwt beam="1">  1        2 0.40472232E-01 0.16099355E+03</pdfrwt>
<pdfrwt beam="2">  1       -2 0.12247660E-01 0.16099355E+03</pdfrwt>
<totfact> 0.58219767E+03</totfact>
</mgrwt>
</event>
<event>
 6    1  0.8353100E-006  0.3018808E+03  0.7546771E-02  0.1084304E+00
          4   -1    0    0  501    0  0.00000000000E+00  0.00000000000E+00  0.11558908388E+03  0.11558908388E+03  0.00000000000E+00 0.  1.
         -4   -1    0    0    0  501 -0.00000000000E+00 -0.00000000000E+00 -0.19710338497E+03  0.19710338497E+03  0.00000000000E+00 0. -1.
          5    1    1    2  502    0 -0.40270680192E+02  0.41606848029E+02 -0.28348173175E+02  0.64641831722E+02  0.47000000000E+01 0. -1.
         -5    1    1    2    0  502  0.88826912225E+01 -0.35764007441E+01  0.77824915843E+02  0.78552532560E+02  0.47000000000E+01 0. -1.
        -11    1    1    2    0    0  0.24884094298E+02  0.84795846367E+01 -0.11782876618E+03  0.12072588638E+03  0.00000000000E+00 0. -1.
         11    1    1    2    0    0  0.65038946723E+01 -0.46510031921E+02 -0.13162277585E+02  0.48772218183E+02  0.00000000000E+00 0.  1.
<mgrwt>
<rscale>  0 0.30188077E+03</rscale>
<asrwt>0</asrwt>
<pdfrwt beam="1">  1        4 0.17782936E-01 0.30188077E+03</pdfrwt>
<pdfrwt beam="2">  1       -4 0.30323597E-01 0.30188077E+03</pdfrwt>
<totfact> 0.55068660E+02</totfact>
</mgrwt>
</event>
<event>
 6    1  0.8353100E-006  0.1850733E+03  0.7546771E-02  0.1168213E+00
          1   -1    0    0  501    0  0.00000000000E+00  0.00000000000E+00  0.21648375570E+03  0.21648375570E+03  0.00000000000E+00 0. -1.
         -1   -1    0    0    0  501 -0.00000000000E+00 -0.00000000000E+00 -0.14445730826E+03  0.14445730826E+03  0.00000000000E+00 0.  1.
          5    1    1    2  502    0 -0.57345086009E+02  0.67481527913E+02  0.30469293656E+02  0.93769309236E+02  0.47000000000E+01 0.  1.
         -5    1    1    2    0  502  0.67478670267E+02  0.68638150964E+02  0.36488273493E+02  0.10304392661E+03  0.47000000000E+01 0.  1.
        -11    1    1    2    0    0  0.90956875903E+01 -0.46591213951E+02  0.43905829856E+02  0.64662157755E+02  0.00000000000E+00 0. -1.
         11    1    1    2    0    0 -0.19229271849E+02 -0.89528464926E+02 -0.38836949563E+02  0.99465670355E+02  0.00000000000E+00 0.  1.
<mgrwt>
<rscale>  0 0.17957737E+03</rscale>
<asrwt>0</asrwt>
<pdfrwt beam="1">  1        1 0.33305193E-01 0.18507332E+03</pdfrwt>
<pdfrwt beam="2">  1       -1 0.22224201E-01 0.18507332E+03</pdfrwt>
<totfact> 0.22138001E+03</totfact>
</mgrwt>
</event>
<event>
 6    1  0.8353100E-006  0.1438373E+03  0.7546771E-02  0.1217709E+00
         -2   -1    0    0    0  501 -0.00000000000E+00  0.00000000000E+00  0.17875982729E+03  0.17875982729E+03  0.00000000000E+00 0.  1.
          2   -1    0    0  501    0  0.00000000000E+00 -0.00000000000E+00 -0.12196735209E+03  0.12196735209E+03  0.00000000000E+00 0. -1.
          5    1    1    2  502    0  0.38264147949E+01  0.50644817607E+02  0.24003819586E+02  0.56372088442E+02  0.47000000000E+01 0.  1.
         -5    1    1    2    0  502  0.62782038267E+02 -0.25598877818E+02 -0.62967282034E+02  0.92649098653E+02  0.47000000000E+01 0.  1.
        -11    1    1    2    0    0 -0.19912535481E+02 -0.24826760083E+02  0.99879893477E+02  0.10482781218E+03  0.00000000000E+00 0.  1.
         11    1    1    2    0    0 -0.46695917581E+02 -0.21917970585E+00 -0.41239558281E+01  0.46878180107E+02  0.00000000000E+00 0. -1.
<mgrwt>
<rscale>  0 0.13679405E+03</rscale>
<asrwt>0</asrwt>
<pdfrwt beam="2">  1        2 0.18764208E-01 0.14383728E+03</pdfrwt>
<pdfrwt beam="1">  1       -2 0.27501512E-01 0.14383728E+03</pdfrwt>
<totfact> 0.34528858E+03</totfact>
</mgrwt>
</event>
<event>
 6    1  0.8353100E-006  0.1291320E+03  0.7546771E-02  0.1243112E+00
          3   -1    0    0  501    0  0.00000000000E+00  0.00000000000E+00  0.34412103039E+02  0.34412103039E+02  0.00000000000E+00 0. -1.
         -3   -1    0    0    0  501 -0.00000000000E+00 -0.00000000000E+00 -0.37607613262E+03  0.37607613262E+03  0.00000000000E+00 0.  1.
          5    1    1    2  502    0  0.94346990880E+01 -0.54994531129E+02 -0.31785839071E+02  0.64388209841E+02  0.47000000000E+01 0. -1.
         -5    1    1    2    0  502  0.22813655189E+02  0.51726602483E+02 -0.13583685211E+03  0.14720680915E+03  0.47000000000E+01 0. -1.
        -11    1    1    2    0    0  0.19297397887E+02  0.26757487542E+02 -0.10228011195E+03  0.10746894438E+03  0.00000000000E+00 0.  1.
         11    1    1    2    0    0 -0.51545752163E+02 -0.23489558896E+02 -0.71761226444E+02  0.91424272291E+02  0.00000000000E+00 0. -1.
<mgrwt>
<rscale>  0 0.11999123E+03</rscale>
<asrwt>0</asrwt>
<pdfrwt beam="1">  1        3 0.52941697E-02 0.12913205E+03</pdfrwt>
<pdfrwt beam="2">  1       -3 0.57857867E-01 0.12913205E+03</pdfrwt>
<totfact> 0.14085986E+03</totfact>
</mgrwt>
</event>
<event>
 6    1  0.8353100E-006  0.3586382E+03  0.7546771E-02  0.1059124E+00
          1   -1    0    0  501    0  0.00000000000E+00  0.00000000000E+00  0.20784493494E+03  0.20784493494E+03  0.00000000000E+00 0. -1.
         -1   -1    0    0    0  501 -0.00000000000E+00 -0.00000000000E+00 -0.15470828064E+03  0.15470828064E+03  0.00000000000E+00 0.  1.
          5    1    1    2  502    0 -0.64478261890E+02 -0.99342101020E+01 -0.40845889471E+02  0.77114275419E+02  0.47000000000E+01 0.  1.
         -5    1    1    2    0  502 -0.19718605049E+01 -0.48052469331E+01  0.67350783301E+02  0.67714080096E+02  0.47000000000E+01 0.  1.
        -11    1    1    2    0    0  0.73587388283E+02 -0.49651691103E+02 -0.61753839208E+02  0.10813847974E+03  0.00000000000E+00 0.  1.
         11    1    1    2    0    0 -0.71372658886E+01  0.64391148139E+02  0.88385599677E+02  0.10958638033E+03  0.00000000000E+00 0. -1.
<mgrwt>
<rscale>  0 0.35863816E+03</rscale>
<asrwt>0</asrwt>
<pdfrwt beam="1">  1        1 0.31976144E-01 0.35863816E+03</pdfrwt>
<pdfrwt beam="2">  1       -1 0.23801274E-01 0.35863816E+03</pdfrwt>
<totfact> 0.21192076E+03</totfact>
</mgrwt>
</event>
<event>
 6    1  0.8353100E-006  0.2848789E+03  0.7546771E-02  0.1093054E+00
          3   -1    0    0  501    0  0.00000000000E+00  0.00000000000E+00  0.27445583116E+02  0.27445583116E+02  0.00000000000E+00 0. -1.
         -3   -1    0    0    0  501 -0.00000000000E+00 -0.00000000000E+00 -0.73924455462E+03  0.73924455462E+03  0.00000000000E+00 0.  1.
          5    1    1    2  502    0 -0.92624765744E+02  0.42821387313E+02 -0.13226765852E+03  0.16712223649E+03  0.47000000000E+01 0. -1.
         -5    1    1    2    0  502  0.22323084333E+02 -0.16260518714E+02 -0.71591169298E+02  0.76877240354E+02  0.47000000000E+01 0.  1.
        -11    1    1    2    0    0  0.90128937216E+02 -0.36786396866E-01 -0.36455252817E+03  0.37552865733E+03  0.00000000000E+00 0.  1.
         11    1    1    2    0    0 -0.19827255805E+02 -0.26524082202E+02 -0.14338761551E+03  0.14716200356E+03  0.00000000000E+00 0. -1.
<mgrwt>
<rscale>  0 0.28487891E+03</rscale>
<asrwt>0</asrwt>
<pdfrwt beam="1">  1        3 0.42223972E-02 0.28487891E+03</pdfrwt>
<pdfrwt beam="2">  1       -3 0.11372994E+00 0.28487891E+03</pdfrwt>
<totfact> 0.50900446E+02</totfact>
</mgrwt>
</event>
<event>
 6    1  0.8353100E-006  0.1431942E+03  0.7546771E-02  0.1219071E+00
          2   -1    0    0  501    0  0.00000000000E+00  0.00000000000E+00  0.40625231499E+02  0.40625231499E+02  0.00000000000E+00 0. -1.
         -2   -1    0    0    0  501 -0.00000000000E+00 -0.00000000000E+00 -0.42426774484E+03  0.42426774484E+03  0.00000000000E+00 0.  1.
          5    1    1    2  502    0  0.44771281944E+02 -0.32041581507E+02 -0.54694461830E+01  0.55525989176E+02  0.47000000000E+01 0. -1.
         -5    1    1    2    0  502  0.13750210046E+01 -0.20400512946E+02 -0.16847637714E+03  0.16977765244E+03  0.47000000000E+01 0. -1.
        -11    1    1    2    0    0 -0.58717463369E+02  0.55153055677E+02 -0.21175934164E+03  0.22656482257E+03  0.00000000000E+00 0.  1.
         11    1    1    2    0    0  0.12571160420E+02 -0.27109612237E+01  0.20626516301E+01  0.13024512152E+02  0.00000000000E+00 0. -1.
<mgrwt>
<rscale>  0 0.13581727E+03</rscale>
<asrwt>0</asrwt>
<pdfrwt beam="1">  1        2 0.62500353E-02 0.14319421E+03</pdfrwt>
<pdfrwt beam="2">  1       -2 0.65271964E-01 0.14319421E+03</pdfrwt>
<totfact> 0.24973322E+03</totfact>
</mgrwt>
</event>
<event>
 6    1  0.8353100E-006  0.1280849E+03  0.7546771E-02  0.1244532E+00
         -2   -1    0    0    0  501 -0.00000000000E+00  0.00000000000E+00  0.10924643743E+02  0.10924643743E+02  0.00000000000E+00 0.  1.
          2   -1    0    0  501    0  0.00000000000E+00 -0.00000000000E+00 -0.11816941505E+04  0.11816941505E+04  0.00000000000E+00 0. -1.
          5    1    1    2  502    0 -0.68896824296E+02  0.25128860311E+02 -0.32885463740E+03  0.33696542042E+03  0.47000000000E+01 0.  1.
         -5    1    1    2    0  502  0.41077021058E+02 -0.22242657027E+02 -0.43843175520E+03  0.44093826259E+03  0.47000000000E+01 0.  1.
        -11    1    1    2    0    0  0.61398110611E+02 -0.28808367663E+01 -0.28582779960E+03  0.29236203281E+03  0.00000000000E+00 0. -1.
         11    1    1    2    0    0 -0.33578307374E+02 -0.53665181716E-02 -0.11765531460E+03  0.12235307845E+03  0.00000000000E+00 0.  1.
<mgrwt>
<rscale>  0 0.11913457E+03</rscale>
<asrwt>0</asrwt>
<pdfrwt beam="2">  1        2 0.18179896E+00 0.12808486E+03</pdfrwt>
<pdfrwt beam="1">  1       -2 0.16807157E-02 0.12808486E+03</pdfrwt>
<totfact> 0.19509370E+04</totfact>
</mgrwt>
</event>
<event>
 6    1  0.8353100E-006  0.1835080E+03  0.7546771E-02  0.1169885E+00
         -4   -1    0    0    0  501 -0.00000000000E+00  0.00000000000E+00  0.80765445940E+02  0.80765445940E+02  0.00000000000E+00 0.  1.
          4   -1    0    0  501    0  0.00000000000E+00 -0.00000000000E+00 -0.42006131020E+03  0.42006131020E+03  0.00000000000E+00 0. -1.
          5    1    1    2  502    0  0.83309631919E+02 -0.27186258213E+01 -0.19054739635E+03  0.20803433840E+03  0.47000000000E+01 0. -1.
         -5    1    1    2    0  502  0.24156781411E+02  0.83337423891E+02 -0.75203491386E+02  0.11491880362E+03  0.47000000000E+01 0. -1.
        -11    1    1    2    0    0 -0.37267516382E+02 -0.11149236266E+01  0.14526149392E+02  0.40013995653E+02  0.00000000000E+00 0.  1.
         11    1    1    2    0    0 -0.70198896948E+02 -0.79503874443E+02 -0.88071125916E+02  0.13785961847E+03  0.00000000000E+00 0. -1.
<mgrwt>
<rscale>  0 0.17786538E+03</rscale>
<asrwt>0</asrwt>
<pdfrwt beam="2">  1        4 0.64624818E-01 0.18350803E+03</pdfrwt>
<pdfrwt beam="1">  1       -4 0.12425453E-01 0.18350803E+03</pdfrwt>
<totfact> 0.20805810E+02</totfact>
</mgrwt>
</event>
<event>
 6    1  0.8353100E-006  0.2033060E+03  0.7546771E-02  0.1151212E+00
          2   -1    0    0  501    0  0.00000000000E+00  0.00000000000E+00  0.13843376816E+04  0.13843376816E+04  0.00000000000E+00 0. -1.
         -2   -1    0    0    0  501 -0.00000000000E+00 -0.00000000000E+00 -0.27266939967E+02  0.27266939967E+02  0.00000000000E+00 0.  1.
          5    1    1    2  502    0  0.85792530149E+02 -0.60142215590E+02  0.23352725100E+03  0.25599709234E+03  0.47000000000E+01 0.  1.
         -5    1    1    2    0  502 -0.14166938198E+02 -0.83305917601E+02  0.41925768784E+03  0.42771448054E+03  0.47000000000E+01 0.  1.
        -11    1    1    2    0    0 -0.65586568273E+02  0.33424130753E+02  0.27210549396E+03  0.28188680405E+03  0.00000000000E+00 0.  1.
         11    1    1    2    0    0 -0.60390236785E+01  0.11002400244E+03  0.43218030882E+03  0.44600624463E+03  0.00000000000E+00 0. -1.
<mgrwt>
<rscale>  0 0.19826361E+03</rscale>
<asrwt>0</asrwt>
<pdfrwt beam="1">  1        2 0.21297497E+00 0.20330602E+03</pdfrwt>
<pdfrwt beam="2">  1       -2 0.41949149E-02 0.20330602E+03</pdfrwt>
<totfact> 0.40132430E+03</totfact>
</mgrwt>
</event>
<event>
 6    1  0.8353100E-006  0.2502521E+03  0.7546771E-02  0.1115787E+00
         -1   -1    0    0    0  501 -0.00000000000E+00  0.00000000000E+00  0.11747458036E+03  0.11747458036E+03  0.00000000000E+00 0.  1.
          1   -1    0    0  501    0  0.00000000000E+00 -0.00000000000E+00 -0.84769315950E+03  0.84769315950E+03  0.00000000000E+00 0. -1.
          5    1    1    2  502    0 -0.16256801856E+03  0.60750019468E+02 -0.35944509631E+03  0.39917639307E+03  0.47000000000E+01 0. -1.
         -5    1    1    2    0  502 -0.50760953111E+02 -0.22126987505E+02 -0.32213703606E+03  0.32689545415E+03  0.47000000000E+01 0. -1.
        -11    1    1    2    0    0  0.13029172818E+03 -0.59283869625E+02 -0.54557540853E+01  0.14324900308E+03  0.00000000000E+00 0.  1.
         11    1    1    2    0    0  0.83037243489E+02  0.20660837662E+02 -0.43180692690E+02  0.95846889571E+02  0.00000000000E+00 0. -1.
<mgrwt>
<rscale>  0 0.24611168E+03</rscale>
<asrwt>0</asrwt>
<pdfrwt beam="2">  1        1 0.13041433E+00 0.25025212E+03</pdfrwt>
<pdfrwt beam="1">  1       -1 0.18073013E-01 0.25025212E+03</pdfrwt>
<totfact> 0.50396659E+02</totfact>
</mgrwt>
</event>
<event>
 6    1  0.8353100E-006  0.1385795E+03  0.7546771E-02  0.1233175E+00
         -2   -1    0    0    0  501 -0.00000000000E+00  0.00000000000E+00  0.23501058754E+02  0.23501058754E+02  0.00000000000E+00 0.  1.
          2   -1    0    0  501    0  0.00000000000E+00 -0.00000000000E+00 -0.58397093871E+03  0.58397093871E+03  0.00000000000E+00 0. -1.
          5    1    1    2  502    0 -0.49595441816E+02  0.29756291719E+02 -0.10458588490E+03  0.11960535969E+03  0.47000000000E+01 0.  1.
         -5    1    1    2    0  502  0.71106206809E+02  0.26086198061E+02 -0.24354257204E+03  0.25509146746E+03  0.47000000000E+01 0.  1.
        -11    1    1    2    0    0 -0.23554396601E+02 -0.67972342202E+02 -0.20739506086E+03  0.21951710678E+03  0.00000000000E+00 0.  1.
         11    1    1    2    0    0  0.20436316068E+01  0.12129852421E+02 -0.49463621591E+01  0.13258063528E+02  0.00000000000E+00 0. -1.
<mgrwt>
<rscale>  0 0.12621968E+03</rscale>
<asrwt>0</asrwt>
<pdfrwt beam="2">  1        2 0.89841684E-01 0.13857954E+03</pdfrwt>
<pdfrwt beam="1">  1       -2 0.36155474E-02 0.13857954E+03</pdfrwt>
<totfact> 0.15814360E+04</totfact>
</mgrwt>
</event>
<event>
 6    1  0.8353100E-006  0.2923693E+03  0.7546771E-02  0.1090728E+00
         -2   -1    0    0    0  501 -0.00000000000E+00  0.00000000000E+00  0.14096167920E+03  0.14096167920E+03  0.00000000000E+00 0.  1.
          2   -1    0    0  501    0  0.00000000000E+00 -0.00000000000E+00 -0.91904334525E+03  0.91904334525E+03  0.00000000000E+00 0. -1.
          5    1    1    2  502    0  0.14612739501E+03 -0.19130235874E+03 -0.66761109580E+03  0.70970167907E+03  0.47000000000E+01 0. -1.
         -5    1    1    2    0  502  0.40769055365E+02  0.44384515222E+01 -0.47865001465E+02  0.63205728321E+02  0.47000000000E+01 0. -1.
        -11    1    1    2    0    0 -0.12199219081E+03  0.13835861187E+03 -0.84900142420E+02  0.20305968157E+03  0.00000000000E+00 0.  1.
         11    1    1    2    0    0 -0.64904259564E+02  0.48505295350E+02  0.22294573639E+02  0.84037935483E+02  0.00000000000E+00 0. -1.
<mgrwt>
<rscale>  0 0.28927534E+03</rscale>
<asrwt>0</asrwt>
<pdfrwt beam="2">  1        2 0.14139128E+00 0.29236931E+03</pdfrwt>
<pdfrwt beam="1">  1       -2 0.21686413E-01 0.29236931E+03</pdfrwt>
<totfact> 0.54115816E+02</totfact>
</mgrwt>
</event>
<event>
 6    1  0.8353100E-006  0.1771708E+03  0.7546771E-02  0.1176298E+00
         -2   -1    0    0    0  501 -0.00000000000E+00  0.00000000000E+00  0.63541092073E+02  0.63541092073E+02  0.00000000000E+00 0.  1.
          2   -1    0    0  501    0  0.00000000000E+00 -0.00000000000E+00 -0.43555092242E+03  0.43555092242E+03  0.00000000000E+00 0. -1.
          5    1    1    2  502    0  0.12786193165E+03  0.80206822173E+02 -0.16228144171E+03  0.22167355326E+03  0.47000000000E+01 0. -1.
         -5    1    1    2    0  502 -0.22746177378E+02 -0.11535367379E+02 -0.33633236124E+02  0.42470435105E+02  0.47000000000E+01 0. -1.
        -11    1    1    2    0    0 -0.10843593905E+03 -0.38368742486E+02 -0.97988879138E+02  0.15110371839E+03  0.00000000000E+00 0.  1.
         11    1    1    2    0    0  0.33201847704E+01 -0.30302712308E+02 -0.78106273369E+02  0.83844307735E+02  0.00000000000E+00 0. -1.
<mgrwt>
<rscale>  0 0.17149480E+03</rscale>
<asrwt>0</asrwt>
<pdfrwt beam="2">  1        2 0.67007835E-01 0.17717078E+03</pdfrwt>
<pdfrwt beam="1">  1       -2 0.97755526E-02 0.17717078E+03</pdfrwt>
<totfact> 0.48805941E+03</totfact>
</mgrwt>
</event>
<event>
 6    1  0.8353100E-006  0.2229540E+03  0.7546771E-02  0.1135059E+00
          2   -1    0    0  501    0  0.00000000000E+00  0.00000000000E+00  0.12948926471E+04  0.12948926471E+04  0.00000000000E+00 0.  1.
         -2   -1    0    0    0  501 -0.00000000000E+00 -0.00000000000E+00 -0.35616258615E+02  0.35616258615E+02  0.00000000000E+00 0. -1.
          5    1    1    2  502    0  0.11854027507E+02 -0.42109194803E+02  0.12303373923E+03  0.13066404725E+03  0.47000000000E+01 0. -1.
         -5    1    1    2    0  502 -0.17090489584E+03 -0.51621382754E+02  0.58092317317E+03  0.60775576813E+03  0.47000000000E+01 0. -1.
        -11    1    1    2    0    0  0.10907838997E+03  0.85807356287E+02  0.49109381565E+03  0.51032747655E+03  0.00000000000E+00 0.  1.
         11    1    1    2    0    0  0.49972478361E+02  0.79232212705E+01  0.64225660429E+02  0.81761613771E+02  0.00000000000E+00 0. -1.
<mgrwt>
<rscale>  0 0.21843004E+03</rscale>
<asrwt>0</asrwt>
<pdfrwt beam="1">  1        2 0.19921422E+00 0.22295401E+03</pdfrwt>
<pdfrwt beam="2">  1       -2 0.54794254E-02 0.22295401E+03</pdfrwt>
<totfact> 0.29992111E+03</totfact>
</mgrwt>
</event>
<event>
 6    1  0.8353100E-006  0.2822183E+03  0.7546771E-02  0.1094483E+00
          1   -1    0    0  501    0  0.00000000000E+00  0.00000000000E+00  0.14733971544E+03  0.14733971544E+03  0.00000000000E+00 0. -1.
         -1   -1    0    0    0  501 -0.00000000000E+00 -0.00000000000E+00 -0.13514208278E+03  0.13514208278E+03  0.00000000000E+00 0.  1.
          5    1    1    2  502    0  0.60717737862E+02 -0.58567890339E+02  0.62340379360E+02  0.10500121127E+03  0.47000000000E+01 0. -1.
         -5    1    1    2    0  502 -0.96995882126E+01 -0.13080707327E+02 -0.45705974568E+02  0.48747441234E+02  0.47000000000E+01 0. -1.
        -11    1    1    2    0    0 -0.16478596612E+02  0.82199511046E+02  0.18630162197E+02  0.85880071646E+02  0.00000000000E+00 0. -1.
         11    1    1    2    0    0 -0.34539553038E+02 -0.10550913379E+02 -0.23066934339E+02  0.42853074067E+02  0.00000000000E+00 0.  1.
<mgrwt>
<rscale>  0 0.28221833E+03</rscale>
<asrwt>0</asrwt>
<pdfrwt beam="1">  1        1 0.22667648E-01 0.28221833E+03</pdfrwt>
<pdfrwt beam="2">  1       -1 0.20791090E-01 0.28221833E+03</pdfrwt>
<totfact> 0.40866449E+03</totfact>
</mgrwt>
</event>
<event>
 6    1  0.8353100E-006  0.1310202E+03  0.7546771E-02  0.1238788E+00
          2   -1    0    0  501    0  0.00000000000E+00  0.00000000000E+00  0.74346166895E+03  0.74346166895E+03  0.00000000000E+00 0. -1.
         -2   -1    0    0    0  501 -0.00000000000E+00 -0.00000000000E+00 -0.18168334952E+02  0.18168334952E+02  0.00000000000E+00 0.  1.
          5    1    1    2  502    0 -0.43218424317E+02 -0.36508356518E+02  0.11899751852E+03  0.13184533253E+03  0.47000000000E+01 0.  1.
         -5    1    1    2    0  502  0.63232028191E+02  0.27415979294E+01  0.32239017800E+03  0.32857772690E+03  0.47000000000E+01 0.  1.
        -11    1    1    2    0    0  0.26429187899E+02  0.45579973486E+02  0.15008753578E+03  0.15906698071E+03  0.00000000000E+00 0. -1.
         11    1    1    2    0    0 -0.46442791773E+02 -0.11813214897E+02  0.13381810170E+03  0.14213996376E+03  0.00000000000E+00 0.  1.
<mgrwt>
<rscale>  0 0.12265027E+03</rscale>
<asrwt>0</asrwt>
<pdfrwt beam="1">  1        2 0.11437869E+00 0.13102021E+03</pdfrwt>
<pdfrwt beam="2">  1       -2 0.27951290E-02 0.13102021E+03</pdfrwt>
<totfact> 0.17352667E+04</totfact>
</mgrwt>
</event>
<event>
 6    1  0.8353100E-006  0.1832001E+03  0.7546771E-02  0.1192180E+00
         -2   -1    0    0    0  501 -0.00000000000E+00  0.00000000000E+00  0.30241440602E+02  0.30241440602E+02  0.00000000000E+00 0.  1.
          2   -1    0    0  501    0  0.00000000000E+00 -0.00000000000E+00 -0.67085508459E+03  0.67085508459E+03  0.00000000000E+00 0. -1.
          5    1    1    2  502    0 -0.32684322648E+02 -0.16631263838E+01 -0.41313365406E+03  0.41445450541E+03  0.47000000000E+01 0. -1.
         -5    1    1    2    0  502  0.63434460407E+02  0.20261308529E+02 -0.49426025922E+02  0.83063068983E+02  0.47000000000E+01 0.  1.
        -11    1    1    2    0    0  0.21694012712E+01  0.34877326821E+02 -0.77712304690E+02  0.85207608395E+02  0.00000000000E+00 0.  1.
         11    1    1    2    0    0 -0.32919539030E+02 -0.53475508966E+02 -0.10034165932E+03  0.11837134241E+03  0.00000000000E+00 0. -1.
<mgrwt>
<rscale>  0 0.15695339E+03</rscale>
<asrwt>0</asrwt>
<pdfrwt beam="2">  1        2 0.10320847E+00 0.18320011E+03</pdfrwt>
<pdfrwt beam="1">  1       -2 0.46525296E-02 0.18320011E+03</pdfrwt>
<totfact> 0.94138598E+03</totfact>
</mgrwt>
</event>
<event>
 6    1  0.8353100E-006  0.1438159E+03  0.7546771E-02  0.1218178E+00
          3   -1    0    0  501    0  0.00000000000E+00  0.00000000000E+00  0.17851367090E+03  0.17851367090E+03  0.00000000000E+00 0. -1.
         -3   -1    0    0    0  501 -0.00000000000E+00 -0.00000000000E+00 -0.12289078598E+03  0.12289078598E+03  0.00000000000E+00 0.  1.
          5    1    1    2  502    0 -0.87363759052E+02  0.68439419539E+01  0.29319053431E+02  0.92525471257E+02  0.47000000000E+01 0.  1.
         -5    1    1    2    0  502  0.22172828956E+02 -0.35254301475E+02  0.72299728468E+02  0.83569377483E+02  0.47000000000E+01 0.  1.
        -11    1    1    2    0    0  0.25171273494E+02  0.50340366432E+02 -0.55113415011E+02  0.78773307763E+02  0.00000000000E+00 0.  1.
         11    1    1    2    0    0  0.40019656602E+02 -0.21930006912E+02  0.91175180333E+01  0.46536300377E+02  0.00000000000E+00 0. -1.
<mgrwt>
<rscale>  0 0.13645680E+03</rscale>
<asrwt>0</asrwt>
<pdfrwt beam="1">  1        3 0.27463642E-01 0.14381592E+03</pdfrwt>
<pdfrwt beam="2">  1       -3 0.18906275E-01 0.14381592E+03</pdfrwt>
<totfact> 0.73118942E+02</totfact>
</mgrwt>
</event>
<event>
 6    1  0.8353100E-006  0.1684903E+03  0.7546771E-02  0.1186069E+00
          1   -1    0    0  501    0  0.00000000000E+00  0.00000000000E+00  0.74164641017E+03  0.74164641017E+03  0.00000000000E+00 0. -1.
         -1   -1    0    0    0  501 -0.00000000000E+00 -0.00000000000E+00 -0.34019161208E+02  0.34019161208E+02  0.00000000000E+00 0.  1.
          5    1    1    2  502    0 -0.76080232877E+02  0.42986354991E+02  0.41472880529E+03  0.42386094476E+03  0.47000000000E+01 0. -1.
         -5    1    1    2    0  502 -0.34416642589E+02 -0.19989367864E+02  0.25479819648E+02  0.47490960445E+02  0.47000000000E+01 0. -1.
        -11    1    1    2    0    0  0.45530943801E+02  0.16011220077E+02  0.34360851753E+02  0.59246047505E+02  0.00000000000E+00 0.  1.
         11    1    1    2    0    0  0.64965931665E+02 -0.39008207203E+02  0.23305777227E+03  0.24506761867E+03  0.00000000000E+00 0. -1.
<mgrwt>
<rscale>  0 0.16234963E+03</rscale>
<asrwt>0</asrwt>
<pdfrwt beam="1">  1        1 0.11409944E+00 0.16849031E+03</pdfrwt>
<pdfrwt beam="2">  1       -1 0.52337177E-02 0.16849031E+03</pdfrwt>
<totfact> 0.41727767E+03</totfact>
</mgrwt>
</event>
<event>
 6    1  0.8353100E-006  0.1452098E+03  0.7546771E-02  0.1210283E+00
         -1   -1    0    0    0  501 -0.00000000000E+00  0.00000000000E+00  0.40765994164E+03  0.40765994164E+03  0.00000000000E+00 0.  1.
          1   -1    0    0  501    0  0.00000000000E+00 -0.00000000000E+00 -0.54150307088E+02  0.54150307088E+02  0.00000000000E+00 0. -1.
          5    1    1    2  502    0 -0.42353142308E+02  0.88445525077E+02  0.36163949645E+02  0.10462466642E+03  0.47000000000E+01 0. -1.
         -5    1    1    2    0  502 -0.18573952204E+01 -0.29224377315E+02  0.67687213696E+02  0.73899682302E+02  0.47000000000E+01 0. -1.
        -11    1    1    2    0    0  0.14347111399E+02  0.30303227999E+02  0.33367512674E+02  0.47302390370E+02  0.00000000000E+00 0. -1.
         11    1    1    2    0    0  0.29863426129E+02 -0.89524375761E+02  0.21629095854E+03  0.23598350964E+03  0.00000000000E+00 0.  1.
<mgrwt>
<rscale>  0 0.14228818E+03</rscale>
<asrwt>0</asrwt>
<pdfrwt beam="2">  1        1 0.83308167E-02 0.14520978E+03</pdfrwt>
<pdfrwt beam="1">  1       -1 0.62716912E-01 0.14520978E+03</pdfrwt>
<totfact> 0.21353143E+03</totfact>
</mgrwt>
</event>
<event>
 6    1  0.8353100E-006  0.1609921E+03  0.7546771E-02  0.1194881E+00
         -3   -1    0    0    0  501 -0.00000000000E+00  0.00000000000E+00  0.42865147418E+02  0.42865147418E+02  0.00000000000E+00 0.  1.
          3   -1    0    0  501    0  0.00000000000E+00 -0.00000000000E+00 -0.51895399604E+03  0.51895399604E+03  0.00000000000E+00 0. -1.
          5    1    1    2  502    0 -0.44898349771E+00  0.31203822367E+02 -0.15404684514E+02  0.35118007082E+02  0.47000000000E+01 0. -1.
         -5    1    1    2    0  502  0.93994174806E+02 -0.70663799934E+02 -0.23037897849E+03  0.25869835958E+03  0.47000000000E+01 0. -1.
        -11    1    1    2    0    0 -0.72179338992E+02  0.17362920951E+02 -0.61445749311E+02  0.96368605416E+02  0.00000000000E+00 0.  1.
         11    1    1    2    0    0 -0.21365852316E+02  0.22097056617E+02 -0.16885943631E+03  0.17163417138E+03  0.00000000000E+00 0. -1.
<mgrwt>
<rscale>  0 0.15464283E+03</rscale>
<asrwt>0</asrwt>
<pdfrwt beam="2">  1        3 0.79839085E-01 0.16099208E+03</pdfrwt>
<pdfrwt beam="1">  1       -3 0.65946373E-02 0.16099208E+03</pdfrwt>
<totfact> 0.52054081E+02</totfact>
</mgrwt>
</event>
<event>
 6    1  0.8353100E-006  0.1373342E+03  0.7546771E-02  0.1228701E+00
          3   -1    0    0  501    0  0.00000000000E+00  0.00000000000E+00  0.31132239663E+03  0.31132239663E+03  0.00000000000E+00 0. -1.
         -3   -1    0    0    0  501 -0.00000000000E+00 -0.00000000000E+00 -0.48231617826E+02  0.48231617826E+02  0.00000000000E+00 0.  1.
          5    1    1    2  502    0  0.54684783030E+02 -0.14264536755E+02  0.53380053374E+02  0.77880823070E+02  0.47000000000E+01 0. -1.
         -5    1    1    2    0  502 -0.39499051256E+02  0.69095798920E+02  0.10277304079E+03  0.13007225835E+03  0.47000000000E+01 0. -1.
        -11    1    1    2    0    0 -0.51827007215E+02 -0.46852536121E+02  0.66564410059E+02  0.96498805715E+02  0.00000000000E+00 0.  1.
         11    1    1    2    0    0  0.36641275441E+02 -0.79787260438E+01  0.40373274576E+02  0.55102127321E+02  0.00000000000E+00 0. -1.
<mgrwt>
<rscale>  0 0.12916463E+03</rscale>
<asrwt>0</asrwt>
<pdfrwt beam="1">  1        3 0.47895752E-01 0.13733425E+03</pdfrwt>
<pdfrwt beam="2">  1       -3 0.74202491E-02 0.13733425E+03</pdfrwt>
<totfact> 0.12127404E+03</totfact>
</mgrwt>
</event>
<event>
 6    1  0.8353100E-006  0.1987009E+03  0.7546771E-02  0.1154893E+00
          3   -1    0    0  501    0  0.00000000000E+00  0.00000000000E+00  0.28764553727E+02  0.28764553727E+02  0.00000000000E+00 0. -1.
         -3   -1    0    0    0  501 -0.00000000000E+00 -0.00000000000E+00 -0.12596920928E+04  0.12596920928E+04  0.00000000000E+00 0.  1.
          5    1    1    2  502    0 -0.18373075340E+02  0.28911459050E+02 -0.74766429938E+02  0.82374458466E+02  0.47000000000E+01 0.  1.
         -5    1    1    2    0  502  0.15191966507E+03  0.48666061881E+02 -0.62524819119E+03  0.64529478597E+03  0.47000000000E+01 0.  1.
        -11    1    1    2    0    0 -0.11279078187E+03 -0.66044609550E+02 -0.51700177911E+03  0.53326774750E+03  0.00000000000E+00 0.  1.
         11    1    1    2    0    0 -0.20755807852E+02 -0.11532911380E+02 -0.13911138818E+02  0.27519654571E+02  0.00000000000E+00 0. -1.
<mgrwt>
<rscale>  0 0.19401058E+03</rscale>
<asrwt>0</asrwt>
<pdfrwt beam="1">  1        3 0.44253170E-02 0.19870093E+03</pdfrwt>
<pdfrwt beam="2">  1       -3 0.19379874E+00 0.19870093E+03</pdfrwt>
<totfact> 0.11811410E+02</totfact>
</mgrwt>
</event>
<event>
 6    1  0.8353100E-006  0.2305597E+03  0.7546771E-02  0.1128258E+00
         -1   -1    0    0    0  501 -0.00000000000E+00  0.00000000000E+00  0.13006691466E+03  0.13006691466E+03  0.00000000000E+00 0.  1.
          1   -1    0    0  501    0  0.00000000000E+00 -0.00000000000E+00 -0.43277038163E+03  0.43277038163E+03  0.00000000000E+00 0. -1.
          5    1    1    2  502    0  0.59565094307E+01  0.20407896894E+02 -0.11014060454E+03  0.11227201356E+03  0.47000000000E+01 0. -1.
         -5    1    1    2    0  502  0.59338683905E+01  0.17873778266E+03 -0.13391624065E+03  0.22346824216E+03  0.47000000000E+01 0.  1.
        -11    1    1    2    0    0 -0.21125193610E+02 -0.20650637634E+03 -0.55403055071E+02  0.21485031019E+03  0.00000000000E+00 0.  1.
         11    1    1    2    0    0  0.92348157888E+01  0.73606967851E+01 -0.32435667087E+01  0.12246730372E+02  0.00000000000E+00 0. -1.
<mgrwt>
<rscale>  0 0.22771605E+03</rscale>
<asrwt>0</asrwt>
<pdfrwt beam="2">  1        1 0.66580058E-01 0.23055970E+03</pdfrwt>
<pdfrwt beam="1">  1       -1 0.20010295E-01 0.23055970E+03</pdfrwt>
<totfact> 0.11016543E+03</totfact>
</mgrwt>
</event>
<event>
 6    1  0.8353100E-006  0.1981508E+03  0.7546771E-02  0.1159166E+00
         -2   -1    0    0    0  501 -0.00000000000E+00  0.00000000000E+00  0.13366827471E+03  0.13366827471E+03  0.00000000000E+00 0.  1.
          2   -1    0    0  501    0  0.00000000000E+00 -0.00000000000E+00 -0.26815851632E+03  0.26815851632E+03  0.00000000000E+00 0. -1.
          5    1    1    2  502    0 -0.17891701626E+02  0.41126529784E+02 -0.34742329326E+02  0.56926477901E+02  0.47000000000E+01 0.  1.
         -5    1    1    2    0  502  0.14652823974E+03  0.43079639740E+02 -0.95260140922E+02  0.18006377995E+03  0.47000000000E+01 0.  1.
        -11    1    1    2    0    0 -0.78677926441E+02 -0.29287835915E+02  0.20649056760E+02  0.86454479275E+02  0.00000000000E+00 0. -1.
         11    1    1    2    0    0 -0.49958611670E+02 -0.54918333610E+02 -0.25136828125E+02  0.78382053907E+02  0.00000000000E+00 0.  1.
<mgrwt>
<rscale>  0 0.18922129E+03</rscale>
<asrwt>0</asrwt>
<pdfrwt beam="2">  1        2 0.41255156E-01 0.19815080E+03</pdfrwt>
<pdfrwt beam="1">  1       -2 0.20564350E-01 0.19815080E+03</pdfrwt>
<totfact> 0.24411480E+03</totfact>
</mgrwt>
</event>
<event>
 6    1  0.8353100E-006  0.1894989E+03  0.7546771E-02  0.1163872E+00
          1   -1    0    0  501    0  0.00000000000E+00  0.00000000000E+00  0.88946443462E+03  0.88946443462E+03  0.00000000000E+00 0. -1.
         -1   -1    0    0    0  501 -0.00000000000E+00 -0.00000000000E+00 -0.40836054347E+02  0.40836054347E+02  0.00000000000E+00 0.  1.
          5    1    1    2  502    0 -0.31872498054E+02 -0.53897173455E+02  0.47918852083E+03  0.48328510212E+03  0.47000000000E+01 0. -1.
         -5    1    1    2    0  502 -0.11270376689E+02 -0.81841077378E+02  0.12485904094E+03  0.14978936358E+03  0.47000000000E+01 0. -1.
        -11    1    1    2    0    0  0.60570789959E+02  0.86907766657E+02  0.20909373799E+03  0.23439703873E+03  0.00000000000E+00 0. -1.
         11    1    1    2    0    0 -0.17427915216E+02  0.48830484176E+02  0.35487080513E+02  0.62828984529E+02  0.00000000000E+00 0.  1.
<mgrwt>
<rscale>  0 0.18412187E+03</rscale>
<asrwt>0</asrwt>
<pdfrwt beam="1">  1        1 0.13684067E+00 0.18949887E+03</pdfrwt>
<pdfrwt beam="2">  1       -1 0.62824706E-02 0.18949887E+03</pdfrwt>
<totfact> 0.24097730E+03</totfact>
</mgrwt>
</event>
<event>
 6    1  0.8353100E-006  0.1346974E+03  0.7546771E-02  0.1233038E+00
         -2   -1    0    0    0  501 -0.00000000000E+00  0.00000000000E+00  0.17254082422E+02  0.17254082422E+02  0.00000000000E+00 0.  1.
          2   -1    0    0  501    0  0.00000000000E+00 -0.00000000000E+00 -0.10147937266E+04  0.10147937266E+04  0.00000000000E+00 0. -1.
          5    1    1    2  502    0 -0.33481705257E+02  0.34545977931E+02 -0.27588798136E+03  0.28009055221E+03  0.47000000000E+01 0. -1.
         -5    1    1    2    0  502  0.82662350768E+02 -0.24551100146E+02 -0.49559143505E+03  0.50305942119E+03  0.47000000000E+01 0. -1.
        -11    1    1    2    0    0 -0.54573461124E+02  0.71902293557E+01 -0.22412176824E+03  0.23078242797E+03  0.00000000000E+00 0. -1.
         11    1    1    2    0    0  0.53928156137E+01 -0.17185107141E+02 -0.19384594750E+01  0.18115407608E+02  0.00000000000E+00 0.  1.
<mgrwt>
<rscale>  0 0.12630852E+03</rscale>
<asrwt>0</asrwt>
<pdfrwt beam="2">  1        2 0.15612213E+00 0.13469740E+03</pdfrwt>
<pdfrwt beam="1">  1       -2 0.26544739E-02 0.13469740E+03</pdfrwt>
<totfact> 0.12555731E+04</totfact>
</mgrwt>
</event>
<event>
 6    1  0.8353100E-006  0.2875127E+03  0.7546771E-02  0.1136628E+00
          2   -1    0    0  501    0  0.00000000000E+00  0.00000000000E+00  0.99056956830E+03  0.99056956830E+03  0.00000000000E+00 0. -1.
         -2   -1    0    0    0  501 -0.00000000000E+00 -0.00000000000E+00 -0.36725905753E+02  0.36725905753E+02  0.00000000000E+00 0.  1.
          5    1    1    2  502    0  0.12789008534E+03 -0.50094673627E+02  0.51816841417E+03  0.53608389800E+03  0.47000000000E+01 0. -1.
         -5    1    1    2    0  502 -0.12784623016E+03  0.40863490515E+02  0.24413275855E+03  0.27863484567E+03  0.47000000000E+01 0.  1.
        -11    1    1    2    0    0 -0.25172097069E+02  0.42693027645E+02  0.11754781263E+03  0.12756887290E+03  0.00000000000E+00 0.  1.
         11    1    1    2    0    0  0.25128241882E+02 -0.33461844534E+02  0.73994677198E+02  0.85007857480E+02  0.00000000000E+00 0. -1.
<mgrwt>
<rscale>  0 0.21635768E+03</rscale>
<asrwt>0</asrwt>
<pdfrwt beam="1">  1        2 0.15239530E+00 0.28751270E+03</pdfrwt>
<pdfrwt beam="2">  1       -2 0.56501401E-02 0.28751270E+03</pdfrwt>
<totfact> 0.43161010E+03</totfact>
</mgrwt>
</event>
<event>
 6    1  0.8353100E-006  0.1355491E+03  0.7546771E-02  0.1231122E+00
          2   -1    0    0  501    0  0.00000000000E+00  0.00000000000E+00  0.47611306983E+03  0.47611306983E+03  0.00000000000E+00 0. -1.
         -2   -1    0    0    0  501 -0.00000000000E+00 -0.00000000000E+00 -0.33032847528E+02  0.33032847528E+02  0.00000000000E+00 0.  1.
          5    1    1    2  502    0 -0.77707637640E+01  0.75159823117E+02  0.29988620798E+03  0.30929470011E+03  0.47000000000E+01 0. -1.
         -5    1    1    2    0  502 -0.11808907669E+02 -0.26289224351E+02  0.13540382842E+02  0.32187040634E+02  0.47000000000E+01 0. -1.
        -11    1    1    2    0    0  0.55961366191E+02 -0.35260867265E+02  0.93993084161E+02  0.11493347265E+03  0.00000000000E+00 0.  1.
         11    1    1    2    0    0 -0.36381694758E+02 -0.13609731502E+02  0.35660547327E+02  0.52730703965E+02  0.00000000000E+00 0. -1.
<mgrwt>
<rscale>  0 0.12755957E+03</rscale>
<asrwt>0</asrwt>
<pdfrwt beam="1">  1        2 0.73248160E-01 0.13554907E+03</pdfrwt>
<pdfrwt beam="2">  1       -2 0.50819769E-02 0.13554907E+03</pdfrwt>
<totfact> 0.11918073E+04</totfact>
</mgrwt>
</event>
<event>
 6    1  0.8353100E-006  0.1615993E+03  0.7546771E-02  0.1197090E+00
         -1   -1    0    0    0  501 -0.00000000000E+00  0.00000000000E+00  0.32465776670E+02  0.32465776670E+02  0.00000000000E+00 0.  1.
          1   -1    0    0  501    0  0.00000000000E+00 -0.00000000000E+00 -0.73853729786E+03  0.73853729786E+03  0.00000000000E+00 0. -1.
          5    1    1    2  502    0  0.38027803013E+02 -0.20535609631E+02 -0.56178714077E+02  0.71034941967E+02  0.47000000000E+01 0. -1.
         -5    1    1    2    0  502  0.40784547275E+02  0.85942160816E+02 -0.46369642957E+03  0.47337712566E+03  0.47000000000E+01 0. -1.
        -11    1    1    2    0    0  0.69810595943E+01  0.79697668190E+01 -0.42782568062E+02  0.44074941931E+02  0.00000000000E+00 0. -1.
         11    1    1    2    0    0 -0.85793409882E+02 -0.73376318005E+02 -0.14341380948E+03  0.18251606497E+03  0.00000000000E+00 0.  1.
<mgrwt>
<rscale>  0 0.15278681E+03</rscale>
<asrwt>0</asrwt>
<pdfrwt beam="2">  1        1 0.11362112E+00 0.16159930E+03</pdfrwt>
<pdfrwt beam="1">  1       -1 0.49947352E-02 0.16159930E+03</pdfrwt>
<totfact> 0.44939127E+03</totfact>
</mgrwt>
</event>
<event>
 6    1  0.8353100E-006  0.1372026E+03  0.7546771E-02  0.1228759E+00
          1   -1    0    0  501    0  0.00000000000E+00  0.00000000000E+00  0.25593206914E+02  0.25593206914E+02  0.00000000000E+00 0.  1.
         -1   -1    0    0    0  501 -0.00000000000E+00 -0.00000000000E+00 -0.58909866626E+03  0.58909866626E+03  0.00000000000E+00 0. -1.
          5    1    1    2  502    0 -0.12673467094E+02 -0.10373402268E+02  0.87626988664E+01  0.19159831268E+02  0.47000000000E+01 0. -1.
         -5    1    1    2    0  502 -0.30369185405E+02 -0.26327121504E+02 -0.30070502706E+03  0.30341556988E+03  0.47000000000E+01 0. -1.
        -11    1    1    2    0    0  0.62631555268E+02  0.53166411673E+01 -0.21898108720E+03  0.22782382435E+03  0.00000000000E+00 0. -1.
         11    1    1    2    0    0 -0.19588902770E+02  0.31383882604E+02 -0.52582043952E+02  0.64292647677E+02  0.00000000000E+00 0.  1.
<mgrwt>
<rscale>  0 0.12912526E+03</rscale>
<asrwt>0</asrwt>
<pdfrwt beam="1">  1        1 0.39374165E-02 0.13720265E+03</pdfrwt>
<pdfrwt beam="2">  1       -1 0.90630563E-01 0.13720265E+03</pdfrwt>
<totfact> 0.28087944E+03</totfact>
</mgrwt>
</event>
<event>
 6    1  0.8353100E-006  0.3052641E+03  0.7546771E-02  0.1084171E+00
          2   -1    0    0  501    0  0.00000000000E+00  0.00000000000E+00  0.22393506386E+04  0.22393506386E+04  0.00000000000E+00 0. -1.
         -2   -1    0    0    0  501 -0.00000000000E+00 -0.00000000000E+00 -0.41178713096E+02  0.41178713096E+02  0.00000000000E+00 0.  1.
          5    1    1    2  502    0  0.11348103992E+03 -0.30884308080E+02  0.56026111410E+03  0.57249139109E+03  0.47000000000E+01 0. -1.
         -5    1    1    2    0  502  0.12649133849E+03 -0.11043846621E+03  0.36438885943E+03  0.40124561607E+03  0.47000000000E+01 0. -1.
        -11    1    1    2    0    0 -0.18378514106E+03  0.10445533878E+03  0.11108532989E+04  0.11307886396E+04  0.00000000000E+00 0.  1.
         11    1    1    2    0    0 -0.56187237357E+02  0.36867435519E+02  0.16266865312E+03  0.17600370494E+03  0.00000000000E+00 0. -1.
<mgrwt>
<rscale>  0 0.30215038E+03</rscale>
<asrwt>0</asrwt>
<pdfrwt beam="1">  1        2 0.34451539E+00 0.30526412E+03</pdfrwt>
<pdfrwt beam="2">  1       -2 0.63351884E-02 0.30526412E+03</pdfrwt>
<totfact> 0.75130662E+02</totfact>
</mgrwt>
</event>
<event>
 6    1  0.8353100E-006  0.3312170E+03  0.7546771E-02  0.1070600E+00
          3   -1    0    0  501    0  0.00000000000E+00  0.00000000000E+00  0.39540698600E+03  0.39540698600E+03  0.00000000000E+00 0. -1.
         -3   -1    0    0    0  501 -0.00000000000E+00 -0.00000000000E+00 -0.69361896340E+02  0.69361896340E+02  0.00000000000E+00 0.  1.
          5    1    1    2  502    0  0.17386233372E+02  0.26681626726E+02  0.10644862314E+03  0.11120966543E+03  0.47000000000E+01 0. -1.
         -5    1    1    2    0  502 -0.63296864413E+02 -0.92395386645E+02  0.19821557049E+03  0.22771671634E+03  0.47000000000E+01 0. -1.
        -11    1    1    2    0    0  0.77286796324E+00  0.50167672519E+02 -0.27750920132E+02  0.57336779287E+02  0.00000000000E+00 0.  1.
         11    1    1    2    0    0  0.45137763078E+02  0.15546087400E+02  0.49131816161E+02  0.68505721283E+02  0.00000000000E+00 0. -1.
<mgrwt>
<rscale>  0 0.33121702E+03</rscale>
<asrwt>0</asrwt>
<pdfrwt beam="1">  1        3 0.60831843E-01 0.33121702E+03</pdfrwt>
<pdfrwt beam="2">  1       -3 0.10671061E-01 0.33121702E+03</pdfrwt>
<totfact> 0.45705650E+02</totfact>
</mgrwt>
</event>
<event>
 6    1  0.8353100E-006  0.1278799E+03  0.7546771E-02  0.1244768E+00
         -2   -1    0    0    0  501 -0.00000000000E+00  0.00000000000E+00  0.14197135954E+02  0.14197135954E+02  0.00000000000E+00 0. -1.
          2   -1    0    0  501    0  0.00000000000E+00 -0.00000000000E+00 -0.99391877768E+03  0.99391877768E+03  0.00000000000E+00 0.  1.
          5    1    1    2  502    0  0.13253062403E+02  0.39924164986E+02 -0.69409975072E+03  0.69538919791E+03  0.47000000000E+01 0.  1.
         -5    1    1    2    0  502 -0.20054914954E+02 -0.13826683594E+02 -0.25846303405E+02  0.35825943013E+02  0.47000000000E+01 0.  1.
        -11    1    1    2    0    0  0.17795646462E+02 -0.57673720787E+02 -0.19307544376E+03  0.20228956989E+03  0.00000000000E+00 0. -1.
         11    1    1    2    0    0 -0.10993793911E+02  0.31576239395E+02 -0.66700143833E+02  0.74611202820E+02  0.00000000000E+00 0.  1.
<mgrwt>
<rscale>  0 0.11899264E+03</rscale>
<asrwt>0</asrwt>
<pdfrwt beam="2">  1        2 0.15291068E+00 0.12787987E+03</pdfrwt>
<pdfrwt beam="1">  1       -2 0.21841734E-02 0.12787987E+03</pdfrwt>
<totfact> 0.17110909E+04</totfact>
</mgrwt>
</event>
<event>
 6    1  0.8353100E-006  0.2608011E+03  0.7546771E-02  0.1108858E+00
         -1   -1    0    0    0  501 -0.00000000000E+00  0.00000000000E+00  0.11581316567E+03  0.11581316567E+03  0.00000000000E+00 0.  1.
          1   -1    0    0  501    0  0.00000000000E+00 -0.00000000000E+00 -0.10833526675E+04  0.10833526675E+04  0.00000000000E+00 0. -1.
          5    1    1    2  502    0  0.14177058849E+03  0.63947983189E+02 -0.65087976360E+03  0.66921954617E+03  0.47000000000E+01 0.  1.
         -5    1    1    2    0  502  0.86556710048E+02 -0.47833786203E+02 -0.25822154863E+03  0.27655124902E+03  0.47000000000E+01 0.  1.
        -11    1    1    2    0    0 -0.75843127138E+02 -0.19628052129E+02 -0.63411720547E+02  0.10078931822E+03  0.00000000000E+00 0. -1.
         11    1    1    2    0    0 -0.15248417140E+03  0.35138551424E+01  0.49735309135E+01  0.15260571980E+03  0.00000000000E+00 0.  1.
<mgrwt>
<rscale>  0 0.25716665E+03</rscale>
<asrwt>0</asrwt>
<pdfrwt beam="2">  1        1 0.16666964E+00 0.26080108E+03</pdfrwt>
<pdfrwt beam="1">  1       -1 0.17817410E-01 0.26080108E+03</pdfrwt>
<totfact> 0.34042619E+02</totfact>
</mgrwt>
</event>
<event>
 6    1  0.8353100E-006  0.1496952E+03  0.7546771E-02  0.1209987E+00
          1   -1    0    0  501    0  0.00000000000E+00  0.00000000000E+00  0.16064785028E+03  0.16064785028E+03  0.00000000000E+00 0. -1.
         -1   -1    0    0    0  501 -0.00000000000E+00 -0.00000000000E+00 -0.16616261437E+03  0.16616261437E+03  0.00000000000E+00 0.  1.
          5    1    1    2  502    0 -0.28427075295E+02 -0.36912786265E+02  0.11542809565E+03  0.12456479304E+03  0.47000000000E+01 0.  1.
         -5    1    1    2    0  502 -0.36140855692E+02 -0.14238688765E+02 -0.28621452907E+02  0.48478647613E+02  0.47000000000E+01 0.  1.
        -11    1    1    2    0    0  0.11693887420E+02  0.22668649335E+02 -0.90129444046E+02  0.93669265769E+02  0.00000000000E+00 0.  1.
         11    1    1    2    0    0  0.52874043567E+02  0.28482825696E+02 -0.21919627974E+01  0.60097758225E+02  0.00000000000E+00 0. -1.
<mgrwt>
<rscale>  0 0.14251270E+03</rscale>
<asrwt>0</asrwt>
<pdfrwt beam="1">  1        1 0.24715054E-01 0.14969515E+03</pdfrwt>
<pdfrwt beam="2">  1       -1 0.25563479E-01 0.14969515E+03</pdfrwt>
<totfact> 0.25368589E+03</totfact>
</mgrwt>
</event>
<event>
 6    1  0.8353100E-006  0.1322266E+03  0.7546771E-02  0.1236313E+00
         -2   -1    0    0    0  501 -0.00000000000E+00  0.00000000000E+00  0.10164761774E+02  0.10164761774E+02  0.00000000000E+00 0.  1.
          2   -1    0    0  501    0  0.00000000000E+00 -0.00000000000E+00 -0.16695173694E+04  0.16695173694E+04  0.00000000000E+00 0. -1.
          5    1    1    2  502    0  0.33814179972E+02  0.10591807920E+02 -0.13622509041E+03  0.14083660895E+03  0.47000000000E+01 0.  1.
         -5    1    1    2    0  502 -0.70051683082E+02  0.12745097772E+02 -0.11367399893E+04  0.11389774226E+04  0.47000000000E+01 0.  1.
        -11    1    1    2    0    0 -0.13145856478E+02  0.17847752766E+02 -0.27774660885E+02  0.35535722993E+02  0.00000000000E+00 0.  1.
         11    1    1    2    0    0  0.49383359588E+02 -0.41184658457E+02 -0.35861286703E+03  0.36433237667E+03  0.00000000000E+00 0. -1.
<mgrwt>
<rscale>  0 0.12420756E+03</rscale>
<asrwt>0</asrwt>
<pdfrwt beam="2">  1        2 0.25684875E+00 0.13222655E+03</pdfrwt>
<pdfrwt beam="1">  1       -2 0.15638099E-02 0.13222655E+03</pdfrwt>
<totfact> 0.11983844E+04</totfact>
</mgrwt>
</event>
<event>
 6    1  0.8353100E-006  0.4440841E+03  0.7546771E-02  0.1029501E+00
         -1   -1    0    0    0  501 -0.00000000000E+00  0.00000000000E+00  0.12916525237E+03  0.12916525237E+03  0.00000000000E+00 0.  1.
          1   -1    0    0  501    0  0.00000000000E+00 -0.00000000000E+00 -0.38170225425E+03  0.38170225425E+03  0.00000000000E+00 0. -1.
          5    1    1    2  502    0 -0.57874593401E+01 -0.82664039929E+01  0.76661895621E+01  0.13516234054E+02  0.47000000000E+01 0. -1.
         -5    1    1    2    0  502 -0.27062464165E+02  0.50660713103E+02 -0.35235561253E+03  0.35703704640E+03  0.47000000000E+01 0. -1.
        -11    1    1    2    0    0  0.54017257527E+02 -0.33342414728E+01  0.24568232777E+02  0.59435505708E+02  0.00000000000E+00 0. -1.
         11    1    1    2    0    0 -0.21167334022E+02 -0.39060067638E+02  0.67584188316E+02  0.80878720463E+02  0.00000000000E+00 0.  1.
<mgrwt>
<rscale>  0 0.44408408E+03</rscale>
<asrwt>0</asrwt>
<pdfrwt beam="2">  1        1 0.58723424E-01 0.44408408E+03</pdfrwt>
<pdfrwt beam="1">  1       -1 0.19871577E-01 0.44408408E+03</pdfrwt>
<totfact> 0.13173594E+03</totfact>
</mgrwt>
</event>
<event>
 6    1  0.8353100E-006  0.1263543E+03  0.7546771E-02  0.1244903E+00
          2   -1    0    0  501    0  0.00000000000E+00  0.00000000000E+00  0.44165412820E+02  0.44165412820E+02  0.00000000000E+00 0. -1.
         -2   -1    0    0    0  501 -0.00000000000E+00 -0.00000000000E+00 -0.29875631818E+03  0.29875631818E+03  0.00000000000E+00 0.  1.
          5    1    1    2  502    0  0.41084562924E+02 -0.29705119773E+02 -0.12169992441E+03  0.13192155644E+03  0.47000000000E+01 0. -1.
         -5    1    1    2    0  502 -0.24713474890E+02  0.21416115661E+02  0.12259364586E+02  0.35239010644E+02  0.47000000000E+01 0. -1.
        -11    1    1    2    0    0 -0.30121859211E+02  0.16955052132E+02 -0.15360070238E+03  0.15744197651E+03  0.00000000000E+00 0.  1.
         11    1    1    2    0    0  0.13750771177E+02 -0.86660480202E+01  0.84503568509E+01  0.18319187404E+02  0.00000000000E+00 0. -1.
<mgrwt>
<rscale>  0 0.11891185E+03</rscale>
<asrwt>0</asrwt>
<pdfrwt beam="1">  1        2 0.67946787E-02 0.12635434E+03</pdfrwt>
<pdfrwt beam="2">  1       -2 0.45962512E-01 0.12635434E+03</pdfrwt>
<totfact> 0.45126282E+03</totfact>
</mgrwt>
</event>
<event>
 6    1  0.8353100E-006  0.1417143E+03  0.7546771E-02  0.1222660E+00
         -1   -1    0    0    0  501 -0.00000000000E+00  0.00000000000E+00  0.28625805063E+02  0.28625805063E+02  0.00000000000E+00 0.  1.
          1   -1    0    0  501    0  0.00000000000E+00 -0.00000000000E+00 -0.56116748414E+03  0.56116748414E+03  0.00000000000E+00 0. -1.
          5    1    1    2  502    0 -0.62113973867E+01  0.98110848021E+02 -0.22971570594E+03  0.24991141533E+03  0.47000000000E+01 0. -1.
         -5    1    1    2    0  502 -0.70900695388E+01 -0.42370970729E+02 -0.93201784624E+02  0.10273378657E+03  0.47000000000E+01 0.  1.
        -11    1    1    2    0    0 -0.36319449528E+02 -0.81017140497E+01 -0.10967517479E+03  0.11581616532E+03  0.00000000000E+00 0.  1.
         11    1    1    2    0    0  0.49620916453E+02 -0.47638163242E+02 -0.99949013729E+02  0.12133192198E+03  0.00000000000E+00 0. -1.
<mgrwt>
<rscale>  0 0.13328605E+03</rscale>
<asrwt>0</asrwt>
<pdfrwt beam="2">  1        1 0.86333456E-01 0.14171426E+03</pdfrwt>
<pdfrwt beam="1">  1       -1 0.44039702E-02 0.14171426E+03</pdfrwt>
<totfact> 0.78964098E+03</totfact>
</mgrwt>
</event>
<event>
 6    1  0.8353100E-006  0.1568167E+03  0.7546771E-02  0.1200114E+00
          4   -1    0    0  501    0  0.00000000000E+00  0.00000000000E+00  0.31362664914E+03  0.31362664914E+03  0.00000000000E+00 0.  1.
         -4   -1    0    0    0  501 -0.00000000000E+00 -0.00000000000E+00 -0.85688336859E+02  0.85688336859E+02  0.00000000000E+00 0. -1.
          5    1    1    2  502    0 -0.57300877511E+02  0.76095206946E+02  0.15618341590E+03  0.18300060242E+03  0.47000000000E+01 0. -1.
         -5    1    1    2    0  502 -0.33212562983E+02 -0.48264218488E+02  0.59191391524E+02  0.83415945458E+02  0.47000000000E+01 0. -1.
        -11    1    1    2    0    0  0.51421158216E+02 -0.22015445698E+02  0.52498215127E+02  0.76712958182E+02  0.00000000000E+00 0.  1.
         11    1    1    2    0    0  0.39092282277E+02 -0.58155427594E+01 -0.39934710272E+02  0.56185479937E+02  0.00000000000E+00 0. -1.
<mgrwt>
<rscale>  0 0.15029233E+03</rscale>
<asrwt>0</asrwt>
<pdfrwt beam="1">  1        4 0.48250253E-01 0.15681667E+03</pdfrwt>
<pdfrwt beam="2">  1       -4 0.13182821E-01 0.15681667E+03</pdfrwt>
<totfact> 0.33658725E+02</totfact>
</mgrwt>
</event>
<event>
 6    1  0.8353100E-006  0.1258816E+03  0.7546771E-02  0.1249557E+00
          2   -1    0    0  501    0  0.00000000000E+00  0.00000000000E+00  0.55537938001E+03  0.55537938001E+03  0.00000000000E+00 0. -1.
         -2   -1    0    0    0  501 -0.00000000000E+00 -0.00000000000E+00 -0.21237906551E+02  0.21237906551E+02  0.00000000000E+00 0.  1.
          5    1    1    2  502    0  0.22734764245E+01  0.56877348441E+02  0.26647876430E+03  0.27253114186E+03  0.47000000000E+01 0.  1.
         -5    1    1    2    0  502 -0.35858819842E+01 -0.42043944180E+02  0.38139830954E+02  0.57072659803E+02  0.47000000000E+01 0.  1.
        -11    1    1    2    0    0 -0.11230213931E+02 -0.35228192647E+02  0.21674120641E+03  0.21987244898E+03  0.00000000000E+00 0. -1.
         11    1    1    2    0    0  0.12542619490E+02  0.20394788386E+02  0.12781671790E+02  0.27141035919E+02  0.00000000000E+00 0.  1.
<mgrwt>
<rscale>  0 0.11616741E+03</rscale>
<asrwt>0</asrwt>
<pdfrwt beam="1">  1        2 0.85442971E-01 0.12588160E+03</pdfrwt>
<pdfrwt beam="2">  1       -2 0.32673707E-02 0.12588160E+03</pdfrwt>
<totfact> 0.19276496E+04</totfact>
</mgrwt>
</event>
<event>
 6    1  0.8353100E-006  0.1766639E+03  0.7546771E-02  0.1176953E+00
         -2   -1    0    0    0  501 -0.00000000000E+00  0.00000000000E+00  0.43933024214E+02  0.43933024214E+02  0.00000000000E+00 0. -1.
          2   -1    0    0  501    0  0.00000000000E+00 -0.00000000000E+00 -0.63690284491E+03  0.63690284491E+03  0.00000000000E+00 0.  1.
          5    1    1    2  502    0 -0.16572768906E+02 -0.35800619464E+02 -0.28567082069E+03  0.28842026422E+03  0.47000000000E+01 0. -1.
         -5    1    1    2    0  502 -0.44288745881E+02 -0.73200995441E+02 -0.77914904905E+02  0.11581321665E+03  0.47000000000E+01 0. -1.
        -11    1    1    2    0    0  0.84760494553E+01  0.55623953778E+02 -0.17583802340E+03  0.18462090381E+03  0.00000000000E+00 0.  1.
         11    1    1    2    0    0  0.52385465332E+02  0.53377661127E+02 -0.53546071707E+02  0.91981484445E+02  0.00000000000E+00 0. -1.
<mgrwt>
<rscale>  0 0.17086062E+03</rscale>
<asrwt>0</asrwt>
<pdfrwt beam="2">  1        2 0.97985043E-01 0.17666388E+03</pdfrwt>
<pdfrwt beam="1">  1       -2 0.67589275E-02 0.17666388E+03</pdfrwt>
<totfact> 0.56593096E+03</totfact>
</mgrwt>
</event>
<event>
 6    1  0.8353100E-006  0.4524772E+03  0.7546771E-02  0.1026986E+00
          2   -1    0    0  501    0  0.00000000000E+00  0.00000000000E+00  0.30028163145E+04  0.30028163145E+04  0.00000000000E+00 0. -1.
         -2   -1    0    0    0  501 -0.00000000000E+00 -0.00000000000E+00 -0.17045297500E+02  0.17045297500E+02  0.00000000000E+00 0.  1.
          5    1    1    2  502    0 -0.12817544291E+02 -0.13820248383E+02  0.41709545601E+03  0.41754759984E+03  0.47000000000E+01 0. -1.
         -5    1    1    2    0  502  0.63610445443E+02  0.17156203676E+03  0.18522805131E+04  0.18613019665E+04  0.47000000000E+01 0. -1.
        -11    1    1    2    0    0 -0.18264273806E+01 -0.12291030625E+03  0.56307883909E+03  0.57634022786E+03  0.00000000000E+00 0. -1.
         11    1    1    2    0    0 -0.48966473771E+02 -0.34831482122E+02  0.15331620873E+03  0.16467181774E+03  0.00000000000E+00 0.  1.
<mgrwt>
<rscale>  0 0.45247717E+03</rscale>
<asrwt>0</asrwt>
<pdfrwt beam="1">  1        2 0.46197132E+00 0.45247717E+03</pdfrwt>
<pdfrwt beam="2">  1       -2 0.26223559E-02 0.45247717E+03</pdfrwt>
<totfact> 0.10467283E+03</totfact>
</mgrwt>
</event>
<event>
 6    1  0.8353100E-006  0.1936256E+03  0.7546771E-02  0.1159851E+00
         -1   -1    0    0    0  501 -0.00000000000E+00  0.00000000000E+00  0.93563467861E+02  0.93563467861E+02  0.00000000000E+00 0.  1.
          1   -1    0    0  501    0  0.00000000000E+00 -0.00000000000E+00 -0.41708622933E+03  0.41708622933E+03  0.00000000000E+00 0. -1.
          5    1    1    2  502    0  0.48650524869E+02 -0.89154745391E+02 -0.86090469280E+02  0.13322575238E+03  0.47000000000E+01 0.  1.
         -5    1    1    2    0  502  0.77031386703E+02  0.11586428098E+02 -0.17695408268E+03  0.19339833823E+03  0.47000000000E+01 0.  1.
        -11    1    1    2    0    0 -0.11860991783E+02 -0.18438248955E+02 -0.20101383921E+02  0.29744205925E+02  0.00000000000E+00 0. -1.
         11    1    1    2    0    0 -0.11382091979E+03  0.96006566248E+02 -0.40376825589E+02  0.15428140066E+03  0.00000000000E+00 0.  1.
<mgrwt>
<rscale>  0 0.18846770E+03</rscale>
<asrwt>0</asrwt>
<pdfrwt beam="2">  1        1 0.64167111E-01 0.19362557E+03</pdfrwt>
<pdfrwt beam="1">  1       -1 0.14394380E-01 0.19362557E+03</pdfrwt>
<totfact> 0.19516992E+03</totfact>
</mgrwt>
</event>
<event>
 6    1  0.8353100E-006  0.1273428E+03  0.7546771E-02  0.1246173E+00
         -1   -1    0    0    0  501 -0.00000000000E+00  0.00000000000E+00  0.10523761085E+03  0.10523761085E+03  0.00000000000E+00 0.  1.
          1   -1    0    0  501    0  0.00000000000E+00 -0.00000000000E+00 -0.24274025441E+03  0.24274025441E+03  0.00000000000E+00 0. -1.
          5    1    1    2  502    0  0.18541536671E+02 -0.53085572296E+02 -0.12002488675E+03  0.13262703347E+03  0.47000000000E+01 0. -1.
         -5    1    1    2    0  502 -0.42811219140E+02  0.51341449670E+02 -0.78306794068E+02  0.10306691485E+03  0.47000000000E+01 0. -1.
        -11    1    1    2    0    0  0.58786566044E+02  0.10122530202E+01  0.46255241808E+02  0.74809306895E+02  0.00000000000E+00 0.  1.
         11    1    1    2    0    0 -0.34516883575E+02  0.73186960529E+00  0.14573795443E+02  0.37474610051E+02  0.00000000000E+00 0. -1.
<mgrwt>
<rscale>  0 0.11815449E+03</rscale>
<asrwt>0</asrwt>
<pdfrwt beam="2">  1        1 0.37344654E-01 0.12734277E+03</pdfrwt>
<pdfrwt beam="1">  1       -1 0.16190402E-01 0.12734277E+03</pdfrwt>
<totfact> 0.31425563E+03</totfact>
</mgrwt>
</event>
<event>
 6    1  0.8353100E-006  0.1433374E+03  0.7546771E-02  0.1218646E+00
         -1   -1    0    0    0  501 -0.00000000000E+00  0.00000000000E+00  0.10190780549E+03  0.10190780549E+03  0.00000000000E+00 0.  1.
          1   -1    0    0  501    0  0.00000000000E+00 -0.00000000000E+00 -0.17779756463E+03  0.17779756463E+03  0.00000000000E+00 0. -1.
          5    1    1    2  502    0 -0.79092287189E+02 -0.19614936833E+02 -0.40324209221E+02  0.91041020914E+02  0.47000000000E+01 0.  1.
         -5    1    1    2    0  502  0.11063382254E+02  0.37098839037E+02  0.34992579961E+02  0.52395543103E+02  0.47000000000E+01 0.  1.
        -11    1    1    2    0    0  0.13943999062E+02 -0.14781165364E+02  0.21425165597E+02  0.29528895683E+02  0.00000000000E+00 0.  1.
         11    1    1    2    0    0  0.54084905873E+02 -0.27027368406E+01 -0.91983295472E+02  0.10673991042E+03  0.00000000000E+00 0. -1.
<mgrwt>
<rscale>  0 0.13612099E+03</rscale>
<asrwt>0</asrwt>
<pdfrwt beam="2">  1        1 0.27353471E-01 0.14333744E+03</pdfrwt>
<pdfrwt beam="1">  1       -1 0.15678124E-01 0.14333744E+03</pdfrwt>
<totfact> 0.48965489E+03</totfact>
</mgrwt>
</event>
<event>
 6    1  0.8353100E-006  0.1491199E+03  0.7546771E-02  0.1209721E+00
         -1   -1    0    0    0  501 -0.00000000000E+00  0.00000000000E+00  0.34361152808E+03  0.34361152808E+03  0.00000000000E+00 0.  1.
          1   -1    0    0  501    0  0.00000000000E+00 -0.00000000000E+00 -0.60376211094E+02  0.60376211094E+02  0.00000000000E+00 0. -1.
          5    1    1    2  502    0 -0.92870558765E+02 -0.16430337344E+02  0.64569315615E+02  0.11439485648E+03  0.47000000000E+01 0.  1.
         -5    1    1    2    0  502  0.19073189741E+02  0.50532106959E+02  0.26638870965E+02  0.60406951975E+02  0.47000000000E+01 0.  1.
        -11    1    1    2    0    0  0.37078900414E+02  0.69711359834E+01  0.16221383213E+03  0.16654359467E+03  0.00000000000E+00 0.  1.
         11    1    1    2    0    0  0.36718468610E+02 -0.41072905599E+02  0.29813298283E+02  0.62642336050E+02  0.00000000000E+00 0. -1.
<mgrwt>
<rscale>  0 0.14271581E+03</rscale>
<asrwt>0</asrwt>
<pdfrwt beam="2">  1        1 0.92886480E-02 0.14911988E+03</pdfrwt>
<pdfrwt beam="1">  1       -1 0.52863311E-01 0.14911988E+03</pdfrwt>
<totfact> 0.25510573E+03</totfact>
</mgrwt>
</event>
<event>
 6    1  0.8353100E-006  0.1312542E+03  0.7546771E-02  0.1239558E+00
         -2   -1    0    0    0  501 -0.00000000000E+00  0.00000000000E+00  0.54328350845E+02  0.54328350845E+02  0.00000000000E+00 0.  1.
          2   -1    0    0  501    0  0.00000000000E+00 -0.00000000000E+00 -0.27107763282E+03  0.27107763282E+03  0.00000000000E+00 0. -1.
          5    1    1    2  502    0 -0.19795729360E+02 -0.48205068450E+02 -0.46758160365E+02  0.70171326665E+02  0.47000000000E+01 0.  1.
         -5    1    1    2    0  502 -0.10546576027E+02  0.74250340155E+02 -0.12738297050E+03  0.14789474113E+03  0.47000000000E+01 0.  1.
        -11    1    1    2    0    0  0.36303602940E+02  0.10704178927E+02  0.13345116535E+02  0.40132569919E+02  0.00000000000E+00 0.  1.
         11    1    1    2    0    0 -0.59612975535E+01 -0.36749450632E+02 -0.55953267643E+02  0.67207345954E+02  0.00000000000E+00 0. -1.
<mgrwt>
<rscale>  0 0.12217077E+03</rscale>
<asrwt>0</asrwt>
<pdfrwt beam="2">  1        2 0.41704252E-01 0.13125424E+03</pdfrwt>
<pdfrwt beam="1">  1       -2 0.83582077E-02 0.13125424E+03</pdfrwt>
<totfact> 0.10156393E+04</totfact>
</mgrwt>
</event>
<event>
 6    1  0.8353100E-006  0.1370405E+03  0.7546771E-02  0.1224014E+00
         -1   -1    0    0    0  501 -0.00000000000E+00  0.00000000000E+00  0.19061067890E+03  0.19061067890E+03  0.00000000000E+00 0.  1.
          1   -1    0    0  501    0  0.00000000000E+00 -0.00000000000E+00 -0.89142876788E+02  0.89142876788E+02  0.00000000000E+00 0. -1.
          5    1    1    2  502    0 -0.43607939916E+02  0.39766417781E+02 -0.25225503107E+02  0.64353992991E+02  0.47000000000E+01 0. -1.
         -5    1    1    2    0  502 -0.11247706137E+02 -0.51826717213E+02  0.53688325237E+02  0.75611148498E+02  0.47000000000E+01 0. -1.
        -11    1    1    2    0    0 -0.65032755253E+01  0.19385829927E+02  0.75224387285E+02  0.77953905848E+02  0.00000000000E+00 0.  1.
         11    1    1    2    0    0  0.61358921578E+02 -0.73255304951E+01 -0.22194073019E+01  0.61834508351E+02  0.00000000000E+00 0. -1.
<mgrwt>
<rscale>  0 0.13234732E+03</rscale>
<asrwt>0</asrwt>
<pdfrwt beam="2">  1        1 0.13714289E-01 0.13704054E+03</pdfrwt>
<pdfrwt beam="1">  1       -1 0.29324720E-01 0.13704054E+03</pdfrwt>
<totfact> 0.42721213E+03</totfact>
</mgrwt>
</event>
<event>
 6    1  0.8353100E-006  0.1551778E+03  0.7546771E-02  0.1201649E+00
         -2   -1    0    0    0  501 -0.00000000000E+00  0.00000000000E+00  0.12610645430E+03  0.12610645430E+03  0.00000000000E+00 0.  1.
          2   -1    0    0  501    0  0.00000000000E+00 -0.00000000000E+00 -0.16429321547E+03  0.16429321547E+03  0.00000000000E+00 0. -1.
          5    1    1    2  502    0 -0.89790136218E+02 -0.10072785392E+02  0.29773780406E+02  0.95248609267E+02  0.47000000000E+01 0.  1.
         -5    1    1    2    0  502  0.22425341733E+01 -0.18050171464E+02 -0.59964969099E+02  0.62838882616E+02  0.47000000000E+01 0.  1.
        -11    1    1    2    0    0  0.71068686588E+02  0.33409846888E+02  0.34990788406E+02  0.85972852434E+02  0.00000000000E+00 0.  1.
         11    1    1    2    0    0  0.16478915457E+02 -0.52868900319E+01 -0.42986360884E+02  0.46339325447E+02  0.00000000000E+00 0. -1.
<mgrwt>
<rscale>  0 0.14904710E+03</rscale>
<asrwt>0</asrwt>
<pdfrwt beam="2">  1        2 0.25275879E-01 0.15517779E+03</pdfrwt>
<pdfrwt beam="1">  1       -2 0.19400993E-01 0.15517779E+03</pdfrwt>
<totfact> 0.45395936E+03</totfact>
</mgrwt>
</event>
<event>
 6    1  0.8353100E-006  0.2184239E+03  0.7546771E-02  0.1138569E+00
         -2   -1    0    0    0  501 -0.00000000000E+00  0.00000000000E+00  0.27444585619E+03  0.27444585619E+03  0.00000000000E+00 0.  1.
          2   -1    0    0  501    0  0.00000000000E+00 -0.00000000000E+00 -0.17375504791E+03  0.17375504791E+03  0.00000000000E+00 0. -1.
          5    1    1    2  502    0 -0.13233149193E+01  0.89486865739E+01  0.39868677822E+02  0.41151325921E+02  0.47000000000E+01 0.  1.
         -5    1    1    2    0  502 -0.36490476631E+02  0.16613297078E+03 -0.50658102666E+02  0.17753887527E+03  0.47000000000E+01 0.  1.
        -11    1    1    2    0    0 -0.28738516792E+02 -0.57390360751E+02  0.24269775098E+02  0.68619077797E+02  0.00000000000E+00 0. -1.
         11    1    1    2    0    0  0.66552308342E+02 -0.11769129661E+03  0.87210458023E+02  0.16089162511E+03  0.00000000000E+00 0.  1.
<mgrwt>
<rscale>  0 0.21382930E+03</rscale>
<asrwt>0</asrwt>
<pdfrwt beam="2">  1        2 0.26731546E-01 0.21842388E+03</pdfrwt>
<pdfrwt beam="1">  1       -2 0.42222440E-01 0.21842388E+03</pdfrwt>
<totfact> 0.10660971E+03</totfact>
</mgrwt>
</event>
<event>
 6    1  0.8353100E-006  0.2773454E+03  0.7546771E-02  0.1099077E+00
         -2   -1    0    0    0  501 -0.00000000000E+00  0.00000000000E+00  0.61824831377E+02  0.61824831377E+02  0.00000000000E+00 0.  1.
          2   -1    0    0  501    0  0.00000000000E+00 -0.00000000000E+00 -0.12327066404E+04  0.12327066404E+04  0.00000000000E+00 0. -1.
          5    1    1    2  502    0 -0.20443432797E+03  0.81155404855E+02 -0.32542045941E+03  0.39281058997E+03  0.47000000000E+01 0. -1.
         -5    1    1    2    0  502 -0.61946382835E+01  0.48960081623E+02 -0.14547947971E+03  0.15369395613E+03  0.47000000000E+01 0. -1.
        -11    1    1    2    0    0  0.15591489935E+03 -0.71861943067E+02 -0.36088215676E+03  0.39963674226E+03  0.00000000000E+00 0.  1.
         11    1    1    2    0    0  0.54714066905E+02 -0.58253543411E+02 -0.33909971312E+03  0.34839018338E+03  0.00000000000E+00 0. -1.
<mgrwt>
<rscale>  0 0.27388497E+03</rscale>
<asrwt>0</asrwt>
<pdfrwt beam="2">  1        2 0.18964717E+00 0.27734539E+03</pdfrwt>
<pdfrwt beam="1">  1       -2 0.95115127E-02 0.27734539E+03</pdfrwt>
<totfact> 0.13769425E+03</totfact>
</mgrwt>
</event>
<event>
 6    1  0.8353100E-006  0.1412646E+03  0.7546771E-02  0.1221823E+00
          2   -1    0    0  501    0  0.00000000000E+00  0.00000000000E+00  0.27031075779E+03  0.27031075779E+03  0.00000000000E+00 0. -1.
         -2   -1    0    0    0  501 -0.00000000000E+00 -0.00000000000E+00 -0.60231976071E+02  0.60231976071E+02  0.00000000000E+00 0.  1.
          5    1    1    2  502    0 -0.15368773235E+02  0.61683562024E+02  0.13420091484E+03  0.14856997193E+03  0.47000000000E+01 0.  1.
         -5    1    1    2    0  502  0.27994380408E+02  0.29672401008E+01 -0.18514278855E+02  0.34019970161E+02  0.47000000000E+01 0.  1.
        -11    1    1    2    0    0  0.59483487543E+01 -0.77767926893E+02  0.37212242429E+02  0.86417499922E+02  0.00000000000E+00 0.  1.
         11    1    1    2    0    0 -0.18573955927E+02  0.13117124768E+02  0.57179903303E+02  0.61535291847E+02  0.00000000000E+00 0. -1.
<mgrwt>
<rscale>  0 0.13387053E+03</rscale>
<asrwt>0</asrwt>
<pdfrwt beam="1">  1        2 0.41586270E-01 0.14126461E+03</pdfrwt>
<pdfrwt beam="2">  1       -2 0.92664580E-02 0.14126461E+03</pdfrwt>
<totfact> 0.87236062E+03</totfact>
</mgrwt>
</event>
<event>
 6    1  0.8353100E-006  0.2082452E+03  0.7546771E-02  0.1146967E+00
         -2   -1    0    0    0  501 -0.00000000000E+00  0.00000000000E+00  0.43500245901E+03  0.43500245901E+03  0.00000000000E+00 0.  1.
          2   -1    0    0  501    0  0.00000000000E+00 -0.00000000000E+00 -0.11593981907E+03  0.11593981907E+03  0.00000000000E+00 0. -1.
          5    1    1    2  502    0 -0.16944245320E+01  0.60540977761E+02 -0.18324476419E+02  0.63450433401E+02  0.47000000000E+01 0.  1.
         -5    1    1    2    0  502  0.12887019809E+03  0.47009781075E+02  0.55669017584E+02  0.14811676809E+03  0.47000000000E+01 0.  1.
        -11    1    1    2    0    0 -0.46724535690E+02 -0.58884072434E+02  0.52689909534E+02  0.91797291836E+02  0.00000000000E+00 0. -1.
         11    1    1    2    0    0 -0.80451237864E+02 -0.48666686403E+02  0.22902818924E+03  0.24757778475E+03  0.00000000000E+00 0.  1.
<mgrwt>
<rscale>  0 0.20332105E+03</rscale>
<asrwt>0</asrwt>
<pdfrwt beam="2">  1        2 0.17836896E-01 0.20824521E+03</pdfrwt>
<pdfrwt beam="1">  1       -2 0.66923454E-01 0.20824521E+03</pdfrwt>
<totfact> 0.66445899E+02</totfact>
</mgrwt>
</event>
<event>
 6    1  0.8353100E-006  0.1385557E+03  0.7546771E-02  0.1226500E+00
         -2   -1    0    0    0  501 -0.00000000000E+00  0.00000000000E+00  0.37016207341E+02  0.37016207341E+02  0.00000000000E+00 0. -1.
          2   -1    0    0  501    0  0.00000000000E+00 -0.00000000000E+00 -0.55728685339E+03  0.55728685339E+03  0.00000000000E+00 0.  1.
          5    1    1    2  502    0 -0.18721731189E+02  0.32592554739E+02 -0.35702166133E+03  0.35902553461E+03  0.47000000000E+01 0.  1.
         -5    1    1    2    0  502 -0.40465396190E+02 -0.40909649576E+02 -0.74853895993E+02  0.94531706123E+02  0.47000000000E+01 0.  1.
        -11    1    1    2    0    0  0.49374415756E+02  0.15409757106E+02 -0.10682871604E+03  0.11869148292E+03  0.00000000000E+00 0.  1.
         11    1    1    2    0    0  0.98127116232E+01 -0.70926622696E+01  0.18433627325E+02  0.22054337075E+02  0.00000000000E+00 0. -1.
<mgrwt>
<rscale>  0 0.13064608E+03</rscale>
<asrwt>0</asrwt>
<pdfrwt beam="2">  1        2 0.85736425E-01 0.13855567E+03</pdfrwt>
<pdfrwt beam="1">  1       -2 0.56948021E-02 0.13855567E+03</pdfrwt>
<totfact> 0.84491206E+03</totfact>
</mgrwt>
</event>
<event>
 6    1  0.8353100E-006  0.1260093E+03  0.7546771E-02  0.1248959E+00
         -2   -1    0    0    0  501 -0.00000000000E+00  0.00000000000E+00  0.42917530385E+02  0.42917530385E+02  0.00000000000E+00 0.  1.
          2   -1    0    0  501    0  0.00000000000E+00 -0.00000000000E+00 -0.43898142496E+03  0.43898142496E+03  0.00000000000E+00 0. -1.
          5    1    1    2  502    0 -0.19372581610E+02 -0.60450880847E+02 -0.17893334529E+03  0.18991797695E+03  0.47000000000E+01 0. -1.
         -5    1    1    2    0  502  0.35602238314E+01  0.62045296510E+02 -0.18370585653E+03  0.19399027227E+03  0.47000000000E+01 0. -1.
        -11    1    1    2    0    0  0.72869910908E+01  0.23407347003E+02  0.24294487186E+02  0.34514145513E+02  0.00000000000E+00 0.  1.
         11    1    1    2    0    0  0.85253666879E+01 -0.25001762665E+02 -0.57719179935E+02  0.63476560602E+02  0.00000000000E+00 0. -1.
<mgrwt>
<rscale>  0 0.11651540E+03</rscale>
<asrwt>0</asrwt>
<pdfrwt beam="2">  1        2 0.67535607E-01 0.12600934E+03</pdfrwt>
<pdfrwt beam="1">  1       -2 0.66026967E-02 0.12600934E+03</pdfrwt>
<totfact> 0.87138766E+03</totfact>
</mgrwt>
</event>
<event>
 6    1  0.8353100E-006  0.2452436E+03  0.7546771E-02  0.1138989E+00
         -2   -1    0    0    0  501 -0.00000000000E+00  0.00000000000E+00  0.50402331702E+02  0.50402331702E+02  0.00000000000E+00 0.  1.
          2   -1    0    0  501    0  0.00000000000E+00 -0.00000000000E+00 -0.10688458042E+04  0.10688458042E+04  0.00000000000E+00 0. -1.
          5    1    1    2  502    0 -0.25872793372E+02  0.10376473959E+03 -0.19689512097E+03  0.22411225152E+03  0.47000000000E+01 0.  1.
         -5    1    1    2    0  502 -0.64016340439E+02 -0.58785692181E+02 -0.71154761390E+03  0.71685141159E+03  0.47000000000E+01 0. -1.
        -11    1    1    2    0    0  0.35830282364E+02 -0.68831720749E+02 -0.42133940361E+02  0.88299965152E+02  0.00000000000E+00 0.  1.
         11    1    1    2    0    0  0.54058851447E+02  0.23852673337E+02 -0.67866797282E+02  0.89984507657E+02  0.00000000000E+00 0. -1.
<mgrwt>
<rscale>  0 0.21328764E+03</rscale>
<asrwt>0</asrwt>
<pdfrwt beam="2">  1        2 0.16443781E+00 0.24524358E+03</pdfrwt>
<pdfrwt beam="1">  1       -2 0.77542052E-02 0.24524358E+03</pdfrwt>
<totfact> 0.23635540E+03</totfact>
</mgrwt>
</event>
<event>
 6    1  0.8353100E-006  0.1337508E+03  0.7546771E-02  0.1235271E+00
          2   -1    0    0  501    0  0.00000000000E+00  0.00000000000E+00  0.43287116276E+03  0.43287116276E+03  0.00000000000E+00 0. -1.
         -2   -1    0    0    0  501 -0.00000000000E+00 -0.00000000000E+00 -0.39722406896E+02  0.39722406896E+02  0.00000000000E+00 0.  1.
          5    1    1    2  502    0  0.30682635066E+02  0.24070203492E+02  0.17744282781E+03  0.18173839971E+03  0.47000000000E+01 0. -1.
         -5    1    1    2    0  502 -0.47035752230E+02 -0.68768844843E+02  0.14419458222E+03  0.16660037080E+03  0.47000000000E+01 0. -1.
        -11    1    1    2    0    0 -0.30244061276E+02  0.26513571528E+02  0.42660008981E+01  0.40445908091E+02  0.00000000000E+00 0.  1.
         11    1    1    2    0    0  0.46597178440E+02  0.18185069823E+02  0.67245344942E+02  0.83808891052E+02  0.00000000000E+00 0. -1.
<mgrwt>
<rscale>  0 0.12487070E+03</rscale>
<asrwt>0</asrwt>
<pdfrwt beam="1">  1        2 0.66595560E-01 0.13375080E+03</pdfrwt>
<pdfrwt beam="2">  1       -2 0.61111398E-02 0.13375080E+03</pdfrwt>
<totfact> 0.99921124E+03</totfact>
</mgrwt>
</event>
<event>
 6    1  0.8353100E-006  0.1276127E+03  0.7546771E-02  0.1247679E+00
         -2   -1    0    0    0  501 -0.00000000000E+00  0.00000000000E+00  0.75708805775E+02  0.75708805775E+02  0.00000000000E+00 0.  1.
          2   -1    0    0  501    0  0.00000000000E+00 -0.00000000000E+00 -0.16556198104E+03  0.16556198104E+03  0.00000000000E+00 0. -1.
          5    1    1    2  502    0  0.50931543081E+02  0.25099178511E+02 -0.96617889527E+02  0.11216549121E+03  0.47000000000E+01 0.  1.
         -5    1    1    2    0  502 -0.26141818423E+02 -0.18355169085E+02  0.18742786011E+02  0.37332143389E+02  0.47000000000E+01 0.  1.
        -11    1    1    2    0    0  0.25230201750E+01 -0.42314883023E+02 -0.18868422374E+02  0.46399701712E+02  0.00000000000E+00 0. -1.
         11    1    1    2    0    0 -0.27312744833E+02  0.35570873597E+02  0.68903506249E+01  0.45373450502E+02  0.00000000000E+00 0.  1.
<mgrwt>
<rscale>  0 0.11726454E+03</rscale>
<asrwt>0</asrwt>
<pdfrwt beam="2">  1        2 0.25471074E-01 0.12761274E+03</pdfrwt>
<pdfrwt beam="1">  1       -2 0.11647508E-01 0.12761274E+03</pdfrwt>
<totfact> 0.10238102E+04</totfact>
</mgrwt>
</event>
<event>
 6    1  0.8353100E-006  0.2628894E+03  0.7546771E-02  0.1105420E+00
         -1   -1    0    0    0  501 -0.00000000000E+00  0.00000000000E+00  0.35965444633E+02  0.35965444633E+02  0.00000000000E+00 0.  1.
          1   -1    0    0  501    0  0.00000000000E+00 -0.00000000000E+00 -0.48039730462E+03  0.48039730462E+03  0.00000000000E+00 0. -1.
          5    1    1    2  502    0  0.30464429875E+02  0.25078982846E+02 -0.15445001935E+02  0.42634199336E+02  0.47000000000E+01 0. -1.
         -5    1    1    2    0  502 -0.68673765169E+02  0.26257204536E+02 -0.21453392876E+03  0.22683126636E+03  0.47000000000E+01 0. -1.
        -11    1    1    2    0    0  0.64518145310E+02 -0.80060016260E+00 -0.99316553586E+02  0.11843567812E+03  0.00000000000E+00 0.  1.
         11    1    1    2    0    0 -0.26308810016E+02 -0.50535587219E+02 -0.11513637571E+03  0.12846160544E+03  0.00000000000E+00 0. -1.
<mgrwt>
<rscale>  0 0.26288935E+03</rscale>
<asrwt>0</asrwt>
<pdfrwt beam="2">  1        1 0.73907274E-01 0.26288935E+03</pdfrwt>
<pdfrwt beam="1">  1       -1 0.55331456E-02 0.26288935E+03</pdfrwt>
<totfact> 0.71434458E+03</totfact>
</mgrwt>
</event>
<event>
 6    1  0.8353100E-006  0.1359803E+03  0.7546771E-02  0.1232765E+00
         -1   -1    0    0    0  501 -0.00000000000E+00  0.00000000000E+00  0.21597139240E+02  0.21597139240E+02  0.00000000000E+00 0.  1.
          1   -1    0    0  501    0  0.00000000000E+00 -0.00000000000E+00 -0.30310091668E+04  0.30310091668E+04  0.00000000000E+00 0. -1.
          5    1    1    2  502    0  0.61159465607E+02 -0.39121337780E+02 -0.10890811175E+04  0.10915084653E+04  0.47000000000E+01 0. -1.
         -5    1    1    2    0  502 -0.52162505362E+02 -0.25602790762E+01 -0.18108251173E+04  0.18115841624E+04  0.47000000000E+01 0.  1.
        -11    1    1    2    0    0  0.32091757888E+02  0.20118062644E+02 -0.92736519662E+02  0.10017324717E+03  0.00000000000E+00 0. -1.
         11    1    1    2    0    0 -0.41088718133E+02  0.21563554212E+02 -0.16769273073E+02  0.49340431164E+02  0.00000000000E+00 0.  1.
<mgrwt>
<rscale>  0 0.12648577E+03</rscale>
<asrwt>0</asrwt>
<pdfrwt beam="2">  1        1 0.46630929E+00 0.13598027E+03</pdfrwt>
<pdfrwt beam="1">  1       -1 0.33226355E-02 0.13598027E+03</pdfrwt>
<totfact> 0.23331843E+02</totfact>
</mgrwt>
</event>
<event>
 6    1  0.8353100E-006  0.2095538E+03  0.7546771E-02  0.1177172E+00
         -2   -1    0    0    0  501 -0.00000000000E+00  0.00000000000E+00  0.15682306905E+03  0.15682306905E+03  0.00000000000E+00 0.  1.
          2   -1    0    0  501    0  0.00000000000E+00 -0.00000000000E+00 -0.14942353054E+03  0.14942353054E+03  0.00000000000E+00 0. -1.
          5    1    1    2  502    0 -0.50889879147E+02 -0.10940786021E+02 -0.86528625526E+02  0.10108794999E+03  0.47000000000E+01 0. -1.
         -5    1    1    2    0  502  0.81312415753E+02  0.27286747600E+02  0.67616321679E+02  0.10931757639E+03  0.47000000000E+01 0.  1.
        -11    1    1    2    0    0 -0.54586340214E+02 -0.20638631442E+02 -0.19756348645E+01  0.58391136133E+02  0.00000000000E+00 0.  1.
         11    1    1    2    0    0  0.24163803608E+02  0.42926698625E+01  0.28287477217E+02  0.37449937072E+02  0.00000000000E+00 0. -1.
<mgrwt>
<rscale>  0 0.17064974E+03</rscale>
<asrwt>0</asrwt>
<pdfrwt beam="2">  1        2 0.22988235E-01 0.20955384E+03</pdfrwt>
<pdfrwt beam="1">  1       -2 0.24126626E-01 0.20955384E+03</pdfrwt>
<totfact> 0.35219505E+03</totfact>
</mgrwt>
</event>
<event>
 6    1  0.8353100E-006  0.1278946E+03  0.7546771E-02  0.1238903E+00
          3   -1    0    0  501    0  0.00000000000E+00  0.00000000000E+00  0.36665592905E+03  0.36665592905E+03  0.00000000000E+00 0. -1.
         -3   -1    0    0    0  501 -0.00000000000E+00 -0.00000000000E+00 -0.39991542306E+02  0.39991542306E+02  0.00000000000E+00 0.  1.
          5    1    1    2  502    0 -0.59283862758E+02  0.37506487619E+02  0.19976676910E+03  0.21177857549E+03  0.47000000000E+01 0. -1.
         -5    1    1    2    0  502  0.50626519550E+00 -0.38428873318E+02  0.22842225877E+02  0.44954331181E+02  0.47000000000E+01 0.  1.
        -11    1    1    2    0    0 -0.84443877301E+01  0.22499693386E+02  0.64848730024E+02  0.69158525666E+02  0.00000000000E+00 0. -1.
         11    1    1    2    0    0  0.67221985292E+02 -0.21577307687E+02  0.39206661737E+02  0.80756039020E+02  0.00000000000E+00 0.  1.
<mgrwt>
<rscale>  0 0.12257874E+03</rscale>
<asrwt>0</asrwt>
<pdfrwt beam="1">  1        3 0.56408602E-01 0.12789457E+03</pdfrwt>
<pdfrwt beam="2">  1       -3 0.61525452E-02 0.12789457E+03</pdfrwt>
<totfact> 0.11668053E+03</totfact>
</mgrwt>
</event>
<event>
 6    1  0.8353100E-006  0.1265451E+03  0.7546771E-02  0.1247370E+00
          2   -1    0    0  501    0  0.00000000000E+00  0.00000000000E+00  0.33428136433E+02  0.33428136433E+02  0.00000000000E+00 0. -1.
         -2   -1    0    0    0  501 -0.00000000000E+00 -0.00000000000E+00 -0.37216827517E+03  0.37216827517E+03  0.00000000000E+00 0.  1.
          5    1    1    2  502    0  0.10996209946E+02 -0.20132994655E+02 -0.23172883514E+03  0.23290898897E+03  0.47000000000E+01 0. -1.
         -5    1    1    2    0  502  0.86533213434E+01  0.21781858448E+02  0.70789778870E+01  0.24930528587E+02  0.47000000000E+01 0. -1.
        -11    1    1    2    0    0  0.77734331213E+01 -0.41243912379E+02 -0.74076142939E+02  0.85139658934E+02  0.00000000000E+00 0.  1.
         11    1    1    2    0    0 -0.27422964410E+02  0.39595048586E+02 -0.40014138545E+02  0.62617235112E+02  0.00000000000E+00 0. -1.
<mgrwt>
<rscale>  0 0.11744644E+03</rscale>
<asrwt>0</asrwt>
<pdfrwt beam="1">  1        2 0.51427903E-02 0.12654508E+03</pdfrwt>
<pdfrwt beam="2">  1       -2 0.57256657E-01 0.12654508E+03</pdfrwt>
<totfact> 0.41744300E+03</totfact>
</mgrwt>
</event>
<event>
 6    1  0.8353100E-006  0.1428852E+03  0.7546771E-02  0.1231496E+00
          2   -1    0    0  501    0  0.00000000000E+00  0.00000000000E+00  0.19266847444E+03  0.19266847444E+03  0.00000000000E+00 0. -1.
         -2   -1    0    0    0  501 -0.00000000000E+00 -0.00000000000E+00 -0.71598301193E+02  0.71598301193E+02  0.00000000000E+00 0.  1.
          5    1    1    2  502    0  0.55937677720E+02 -0.14808258967E+02  0.84148351197E+02  0.10223181174E+03  0.47000000000E+01 0. -1.
         -5    1    1    2    0  502 -0.62258611721E+02  0.23308911599E+02  0.64522018008E+01  0.66956411205E+02  0.47000000000E+01 0.  1.
        -11    1    1    2    0    0  0.32626617564E+02 -0.17051513594E+02  0.49364785521E+02  0.61580291807E+02  0.00000000000E+00 0.  1.
         11    1    1    2    0    0 -0.26305683564E+02  0.85508609619E+01 -0.18895165277E+02  0.33498260877E+02  0.00000000000E+00 0. -1.
<mgrwt>
<rscale>  0 0.12731466E+03</rscale>
<asrwt>0</asrwt>
<pdfrwt beam="1">  1        2 0.29641304E-01 0.14288525E+03</pdfrwt>
<pdfrwt beam="2">  1       -2 0.11015123E-01 0.14288525E+03</pdfrwt>
<totfact> 0.95639811E+03</totfact>
</mgrwt>
</event>
<event>
 6    1  0.8353100E-006  0.1559704E+03  0.7546771E-02  0.1203107E+00
          2   -1    0    0  501    0  0.00000000000E+00  0.00000000000E+00  0.52896783294E+03  0.52896783294E+03  0.00000000000E+00 0. -1.
         -2   -1    0    0    0  501 -0.00000000000E+00 -0.00000000000E+00 -0.44615857340E+02  0.44615857340E+02  0.00000000000E+00 0.  1.
          5    1    1    2  502    0  0.36270313832E+02 -0.36083242095E+02  0.33852164670E+03  0.34239820576E+03  0.47000000000E+01 0.  1.
         -5    1    1    2    0  502  0.52463542076E+02  0.73241235590E+01  0.38624497744E+02  0.65726766686E+02  0.47000000000E+01 0.  1.
        -11    1    1    2    0    0 -0.26870157768E+02  0.46426788164E+02  0.78333926652E+02  0.94940276502E+02  0.00000000000E+00 0. -1.
         11    1    1    2    0    0 -0.61863698140E+02 -0.17667669627E+02  0.28871904504E+02  0.70518441328E+02  0.00000000000E+00 0.  1.
<mgrwt>
<rscale>  0 0.14787678E+03</rscale>
<asrwt>0</asrwt>
<pdfrwt beam="1">  1        2 0.81379662E-01 0.15597044E+03</pdfrwt>
<pdfrwt beam="2">  1       -2 0.68639784E-02 0.15597044E+03</pdfrwt>
<totfact> 0.67862640E+03</totfact>
</mgrwt>
</event>
<event>
 6    1  0.8353100E-006  0.1257725E+03  0.7546771E-02  0.1249681E+00
         -2   -1    0    0    0  501 -0.00000000000E+00  0.00000000000E+00  0.20251294951E+03  0.20251294951E+03  0.00000000000E+00 0.  1.
          2   -1    0    0  501    0  0.00000000000E+00 -0.00000000000E+00 -0.59569143005E+02  0.59569143005E+02  0.00000000000E+00 0. -1.
          5    1    1    2  502    0 -0.33939882261E+02  0.56407806686E+01 -0.29693087979E+02  0.45689205379E+02  0.47000000000E+01 0.  1.
         -5    1    1    2    0  502  0.20775138177E+02 -0.11019868324E+01  0.92435812705E+02  0.94864588818E+02  0.47000000000E+01 0.  1.
        -11    1    1    2    0    0 -0.37041606502E+01  0.36360708479E+02  0.89005095572E+01  0.37617030685E+02  0.00000000000E+00 0. -1.
         11    1    1    2    0    0  0.16868904734E+02 -0.40899502315E+02  0.71300572219E+02  0.83911267630E+02  0.00000000000E+00 0.  1.
<mgrwt>
<rscale>  0 0.11609537E+03</rscale>
<asrwt>0</asrwt>
<pdfrwt beam="2">  1        2 0.91644836E-02 0.12577249E+03</pdfrwt>
<pdfrwt beam="1">  1       -2 0.31155838E-01 0.12577249E+03</pdfrwt>
<totfact> 0.64170046E+03</totfact>
</mgrwt>
</event>
<event>
 6    1  0.8353100E-006  0.1336051E+03  0.7546771E-02  0.1236107E+00
          4   -1    0    0  501    0  0.00000000000E+00  0.00000000000E+00  0.77926671440E+02  0.77926671440E+02  0.00000000000E+00 0. -1.
         -4   -1    0    0    0  501 -0.00000000000E+00 -0.00000000000E+00 -0.19920504547E+03  0.19920504547E+03  0.00000000000E+00 0.  1.
          5    1    1    2  502    0  0.79445539785E+02 -0.19719346931E+02  0.10900227346E+02  0.82712462128E+02  0.47000000000E+01 0. -1.
         -5    1    1    2    0  502 -0.40906025982E+02 -0.75095781622E+01 -0.31695509456E+02  0.52501352797E+02  0.47000000000E+01 0. -1.
        -11    1    1    2    0    0 -0.48053508718E+02  0.14120221423E+02 -0.11156540280E+03  0.12229210708E+03  0.00000000000E+00 0.  1.
         11    1    1    2    0    0  0.95139949148E+01  0.13108703670E+02  0.11082310878E+02  0.19625794903E+02  0.00000000000E+00 0. -1.
<mgrwt>
<rscale>  0 0.12433827E+03</rscale>
<asrwt>0</asrwt>
<pdfrwt beam="1">  1        4 0.11988719E-01 0.13360513E+03</pdfrwt>
<pdfrwt beam="2">  1       -4 0.30646930E-01 0.13360513E+03</pdfrwt>
<totfact> 0.93554331E+02</totfact>
</mgrwt>
</event>
<event>
 6    1  0.8988914E-006  0.2469256E+03  0.7546771E-02  0.1117901E+00
          1   -1    0    0  501    0  0.00000000000E+00  0.00000000000E+00  0.11833635768E+03  0.11833635768E+03  0.00000000000E+00 0. -1.
         -1   -1    0    0    0  501 -0.00000000000E+00 -0.00000000000E+00 -0.48316699449E+03  0.48316699449E+03  0.00000000000E+00 0.  1.
          5    1    1    2  502    0  0.53321223026E+02 -0.81131803440E+02 -0.61918059307E+02  0.11524520998E+03  0.47000000000E+01 0.  1.
         -5    1    1    2    0  502 -0.68848563079E+02 -0.13125034764E+03 -0.13602704161E+03  0.20122679852E+03  0.47000000000E+01 0.  1.
        -11    1    1    2    0    0 -0.20158218075E+02  0.12990992501E+03 -0.57558778130E+02  0.14351290992E+03  0.00000000000E+00 0. -1.
         11    1    1    2    0    0  0.35685558128E+02  0.82472226068E+02 -0.10932675776E+03  0.14151843376E+03  0.00000000000E+00 0.  1.
<mgrwt>
<rscale>  0 0.24286182E+03</rscale>
<asrwt>0</asrwt>
<pdfrwt beam="1">  1        1 0.18205593E-01 0.24692563E+03</pdfrwt>
<pdfrwt beam="2">  1       -1 0.74333385E-01 0.24692563E+03</pdfrwt>
<totfact> 0.54922363E+02</totfact>
</mgrwt>
</event>
<event>
 6    1  0.8353100E-006  0.2919784E+03  0.7546771E-02  0.1091076E+00
          2   -1    0    0  501    0  0.00000000000E+00  0.00000000000E+00  0.14303315804E+04  0.14303315804E+04  0.00000000000E+00 0. -1.
         -2   -1    0    0    0  501 -0.00000000000E+00 -0.00000000000E+00 -0.67800810203E+02  0.67800810203E+02  0.00000000000E+00 0.  1.
          5    1    1    2  502    0  0.17264568866E+02 -0.82044289486E+02  0.21593093237E+03  0.23168424273E+03  0.47000000000E+01 0. -1.
         -5    1    1    2    0  502  0.18268378808E+03 -0.90140632747E+02  0.77845169173E+03  0.80467871008E+03  0.47000000000E+01 0. -1.
        -11    1    1    2    0    0 -0.19231311358E+02  0.58529867500E+02  0.53865920601E+02  0.81835970870E+02  0.00000000000E+00 0.  1.
         11    1    1    2    0    0 -0.18071704559E+03  0.11365505473E+03  0.31428222555E+03  0.37993346698E+03  0.00000000000E+00 0. -1.
<mgrwt>
<rscale>  0 0.28861188E+03</rscale>
<asrwt>0</asrwt>
<pdfrwt beam="1">  1        2 0.22005099E+00 0.29197837E+03</pdfrwt>
<pdfrwt beam="2">  1       -2 0.10430895E-01 0.29197837E+03</pdfrwt>
<totfact> 0.92305706E+02</totfact>
</mgrwt>
</event>
<event>
 6    1  0.8353100E-006  0.3896403E+03  0.7546771E-02  0.1048017E+00
          2   -1    0    0  501    0  0.00000000000E+00  0.00000000000E+00  0.15654221191E+04  0.15654221191E+04  0.00000000000E+00 0.  1.
         -2   -1    0    0    0  501 -0.00000000000E+00 -0.00000000000E+00 -0.97437047118E+02  0.97437047118E+02  0.00000000000E+00 0. -1.
          5    1    1    2  502    0  0.30056959289E+03  0.49783337000E+02  0.40299476624E+03  0.50522008316E+03  0.47000000000E+01 0.  1.
         -5    1    1    2    0  502  0.66321329658E+02 -0.99580527419E+01  0.21580206879E+03  0.22603164485E+03  0.47000000000E+01 0.  1.
        -11    1    1    2    0    0 -0.14670133356E+03  0.27771374254E+02  0.27447771562E+03  0.31245887228E+03  0.00000000000E+00 0.  1.
         11    1    1    2    0    0 -0.22018958900E+03 -0.67596658512E+02  0.57471052132E+03  0.61914856590E+03  0.00000000000E+00 0. -1.
<mgrwt>
<rscale>  0 0.38799687E+03</rscale>
<asrwt>0</asrwt>
<pdfrwt beam="1">  1        2 0.24083415E+00 0.38964030E+03</pdfrwt>
<pdfrwt beam="2">  1       -2 0.14990316E-01 0.38964030E+03</pdfrwt>
<totfact> 0.42682203E+02</totfact>
</mgrwt>
</event>
<event>
 6    1  0.8353100E-006  0.3429911E+03  0.7546771E-02  0.1065529E+00
         -2   -1    0    0    0  501 -0.00000000000E+00  0.00000000000E+00  0.51548477860E+02  0.51548477860E+02  0.00000000000E+00 0.  1.
          2   -1    0    0  501    0  0.00000000000E+00 -0.00000000000E+00 -0.57054504285E+03  0.57054504285E+03  0.00000000000E+00 0. -1.
          5    1    1    2  502    0 -0.99405301046E+02 -0.20353465277E+02 -0.13612112237E+03  0.16984324355E+03  0.47000000000E+01 0. -1.
         -5    1    1    2    0  502  0.71067355336E+00 -0.36937092762E+02 -0.23654485596E+03  0.23945858255E+03  0.47000000000E+01 0. -1.
        -11    1    1    2    0    0  0.72262089375E+02 -0.11099524561E+02 -0.39150475699E+02  0.82932314292E+02  0.00000000000E+00 0.  1.
         11    1    1    2    0    0  0.26432538117E+02  0.68390082600E+02 -0.10718011097E+03  0.12985938032E+03  0.00000000000E+00 0. -1.
<mgrwt>
<rscale>  0 0.34299113E+03</rscale>
<asrwt>0</asrwt>
<pdfrwt beam="2">  1        2 0.87776164E-01 0.34299113E+03</pdfrwt>
<pdfrwt beam="1">  1       -2 0.79305347E-02 0.34299113E+03</pdfrwt>
<totfact> 0.51472998E+03</totfact>
</mgrwt>
</event>
<event>
 6    1  0.8353100E-006  0.1282878E+03  0.7546771E-02  0.1247060E+00
          1   -1    0    0  501    0  0.00000000000E+00  0.00000000000E+00  0.38571983161E+02  0.38571983161E+02  0.00000000000E+00 0. -1.
         -1   -1    0    0    0  501 -0.00000000000E+00 -0.00000000000E+00 -0.31336840408E+03  0.31336840408E+03  0.00000000000E+00 0.  1.
          5    1    1    2  502    0 -0.17526043160E+02 -0.60163807584E+02 -0.50604862242E+02  0.80683257336E+02  0.47000000000E+01 0. -1.
         -5    1    1    2    0  502 -0.11191498967E+02  0.60776841613E+02 -0.94376654218E+02  0.11290755948E+03  0.47000000000E+01 0. -1.
        -11    1    1    2    0    0  0.51823218911E+01 -0.35538362642E+02 -0.10132910143E+03  0.10750543463E+03  0.00000000000E+00 0.  1.
         11    1    1    2    0    0  0.23535220236E+02  0.34925328614E+02 -0.28485803027E+02  0.50844135792E+02  0.00000000000E+00 0. -1.
<mgrwt>
<rscale>  0 0.11762936E+03</rscale>
<asrwt>0</asrwt>
<pdfrwt beam="1">  1        1 0.59341512E-02 0.12828782E+03</pdfrwt>
<pdfrwt beam="2">  1       -1 0.48210524E-01 0.12828782E+03</pdfrwt>
<totfact> 0.54701872E+03</totfact>
</mgrwt>
</event>
<event>
 6    1  0.1266920E-005  0.2260324E+03  0.7546771E-02  0.1132672E+00
         -1   -1    0    0    0  501 -0.00000000000E+00  0.00000000000E+00  0.85611590128E+02  0.85611590128E+02  0.00000000000E+00 0.  1.
          1   -1    0    0  501    0  0.00000000000E+00 -0.00000000000E+00 -0.66195634708E+03  0.66195634708E+03  0.00000000000E+00 0. -1.
          5    1    1    2  502    0 -0.12566260353E+02 -0.87522933818E+02 -0.18349819888E+03  0.20374457989E+03  0.47000000000E+01 0. -1.
         -5    1    1    2    0  502  0.11961830960E+03 -0.67415080391E+02 -0.26603075629E+03  0.29941240179E+03  0.47000000000E+01 0. -1.
        -11    1    1    2    0    0 -0.68882171724E+02  0.12682664211E+03 -0.47375756016E+02  0.15190198480E+03  0.00000000000E+00 0.  1.
         11    1    1    2    0    0 -0.38169877525E+02  0.28111372104E+02 -0.79440045766E+02  0.92508970717E+02  0.00000000000E+00 0. -1.
<mgrwt>
<rscale>  0 0.22163160E+03</rscale>
<asrwt>0</asrwt>
<pdfrwt beam="2">  1        1 0.10183944E+00 0.22603245E+03</pdfrwt>
<pdfrwt beam="1">  1       -1 0.13171014E-01 0.22603245E+03</pdfrwt>
<totfact> 0.12095055E+03</totfact>
</mgrwt>
</event>
<event>
 6    1  0.8353100E-006  0.1278631E+03  0.7546771E-02  0.1244637E+00
         -2   -1    0    0    0  501 -0.00000000000E+00  0.00000000000E+00  0.61572506882E+02  0.61572506882E+02  0.00000000000E+00 0.  1.
          2   -1    0    0  501    0  0.00000000000E+00 -0.00000000000E+00 -0.25815974177E+03  0.25815974177E+03  0.00000000000E+00 0. -1.
          5    1    1    2  502    0  0.15276698774E+02  0.33358057332E+02 -0.15177286401E+03  0.15621533140E+03  0.47000000000E+01 0.  1.
         -5    1    1    2    0  502 -0.57028165238E+01 -0.58470991463E+02 -0.30298089652E+02  0.66267965078E+02  0.47000000000E+01 0.  1.
        -11    1    1    2    0    0 -0.36803340868E+02  0.40507795269E+02  0.12245293252E+02  0.56083104260E+02  0.00000000000E+00 0.  1.
         11    1    1    2    0    0  0.27229458617E+02 -0.15394861137E+02 -0.26761574479E+02  0.41165847916E+02  0.00000000000E+00 0. -1.
<mgrwt>
<rscale>  0 0.11907128E+03</rscale>
<asrwt>0</asrwt>
<pdfrwt beam="2">  1        2 0.39716884E-01 0.12786315E+03</pdfrwt>
<pdfrwt beam="1">  1       -2 0.94726932E-02 0.12786315E+03</pdfrwt>
<totfact> 0.87866681E+03</totfact>
</mgrwt>
</event>
<event>
 6    1  0.8353100E-006  0.1178547E+03  0.7546771E-02  0.1256904E+00
         -1   -1    0    0    0  501 -0.00000000000E+00  0.00000000000E+00  0.39730269960E+03  0.39730269960E+03  0.00000000000E+00 0.  1.
          1   -1    0    0  501    0  0.00000000000E+00 -0.00000000000E+00 -0.32252755683E+02  0.32252755683E+02  0.00000000000E+00 0. -1.
          5    1    1    2  502    0  0.33966957086E+02 -0.22020404336E+02  0.26201809343E+01  0.40836353032E+02  0.47000000000E+01 0. -1.
         -5    1    1    2    0  502 -0.43460250821E+02 -0.54671414013E+01  0.12665221086E+03  0.13409532264E+03  0.47000000000E+01 0.  1.
        -11    1    1    2    0    0  0.48567344836E+02  0.38897770834E+00  0.11678762346E+03  0.12648433611E+03  0.00000000000E+00 0. -1.
         11    1    1    2    0    0 -0.39074051101E+02  0.27098568028E+02  0.11898992866E+03  0.12813944350E+03  0.00000000000E+00 0.  1.
<mgrwt>
<rscale>  0 0.11200368E+03</rscale>
<asrwt>0</asrwt>
<pdfrwt beam="2">  1        1 0.49619627E-02 0.11785474E+03</pdfrwt>
<pdfrwt beam="1">  1       -1 0.61123489E-01 0.11785474E+03</pdfrwt>
<totfact> 0.44665568E+03</totfact>
</mgrwt>
</event>
<event>
 6    1  0.8353100E-006  0.1263688E+03  0.7546771E-02  0.1247142E+00
         -2   -1    0    0    0  501 -0.00000000000E+00  0.00000000000E+00  0.37780436420E+02  0.37780436420E+02  0.00000000000E+00 0.  1.
          2   -1    0    0  501    0  0.00000000000E+00 -0.00000000000E+00 -0.33572996575E+03  0.33572996575E+03  0.00000000000E+00 0. -1.
          5    1    1    2  502    0  0.37492402311E+02 -0.43624383147E+02 -0.87547157724E+02  0.10485877103E+03  0.47000000000E+01 0.  1.
         -5    1    1    2    0  502 -0.55602929880E+02  0.39708146497E+02 -0.11735441961E+03  0.13587704925E+03  0.47000000000E+01 0.  1.
        -11    1    1    2    0    0  0.94717835328E+01  0.35087112470E+02 -0.93616843672E+02  0.10042376992E+03  0.00000000000E+00 0. -1.
         11    1    1    2    0    0  0.86387440362E+01 -0.31170875821E+02  0.56889168102E+00  0.32350811979E+02  0.00000000000E+00 0.  1.
<mgrwt>
<rscale>  0 0.11758071E+03</rscale>
<asrwt>0</asrwt>
<pdfrwt beam="2">  1        2 0.51650765E-01 0.12636882E+03</pdfrwt>
<pdfrwt beam="1">  1       -2 0.58123747E-02 0.12636882E+03</pdfrwt>
<totfact> 0.14068327E+04</totfact>
</mgrwt>
</event>
<event>
 6    1  0.8353100E-006  0.2540452E+03  0.7546771E-02  0.1110775E+00
          2   -1    0    0  501    0  0.00000000000E+00  0.00000000000E+00  0.68762970856E+03  0.68762970856E+03  0.00000000000E+00 0. -1.
         -2   -1    0    0    0  501 -0.00000000000E+00 -0.00000000000E+00 -0.23464294486E+02  0.23464294486E+02  0.00000000000E+00 0.  1.
          5    1    1    2  502    0  0.16620155461E+02  0.27153529501E+02  0.41767344037E+02  0.52727078051E+02  0.47000000000E+01 0.  1.
         -5    1    1    2    0  502 -0.53036126227E+02 -0.68736959520E+02  0.41689895724E+03  0.42586903014E+03  0.47000000000E+01 0.  1.
        -11    1    1    2    0    0  0.22434688184E+02  0.92277994226E+01  0.26573580694E+00  0.24259804856E+02  0.00000000000E+00 0.  1.
         11    1    1    2    0    0  0.13981282582E+02  0.32355630596E+02  0.20523337699E+03  0.20823809000E+03  0.00000000000E+00 0. -1.
<mgrwt>
<rscale>  0 0.25404524E+03</rscale>
<asrwt>0</asrwt>
<pdfrwt beam="1">  1        2 0.10578917E+00 0.25404524E+03</pdfrwt>
<pdfrwt beam="2">  1       -2 0.36098920E-02 0.25404524E+03</pdfrwt>
<totfact> 0.13635199E+04</totfact>
</mgrwt>
</event>
<event>
 6    1  0.8353100E-006  0.1260571E+03  0.7546771E-02  0.1268977E+00
          1   -1    0    0  501    0  0.00000000000E+00  0.00000000000E+00  0.28098825114E+03  0.28098825114E+03  0.00000000000E+00 0. -1.
         -1   -1    0    0    0  501 -0.00000000000E+00 -0.00000000000E+00 -0.34738946401E+02  0.34738946401E+02  0.00000000000E+00 0.  1.
          5    1    1    2  502    0 -0.53962999595E+02  0.79086156299E+01  0.36733624777E+02  0.65924204324E+02  0.47000000000E+01 0.  1.
         -5    1    1    2    0  502  0.45688077460E+02  0.59869322965E+01  0.17012209009E+03  0.17631465996E+03  0.47000000000E+01 0.  1.
        -11    1    1    2    0    0  0.12053973935E+02 -0.48999525727E+00 -0.13899809069E+02  0.18404974195E+02  0.00000000000E+00 0.  1.
         11    1    1    2    0    0 -0.37790518010E+01 -0.13405552669E+02  0.53293398935E+02  0.55083359056E+02  0.00000000000E+00 0. -1.
<mgrwt>
<rscale>  0 0.10558187E+03</rscale>
<asrwt>0</asrwt>
<pdfrwt beam="1">  1        1 0.43228960E-01 0.12605705E+03</pdfrwt>
<pdfrwt beam="2">  1       -1 0.53444535E-02 0.12605705E+03</pdfrwt>
<totfact> 0.14142527E+04</totfact>
</mgrwt>
</event>
<event>
 6    1  0.8353100E-006  0.1494215E+03  0.7546771E-02  0.1221263E+00
         -1   -1    0    0    0  501 -0.00000000000E+00  0.00000000000E+00  0.86034561911E+02  0.86034561911E+02  0.00000000000E+00 0.  1.
          1   -1    0    0  501    0  0.00000000000E+00 -0.00000000000E+00 -0.20697144762E+04  0.20697144762E+04  0.00000000000E+00 0. -1.
          5    1    1    2  502    0 -0.35761201165E+02 -0.80405469349E+02 -0.85209158072E+03  0.85663647771E+03  0.47000000000E+01 0. -1.
         -5    1    1    2    0  502  0.39030804797E+02  0.25454417069E+02 -0.11864118384E+04  0.11873358713E+04  0.47000000000E+01 0.  1.
        -11    1    1    2    0    0 -0.22617259820E+02  0.56998274124E+02  0.65383361379E+02  0.89639989068E+02  0.00000000000E+00 0.  1.
         11    1    1    2    0    0  0.19347656188E+02 -0.20472218441E+01 -0.10559856589E+02  0.22136700035E+02  0.00000000000E+00 0. -1.
<mgrwt>
<rscale>  0 0.13426380E+03</rscale>
<asrwt>0</asrwt>
<pdfrwt beam="2">  1        1 0.31841761E+00 0.14942146E+03</pdfrwt>
<pdfrwt beam="1">  1       -1 0.13236087E-01 0.14942146E+03</pdfrwt>
<totfact> 0.12509016E+02</totfact>
</mgrwt>
</event>
<event>
 6    1  0.8353100E-006  0.1343003E+03  0.7546771E-02  0.1233754E+00
         -3   -1    0    0    0  501 -0.00000000000E+00  0.00000000000E+00  0.14411389097E+03  0.14411389097E+03  0.00000000000E+00 0.  1.
          3   -1    0    0  501    0  0.00000000000E+00 -0.00000000000E+00 -0.12196335729E+03  0.12196335729E+03  0.00000000000E+00 0. -1.
          5    1    1    2  502    0  0.59068940000E+01 -0.23211603066E+02  0.36713168158E+02  0.44086467650E+02  0.47000000000E+01 0. -1.
         -5    1    1    2    0  502 -0.51655257004E+02  0.53554735191E+01 -0.82896171264E+02  0.97932690574E+02  0.47000000000E+01 0. -1.
        -11    1    1    2    0    0  0.24069593348E+02 -0.35570053427E+02  0.14931873004E+02  0.45470153465E+02  0.00000000000E+00 0.  1.
         11    1    1    2    0    0  0.21678769656E+02  0.53426182973E+02  0.53401663783E+02  0.78587936579E+02  0.00000000000E+00 0. -1.
<mgrwt>
<rscale>  0 0.12584525E+03</rscale>
<asrwt>0</asrwt>
<pdfrwt beam="2">  1        3 0.18763593E-01 0.13430030E+03</pdfrwt>
<pdfrwt beam="1">  1       -3 0.22171368E-01 0.13430030E+03</pdfrwt>
<totfact> 0.10790442E+03</totfact>
</mgrwt>
</event>
<event>
 6    1  0.8353100E-006  0.1376368E+03  0.7546771E-02  0.1227381E+00
          2   -1    0    0  501    0  0.00000000000E+00  0.00000000000E+00  0.81095715718E+03  0.81095715718E+03  0.00000000000E+00 0. -1.
         -2   -1    0    0    0  501 -0.00000000000E+00 -0.00000000000E+00 -0.24528661620E+02  0.24528661620E+02  0.00000000000E+00 0.  1.
          5    1    1    2  502    0 -0.43463508784E+02  0.35034720034E+02  0.54527428201E+03  0.54814472616E+03  0.47000000000E+01 0.  1.
         -5    1    1    2    0  502  0.39914555846E+02  0.22467265214E+02  0.81909756063E+02  0.93964077779E+02  0.47000000000E+01 0.  1.
        -11    1    1    2    0    0  0.44395148558E+02 -0.25306246297E+02  0.45979796226E+02  0.68742104842E+02  0.00000000000E+00 0.  1.
         11    1    1    2    0    0 -0.40846195619E+02 -0.32195738951E+02  0.11326466127E+03  0.12463491002E+03  0.00000000000E+00 0. -1.
<mgrwt>
<rscale>  0 0.13005010E+03</rscale>
<asrwt>0</asrwt>
<pdfrwt beam="1">  1        2 0.12476262E+00 0.13763684E+03</pdfrwt>
<pdfrwt beam="2">  1       -2 0.37736409E-02 0.13763684E+03</pdfrwt>
<totfact> 0.10053638E+04</totfact>
</mgrwt>
</event>
<event>
 6    1  0.8353100E-006  0.1736755E+03  0.7546771E-02  0.1187503E+00
         -1   -1    0    0    0  501 -0.00000000000E+00  0.00000000000E+00  0.17609431631E+03  0.17609431631E+03  0.00000000000E+00 0.  1.
          1   -1    0    0  501    0  0.00000000000E+00 -0.00000000000E+00 -0.25694873392E+03  0.25694873392E+03  0.00000000000E+00 0. -1.
          5    1    1    2  502    0 -0.80490385685E+02  0.75562529490E+02 -0.14709874870E+03  0.18397969975E+03  0.47000000000E+01 0. -1.
         -5    1    1    2    0  502  0.59115615297E+02  0.11902344143E+02 -0.47951457630E+02  0.77186488824E+02  0.47000000000E+01 0.  1.
        -11    1    1    2    0    0  0.16242944706E+02 -0.41094100482E+02  0.11707283721E+03  0.12513435803E+03  0.00000000000E+00 0.  1.
         11    1    1    2    0    0  0.51318256821E+01 -0.46370773151E+02 -0.28770484885E+01  0.46742503628E+02  0.00000000000E+00 0. -1.
<mgrwt>
<rscale>  0 0.16106186E+03</rscale>
<asrwt>0</asrwt>
<pdfrwt beam="2">  1        1 0.39530574E-01 0.17367555E+03</pdfrwt>
<pdfrwt beam="1">  1       -1 0.27091433E-01 0.17367555E+03</pdfrwt>
<totfact> 0.12868108E+03</totfact>
</mgrwt>
</event>
<event>
 6    1  0.8353100E-006  0.1512396E+03  0.7546771E-02  0.1208033E+00
         -1   -1    0    0    0  501 -0.00000000000E+00  0.00000000000E+00  0.19157090935E+02  0.19157090935E+02  0.00000000000E+00 0.  1.
          1   -1    0    0  501    0  0.00000000000E+00 -0.00000000000E+00 -0.14279329633E+04  0.14279329633E+04  0.00000000000E+00 0. -1.
          5    1    1    2  502    0 -0.51134547974E+02  0.31876062723E+02 -0.47873098375E+03  0.48253110799E+03  0.47000000000E+01 0. -1.
         -5    1    1    2    0  502 -0.11159436105E+02 -0.89909446206E+02 -0.67230975337E+03  0.67840307783E+03  0.47000000000E+01 0. -1.
        -11    1    1    2    0    0  0.82229194923E+02  0.43298516161E+02 -0.23423802203E+03  0.25199970827E+03  0.00000000000E+00 0. -1.
         11    1    1    2    0    0 -0.19935210843E+02  0.14734867322E+02 -0.23497113164E+02  0.34156160109E+02  0.00000000000E+00 0.  1.
<mgrwt>
<rscale>  0 0.14400993E+03</rscale>
<asrwt>0</asrwt>
<pdfrwt beam="2">  1        1 0.21968198E+00 0.15123956E+03</pdfrwt>
<pdfrwt beam="1">  1       -1 0.29472449E-02 0.15123956E+03</pdfrwt>
<totfact> 0.30729679E+03</totfact>
</mgrwt>
</event>
<event>
 6    1  0.8353100E-006  0.1608194E+03  0.7546771E-02  0.1197997E+00
          1   -1    0    0  501    0  0.00000000000E+00  0.00000000000E+00  0.41880105837E+03  0.41880105837E+03  0.00000000000E+00 0. -1.
         -1   -1    0    0    0  501 -0.00000000000E+00 -0.00000000000E+00 -0.56455090938E+02  0.56455090938E+02  0.00000000000E+00 0.  1.
          5    1    1    2  502    0  0.26916481294E+02 -0.77789978246E+02  0.26810268608E+03  0.28049406048E+03  0.47000000000E+01 0. -1.
         -5    1    1    2    0  502  0.39962059003E+02  0.19123391371E+01  0.11219739935E+02  0.41816214139E+02  0.47000000000E+01 0. -1.
        -11    1    1    2    0    0  0.17322796990E+02  0.56143270081E+01  0.70172666153E+01  0.19515173432E+02  0.00000000000E+00 0.  1.
         11    1    1    2    0    0 -0.84201337287E+02  0.70263312101E+02  0.76006274797E+02  0.13343070125E+03  0.00000000000E+00 0. -1.
<mgrwt>
<rscale>  0 0.15203301E+03</rscale>
<asrwt>0</asrwt>
<pdfrwt beam="1">  1        1 0.64430930E-01 0.16081945E+03</pdfrwt>
<pdfrwt beam="2">  1       -1 0.86853989E-02 0.16081945E+03</pdfrwt>
<totfact> 0.42143528E+03</totfact>
</mgrwt>
</event>
<event>
 6    1  0.9134481E-006  0.1827098E+03  0.7546771E-02  0.1171112E+00
          3   -1    0    0  501    0  0.00000000000E+00  0.00000000000E+00  0.10594534057E+03  0.10594534057E+03  0.00000000000E+00 0. -1.
         -3   -1    0    0    0  501 -0.00000000000E+00 -0.00000000000E+00 -0.27756904960E+03  0.27756904960E+03  0.00000000000E+00 0.  1.
          5    1    1    2  502    0 -0.54498536834E+02  0.59911904425E+01  0.26487444418E+02  0.61070939011E+02  0.47000000000E+01 0.  1.
         -5    1    1    2    0  502 -0.55648296120E+02  0.69016347561E+02 -0.10578889106E+03  0.13810636685E+03  0.47000000000E+01 0.  1.
        -11    1    1    2    0    0  0.49643612277E+02 -0.36695614746E+02  0.67399294522E+01  0.62100588004E+02  0.00000000000E+00 0. -1.
         11    1    1    2    0    0  0.60503220677E+02 -0.38311923258E+02 -0.99062191846E+02  0.12223649631E+03  0.00000000000E+00 0.  1.
<mgrwt>
<rscale>  0 0.17662282E+03</rscale>
<asrwt>0</asrwt>
<pdfrwt beam="1">  1        3 0.16299283E-01 0.18270982E+03</pdfrwt>
<pdfrwt beam="2">  1       -3 0.42702931E-01 0.18270982E+03</pdfrwt>
<totfact> 0.42436988E+02</totfact>
</mgrwt>
</event>
<event>
 6    1  0.8353100E-006  0.1394869E+03  0.7546771E-02  0.1226036E+00
          1   -1    0    0  501    0  0.00000000000E+00  0.00000000000E+00  0.42127389159E+02  0.42127389159E+02  0.00000000000E+00 0. -1.
         -1   -1    0    0    0  501 -0.00000000000E+00 -0.00000000000E+00 -0.39558294590E+03  0.39558294590E+03  0.00000000000E+00 0.  1.
          5    1    1    2  502    0 -0.22048453499E+02  0.84876358922E+02 -0.91793587237E+02  0.12703654302E+03  0.47000000000E+01 0. -1.
         -5    1    1    2    0  502 -0.25021957300E+02 -0.44651256870E+02 -0.44585840967E+02  0.68042782879E+02  0.47000000000E+01 0. -1.
        -11    1    1    2    0    0  0.25758580813E+02  0.18149301775E+02 -0.23454281227E+02  0.39281101668E+02  0.00000000000E+00 0. -1.
         11    1    1    2    0    0  0.21311829986E+02 -0.58374403827E+02 -0.19362184732E+03  0.20334990749E+03  0.00000000000E+00 0.  1.
<mgrwt>
<rscale>  0 0.13096174E+03</rscale>
<asrwt>0</asrwt>
<pdfrwt beam="1">  1        1 0.64811365E-02 0.13948690E+03</pdfrwt>
<pdfrwt beam="2">  1       -1 0.60858918E-01 0.13948690E+03</pdfrwt>
<totfact> 0.31666280E+03</totfact>
</mgrwt>
</event>
<event>
 6    1  0.8353100E-006  0.1478772E+03  0.7546771E-02  0.1212462E+00
          2   -1    0    0  501    0  0.00000000000E+00  0.00000000000E+00  0.86558902807E+03  0.86558902807E+03  0.00000000000E+00 0. -1.
         -2   -1    0    0    0  501 -0.00000000000E+00 -0.00000000000E+00 -0.28380418930E+02  0.28380418930E+02  0.00000000000E+00 0.  1.
          5    1    1    2  502    0 -0.61854515297E+02 -0.50769079145E+02  0.22533469279E+03  0.23916792058E+03  0.47000000000E+01 0.  1.
         -5    1    1    2    0  502 -0.16503480201E+02  0.40143537137E+02  0.45297215526E+03  0.45507112836E+03  0.47000000000E+01 0.  1.
        -11    1    1    2    0    0  0.47630525931E+02 -0.33342829775E+01  0.12316548127E+02  0.49310057809E+02  0.00000000000E+00 0.  1.
         11    1    1    2    0    0  0.30727469567E+02  0.13959824986E+02  0.14658521296E+03  0.15042034024E+03  0.00000000000E+00 0. -1.
<mgrwt>
<rscale>  0 0.14064612E+03</rscale>
<asrwt>0</asrwt>
<pdfrwt beam="1">  1        2 0.13316752E+00 0.14787724E+03</pdfrwt>
<pdfrwt beam="2">  1       -2 0.43662190E-02 0.14787724E+03</pdfrwt>
<totfact> 0.74775574E+03</totfact>
</mgrwt>
</event>
<event>
 6    1  0.8353100E-006  0.2937253E+03  0.7546771E-02  0.1090039E+00
          1   -1    0    0  501    0  0.00000000000E+00  0.00000000000E+00  0.23194543137E+04  0.23194543137E+04  0.00000000000E+00 0. -1.
         -1   -1    0    0    0  501 -0.00000000000E+00 -0.00000000000E+00 -0.36067189082E+02  0.36067189082E+02  0.00000000000E+00 0.  1.
          5    1    1    2  502    0 -0.21051738741E+00 -0.29992685585E+01 -0.36695758197E+00  0.55914745214E+01  0.47000000000E+01 0.  1.
         -5    1    1    2    0  502 -0.26552100828E+03 -0.38703878092E+01  0.12925336356E+04  0.13195384325E+04  0.47000000000E+01 0.  1.
        -11    1    1    2    0    0  0.20369862274E+03  0.29506256499E+02  0.61798028657E+03  0.65135503581E+03  0.00000000000E+00 0.  1.
         11    1    1    2    0    0  0.62032902927E+02 -0.22636600132E+02  0.37324015999E+03  0.37903655990E+03  0.00000000000E+00 0. -1.
<mgrwt>
<rscale>  0 0.29059559E+03</rscale>
<asrwt>0</asrwt>
<pdfrwt beam="1">  1        1 0.35683901E+00 0.29372529E+03</pdfrwt>
<pdfrwt beam="2">  1       -1 0.55488001E-02 0.29372529E+03</pdfrwt>
<totfact> 0.31252408E+02</totfact>
</mgrwt>
</event>
<event>
 6    1  0.8353100E-006  0.2718753E+03  0.7546771E-02  0.1100211E+00
          1   -1    0    0  501    0  0.00000000000E+00  0.00000000000E+00  0.11671253019E+04  0.11671253019E+04  0.00000000000E+00 0. -1.
         -1   -1    0    0    0  501 -0.00000000000E+00 -0.00000000000E+00 -0.15832961554E+02  0.15832961554E+02  0.00000000000E+00 0.  1.
          5    1    1    2  502    0  0.13311413952E+02 -0.26051340589E+02  0.66376930346E+03  0.66443031561E+03  0.47000000000E+01 0. -1.
         -5    1    1    2    0  502 -0.50422700182E+02 -0.22561031101E+01  0.11045662694E+03  0.12153310302E+03  0.47000000000E+01 0.  1.
        -11    1    1    2    0    0 -0.27451779973E+02  0.43279705056E+02  0.23066693494E+03  0.23629212422E+03  0.00000000000E+00 0.  1.
         11    1    1    2    0    0  0.64563066203E+02 -0.14972261357E+02  0.14639947502E+03  0.16070272062E+03  0.00000000000E+00 0. -1.
<mgrwt>
<rscale>  0 0.27187534E+03</rscale>
<asrwt>0</asrwt>
<pdfrwt beam="1">  1        1 0.17955767E+00 0.27187534E+03</pdfrwt>
<pdfrwt beam="2">  1       -1 0.24358412E-02 0.27187534E+03</pdfrwt>
<totfact> 0.61945438E+03</totfact>
</mgrwt>
</event>
<event>
 6    1  0.8353100E-006  0.1300242E+03  0.7546771E-02  0.1240818E+00
          2   -1    0    0  501    0  0.00000000000E+00  0.00000000000E+00  0.74325330505E+03  0.74325330505E+03  0.00000000000E+00 0. -1.
         -2   -1    0    0    0  501 -0.00000000000E+00 -0.00000000000E+00 -0.29591394105E+02  0.29591394105E+02  0.00000000000E+00 0.  1.
          5    1    1    2  502    0  0.19768191327E+02  0.17442068842E+02  0.26736752837E+02  0.37841129821E+02  0.47000000000E+01 0.  1.
         -5    1    1    2    0  502 -0.62113997643E+01 -0.50588192644E+02  0.60360911626E+03  0.60577537252E+03  0.47000000000E+01 0.  1.
        -11    1    1    2    0    0  0.30029901005E+02 -0.15188027167E+02  0.30313431640E+02  0.45292110366E+02  0.00000000000E+00 0.  1.
         11    1    1    2    0    0 -0.43586692567E+02  0.48334150970E+02  0.53002610205E+02  0.83936086443E+02  0.00000000000E+00 0. -1.
<mgrwt>
<rscale>  0 0.12139204E+03</rscale>
<asrwt>0</asrwt>
<pdfrwt beam="1">  1        2 0.11434665E+00 0.13002418E+03</pdfrwt>
<pdfrwt beam="2">  1       -2 0.45525227E-02 0.13002418E+03</pdfrwt>
<totfact> 0.84363698E+03</totfact>
</mgrwt>
</event>
<event>
 6    1  0.8353100E-006  0.1250153E+03  0.7546771E-02  0.1250348E+00
          1   -1    0    0  501    0  0.00000000000E+00  0.00000000000E+00  0.60458378407E+02  0.60458378407E+02  0.00000000000E+00 0. -1.
         -1   -1    0    0    0  501 -0.00000000000E+00 -0.00000000000E+00 -0.24732733314E+03  0.24732733314E+03  0.00000000000E+00 0.  1.
          5    1    1    2  502    0 -0.58333197881E+02 -0.19233329491E+02 -0.68758137393E+01  0.61984270206E+02  0.47000000000E+01 0.  1.
         -5    1    1    2    0  502  0.57936605116E+02  0.21206109970E+02 -0.27220787801E+02  0.67597415638E+02  0.47000000000E+01 0.  1.
        -11    1    1    2    0    0  0.32437668583E+02 -0.32523490633E+02 -0.93999729350E+02  0.10462279342E+03  0.00000000000E+00 0. -1.
         11    1    1    2    0    0 -0.32041075818E+02  0.30550710154E+02 -0.58772623845E+02  0.73581232282E+02  0.00000000000E+00 0.  1.
<mgrwt>
<rscale>  0 0.11570949E+03</rscale>
<asrwt>0</asrwt>
<pdfrwt beam="1">  1        1 0.93012886E-02 0.12501534E+03</pdfrwt>
<pdfrwt beam="2">  1       -1 0.38050360E-01 0.12501534E+03</pdfrwt>
<totfact> 0.45414419E+03</totfact>
</mgrwt>
</event>
<event>
 6    1  0.8353100E-006  0.2006608E+03  0.7546771E-02  0.1153377E+00
         -2   -1    0    0    0  501 -0.00000000000E+00  0.00000000000E+00  0.10081815621E+03  0.10081815621E+03  0.00000000000E+00 0. -1.
          2   -1    0    0  501    0  0.00000000000E+00 -0.00000000000E+00 -0.36935302670E+03  0.36935302670E+03  0.00000000000E+00 0.  1.
          5    1    1    2  502    0  0.17165544380E+02  0.86759419855E+02 -0.30820445954E+02  0.93775491128E+02  0.47000000000E+01 0. -1.
         -5    1    1    2    0  502  0.91565063456E+02  0.26455535396E+02 -0.14179242740E+03  0.17091295640E+03  0.47000000000E+01 0. -1.
        -11    1    1    2    0    0 -0.59565769287E+02 -0.11002187604E+03 -0.93436896955E+02  0.15615168200E+03  0.00000000000E+00 0.  1.
         11    1    1    2    0    0 -0.49164838550E+02 -0.31930792098E+01 -0.24851001887E+01  0.49331053378E+02  0.00000000000E+00 0. -1.
<mgrwt>
<rscale>  0 0.19574811E+03</rscale>
<asrwt>0</asrwt>
<pdfrwt beam="2">  1        2 0.56823542E-01 0.20066083E+03</pdfrwt>
<pdfrwt beam="1">  1       -2 0.15510486E-01 0.20066083E+03</pdfrwt>
<totfact> 0.27829702E+03</totfact>
</mgrwt>
</event>
<event>
 6    1  0.8921968E-006  0.3825963E+03  0.7546771E-02  0.1049978E+00
          1   -1    0    0  501    0  0.00000000000E+00  0.00000000000E+00  0.16361487602E+03  0.16361487602E+03  0.00000000000E+00 0. -1.
         -1   -1    0    0    0  501 -0.00000000000E+00 -0.00000000000E+00 -0.22366537218E+03  0.22366537218E+03  0.00000000000E+00 0.  1.
          5    1    1    2  502    0  0.18101070433E+02  0.21358941555E+02  0.51742099130E+02  0.59018539100E+02  0.47000000000E+01 0.  1.
         -5    1    1    2    0  502  0.10597008699E+03  0.70610135348E+02 -0.57381914485E+02  0.13975058018E+03  0.47000000000E+01 0.  1.
        -11    1    1    2    0    0 -0.84083532322E+02 -0.63615077523E+02  0.11837112327E+02  0.10609917872E+03  0.00000000000E+00 0. -1.
         11    1    1    2    0    0 -0.39987625097E+02 -0.28353999380E+02 -0.66247793134E+02  0.82411950206E+02  0.00000000000E+00 0.  1.
<mgrwt>
<rscale>  0 0.38259630E+03</rscale>
<asrwt>0</asrwt>
<pdfrwt beam="1">  1        1 0.25171520E-01 0.38259630E+03</pdfrwt>
<pdfrwt beam="2">  1       -1 0.34410057E-01 0.38259630E+03</pdfrwt>
<totfact> 0.15351948E+03</totfact>
</mgrwt>
</event>
<event>
 6    1  0.8353100E-006  0.2543807E+03  0.7546771E-02  0.1112884E+00
         -2   -1    0    0    0  501 -0.00000000000E+00  0.00000000000E+00  0.47798462668E+02  0.47798462668E+02  0.00000000000E+00 0.  1.
          2   -1    0    0  501    0  0.00000000000E+00 -0.00000000000E+00 -0.12862965423E+04  0.12862965423E+04  0.00000000000E+00 0. -1.
          5    1    1    2  502    0 -0.37990964053E+02  0.19096949143E+02 -0.17621005836E+03  0.18132865599E+03  0.47000000000E+01 0.  1.
         -5    1    1    2    0  502  0.22662286873E+02  0.20192335776E+03 -0.40616320650E+03  0.45417756656E+03  0.47000000000E+01 0.  1.
        -11    1    1    2    0    0 -0.22716858833E+02 -0.17874824511E+03 -0.44921372074E+03  0.48400408852E+03  0.00000000000E+00 0.  1.
         11    1    1    2    0    0  0.38045536013E+02 -0.42272061795E+02 -0.20691109407E+03  0.21458469393E+03  0.00000000000E+00 0. -1.
<mgrwt>
<rscale>  0 0.25066669E+03</rscale>
<asrwt>0</asrwt>
<pdfrwt beam="2">  1        2 0.19789179E+00 0.25438070E+03</pdfrwt>
<pdfrwt beam="1">  1       -2 0.73536091E-02 0.25438070E+03</pdfrwt>
<totfact> 0.19273684E+03</totfact>
</mgrwt>
</event>
<event>
 6    1  0.8353100E-006  0.1291637E+03  0.7546771E-02  0.1242693E+00
          2   -1    0    0  501    0  0.00000000000E+00  0.00000000000E+00  0.59926071648E+03  0.59926071648E+03  0.00000000000E+00 0. -1.
         -2   -1    0    0    0  501 -0.00000000000E+00 -0.00000000000E+00 -0.21547362621E+02  0.21547362621E+02  0.00000000000E+00 0.  1.
          5    1    1    2  502    0  0.49602069305E+02  0.60580552951E+01  0.44220819457E+02  0.66892721478E+02  0.47000000000E+01 0.  1.
         -5    1    1    2    0  502 -0.30992624812E+02 -0.32721734059E+02  0.25531478388E+03  0.25930480817E+03  0.47000000000E+01 0.  1.
        -11    1    1    2    0    0 -0.44628768680E+02  0.14530058284E+02  0.25005641775E+03  0.25442299747E+03  0.00000000000E+00 0. -1.
         11    1    1    2    0    0  0.26019324187E+02  0.12133620480E+02  0.28121332781E+02  0.40187551984E+02  0.00000000000E+00 0.  1.
<mgrwt>
<rscale>  0 0.12024540E+03</rscale>
<asrwt>0</asrwt>
<pdfrwt beam="1">  1        2 0.92193944E-01 0.12916366E+03</pdfrwt>
<pdfrwt beam="2">  1       -2 0.33149793E-02 0.12916366E+03</pdfrwt>
<totfact> 0.17361005E+04</totfact>
</mgrwt>
</event>
<event>
 6    1  0.8353100E-006  0.2360337E+03  0.7546771E-02  0.1125669E+00
          2   -1    0    0  501    0  0.00000000000E+00  0.00000000000E+00  0.70960424668E+03  0.70960424668E+03  0.00000000000E+00 0. -1.
         -2   -1    0    0    0  501 -0.00000000000E+00 -0.00000000000E+00 -0.85643803108E+02  0.85643803108E+02  0.00000000000E+00 0.  1.
          5    1    1    2  502    0 -0.92577294803E+02  0.88485675976E+02  0.28341695563E+02  0.13124637928E+03  0.47000000000E+01 0.  1.
         -5    1    1    2    0  502 -0.68690539804E+02  0.30180471933E+02  0.13920891311E+03  0.15821018499E+03  0.47000000000E+01 0.  1.
        -11    1    1    2    0    0  0.11958589848E+03 -0.68480587558E+02  0.21221693894E+03  0.25303439917E+03  0.00000000000E+00 0.  1.
         11    1    1    2    0    0  0.41681936126E+02 -0.50185560351E+02  0.24419289596E+03  0.25275708636E+03  0.00000000000E+00 0. -1.
<mgrwt>
<rscale>  0 0.23138458E+03</rscale>
<asrwt>0</asrwt>
<pdfrwt beam="1">  1        2 0.10916988E+00 0.23603368E+03</pdfrwt>
<pdfrwt beam="2">  1       -2 0.13175970E-01 0.23603368E+03</pdfrwt>
<totfact> 0.17462128E+03</totfact>
</mgrwt>
</event>
<event>
 6    1  0.8353100E-006  0.1763474E+03  0.7546771E-02  0.1176809E+00
         -1   -1    0    0    0  501 -0.00000000000E+00  0.00000000000E+00  0.21002549970E+03  0.21002549970E+03  0.00000000000E+00 0.  1.
          1   -1    0    0  501    0  0.00000000000E+00 -0.00000000000E+00 -0.15688428149E+03  0.15688428149E+03  0.00000000000E+00 0. -1.
          5    1    1    2  502    0 -0.30881379906E+02  0.47652013426E+02 -0.79698481383E+02  0.97970975004E+02  0.47000000000E+01 0. -1.
         -5    1    1    2    0  502 -0.74951797291E+02  0.17691613289E+02  0.33827564759E+02  0.84244639209E+02  0.47000000000E+01 0. -1.
        -11    1    1    2    0    0  0.23231032505E+02  0.18164343971E+02 -0.22994994573E+01  0.29578910746E+02  0.00000000000E+00 0. -1.
         11    1    1    2    0    0  0.82602144691E+02 -0.83507970686E+02  0.10131163429E+03  0.15511525624E+03  0.00000000000E+00 0.  1.
<mgrwt>
<rscale>  0 0.17100017E+03</rscale>
<asrwt>0</asrwt>
<pdfrwt beam="2">  1        1 0.24136043E-01 0.17634735E+03</pdfrwt>
<pdfrwt beam="1">  1       -1 0.32311615E-01 0.17634735E+03</pdfrwt>
<totfact> 0.17746751E+03</totfact>
</mgrwt>
</event>
<event>
 6    1  0.8353100E-006  0.1269940E+03  0.7546771E-02  0.1247207E+00
          1   -1    0    0  501    0  0.00000000000E+00  0.00000000000E+00  0.22928562938E+03  0.22928562938E+03  0.00000000000E+00 0. -1.
         -1   -1    0    0    0  501 -0.00000000000E+00 -0.00000000000E+00 -0.54057600645E+02  0.54057600645E+02  0.00000000000E+00 0.  1.
          5    1    1    2  502    0  0.28839265170E+02 -0.18856729247E+02  0.11656178517E+03  0.12163888859E+03  0.47000000000E+01 0.  1.
         -5    1    1    2    0  502 -0.35572964585E+02  0.40241999794E+02  0.49814317796E+01  0.54145720231E+02  0.47000000000E+01 0.  1.
        -11    1    1    2    0    0 -0.17432576681E+02  0.23263519191E+02 -0.54956028713E+01  0.29585261631E+02  0.00000000000E+00 0.  1.
         11    1    1    2    0    0  0.24166276096E+02 -0.44648789738E+02  0.59180414656E+02  0.77973359580E+02  0.00000000000E+00 0. -1.
<mgrwt>
<rscale>  0 0.11754248E+03</rscale>
<asrwt>0</asrwt>
<pdfrwt beam="1">  1        1 0.35274712E-01 0.12699400E+03</pdfrwt>
<pdfrwt beam="2">  1       -1 0.83165541E-02 0.12699400E+03</pdfrwt>
<totfact> 0.93948386E+03</totfact>
</mgrwt>
</event>
<event>
 6    1  0.8353100E-006  0.2146225E+03  0.7546771E-02  0.1141451E+00
         -2   -1    0    0    0  501 -0.00000000000E+00  0.00000000000E+00  0.10141828085E+03  0.10141828085E+03  0.00000000000E+00 0.  1.
          2   -1    0    0  501    0  0.00000000000E+00 -0.00000000000E+00 -0.41936069439E+03  0.41936069439E+03  0.00000000000E+00 0. -1.
          5    1    1    2  502    0 -0.38155287019E+02  0.14395022824E+03 -0.16081746435E+03  0.21923010965E+03  0.47000000000E+01 0. -1.
         -5    1    1    2    0  502 -0.57312763766E+02  0.20717482609E+01 -0.18497945364E+02  0.60442609259E+02  0.47000000000E+01 0. -1.
        -11    1    1    2    0    0  0.13900109028E+02 -0.15076886509E+02  0.13413987106E+02  0.24504297334E+02  0.00000000000E+00 0.  1.
         11    1    1    2    0    0  0.81567941757E+02 -0.13094508999E+03 -0.15204099094E+03  0.21660195900E+03  0.00000000000E+00 0. -1.
<mgrwt>
<rscale>  0 0.21014582E+03</rscale>
<asrwt>0</asrwt>
<pdfrwt beam="2">  1        2 0.64517029E-01 0.21462249E+03</pdfrwt>
<pdfrwt beam="1">  1       -2 0.15602813E-01 0.21462249E+03</pdfrwt>
<totfact> 0.24065605E+03</totfact>
</mgrwt>
</event>
<event>
 6    1  0.8353100E-006  0.1339683E+03  0.7546771E-02  0.1234817E+00
         -1   -1    0    0    0  501 -0.00000000000E+00  0.00000000000E+00  0.82401053127E+02  0.82401053127E+02  0.00000000000E+00 0.  1.
          1   -1    0    0  501    0  0.00000000000E+00 -0.00000000000E+00 -0.17106632011E+03  0.17106632011E+03  0.00000000000E+00 0. -1.
          5    1    1    2  502    0 -0.34207854296E+02 -0.36624412329E+02  0.12987705872E+02  0.51983606818E+02  0.47000000000E+01 0. -1.
         -5    1    1    2    0  502  0.71009156721E+02  0.55266472054E+01 -0.49526639374E+02  0.86878203108E+02  0.47000000000E+01 0. -1.
        -11    1    1    2    0    0  0.15838698889E+01 -0.28738550734E+02 -0.47401610636E+01  0.29169882911E+02  0.00000000000E+00 0.  1.
         11    1    1    2    0    0 -0.38385172314E+02  0.59836315858E+02 -0.47386172416E+02  0.85435680400E+02  0.00000000000E+00 0. -1.
<mgrwt>
<rscale>  0 0.12516153E+03</rscale>
<asrwt>0</asrwt>
<pdfrwt beam="2">  1        1 0.26317895E-01 0.13396831E+03</pdfrwt>
<pdfrwt beam="1">  1       -1 0.12677085E-01 0.13396831E+03</pdfrwt>
<totfact> 0.71289485E+03</totfact>
</mgrwt>
</event>
<event>
 6    1  0.8353100E-006  0.1281387E+03  0.7546771E-02  0.1244398E+00
          1   -1    0    0  501    0  0.00000000000E+00  0.00000000000E+00  0.66345976575E+03  0.66345976575E+03  0.00000000000E+00 0. -1.
         -1   -1    0    0    0  501 -0.00000000000E+00 -0.00000000000E+00 -0.22034843521E+02  0.22034843521E+02  0.00000000000E+00 0.  1.
          5    1    1    2  502    0 -0.56287883912E+02 -0.53115112873E+02  0.26488195131E+03  0.27599652030E+03  0.47000000000E+01 0. -1.
         -5    1    1    2    0  502  0.34499918424E+02  0.35222380119E+02  0.22283511046E+03  0.22827272480E+03  0.47000000000E+01 0. -1.
        -11    1    1    2    0    0  0.54027611219E+02  0.29701092852E+02  0.10026876973E+03  0.11770711055E+03  0.00000000000E+00 0.  1.
         11    1    1    2    0    0 -0.32239645732E+02 -0.11808360098E+02  0.53439090739E+02  0.63518253630E+02  0.00000000000E+00 0. -1.
<mgrwt>
<rscale>  0 0.11921510E+03</rscale>
<asrwt>0</asrwt>
<pdfrwt beam="1">  1        1 0.10207072E+00 0.12813875E+03</pdfrwt>
<pdfrwt beam="2">  1       -1 0.33899764E-02 0.12813875E+03</pdfrwt>
<totfact> 0.91587644E+03</totfact>
</mgrwt>
</event>
<event>
 6    1  0.8353100E-006  0.1400240E+03  0.7546771E-02  0.1223989E+00
         -3   -1    0    0    0  501 -0.00000000000E+00  0.00000000000E+00  0.31712577458E+03  0.31712577458E+03  0.00000000000E+00 0.  1.
          3   -1    0    0  501    0  0.00000000000E+00 -0.00000000000E+00 -0.50493207593E+02  0.50493207593E+02  0.00000000000E+00 0. -1.
          5    1    1    2  502    0  0.35483359293E+02  0.27365918397E+02  0.43655002669E+02  0.62736046532E+02  0.47000000000E+01 0. -1.
         -5    1    1    2    0  502 -0.12998349078E+02 -0.93211335454E+02  0.12258697509E+03  0.15461877828E+03  0.47000000000E+01 0.  1.
        -11    1    1    2    0    0 -0.46861658747E+02  0.12564389473E+02  0.67326003693E+02  0.82985960961E+02  0.00000000000E+00 0.  1.
         11    1    1    2    0    0  0.24376648531E+02  0.53281027584E+02  0.33064585541E+02  0.67278196401E+02  0.00000000000E+00 0. -1.
<mgrwt>
<rscale>  0 0.13236409E+03</rscale>
<asrwt>0</asrwt>
<pdfrwt beam="2">  1        3 0.77681860E-02 0.14002401E+03</pdfrwt>
<pdfrwt beam="1">  1       -3 0.48788579E-01 0.14002401E+03</pdfrwt>
<totfact> 0.10881533E+03</totfact>
</mgrwt>
</event>
<event>
 6    1  0.8353100E-006  0.1785430E+03  0.7546771E-02  0.1174918E+00
         -1   -1    0    0    0  501 -0.00000000000E+00  0.00000000000E+00  0.65264780719E+02  0.65264780719E+02  0.00000000000E+00 0.  1.
          1   -1    0    0  501    0  0.00000000000E+00 -0.00000000000E+00 -0.46246966704E+03  0.46246966704E+03  0.00000000000E+00 0. -1.
          5    1    1    2  502    0  0.19487915542E+02  0.33018628709E+01 -0.87980117685E+02  0.90295471971E+02  0.47000000000E+01 0. -1.
         -5    1    1    2    0  502 -0.13722646526E+03 -0.52196016655E+02 -0.19156281631E+03  0.24139993686E+03  0.47000000000E+01 0. -1.
        -11    1    1    2    0    0 -0.86284164261E+01  0.26516875459E+02 -0.14794364503E+02  0.31566873066E+02  0.00000000000E+00 0. -1.
         11    1    1    2    0    0  0.12636696615E+03  0.22377278326E+02 -0.10286758782E+03  0.16447216586E+03  0.00000000000E+00 0.  1.
<mgrwt>
<rscale>  0 0.17284037E+03</rscale>
<asrwt>0</asrwt>
<pdfrwt beam="2">  1        1 0.71149182E-01 0.17854297E+03</pdfrwt>
<pdfrwt beam="1">  1       -1 0.10040735E-01 0.17854297E+03</pdfrwt>
<totfact> 0.29843424E+03</totfact>
</mgrwt>
</event>
<event>
 6    1  0.8353100E-006  0.1550774E+03  0.7546771E-02  0.1216806E+00
         -2   -1    0    0    0  501 -0.00000000000E+00  0.00000000000E+00  0.27387588481E+02  0.27387588481E+02  0.00000000000E+00 0.  1.
          2   -1    0    0  501    0  0.00000000000E+00 -0.00000000000E+00 -0.17091726322E+04  0.17091726322E+04  0.00000000000E+00 0. -1.
          5    1    1    2  502    0 -0.47081302882E+02  0.67490212311E+02 -0.12705220701E+04  0.12731928363E+04  0.47000000000E+01 0. -1.
         -5    1    1    2    0  502  0.33147499507E+02 -0.46253156073E+02 -0.33815142160E+03  0.34293816513E+03  0.47000000000E+01 0.  1.
        -11    1    1    2    0    0  0.44199401372E+02 -0.29984711761E+02 -0.16951244485E+02  0.56035834166E+02  0.00000000000E+00 0.  1.
         11    1    1    2    0    0 -0.30265597998E+02  0.87476555227E+01 -0.56160307574E+02  0.64393385112E+02  0.00000000000E+00 0. -1.
<mgrwt>
<rscale>  0 0.13744721E+03</rscale>
<asrwt>0</asrwt>
<pdfrwt beam="2">  1        2 0.26294955E+00 0.15507744E+03</pdfrwt>
<pdfrwt beam="1">  1       -2 0.42134765E-02 0.15507744E+03</pdfrwt>
<totfact> 0.26850794E+03</totfact>
</mgrwt>
</event>
<event>
 6    1  0.8353100E-006  0.1262000E+03  0.7546771E-02  0.1248361E+00
          1   -1    0    0  501    0  0.00000000000E+00  0.00000000000E+00  0.65907731060E+03  0.65907731060E+03  0.00000000000E+00 0. -1.
         -1   -1    0    0    0  501 -0.00000000000E+00 -0.00000000000E+00 -0.18211069317E+02  0.18211069317E+02  0.00000000000E+00 0.  1.
          5    1    1    2  502    0  0.46645508112E+02 -0.14526724436E+02  0.59518611206E+02  0.77145215210E+02  0.47000000000E+01 0.  1.
         -5    1    1    2    0  502 -0.42041050552E+02 -0.22515845909E+01  0.32032810371E+03  0.32311716697E+03  0.47000000000E+01 0.  1.
        -11    1    1    2    0    0  0.40584713594E+02  0.13234509179E+02  0.83098785085E+02  0.93422049289E+02  0.00000000000E+00 0.  1.
         11    1    1    2    0    0 -0.45189171154E+02  0.35437998474E+01  0.17792074128E+03  0.18360394844E+03  0.00000000000E+00 0. -1.
<mgrwt>
<rscale>  0 0.11686485E+03</rscale>
<asrwt>0</asrwt>
<pdfrwt beam="1">  1        1 0.10139649E+00 0.12620003E+03</pdfrwt>
<pdfrwt beam="2">  1       -1 0.28017035E-02 0.12620003E+03</pdfrwt>
<totfact> 0.12184846E+04</totfact>
</mgrwt>
</event>
<event>
 6    1  0.8353100E-006  0.1383106E+03  0.7546771E-02  0.1226729E+00
         -2   -1    0    0    0  501 -0.00000000000E+00  0.00000000000E+00  0.17720665646E+02  0.17720665646E+02  0.00000000000E+00 0.  1.
          2   -1    0    0  501    0  0.00000000000E+00 -0.00000000000E+00 -0.95861854250E+03  0.95861854250E+03  0.00000000000E+00 0. -1.
          5    1    1    2  502    0 -0.29906800690E+02  0.30060494310E+02 -0.42995455626E+03  0.43206603719E+03  0.47000000000E+01 0.  1.
         -5    1    1    2    0  502  0.76454472868E+02  0.65210821779E+01 -0.23982209943E+03  0.25184229253E+03  0.47000000000E+01 0.  1.
        -11    1    1    2    0    0 -0.55846406064E+02  0.14370461608E+02 -0.14983688259E+03  0.16055037409E+03  0.00000000000E+00 0.  1.
         11    1    1    2    0    0  0.92987338867E+01 -0.50952038096E+02 -0.12128433858E+03  0.13188050433E+03  0.00000000000E+00 0. -1.
<mgrwt>
<rscale>  0 0.13049099E+03</rscale>
<asrwt>0</asrwt>
<pdfrwt beam="2">  1        2 0.14747975E+00 0.13831065E+03</pdfrwt>
<pdfrwt beam="1">  1       -2 0.27262567E-02 0.13831065E+03</pdfrwt>
<totfact> 0.13072592E+04</totfact>
</mgrwt>
</event>
<event>
 6    1  0.8353100E-006  0.1258331E+03  0.7546771E-02  0.1249529E+00
         -4   -1    0    0    0  501 -0.00000000000E+00  0.00000000000E+00  0.13009521729E+03  0.13009521729E+03  0.00000000000E+00 0.  1.
          4   -1    0    0  501    0  0.00000000000E+00 -0.00000000000E+00 -0.11943126691E+03  0.11943126691E+03  0.00000000000E+00 0. -1.
          5    1    1    2  502    0  0.45960828510E+02  0.13255240601E+02 -0.69954548565E+02  0.84875367602E+02  0.47000000000E+01 0.  1.
         -5    1    1    2    0  502 -0.41758493197E+02 -0.27080769754E+02  0.15348326316E+02  0.52295324507E+02  0.47000000000E+01 0.  1.
        -11    1    1    2    0    0 -0.44950099105E+02  0.21748905107E+02  0.34964400298E+02  0.60959294378E+02  0.00000000000E+00 0. -1.
         11    1    1    2    0    0  0.40747763792E+02 -0.79233759538E+01  0.30305772326E+02  0.51396497710E+02  0.00000000000E+00 0.  1.
<mgrwt>
<rscale>  0 0.11618376E+03</rscale>
<asrwt>0</asrwt>
<pdfrwt beam="2">  1        4 0.18374041E-01 0.12583306E+03</pdfrwt>
<pdfrwt beam="1">  1       -4 0.20014649E-01 0.12583306E+03</pdfrwt>
<totfact> 0.96232799E+02</totfact>
</mgrwt>
</event>
<event>
 6    1  0.8353100E-006  0.1278528E+03  0.7546771E-02  0.1244735E+00
          3   -1    0    0  501    0  0.00000000000E+00  0.00000000000E+00  0.82967078685E+02  0.82967078685E+02  0.00000000000E+00 0. -1.
         -3   -1    0    0    0  501 -0.00000000000E+00 -0.00000000000E+00 -0.18178579843E+03  0.18178579843E+03  0.00000000000E+00 0.  1.
          5    1    1    2  502    0 -0.43672415764E+01 -0.45761076152E+02 -0.51378089116E+02  0.69100990809E+02  0.47000000000E+01 0.  1.
         -5    1    1    2    0  502  0.19133300550E+02  0.23420906958E+02  0.50157221176E+02  0.58757628515E+02  0.47000000000E+01 0.  1.
        -11    1    1    2    0    0 -0.39280374824E+02  0.29280473762E+02 -0.99946341444E+02  0.11130842357E+03  0.00000000000E+00 0.  1.
         11    1    1    2    0    0  0.24514315850E+02 -0.69403045679E+01  0.23484896386E+01  0.25585834219E+02  0.00000000000E+00 0. -1.
<mgrwt>
<rscale>  0 0.11901256E+03</rscale>
<asrwt>0</asrwt>
<pdfrwt beam="1">  1        3 0.12764166E-01 0.12785279E+03</pdfrwt>
<pdfrwt beam="2">  1       -3 0.27967046E-01 0.12785279E+03</pdfrwt>
<totfact> 0.13625541E+03</totfact>
</mgrwt>
</event>
<event>
 6    1  0.8353100E-006  0.3728141E+03  0.7546771E-02  0.1053622E+00
         -2   -1    0    0    0  501 -0.00000000000E+00  0.00000000000E+00  0.28579568151E+02  0.28579568151E+02  0.00000000000E+00 0.  1.
          2   -1    0    0  501    0  0.00000000000E+00 -0.00000000000E+00 -0.12158192084E+04  0.12158192084E+04  0.00000000000E+00 0. -1.
          5    1    1    2  502    0 -0.10162734483E+03 -0.67050610794E+02 -0.70198080976E+03  0.71247670060E+03  0.47000000000E+01 0.  1.
         -5    1    1    2    0  502 -0.24041374962E+02 -0.12492627256E+02 -0.17085092408E+02  0.32373505037E+02  0.47000000000E+01 0.  1.
        -11    1    1    2    0    0  0.80917909698E+02 -0.17934383658E+01 -0.23653087107E+03  0.24999555496E+03  0.00000000000E+00 0.  1.
         11    1    1    2    0    0  0.44750810099E+02  0.81336676416E+02 -0.23164286704E+03  0.24955301598E+03  0.00000000000E+00 0. -1.
<mgrwt>
<rscale>  0 0.37281410E+03</rscale>
<asrwt>0</asrwt>
<pdfrwt beam="2">  1        2 0.18704911E+00 0.37281410E+03</pdfrwt>
<pdfrwt beam="1">  1       -2 0.43968567E-02 0.37281410E+03</pdfrwt>
<totfact> 0.46783044E+03</totfact>
</mgrwt>
</event>
<event>
 6    1  0.8353100E-006  0.4032918E+03  0.7546771E-02  0.1042646E+00
         -2   -1    0    0    0  501 -0.00000000000E+00  0.00000000000E+00  0.48932983328E+02  0.48932983328E+02  0.00000000000E+00 0.  1.
          2   -1    0    0  501    0  0.00000000000E+00 -0.00000000000E+00 -0.83095421149E+03  0.83095421149E+03  0.00000000000E+00 0. -1.
          5    1    1    2  502    0 -0.48336544102E+02 -0.68972683535E+01 -0.25130170396E+03  0.25604419583E+03  0.47000000000E+01 0. -1.
         -5    1    1    2    0  502 -0.15090921469E+01  0.12700463582E+03 -0.39393475754E+03  0.41393132048E+03  0.47000000000E+01 0. -1.
        -11    1    1    2    0    0  0.13132400815E+02 -0.56915044752E+02 -0.12212240816E+03  0.13537231934E+03  0.00000000000E+00 0.  1.
         11    1    1    2    0    0  0.36713235434E+02 -0.63192322718E+02 -0.14662358504E+02  0.74539359156E+02  0.00000000000E+00 0. -1.
<mgrwt>
<rscale>  0 0.40329180E+03</rscale>
<asrwt>0</asrwt>
<pdfrwt beam="2">  1        2 0.12783909E+00 0.40329180E+03</pdfrwt>
<pdfrwt beam="1">  1       -2 0.75281522E-02 0.40329180E+03</pdfrwt>
<totfact> 0.35305280E+03</totfact>
</mgrwt>
</event>
<event>
 6    1  0.8353100E-006  0.1823642E+03  0.7546771E-02  0.1171036E+00
         -2   -1    0    0    0  501 -0.00000000000E+00  0.00000000000E+00  0.11439008342E+03  0.11439008342E+03  0.00000000000E+00 0.  1.
          2   -1    0    0  501    0  0.00000000000E+00 -0.00000000000E+00 -0.73812747391E+03  0.73812747391E+03  0.00000000000E+00 0. -1.
          5    1    1    2  502    0  0.19447639626E+01 -0.79097888107E+02 -0.30745509807E+03  0.31750745714E+03  0.47000000000E+01 0.  1.
         -5    1    1    2    0  502  0.10267934154E+03 -0.26678968247E+01 -0.35506942372E+03  0.36965734203E+03  0.47000000000E+01 0.  1.
        -11    1    1    2    0    0 -0.60541097208E+02  0.61281220707E+02  0.67015715793E+02  0.10914082016E+03  0.00000000000E+00 0.  1.
         11    1    1    2    0    0 -0.44083008297E+02  0.20484564224E+02 -0.28228584491E+02  0.56211938005E+02  0.00000000000E+00 0. -1.
<mgrwt>
<rscale>  0 0.17669946E+03</rscale>
<asrwt>0</asrwt>
<pdfrwt beam="2">  1        2 0.11355807E+00 0.18236425E+03</pdfrwt>
<pdfrwt beam="1">  1       -2 0.17598475E-01 0.18236425E+03</pdfrwt>
<totfact> 0.10295198E+03</totfact>
</mgrwt>
</event>
<event>
 6    1  0.8353100E-006  0.1813535E+03  0.7546771E-02  0.1172183E+00
          2   -1    0    0  501    0  0.00000000000E+00  0.00000000000E+00  0.19942030176E+03  0.19942030176E+03  0.00000000000E+00 0. -1.
         -2   -1    0    0    0  501 -0.00000000000E+00 -0.00000000000E+00 -0.15737641794E+03  0.15737641794E+03  0.00000000000E+00 0.  1.
          5    1    1    2  502    0  0.23724886326E+02 -0.55488829421E+02  0.62770601067E+02  0.87201598494E+02  0.47000000000E+01 0. -1.
         -5    1    1    2    0  502  0.10418839358E+03  0.25428053017E+02  0.86105183598E+01  0.10769418862E+03  0.47000000000E+01 0. -1.
        -11    1    1    2    0    0 -0.96959430545E+02 -0.68356839160E+01  0.12633892236E+02  0.98017717680E+02  0.00000000000E+00 0. -1.
         11    1    1    2    0    0 -0.30953849356E+02  0.36896460320E+02 -0.41971127842E+02  0.63883214904E+02  0.00000000000E+00 0.  1.
<mgrwt>
<rscale>  0 0.17554740E+03</rscale>
<asrwt>0</asrwt>
<pdfrwt beam="1">  1        2 0.30680046E-01 0.18135353E+03</pdfrwt>
<pdfrwt beam="2">  1       -2 0.24211757E-01 0.18135353E+03</pdfrwt>
<totfact> 0.25265478E+03</totfact>
</mgrwt>
</event>
<event>
 6    1  0.8353100E-006  0.1615623E+03  0.7546771E-02  0.1194509E+00
          2   -1    0    0  501    0  0.00000000000E+00  0.00000000000E+00  0.35740073640E+03  0.35740073640E+03  0.00000000000E+00 0. -1.
         -2   -1    0    0    0  501 -0.00000000000E+00 -0.00000000000E+00 -0.84007688294E+02  0.84007688294E+02  0.00000000000E+00 0.  1.
          5    1    1    2  502    0 -0.66522305472E+02 -0.32394475273E+02  0.80372100786E+02  0.10934525019E+03  0.47000000000E+01 0.  1.
         -5    1    1    2    0  502  0.44087736919E+02 -0.67476980351E+02  0.17682115769E+03  0.19438282648E+03  0.47000000000E+01 0.  1.
        -11    1    1    2    0    0  0.18052255540E+02  0.15694325622E+02  0.43021740445E+02  0.49224647665E+02  0.00000000000E+00 0. -1.
         11    1    1    2    0    0  0.43823130130E+01  0.84177130003E+02 -0.26821950807E+02  0.88455700370E+02  0.00000000000E+00 0.  1.
<mgrwt>
<rscale>  0 0.15495877E+03</rscale>
<asrwt>0</asrwt>
<pdfrwt beam="1">  1        2 0.54984728E-01 0.16156229E+03</pdfrwt>
<pdfrwt beam="2">  1       -2 0.12924260E-01 0.16156229E+03</pdfrwt>
<totfact> 0.38512890E+03</totfact>
</mgrwt>
</event>
<event>
 6    1  0.8353100E-006  0.1256711E+03  0.7546771E-02  0.1249270E+00
         -2   -1    0    0    0  501 -0.00000000000E+00  0.00000000000E+00  0.35296735934E+03  0.35296735934E+03  0.00000000000E+00 0.  1.
          2   -1    0    0  501    0  0.00000000000E+00 -0.00000000000E+00 -0.12440012231E+03  0.12440012231E+03  0.00000000000E+00 0. -1.
          5    1    1    2  502    0  0.29038566524E+02  0.49970892010E+02 -0.85757385297E+02  0.10352172490E+03  0.47000000000E+01 0. -1.
         -5    1    1    2    0  502 -0.17664615879E+02 -0.44083862989E+02  0.15580115263E+01  0.47748748990E+02  0.47000000000E+01 0. -1.
        -11    1    1    2    0    0  0.32723305248E+02 -0.15695549785E+02  0.21933360212E+03  0.22231597786E+03  0.00000000000E+00 0.  1.
         11    1    1    2    0    0 -0.44097255893E+02  0.98085207644E+01  0.93433008672E+02  0.10378102990E+03  0.00000000000E+00 0. -1.
<mgrwt>
<rscale>  0 0.11633434E+03</rscale>
<asrwt>0</asrwt>
<pdfrwt beam="2">  1        2 0.19138480E-01 0.12567109E+03</pdfrwt>
<pdfrwt beam="1">  1       -2 0.54302670E-01 0.12567109E+03</pdfrwt>
<totfact> 0.93171636E+02</totfact>
</mgrwt>
</event>
<event>
 6    1  0.8353100E-006  0.1270463E+03  0.7546771E-02  0.1246500E+00
          1   -1    0    0  501    0  0.00000000000E+00  0.00000000000E+00  0.76567427769E+03  0.76567427769E+03  0.00000000000E+00 0. -1.
         -1   -1    0    0    0  501 -0.00000000000E+00 -0.00000000000E+00 -0.19909478077E+02  0.19909478077E+02  0.00000000000E+00 0.  1.
          5    1    1    2  502    0 -0.39969161752E+02 -0.23403124994E+02  0.10811364076E+03  0.11771104225E+03  0.47000000000E+01 0. -1.
         -5    1    1    2    0  502  0.60153257807E+02  0.12992568837E+02  0.48117426734E+03  0.48511646727E+03  0.47000000000E+01 0. -1.
        -11    1    1    2    0    0  0.11680863145E+02  0.25012559250E+02  0.59989530957E+01  0.28249922518E+02  0.00000000000E+00 0.  1.
         11    1    1    2    0    0 -0.31864959200E+02 -0.14602003093E+02  0.15047793843E+03  0.15450632373E+03  0.00000000000E+00 0. -1.
<mgrwt>
<rscale>  0 0.11796025E+03</rscale>
<asrwt>0</asrwt>
<pdfrwt beam="1">  1        1 0.11779602E+00 0.12704632E+03</pdfrwt>
<pdfrwt beam="2">  1       -1 0.30629972E-02 0.12704632E+03</pdfrwt>
<totfact> 0.86380661E+03</totfact>
</mgrwt>
</event>
<event>
 6    1  0.1073179E-005  0.4162767E+03  0.7546771E-02  0.1038285E+00
          1   -1    0    0  501    0  0.00000000000E+00  0.00000000000E+00  0.14088441825E+04  0.14088441825E+04  0.00000000000E+00 0. -1.
         -1   -1    0    0    0  501 -0.00000000000E+00 -0.00000000000E+00 -0.30749722144E+02  0.30749722144E+02  0.00000000000E+00 0.  1.
          5    1    1    2  502    0 -0.17199513858E+02  0.14624653976E+02  0.65644924044E+02  0.69577653263E+02  0.47000000000E+01 0.  1.
         -5    1    1    2    0  502  0.19102951378E+03  0.75298787671E+01  0.74723219873E+03  0.77131512563E+03  0.47000000000E+01 0.  1.
        -11    1    1    2    0    0 -0.80254521910E+02  0.67627687778E+01  0.13265926063E+03  0.15519343659E+03  0.00000000000E+00 0. -1.
         11    1    1    2    0    0 -0.93575478008E+02 -0.28917301521E+02  0.43255807696E+03  0.44350768917E+03  0.00000000000E+00 0.  1.
<mgrwt>
<rscale>  0 0.41627667E+03</rscale>
<asrwt>0</asrwt>
<pdfrwt beam="1">  1        1 0.21674521E+00 0.41627667E+03</pdfrwt>
<pdfrwt beam="2">  1       -1 0.47307276E-02 0.41627667E+03</pdfrwt>
<totfact> 0.15688462E+03</totfact>
</mgrwt>
</event>
<event>
 6    1  0.8353100E-006  0.2102888E+03  0.7546771E-02  0.1144897E+00
          2   -1    0    0  501    0  0.00000000000E+00  0.00000000000E+00  0.99435538700E+03  0.99435538700E+03  0.00000000000E+00 0. -1.
         -2   -1    0    0    0  501 -0.00000000000E+00 -0.00000000000E+00 -0.46955914760E+02  0.46955914760E+02  0.00000000000E+00 0.  1.
          5    1    1    2  502    0  0.42539190277E+02  0.13779793447E+03  0.58910204476E+03  0.60651559138E+03  0.47000000000E+01 0.  1.
         -5    1    1    2    0  502  0.52459157481E+02  0.21010574147E+01  0.88930786336E+02  0.10337868448E+03  0.47000000000E+01 0.  1.
        -11    1    1    2    0    0 -0.40438494596E+02 -0.19167846106E+02  0.13705502644E+03  0.14417613687E+03  0.00000000000E+00 0. -1.
         11    1    1    2    0    0 -0.54559853162E+02 -0.12073114578E+03  0.13231161471E+03  0.18724088903E+03  0.00000000000E+00 0.  1.
<mgrwt>
<rscale>  0 0.20584716E+03</rscale>
<asrwt>0</asrwt>
<pdfrwt beam="1">  1        2 0.15297774E+00 0.21028876E+03</pdfrwt>
<pdfrwt beam="2">  1       -2 0.72239876E-02 0.21028876E+03</pdfrwt>
<totfact> 0.29202592E+03</totfact>
</mgrwt>
</event>
<event>
 6    1  0.8353100E-006  0.1317862E+03  0.7546771E-02  0.1235267E+00
         -2   -1    0    0    0  501 -0.00000000000E+00  0.00000000000E+00  0.22896562187E+03  0.22896562187E+03  0.00000000000E+00 0. -1.
          2   -1    0    0  501    0  0.00000000000E+00 -0.00000000000E+00 -0.63770814048E+02  0.63770814048E+02  0.00000000000E+00 0.  1.
          5    1    1    2  502    0  0.88593795573E+01  0.44100952937E+02  0.27681416287E+02  0.53025781123E+02  0.47000000000E+01 0. -1.
         -5    1    1    2    0  502 -0.26552283430E+02 -0.81908776077E+02  0.38319050238E+02  0.94363716358E+02  0.47000000000E+01 0. -1.
        -11    1    1    2    0    0  0.26716601346E+02 -0.48770143076E+01 -0.90618809882E+01  0.28630049652E+02  0.00000000000E+00 0.  1.
         11    1    1    2    0    0 -0.90236974741E+01  0.42684837448E+02  0.10825622228E+03  0.11671688878E+03  0.00000000000E+00 0. -1.
<mgrwt>
<rscale>  0 0.12487370E+03</rscale>
<asrwt>0</asrwt>
<pdfrwt beam="2">  1        2 0.98108945E-02 0.13178620E+03</pdfrwt>
<pdfrwt beam="1">  1       -2 0.35225480E-01 0.13178620E+03</pdfrwt>
<totfact> 0.47316079E+03</totfact>
</mgrwt>
</event>
<event>
 6    1  0.8353100E-006  0.1240107E+03  0.7546771E-02  0.1253035E+00
         -1   -1    0    0    0  501 -0.00000000000E+00  0.00000000000E+00  0.29713043427E+02  0.29713043427E+02  0.00000000000E+00 0.  1.
          1   -1    0    0  501    0  0.00000000000E+00 -0.00000000000E+00 -0.40674613090E+03  0.40674613090E+03  0.00000000000E+00 0. -1.
          5    1    1    2  502    0  0.15752548370E+02  0.67262913167E+01 -0.28133423154E+03  0.28189435186E+03  0.47000000000E+01 0. -1.
         -5    1    1    2    0  502 -0.73431961141E+01 -0.74742477663E+01  0.10764883101E+02  0.15740381730E+02  0.47000000000E+01 0.  1.
        -11    1    1    2    0    0  0.23333243636E+02  0.34093191070E+02 -0.64105816293E+02  0.76264943576E+02  0.00000000000E+00 0. -1.
         11    1    1    2    0    0 -0.31742595892E+02 -0.33345234621E+02 -0.42357922736E+02  0.62559497156E+02  0.00000000000E+00 0.  1.
<mgrwt>
<rscale>  0 0.11417112E+03</rscale>
<asrwt>0</asrwt>
<pdfrwt beam="2">  1        1 0.62576326E-01 0.12401073E+03</pdfrwt>
<pdfrwt beam="1">  1       -1 0.45712376E-02 0.12401073E+03</pdfrwt>
<totfact> 0.11232282E+04</totfact>
</mgrwt>
</event>
<event>
 6    1  0.8353100E-006  0.1412192E+03  0.7546771E-02  0.1222434E+00
          2   -1    0    0  501    0  0.00000000000E+00  0.00000000000E+00  0.50179500836E+03  0.50179500836E+03  0.00000000000E+00 0. -1.
         -2   -1    0    0    0  501 -0.00000000000E+00 -0.00000000000E+00 -0.49442577076E+02  0.49442577076E+02  0.00000000000E+00 0.  1.
          5    1    1    2  502    0  0.75741199580E+02 -0.40632339465E+02  0.17048332530E+03  0.19098264458E+03  0.47000000000E+01 0.  1.
         -5    1    1    2    0  502 -0.37640063212E+02 -0.12977949190E+02  0.23483776817E+03  0.23823532250E+03  0.47000000000E+01 0.  1.
        -11    1    1    2    0    0 -0.47496028700E+02 -0.79653596554E+01  0.88653780613E+01  0.48968506459E+02  0.00000000000E+00 0. -1.
         11    1    1    2    0    0  0.93948923325E+01  0.61575648310E+02  0.38165959749E+02  0.73051111903E+02  0.00000000000E+00 0.  1.
<mgrwt>
<rscale>  0 0.13344330E+03</rscale>
<asrwt>0</asrwt>
<pdfrwt beam="1">  1        2 0.77199229E-01 0.14121924E+03</pdfrwt>
<pdfrwt beam="2">  1       -2 0.76065507E-02 0.14121924E+03</pdfrwt>
<totfact> 0.61097208E+03</totfact>
</mgrwt>
</event>
<event>
 6    1  0.8353100E-006  0.2449946E+03  0.7546771E-02  0.1116510E+00
         -1   -1    0    0    0  501 -0.00000000000E+00  0.00000000000E+00  0.49182539506E+02  0.49182539506E+02  0.00000000000E+00 0.  1.
          1   -1    0    0  501    0  0.00000000000E+00 -0.00000000000E+00 -0.30509993365E+03  0.30509993365E+03  0.00000000000E+00 0. -1.
          5    1    1    2  502    0  0.11667596754E+02  0.55322447230E+01 -0.18067771725E+03  0.18119952002E+03  0.47000000000E+01 0. -1.
         -5    1    1    2    0  502 -0.35537264455E+02  0.35282883994E+02 -0.21722810621E+02  0.54788224731E+02  0.47000000000E+01 0.  1.
        -11    1    1    2    0    0  0.12435070598E+02  0.30227205053E+02 -0.23853600994E+02  0.40463677372E+02  0.00000000000E+00 0.  1.
         11    1    1    2    0    0  0.11434597103E+02 -0.71042333770E+02 -0.29663265286E+02  0.77831051039E+02  0.00000000000E+00 0. -1.
<mgrwt>
<rscale>  0 0.24499461E+03</rscale>
<asrwt>0</asrwt>
<pdfrwt beam="2">  1        1 0.46938452E-01 0.24499461E+03</pdfrwt>
<pdfrwt beam="1">  1       -1 0.75665445E-02 0.24499461E+03</pdfrwt>
<totfact> 0.79323706E+03</totfact>
</mgrwt>
</event>
<event>
 6    1  0.8353100E-006  0.1302293E+03  0.7546771E-02  0.1240789E+00
         -2   -1    0    0    0  501 -0.00000000000E+00  0.00000000000E+00  0.46962794475E+02  0.46962794475E+02  0.00000000000E+00 0.  1.
          2   -1    0    0  501    0  0.00000000000E+00 -0.00000000000E+00 -0.28846438455E+03  0.28846438455E+03  0.00000000000E+00 0. -1.
          5    1    1    2  502    0  0.15595164033E+02  0.25773512750E+02 -0.17061735602E+03  0.17332009485E+03  0.47000000000E+01 0.  1.
         -5    1    1    2    0  502 -0.39078651523E+02  0.22401259225E+01  0.23050953658E+01  0.39491298202E+02  0.47000000000E+01 0.  1.
        -11    1    1    2    0    0 -0.23467096348E+02  0.31207691659E+00 -0.62485268697E+02  0.66747365544E+02  0.00000000000E+00 0. -1.
         11    1    1    2    0    0  0.46950583838E+02 -0.28325715589E+02 -0.10704060725E+02  0.55868420439E+02  0.00000000000E+00 0.  1.
<mgrwt>
<rscale>  0 0.12141001E+03</rscale>
<asrwt>0</asrwt>
<pdfrwt beam="2">  1        2 0.44379136E-01 0.13022931E+03</pdfrwt>
<pdfrwt beam="1">  1       -2 0.72250454E-02 0.13022931E+03</pdfrwt>
<totfact> 0.11893400E+04</totfact>
</mgrwt>
</event>
<event>
 6    1  0.8353100E-006  0.1495696E+03  0.7546771E-02  0.1210246E+00
         -2   -1    0    0    0  501 -0.00000000000E+00  0.00000000000E+00  0.24882180593E+02  0.24882180593E+02  0.00000000000E+00 0.  1.
          2   -1    0    0  501    0  0.00000000000E+00 -0.00000000000E+00 -0.12001145250E+04  0.12001145250E+04  0.00000000000E+00 0. -1.
          5    1    1    2  502    0  0.10289932703E+03 -0.14764549068E+02 -0.75476494916E+03  0.76190450969E+03  0.47000000000E+01 0. -1.
         -5    1    1    2    0  502 -0.23849557050E+02  0.37138075172E+02 -0.24530428205E+03  0.24928762262E+03  0.47000000000E+01 0. -1.
        -11    1    1    2    0    0 -0.45005814015E+02 -0.31884326449E+02 -0.26861795387E+02  0.61348917021E+02  0.00000000000E+00 0.  1.
         11    1    1    2    0    0 -0.34043955963E+02  0.95108003444E+01 -0.14830131779E+03  0.15245565624E+03  0.00000000000E+00 0. -1.
<mgrwt>
<rscale>  0 0.14231588E+03</rscale>
<asrwt>0</asrwt>
<pdfrwt beam="2">  1        2 0.18463301E+00 0.14956959E+03</pdfrwt>
<pdfrwt beam="1">  1       -2 0.38280277E-02 0.14956959E+03</pdfrwt>
<totfact> 0.57592017E+03</totfact>
</mgrwt>
</event>
<event>
 6    1  0.8353100E-006  0.1367179E+03  0.7546771E-02  0.1229956E+00
          1   -1    0    0  501    0  0.00000000000E+00  0.00000000000E+00  0.61513344550E+03  0.61513344550E+03  0.00000000000E+00 0. -1.
         -1   -1    0    0    0  501 -0.00000000000E+00 -0.00000000000E+00 -0.24175467998E+02  0.24175467998E+02  0.00000000000E+00 0.  1.
          5    1    1    2  502    0 -0.34521838220E+02  0.58235240728E+02  0.22512662250E+03  0.23513227498E+03  0.47000000000E+01 0.  1.
         -5    1    1    2    0  502 -0.20706361230E+02 -0.62154473100E+02  0.13663835534E+03  0.15160495398E+03  0.47000000000E+01 0.  1.
        -11    1    1    2    0    0  0.52076269683E+02  0.29592476123E+02  0.21474969822E+03  0.22294637336E+03  0.00000000000E+00 0. -1.
         11    1    1    2    0    0  0.31519297672E+01 -0.25673243751E+02  0.14443301433E+02  0.29625311176E+02  0.00000000000E+00 0.  1.
<mgrwt>
<rscale>  0 0.12832933E+03</rscale>
<asrwt>0</asrwt>
<pdfrwt beam="1">  1        1 0.94635903E-01 0.13671790E+03</pdfrwt>
<pdfrwt beam="2">  1       -1 0.37193032E-02 0.13671790E+03</pdfrwt>
<totfact> 0.89183664E+03</totfact>
</mgrwt>
</event>
<event>
 6    1  0.8353100E-006  0.1606780E+03  0.7546771E-02  0.1192921E+00
         -1   -1    0    0    0  501 -0.00000000000E+00  0.00000000000E+00  0.73243208220E+02  0.73243208220E+02  0.00000000000E+00 0.  1.
          1   -1    0    0  501    0  0.00000000000E+00 -0.00000000000E+00 -0.32072896142E+03  0.32072896142E+03  0.00000000000E+00 0. -1.
          5    1    1    2  502    0  0.34679725751E+02  0.59081173798E+02 -0.75905809435E+02  0.10235746373E+03  0.47000000000E+01 0. -1.
         -5    1    1    2    0  502  0.76381654428E+02 -0.49784279608E+02 -0.76622606599E+02  0.11918785790E+03  0.47000000000E+01 0.  1.
        -11    1    1    2    0    0 -0.12170062616E+03  0.67726650617E+01 -0.92468245030E+02  0.15299440428E+03  0.00000000000E+00 0. -1.
         11    1    1    2    0    0  0.10639245986E+02 -0.16069559252E+02 -0.24890921379E+01  0.19432443731E+02  0.00000000000E+00 0.  1.
<mgrwt>
<rscale>  0 0.15631497E+03</rscale>
<asrwt>0</asrwt>
<pdfrwt beam="2">  1        1 0.49342917E-01 0.16067798E+03</pdfrwt>
<pdfrwt beam="1">  1       -1 0.11268186E-01 0.16067798E+03</pdfrwt>
<totfact> 0.39573563E+03</totfact>
</mgrwt>
</event>
<event>
 6    1  0.8353100E-006  0.1348243E+03  0.7546771E-02  0.1232378E+00
          1   -1    0    0  501    0  0.00000000000E+00  0.00000000000E+00  0.40033705697E+03  0.40033705697E+03  0.00000000000E+00 0. -1.
         -1   -1    0    0    0  501 -0.00000000000E+00 -0.00000000000E+00 -0.39129591358E+02  0.39129591358E+02  0.00000000000E+00 0.  1.
          5    1    1    2  502    0 -0.77934290860E+02  0.60851573468E+01  0.23403167776E+03  0.24678674808E+03  0.47000000000E+01 0. -1.
         -5    1    1    2    0  502  0.32969808675E+02  0.20549852118E+02  0.28734089486E+02  0.48549383155E+02  0.47000000000E+01 0.  1.
        -11    1    1    2    0    0  0.60517957774E+02  0.13275004465E+02  0.51328890567E+02  0.80456845349E+02  0.00000000000E+00 0. -1.
         11    1    1    2    0    0 -0.15553475590E+02 -0.39910013929E+02  0.47112807797E+02  0.63673671744E+02  0.00000000000E+00 0.  1.
<mgrwt>
<rscale>  0 0.12673817E+03</rscale>
<asrwt>0</asrwt>
<pdfrwt beam="1">  1        1 0.61590314E-01 0.13482426E+03</pdfrwt>
<pdfrwt beam="2">  1       -1 0.60199374E-02 0.13482426E+03</pdfrwt>
<totfact> 0.76706118E+03</totfact>
</mgrwt>
</event>
<event>
 6    1  0.8353100E-006  0.2007349E+03  0.7546771E-02  0.1153271E+00
         -3   -1    0    0    0  501 -0.00000000000E+00  0.00000000000E+00  0.29239704469E+02  0.29239704469E+02  0.00000000000E+00 0.  1.
          3   -1    0    0  501    0  0.00000000000E+00 -0.00000000000E+00 -0.17167467747E+04  0.17167467747E+04  0.00000000000E+00 0. -1.
          5    1    1    2  502    0  0.13610945881E+02 -0.85602496408E+02 -0.95049774023E+03  0.95445329347E+03  0.47000000000E+01 0.  1.
         -5    1    1    2    0  502  0.84380363027E+02 -0.37142818136E+02 -0.37711351852E+03  0.38824776941E+03  0.47000000000E+01 0.  1.
        -11    1    1    2    0    0 -0.18346669881E+02  0.95915695561E+02 -0.18231683436E+03  0.20682323139E+03  0.00000000000E+00 0.  1.
         11    1    1    2    0    0 -0.79644639027E+02  0.26829618983E+02 -0.17757897718E+03  0.19646218495E+03  0.00000000000E+00 0. -1.
<mgrwt>
<rscale>  0 0.19587039E+03</rscale>
<asrwt>0</asrwt>
<pdfrwt beam="2">  1        3 0.26411498E+00 0.20073487E+03</pdfrwt>
<pdfrwt beam="1">  1       -3 0.44984145E-02 0.20073487E+03</pdfrwt>
<totfact> 0.46137813E+01</totfact>
</mgrwt>
</event>
<event>
 6    1  0.8353100E-006  0.1380549E+03  0.7546771E-02  0.1227825E+00
         -2   -1    0    0    0  501 -0.00000000000E+00  0.00000000000E+00  0.20380415149E+02  0.20380415149E+02  0.00000000000E+00 0.  1.
          2   -1    0    0  501    0  0.00000000000E+00 -0.00000000000E+00 -0.80892542152E+03  0.80892542152E+03  0.00000000000E+00 0. -1.
          5    1    1    2  502    0 -0.36134548943E+02  0.40980673771E+02 -0.46426431375E+03  0.46749177990E+03  0.47000000000E+01 0. -1.
         -5    1    1    2    0  502  0.49583413460E+02  0.16045722089E+02 -0.93933974708E+02  0.10752516772E+03  0.47000000000E+01 0. -1.
        -11    1    1    2    0    0 -0.21635134039E+02 -0.74631232822E+02 -0.21761446043E+03  0.23107131654E+03  0.00000000000E+00 0.  1.
         11    1    1    2    0    0  0.81862695224E+01  0.17604836962E+02 -0.12732257482E+02  0.23217572520E+02  0.00000000000E+00 0. -1.
<mgrwt>
<rscale>  0 0.12975117E+03</rscale>
<asrwt>0</asrwt>
<pdfrwt beam="2">  1        2 0.12445004E+00 0.13805492E+03</pdfrwt>
<pdfrwt beam="1">  1       -2 0.31354491E-02 0.13805492E+03</pdfrwt>
<totfact> 0.13263694E+04</totfact>
</mgrwt>
</event>
<event>
 6    1  0.8353100E-006  0.2844687E+03  0.7546771E-02  0.1094956E+00
          1   -1    0    0  501    0  0.00000000000E+00  0.00000000000E+00  0.21117447353E+03  0.21117447353E+03  0.00000000000E+00 0. -1.
         -1   -1    0    0    0  501 -0.00000000000E+00 -0.00000000000E+00 -0.36688540537E+03  0.36688540537E+03  0.00000000000E+00 0.  1.
          5    1    1    2  502    0 -0.29062928313E+02 -0.21730878637E+02 -0.63913760892E+02  0.73647428467E+02  0.47000000000E+01 0. -1.
         -5    1    1    2    0  502 -0.13406752004E+03 -0.17495086286E+03 -0.12064608752E+02  0.22079300063E+03  0.47000000000E+01 0. -1.
        -11    1    1    2    0    0  0.33472695478E+02  0.10377088670E+03 -0.98734124791E+01  0.10948197360E+03  0.00000000000E+00 0. -1.
         11    1    1    2    0    0  0.12965775287E+03  0.92910854794E+02 -0.69859149717E+02  0.17413747620E+03  0.00000000000E+00 0.  1.
<mgrwt>
<rscale>  0 0.28134584E+03</rscale>
<asrwt>0</asrwt>
<pdfrwt beam="1">  1        1 0.32488381E-01 0.28446872E+03</pdfrwt>
<pdfrwt beam="2">  1       -1 0.56443908E-01 0.28446872E+03</pdfrwt>
<totfact> 0.44911208E+02</totfact>
</mgrwt>
</event>
<event>
 6    1  0.8353100E-006  0.1495136E+03  0.7546771E-02  0.1224951E+00
         -1   -1    0    0    0  501 -0.00000000000E+00  0.00000000000E+00  0.14146997233E+02  0.14146997233E+02  0.00000000000E+00 0.  1.
          1   -1    0    0  501    0  0.00000000000E+00 -0.00000000000E+00 -0.11037567371E+04  0.11037567371E+04  0.00000000000E+00 0. -1.
          5    1    1    2  502    0 -0.76085681109E+02  0.12119798415E+02 -0.42001774084E+03  0.42705141728E+03  0.47000000000E+01 0. -1.
         -5    1    1    2    0  502  0.38708966674E+02  0.60899018082E+02 -0.40396623143E+03  0.41038747623E+03  0.47000000000E+01 0. -1.
        -11    1    1    2    0    0  0.33454279168E+02 -0.28328350606E+02 -0.10739687375E+03  0.11599902040E+03  0.00000000000E+00 0.  1.
         11    1    1    2    0    0  0.39224352670E+01 -0.44690465892E+02 -0.15822889381E+03  0.16446582039E+03  0.00000000000E+00 0. -1.
<mgrwt>
<rscale>  0 0.13170263E+03</rscale>
<asrwt>0</asrwt>
<pdfrwt beam="2">  1        1 0.16980878E+00 0.14951359E+03</pdfrwt>
<pdfrwt beam="1">  1       -1 0.21764605E-02 0.14951359E+03</pdfrwt>
<totfact> 0.79161450E+03</totfact>
</mgrwt>
</event>
<event>
 6    1  0.8353100E-006  0.2521371E+03  0.7546771E-02  0.1111962E+00
          2   -1    0    0  501    0  0.00000000000E+00  0.00000000000E+00  0.86916914984E+03  0.86916914984E+03  0.00000000000E+00 0.  1.
         -2   -1    0    0    0  501 -0.00000000000E+00 -0.00000000000E+00 -0.18285605128E+02  0.18285605128E+02  0.00000000000E+00 0. -1.
          5    1    1    2  502    0  0.54605683438E+02 -0.64891629874E+02  0.16113631158E+03  0.18215297198E+03  0.47000000000E+01 0. -1.
         -5    1    1    2    0  502 -0.13524360400E+02  0.17888997661E+02  0.27198807234E+03  0.27295150862E+03  0.47000000000E+01 0. -1.
        -11    1    1    2    0    0  0.99999438140E+01  0.56279593857E+02  0.26212758047E+03  0.26828764415E+03  0.00000000000E+00 0.  1.
         11    1    1    2    0    0 -0.51081266852E+02 -0.92769616435E+01  0.15563158032E+03  0.16406263022E+03  0.00000000000E+00 0. -1.
<mgrwt>
<rscale>  0 0.25213714E+03</rscale>
<asrwt>0</asrwt>
<pdfrwt beam="1">  1        2 0.13371830E+00 0.25213714E+03</pdfrwt>
<pdfrwt beam="2">  1       -2 0.28131707E-02 0.25213714E+03</pdfrwt>
<totfact> 0.14726465E+04</totfact>
</mgrwt>
</event>
<event>
 6    1  0.8353100E-006  0.3861466E+03  0.7546771E-02  0.1048685E+00
         -2   -1    0    0    0  501 -0.00000000000E+00  0.00000000000E+00  0.28520877697E+03  0.28520877697E+03  0.00000000000E+00 0.  1.
          2   -1    0    0  501    0  0.00000000000E+00 -0.00000000000E+00 -0.13070180122E+03  0.13070180122E+03  0.00000000000E+00 0. -1.
          5    1    1    2  502    0  0.26512933340E+02 -0.21095636415E+02  0.26293858084E+02  0.43144159314E+02  0.47000000000E+01 0.  1.
         -5    1    1    2    0  502 -0.97808100403E+02 -0.93544573988E+02 -0.40801713421E+02  0.14143507926E+03  0.47000000000E+01 0.  1.
        -11    1    1    2    0    0  0.77929569284E+02  0.52664422840E+02  0.11721907013E+03  0.15028928640E+03  0.00000000000E+00 0. -1.
         11    1    1    2    0    0 -0.66344022209E+01  0.61975787562E+02  0.51795760959E+02  0.81042053220E+02  0.00000000000E+00 0.  1.
<mgrwt>
<rscale>  0 0.38614661E+03</rscale>
<asrwt>0</asrwt>
<pdfrwt beam="2">  1        2 0.20107970E-01 0.38614661E+03</pdfrwt>
<pdfrwt beam="1">  1       -2 0.43878273E-01 0.38614661E+03</pdfrwt>
<totfact> 0.13829030E+03</totfact>
</mgrwt>
</event>
<event>
 6    1  0.8353100E-006  0.1267934E+03  0.7546771E-02  0.1243272E+00
          1   -1    0    0  501    0  0.00000000000E+00  0.00000000000E+00  0.32675454460E+03  0.32675454460E+03  0.00000000000E+00 0. -1.
         -1   -1    0    0    0  501 -0.00000000000E+00 -0.00000000000E+00 -0.22248850535E+03  0.22248850535E+03  0.00000000000E+00 0.  1.
          5    1    1    2  502    0 -0.17187825143E+02 -0.21001660170E+02  0.27728475205E+03  0.27864926841E+03  0.47000000000E+01 0. -1.
         -5    1    1    2    0  502 -0.22974552687E+02  0.34900834945E+02  0.24440674317E+02  0.48634708924E+02  0.47000000000E+01 0.  1.
        -11    1    1    2    0    0  0.34517094485E+02  0.70534672461E+01 -0.19713346892E+03  0.20025679959E+03  0.00000000000E+00 0.  1.
         11    1    1    2    0    0  0.56452833452E+01 -0.20952642021E+02 -0.32591819646E+00  0.21702273023E+02  0.00000000000E+00 0. -1.
<mgrwt>
<rscale>  0 0.11989430E+03</rscale>
<asrwt>0</asrwt>
<pdfrwt beam="1">  1        1 0.50269930E-01 0.12679341E+03</pdfrwt>
<pdfrwt beam="2">  1       -1 0.34229001E-01 0.12679341E+03</pdfrwt>
<totfact> 0.64108591E+02</totfact>
</mgrwt>
</event>
<event>
 6    1  0.8353100E-006  0.1484954E+03  0.7546771E-02  0.1211176E+00
         -1   -1    0    0    0  501 -0.00000000000E+00  0.00000000000E+00  0.74002837028E+02  0.74002837028E+02  0.00000000000E+00 0.  1.
          1   -1    0    0  501    0  0.00000000000E+00 -0.00000000000E+00 -0.24959521329E+03  0.24959521329E+03  0.00000000000E+00 0. -1.
          5    1    1    2  502    0  0.17313027635E+02  0.61710679915E+01 -0.79795413878E+02  0.82019638392E+02  0.47000000000E+01 0. -1.
         -5    1    1    2    0  502 -0.96629158515E+02  0.54164612886E+01 -0.26043761911E+02  0.10033394173E+03  0.47000000000E+01 0. -1.
        -11    1    1    2    0    0  0.88079194272E+02 -0.35443000850E+02 -0.65822694627E+02  0.11552825585E+03  0.00000000000E+00 0. -1.
         11    1    1    2    0    0 -0.87630633913E+01  0.23855471570E+02 -0.39305058433E+01  0.25716214341E+02  0.00000000000E+00 0.  1.
<mgrwt>
<rscale>  0 0.14161237E+03</rscale>
<asrwt>0</asrwt>
<pdfrwt beam="2">  1        1 0.38399263E-01 0.14849544E+03</pdfrwt>
<pdfrwt beam="1">  1       -1 0.11385052E-01 0.14849544E+03</pdfrwt>
<totfact> 0.52956274E+03</totfact>
</mgrwt>
</event>
<event>
 6    1  0.8353100E-006  0.3563720E+03  0.7546771E-02  0.1060030E+00
          2   -1    0    0  501    0  0.00000000000E+00  0.00000000000E+00  0.10734312861E+03  0.10734312861E+03  0.00000000000E+00 0.  1.
         -2   -1    0    0    0  501 -0.00000000000E+00 -0.00000000000E+00 -0.29578286060E+03  0.29578286060E+03  0.00000000000E+00 0. -1.
          5    1    1    2  502    0 -0.30116083004E+01 -0.69823736111E+01  0.33823386873E+02  0.34984779910E+02  0.47000000000E+01 0. -1.
         -5    1    1    2    0  502  0.10682718687E+03 -0.76714333250E+02 -0.78276010545E+02  0.15312204481E+03  0.47000000000E+01 0. -1.
        -11    1    1    2    0    0 -0.28463225937E+02 -0.15724022881E+02 -0.46273662484E+02  0.56556626190E+02  0.00000000000E+00 0.  1.
         11    1    1    2    0    0 -0.75352352630E+02  0.99420729742E+02 -0.97713445830E+02  0.15846253830E+03  0.00000000000E+00 0. -1.
<mgrwt>
<rscale>  0 0.35637204E+03</rscale>
<asrwt>0</asrwt>
<pdfrwt beam="1">  1        2 0.16514328E-01 0.35637204E+03</pdfrwt>
<pdfrwt beam="2">  1       -2 0.45505055E-01 0.35637204E+03</pdfrwt>
<totfact> 0.16191116E+03</totfact>
</mgrwt>
</event>
<event>
 6    1  0.8353100E-006  0.1177676E+03  0.7546771E-02  0.1259458E+00
         -4   -1    0    0    0  501 -0.00000000000E+00  0.00000000000E+00  0.72883605264E+02  0.72883605264E+02  0.00000000000E+00 0.  1.
          4   -1    0    0  501    0  0.00000000000E+00 -0.00000000000E+00 -0.23561075910E+03  0.23561075910E+03  0.00000000000E+00 0. -1.
          5    1    1    2  502    0 -0.38476863442E+02  0.35357991010E+02 -0.14448454552E+03  0.15371574559E+03  0.47000000000E+01 0. -1.
         -5    1    1    2    0  502  0.15432553525E+02 -0.47451820271E+02 -0.35670394025E+02  0.61516712894E+02  0.47000000000E+01 0.  1.
        -11    1    1    2    0    0 -0.21066886838E+01  0.16941388901E+02 -0.32745593450E+02  0.36928616079E+02  0.00000000000E+00 0. -1.
         11    1    1    2    0    0  0.25150998600E+02 -0.48475596399E+01  0.50173379152E+02  0.56333289807E+02  0.00000000000E+00 0.  1.
<mgrwt>
<rscale>  0 0.11060273E+03</rscale>
<asrwt>0</asrwt>
<pdfrwt beam="2">  1        4 0.36247810E-01 0.11776761E+03</pdfrwt>
<pdfrwt beam="1">  1       -4 0.11212862E-01 0.11776761E+03</pdfrwt>
<totfact> 0.74012879E+02</totfact>
</mgrwt>
</event>
<event>
 6    1  0.8353100E-006  0.1417983E+03  0.7546771E-02  0.1221017E+00
         -4   -1    0    0    0  501 -0.00000000000E+00  0.00000000000E+00  0.69232704691E+02  0.69232704691E+02  0.00000000000E+00 0.  1.
          4   -1    0    0  501    0  0.00000000000E+00 -0.00000000000E+00 -0.25820872871E+03  0.25820872871E+03  0.00000000000E+00 0. -1.
          5    1    1    2  502    0  0.14106113593E+02  0.27549300711E+02  0.99000190217E+01  0.32833622813E+02  0.47000000000E+01 0.  1.
         -5    1    1    2    0  502 -0.65626375577E+02  0.15206990612E+02 -0.15992922307E+03  0.17360161326E+03  0.47000000000E+01 0.  1.
        -11    1    1    2    0    0  0.15264585846E+02 -0.16024285092E+02  0.30831079049E+02  0.37951821157E+02  0.00000000000E+00 0.  1.
         11    1    1    2    0    0  0.36255676138E+02 -0.26732006230E+02 -0.69777899014E+02  0.83054376165E+02  0.00000000000E+00 0. -1.
<mgrwt>
<rscale>  0 0.13443682E+03</rscale>
<asrwt>0</asrwt>
<pdfrwt beam="2">  1        4 0.39724420E-01 0.14179825E+03</pdfrwt>
<pdfrwt beam="1">  1       -4 0.10651185E-01 0.14179825E+03</pdfrwt>
<totfact> 0.70183645E+02</totfact>
</mgrwt>
</event>
<event>
 6    1  0.8353100E-006  0.1408282E+03  0.7546771E-02  0.1223124E+00
         -2   -1    0    0    0  501 -0.00000000000E+00  0.00000000000E+00  0.15674821587E+02  0.15674821587E+02  0.00000000000E+00 0.  1.
          2   -1    0    0  501    0  0.00000000000E+00 -0.00000000000E+00 -0.17101019836E+04  0.17101019836E+04  0.00000000000E+00 0. -1.
          5    1    1    2  502    0 -0.96273265283E+02  0.13491907162E+02 -0.10006853921E+04  0.10054073389E+04  0.47000000000E+01 0. -1.
         -5    1    1    2    0  502  0.33014403625E+02 -0.27931771357E+02 -0.45078650073E+03  0.45288044110E+03  0.47000000000E+01 0. -1.
        -11    1    1    2    0    0  0.55938014739E+02  0.50289422642E+02 -0.15814956240E+03  0.17512673014E+03  0.00000000000E+00 0.  1.
         11    1    1    2    0    0  0.73208469191E+01 -0.35849558448E+02 -0.84805706808E+02  0.92362295054E+02  0.00000000000E+00 0. -1.
<mgrwt>
<rscale>  0 0.13296317E+03</rscale>
<asrwt>0</asrwt>
<pdfrwt beam="2">  1        2 0.26309264E+00 0.14082824E+03</pdfrwt>
<pdfrwt beam="1">  1       -2 0.24115107E-02 0.14082824E+03</pdfrwt>
<totfact> 0.61061052E+03</totfact>
</mgrwt>
</event>
<event>
 6    1  0.8353100E-006  0.1255968E+03  0.7546771E-02  0.1249651E+00
          2   -1    0    0  501    0  0.00000000000E+00  0.00000000000E+00  0.12093310366E+04  0.12093310366E+04  0.00000000000E+00 0. -1.
         -2   -1    0    0    0  501 -0.00000000000E+00 -0.00000000000E+00 -0.97654360094E+01  0.97654360094E+01  0.00000000000E+00 0.  1.
          5    1    1    2  502    0  0.88424470082E+01 -0.29310277321E+02  0.38285025304E+02  0.49245450432E+02  0.47000000000E+01 0.  1.
         -5    1    1    2    0  502 -0.27245247116E+01  0.18721328727E+02  0.65721575176E+03  0.65750478747E+03  0.47000000000E+01 0.  1.
        -11    1    1    2    0    0 -0.28559755087E+01  0.51058180052E+02  0.28422436885E+03  0.28878813375E+03  0.00000000000E+00 0.  1.
         11    1    1    2    0    0 -0.32619467879E+01 -0.40469231458E+02  0.21984045469E+03  0.22355810098E+03  0.00000000000E+00 0. -1.
<mgrwt>
<rscale>  0 0.11611298E+03</rscale>
<asrwt>0</asrwt>
<pdfrwt beam="1">  1        2 0.18605081E+00 0.12559685E+03</pdfrwt>
<pdfrwt beam="2">  1       -2 0.15023757E-02 0.12559685E+03</pdfrwt>
<totfact> 0.22109683E+04</totfact>
</mgrwt>
</event>
<event>
 6    1  0.8353100E-006  0.4150367E+03  0.7546771E-02  0.1038694E+00
         -2   -1    0    0    0  501 -0.00000000000E+00  0.00000000000E+00  0.71885479556E+02  0.71885479556E+02  0.00000000000E+00 0.  1.
          2   -1    0    0  501    0  0.00000000000E+00 -0.00000000000E+00 -0.59906212985E+03  0.59906212985E+03  0.00000000000E+00 0. -1.
          5    1    1    2  502    0 -0.14339667282E+02  0.19406154961E+03 -0.29065999598E+03  0.34981542899E+03  0.47000000000E+01 0.  1.
         -5    1    1    2    0  502  0.35193135880E+01 -0.19014001511E+02 -0.20151862525E+02  0.28321465090E+02  0.47000000000E+01 0.  1.
        -11    1    1    2    0    0 -0.21535083590E+02 -0.32687874213E+02 -0.95743591718E+02  0.10343641671E+03  0.00000000000E+00 0. -1.
         11    1    1    2    0    0  0.32355437284E+02 -0.14235967389E+03 -0.12062120008E+03  0.18937429862E+03  0.00000000000E+00 0.  1.
<mgrwt>
<rscale>  0 0.41503671E+03</rscale>
<asrwt>0</asrwt>
<pdfrwt beam="2">  1        2 0.92163401E-01 0.41503671E+03</pdfrwt>
<pdfrwt beam="1">  1       -2 0.11059305E-01 0.41503671E+03</pdfrwt>
<totfact> 0.28695641E+03</totfact>
</mgrwt>
</event>
<event>
 6    1  0.8353100E-006  0.3079275E+03  0.7546771E-02  0.1081344E+00
          1   -1    0    0  501    0  0.00000000000E+00  0.00000000000E+00  0.69708212269E+02  0.69708212269E+02  0.00000000000E+00 0. -1.
         -1   -1    0    0    0  501 -0.00000000000E+00 -0.00000000000E+00 -0.34005808477E+03  0.34005808477E+03  0.00000000000E+00 0.  1.
          5    1    1    2  502    0 -0.95039084925E+01 -0.12061570633E+03 -0.11438339396E+03  0.16656567384E+03  0.47000000000E+01 0.  1.
         -5    1    1    2    0  502  0.13588584617E+02  0.16730906815E+02  0.12448240997E+02  0.25330250269E+02  0.47000000000E+01 0.  1.
        -11    1    1    2    0    0 -0.41706346444E+02  0.61282527277E+02 -0.59638379499E+02  0.95140442465E+02  0.00000000000E+00 0. -1.
         11    1    1    2    0    0  0.37621670319E+02  0.42602272240E+02 -0.10877634005E+03  0.12272993046E+03  0.00000000000E+00 0.  1.
<mgrwt>
<rscale>  0 0.30792753E+03</rscale>
<asrwt>0</asrwt>
<pdfrwt beam="1">  1        1 0.10724341E-01 0.30792753E+03</pdfrwt>
<pdfrwt beam="2">  1       -1 0.52316627E-01 0.30792753E+03</pdfrwt>
<totfact> 0.22045353E+03</totfact>
</mgrwt>
</event>
<event>
 6    1  0.8353100E-006  0.1296895E+03  0.7546771E-02  0.1241220E+00
         -3   -1    0    0    0  501 -0.00000000000E+00  0.00000000000E+00  0.22497369158E+03  0.22497369158E+03  0.00000000000E+00 0.  1.
          3   -1    0    0  501    0  0.00000000000E+00 -0.00000000000E+00 -0.58911101948E+02  0.58911101948E+02  0.00000000000E+00 0. -1.
          5    1    1    2  502    0  0.13681939625E+02 -0.16037110756E+02  0.10793040689E+03  0.11007019180E+03  0.47000000000E+01 0. -1.
         -5    1    1    2    0  502  0.20803796624E+02  0.13968707797E+02 -0.31453773470E+02  0.40488919682E+02  0.47000000000E+01 0. -1.
        -11    1    1    2    0    0  0.10018408945E+02 -0.29279301874E+02  0.30553575596E+01  0.31096322063E+02  0.00000000000E+00 0. -1.
         11    1    1    2    0    0 -0.44504145194E+02  0.31347704833E+02  0.86530598656E+02  0.10222935998E+03  0.00000000000E+00 0.  1.
<mgrwt>
<rscale>  0 0.12114479E+03</rscale>
<asrwt>0</asrwt>
<pdfrwt beam="2">  1        3 0.90632466E-02 0.12968952E+03</pdfrwt>
<pdfrwt beam="1">  1       -3 0.34611337E-01 0.12968952E+03</pdfrwt>
<totfact> 0.16235527E+03</totfact>
</mgrwt>
</event>
<event>
 6    1  0.8353100E-006  0.1373037E+03  0.7546771E-02  0.1230273E+00
         -2   -1    0    0    0  501 -0.00000000000E+00  0.00000000000E+00  0.47530134102E+03  0.47530134102E+03  0.00000000000E+00 0. -1.
          2   -1    0    0  501    0  0.00000000000E+00 -0.00000000000E+00 -0.31470762938E+02  0.31470762938E+02  0.00000000000E+00 0.  1.
          5    1    1    2  502    0  0.20649995533E+02 -0.23151663923E+01  0.21211417036E+03  0.21318136311E+03  0.47000000000E+01 0.  1.
         -5    1    1    2    0  502  0.34057587221E+02  0.17629748633E+02 -0.10057533639E+01  0.38650081811E+02  0.47000000000E+01 0.  1.
        -11    1    1    2    0    0 -0.25940367211E+02 -0.43043848868E+02  0.63056418535E+02  0.80633662294E+02  0.00000000000E+00 0.  1.
         11    1    1    2    0    0 -0.28767215543E+02  0.27729266628E+02  0.16966574255E+03  0.17430699674E+03  0.00000000000E+00 0. -1.
<mgrwt>
<rscale>  0 0.12811974E+03</rscale>
<asrwt>0</asrwt>
<pdfrwt beam="2">  1        2 0.48416562E-02 0.13730373E+03</pdfrwt>
<pdfrwt beam="1">  1       -2 0.73123278E-01 0.13730373E+03</pdfrwt>
<totfact> 0.27267908E+03</totfact>
</mgrwt>
</event>
<event>
 6    1  0.8353100E-006  0.1349641E+03  0.7546771E-02  0.1232741E+00
          3   -1    0    0  501    0  0.00000000000E+00  0.00000000000E+00  0.31664387429E+03  0.31664387429E+03  0.00000000000E+00 0. -1.
         -3   -1    0    0    0  501 -0.00000000000E+00 -0.00000000000E+00 -0.74148176119E+02  0.74148176119E+02  0.00000000000E+00 0.  1.
          5    1    1    2  502    0 -0.31723080111E+02 -0.27772191853E+02  0.18970335360E+03  0.19438904501E+03  0.47000000000E+01 0.  1.
         -5    1    1    2    0  502 -0.84511815839E+00  0.66907237145E+02  0.62630869688E+02  0.91771501268E+02  0.47000000000E+01 0.  1.
        -11    1    1    2    0    0 -0.82123465099E+01 -0.40405807833E+02  0.27307353851E+02  0.49454661218E+02  0.00000000000E+00 0. -1.
         11    1    1    2    0    0  0.40780544779E+02  0.12707625401E+01 -0.37145878967E+02  0.55176842916E+02  0.00000000000E+00 0.  1.
<mgrwt>
<rscale>  0 0.12650192E+03</rscale>
<asrwt>0</asrwt>
<pdfrwt beam="1">  1        3 0.48714441E-01 0.13496406E+03</pdfrwt>
<pdfrwt beam="2">  1       -3 0.11407412E-01 0.13496406E+03</pdfrwt>
<totfact> 0.57697196E+02</totfact>
</mgrwt>
</event>
<event>
 6    1  0.8353100E-006  0.1327532E+03  0.7546771E-02  0.1236416E+00
         -1   -1    0    0    0  501 -0.00000000000E+00  0.00000000000E+00  0.45921891134E+03  0.45921891134E+03  0.00000000000E+00 0.  1.
          1   -1    0    0  501    0  0.00000000000E+00 -0.00000000000E+00 -0.39282597240E+02  0.39282597240E+02  0.00000000000E+00 0. -1.
          5    1    1    2  502    0 -0.14276939520E+02  0.42377754880E+02  0.28603559693E+02  0.53291263241E+02  0.47000000000E+01 0.  1.
         -5    1    1    2    0  502  0.72469577531E+01 -0.86525067789E+02  0.81531004808E+02  0.11919941484E+03  0.47000000000E+01 0.  1.
        -11    1    1    2    0    0  0.30842951611E+01 -0.28010439850E+02  0.67052984254E+02  0.72733763237E+02  0.00000000000E+00 0.  1.
         11    1    1    2    0    0  0.39456866063E+01  0.72157752759E+02  0.24274876534E+03  0.25327706726E+03  0.00000000000E+00 0. -1.
<mgrwt>
<rscale>  0 0.12414227E+03</rscale>
<asrwt>0</asrwt>
<pdfrwt beam="2">  1        1 0.60434768E-02 0.13275320E+03</pdfrwt>
<pdfrwt beam="1">  1       -1 0.70649060E-01 0.13275320E+03</pdfrwt>
<totfact> 0.25994169E+03</totfact>
</mgrwt>
</event>
<event>
 6    1  0.8353100E-006  0.5024057E+03  0.7546771E-02  0.1029332E+00
          2   -1    0    0  501    0  0.00000000000E+00  0.00000000000E+00  0.16051212637E+04  0.16051212637E+04  0.00000000000E+00 0. -1.
         -2   -1    0    0    0  501 -0.00000000000E+00 -0.00000000000E+00 -0.16543136880E+03  0.16543136880E+03  0.00000000000E+00 0.  1.
          5    1    1    2  502    0  0.25713050871E+03  0.12901653869E+03  0.10444879054E+04  0.10833920991E+04  0.47000000000E+01 0. -1.
         -5    1    1    2    0  502  0.32060285455E+02 -0.18404014966E+03  0.31890988078E+03  0.36962716438E+03  0.47000000000E+01 0.  1.
        -11    1    1    2    0    0 -0.17040117125E+03  0.38628679567E+00  0.76487493424E+02  0.18678074052E+03  0.00000000000E+00 0.  1.
         11    1    1    2    0    0 -0.11878962291E+03  0.54637324169E+02 -0.19538467330E+00  0.13075262858E+03  0.00000000000E+00 0. -1.
<mgrwt>
<rscale>  0 0.44464184E+03</rscale>
<asrwt>0</asrwt>
<pdfrwt beam="1">  1        2 0.24694172E+00 0.50240567E+03</pdfrwt>
<pdfrwt beam="2">  1       -2 0.25450981E-01 0.50240567E+03</pdfrwt>
<totfact> 0.16037529E+02</totfact>
</mgrwt>
</event>
<event>
 6    1  0.8353100E-006  0.5953989E+03  0.7546771E-02  0.1047335E+00
         -2   -1    0    0    0  501 -0.00000000000E+00  0.00000000000E+00  0.14228113001E+03  0.14228113001E+03  0.00000000000E+00 0.  1.
          2   -1    0    0  501    0  0.00000000000E+00 -0.00000000000E+00 -0.91390195515E+03  0.91390195515E+03  0.00000000000E+00 0. -1.
          5    1    1    2  502    0  0.20427204493E+03 -0.87043087140E+02 -0.66006899312E+03  0.69643142737E+03  0.47000000000E+01 0. -1.
         -5    1    1    2    0  502 -0.22909129161E+03  0.32667839248E+02 -0.62315306709E+02  0.23969834181E+03  0.47000000000E+01 0.  1.
        -11    1    1    2    0    0  0.25777511952E+02  0.73672364042E+02 -0.59528852464E+02  0.98162017205E+02  0.00000000000E+00 0.  1.
         11    1    1    2    0    0 -0.95826526884E+00 -0.19297116150E+02  0.10292327143E+02  0.21891298775E+02  0.00000000000E+00 0. -1.
<mgrwt>
<rscale>  0 0.38989882E+03</rscale>
<asrwt>0</asrwt>
<pdfrwt beam="2">  1        2 0.14060030E+00 0.59539892E+03</pdfrwt>
<pdfrwt beam="1">  1       -2 0.21889405E-01 0.59539892E+03</pdfrwt>
<totfact> 0.52783188E+02</totfact>
</mgrwt>
</event>
<event>
 6    1  0.8353100E-006  0.1844652E+03  0.7546771E-02  0.1168831E+00
          3   -1    0    0  501    0  0.00000000000E+00  0.00000000000E+00  0.28850885130E+03  0.28850885130E+03  0.00000000000E+00 0. -1.
         -3   -1    0    0    0  501 -0.00000000000E+00 -0.00000000000E+00 -0.13902238157E+03  0.13902238157E+03  0.00000000000E+00 0.  1.
          5    1    1    2  502    0  0.66852154877E+02  0.98565761645E+02  0.97466195081E+02  0.15396807839E+03  0.47000000000E+01 0.  1.
         -5    1    1    2    0  502  0.52189125173E+02 -0.33522106049E+02  0.86573849610E+02  0.10660468009E+03  0.47000000000E+01 0.  1.
        -11    1    1    2    0    0 -0.98404150736E+02 -0.61389329481E+02 -0.62715974752E+02  0.13185340400E+03  0.00000000000E+00 0.  1.
         11    1    1    2    0    0 -0.20637129313E+02 -0.36543261145E+01  0.28162399789E+02  0.35105070396E+02  0.00000000000E+00 0. -1.
<mgrwt>
<rscale>  0 0.17894169E+03</rscale>
<asrwt>0</asrwt>
<pdfrwt beam="1">  1        3 0.44385977E-01 0.18446524E+03</pdfrwt>
<pdfrwt beam="2">  1       -3 0.21388059E-01 0.18446524E+03</pdfrwt>
<totfact> 0.24422660E+02</totfact>
</mgrwt>
</event>
<event>
 6    1  0.8353100E-006  0.1372498E+03  0.7546771E-02  0.1229102E+00
         -1   -1    0    0    0  501 -0.00000000000E+00  0.00000000000E+00  0.60387612412E+02  0.60387612412E+02  0.00000000000E+00 0.  1.
          1   -1    0    0  501    0  0.00000000000E+00 -0.00000000000E+00 -0.24667738206E+03  0.24667738206E+03  0.00000000000E+00 0. -1.
          5    1    1    2  502    0 -0.10619729903E+02 -0.43056188487E+02 -0.16054116097E+02  0.47396610362E+02  0.47000000000E+01 0. -1.
         -5    1    1    2    0  502  0.64245569319E+02  0.61411710889E+02 -0.84727422071E+02  0.12288090764E+03  0.47000000000E+01 0. -1.
        -11    1    1    2    0    0 -0.38830864515E+02  0.12588292391E+02 -0.93102332507E+02  0.10165798278E+03  0.00000000000E+00 0. -1.
         11    1    1    2    0    0 -0.14794974900E+02 -0.30943814793E+02  0.75941010316E+01  0.35129493687E+02  0.00000000000E+00 0.  1.
<mgrwt>
<rscale>  0 0.12889704E+03</rscale>
<asrwt>0</asrwt>
<pdfrwt beam="2">  1        1 0.37950366E-01 0.13724983E+03</pdfrwt>
<pdfrwt beam="1">  1       -1 0.92904019E-02 0.13724983E+03</pdfrwt>
<totfact> 0.72988799E+03</totfact>
</mgrwt>
</event>
<event>
 6    1  0.8353100E-006  0.1507054E+03  0.7546771E-02  0.1208290E+00
         -2   -1    0    0    0  501 -0.00000000000E+00  0.00000000000E+00  0.16910962313E+02  0.16910962313E+02  0.00000000000E+00 0.  1.
          2   -1    0    0  501    0  0.00000000000E+00 -0.00000000000E+00 -0.12186969869E+04  0.12186969869E+04  0.00000000000E+00 0. -1.
          5    1    1    2  502    0 -0.63753562206E+01 -0.66566913514E+02 -0.18655487173E+03  0.19823372394E+03  0.47000000000E+01 0. -1.
         -5    1    1    2    0  502 -0.49921141704E+02  0.39412018568E+01 -0.63806586000E+03  0.64004514307E+03  0.47000000000E+01 0. -1.
        -11    1    1    2    0    0  0.78173217316E+02  0.44598264835E+02 -0.33218636470E+03  0.34416251688E+03  0.00000000000E+00 0. -1.
         11    1    1    2    0    0 -0.21876719392E+02  0.18027446822E+02 -0.44978928134E+02  0.53166565305E+02  0.00000000000E+00 0.  1.
<mgrwt>
<rscale>  0 0.14381207E+03</rscale>
<asrwt>0</asrwt>
<pdfrwt beam="2">  1        2 0.18749195E+00 0.15070537E+03</pdfrwt>
<pdfrwt beam="1">  1       -2 0.26016850E-02 0.15070537E+03</pdfrwt>
<totfact> 0.99495475E+03</totfact>
</mgrwt>
</event>
<event>
 6    1  0.8353100E-006  0.1337837E+03  0.7546771E-02  0.1234356E+00
          2   -1    0    0  501    0  0.00000000000E+00  0.00000000000E+00  0.38690568463E+03  0.38690568463E+03  0.00000000000E+00 0. -1.
         -2   -1    0    0    0  501 -0.00000000000E+00 -0.00000000000E+00 -0.43546902172E+02  0.43546902172E+02  0.00000000000E+00 0.  1.
          5    1    1    2  502    0  0.15389850060E+02  0.45474409996E+02  0.20127451964E+03  0.20697413294E+03  0.47000000000E+01 0. -1.
         -5    1    1    2    0  502 -0.59798716522E+02 -0.28106570981E+02  0.75514016971E+02  0.10045059775E+03  0.47000000000E+01 0. -1.
        -11    1    1    2    0    0  0.14679318585E+02  0.19602628906E+01 -0.22625776471E+02  0.27041649092E+02  0.00000000000E+00 0.  1.
         11    1    1    2    0    0  0.29729547878E+02 -0.19328101906E+02  0.89196022320E+02  0.95986207020E+02  0.00000000000E+00 0. -1.
<mgrwt>
<rscale>  0 0.12545758E+03</rscale>
<asrwt>0</asrwt>
<pdfrwt beam="1">  1        2 0.59523949E-01 0.13378367E+03</pdfrwt>
<pdfrwt beam="2">  1       -2 0.66995237E-02 0.13378367E+03</pdfrwt>
<totfact> 0.97974335E+03</totfact>
</mgrwt>
</event>
<event>
 6    1  0.8353100E-006  0.1488837E+03  0.7546771E-02  0.1211326E+00
          4   -1    0    0  501    0  0.00000000000E+00  0.00000000000E+00  0.57974994162E+02  0.57974994162E+02  0.00000000000E+00 0.  1.
         -4   -1    0    0    0  501 -0.00000000000E+00 -0.00000000000E+00 -0.40317068678E+03  0.40317068678E+03  0.00000000000E+00 0. -1.
          5    1    1    2  502    0 -0.44569964799E+02  0.11650866744E+02 -0.13721620163E+01  0.46327068617E+02  0.47000000000E+01 0. -1.
         -5    1    1    2    0  502  0.26485269487E+02 -0.90484977276E+02 -0.77627867586E+02  0.12221774191E+03  0.47000000000E+01 0. -1.
        -11    1    1    2    0    0 -0.20277890367E+02  0.68044327566E+02 -0.10642726305E+03  0.12793742874E+03  0.00000000000E+00 0.  1.
         11    1    1    2    0    0  0.38362585678E+02  0.10789782965E+02 -0.15976839997E+03  0.16466344168E+03  0.00000000000E+00 0. -1.
<mgrwt>
<rscale>  0 0.14149895E+03</rscale>
<asrwt>0</asrwt>
<pdfrwt beam="1">  1        4 0.89192296E-02 0.14888367E+03</pdfrwt>
<pdfrwt beam="2">  1       -4 0.62026261E-01 0.14888367E+03</pdfrwt>
<totfact> 0.38501190E+02</totfact>
</mgrwt>
</event>
<event>
 6    1  0.8353100E-006  0.1463375E+03  0.7546771E-02  0.1214954E+00
         -1   -1    0    0    0  501 -0.00000000000E+00  0.00000000000E+00  0.44657132567E+02  0.44657132567E+02  0.00000000000E+00 0.  1.
          1   -1    0    0  501    0  0.00000000000E+00 -0.00000000000E+00 -0.43696572941E+03  0.43696572941E+03  0.00000000000E+00 0. -1.
          5    1    1    2  502    0  0.58377886637E+00 -0.10692814770E+03 -0.20631990494E+03  0.23243055466E+03  0.47000000000E+01 0.  1.
         -5    1    1    2    0  502 -0.19958953227E+02  0.33344443294E+02 -0.84872584778E+02  0.93464738588E+02  0.47000000000E+01 0.  1.
        -11    1    1    2    0    0  0.51861972642E+02  0.45976563523E+02 -0.36545090067E+02  0.78352104041E+02  0.00000000000E+00 0.  1.
         11    1    1    2    0    0 -0.32486798282E+02  0.27607140886E+02 -0.64571017058E+02  0.77375464680E+02  0.00000000000E+00 0. -1.
<mgrwt>
<rscale>  0 0.13879886E+03</rscale>
<asrwt>0</asrwt>
<pdfrwt beam="2">  1        1 0.67225497E-01 0.14633754E+03</pdfrwt>
<pdfrwt beam="1">  1       -1 0.68703280E-02 0.14633754E+03</pdfrwt>
<totfact> 0.56612159E+03</totfact>
</mgrwt>
</event>
<event>
 6    1  0.8353100E-006  0.2711511E+03  0.7546771E-02  0.1100623E+00
         -1   -1    0    0    0  501 -0.00000000000E+00  0.00000000000E+00  0.74723035336E+02  0.74723035336E+02  0.00000000000E+00 0.  1.
          1   -1    0    0  501    0  0.00000000000E+00 -0.00000000000E+00 -0.24598477315E+03  0.24598477315E+03  0.00000000000E+00 0. -1.
          5    1    1    2  502    0 -0.24545149621E+02 -0.24666453385E+02 -0.60098133004E+02  0.69604409940E+02  0.47000000000E+01 0. -1.
         -5    1    1    2    0  502  0.96004396501E+02  0.16000663327E+01 -0.25405492972E+02  0.99433060060E+02  0.47000000000E+01 0. -1.
        -11    1    1    2    0    0 -0.40440962872E+02 -0.12948028443E+02  0.11002925555E+02  0.43865559262E+02  0.00000000000E+00 0.  1.
         11    1    1    2    0    0 -0.31018284008E+02  0.36014415495E+02 -0.96761037391E+02  0.10780477922E+03  0.00000000000E+00 0. -1.
<mgrwt>
<rscale>  0 0.27115109E+03</rscale>
<asrwt>0</asrwt>
<pdfrwt beam="2">  1        1 0.37843811E-01 0.27115109E+03</pdfrwt>
<pdfrwt beam="1">  1       -1 0.11495852E-01 0.27115109E+03</pdfrwt>
<totfact> 0.54824936E+03</totfact>
</mgrwt>
</event>
<event>
 6    1  0.8353100E-006  0.1455934E+03  0.7546771E-02  0.1216287E+00
         -1   -1    0    0    0  501 -0.00000000000E+00  0.00000000000E+00  0.31705374934E+03  0.31705374934E+03  0.00000000000E+00 0.  1.
          1   -1    0    0  501    0  0.00000000000E+00 -0.00000000000E+00 -0.57983409504E+02  0.57983409504E+02  0.00000000000E+00 0. -1.
          5    1    1    2  502    0  0.41553542932E+00 -0.36024848051E+02  0.35264876975E+02  0.50632636657E+02  0.47000000000E+01 0. -1.
         -5    1    1    2    0  502  0.34187384910E+02  0.10216628171E+03  0.60773712012E+02  0.12378311871E+03  0.47000000000E+01 0. -1.
        -11    1    1    2    0    0  0.26989994401E+02 -0.43522117796E+01  0.57708880105E+02  0.63856999523E+02  0.00000000000E+00 0. -1.
         11    1    1    2    0    0 -0.61592914740E+02 -0.61789221881E+02  0.10532287074E+03  0.13676440395E+03  0.00000000000E+00 0.  1.
<mgrwt>
<rscale>  0 0.13782429E+03</rscale>
<asrwt>0</asrwt>
<pdfrwt beam="2">  1        1 0.89205248E-02 0.14559342E+03</pdfrwt>
<pdfrwt beam="1">  1       -1 0.48777499E-01 0.14559342E+03</pdfrwt>
<totfact> 0.31171081E+03</totfact>
</mgrwt>
</event>
<event>
 6    1  0.8353100E-006  0.1357185E+03  0.7546771E-02  0.1232354E+00
         -2   -1    0    0    0  501 -0.00000000000E+00  0.00000000000E+00  0.27373096690E+02  0.27373096690E+02  0.00000000000E+00 0.  1.
          2   -1    0    0  501    0  0.00000000000E+00 -0.00000000000E+00 -0.60584894753E+03  0.60584894753E+03  0.00000000000E+00 0. -1.
          5    1    1    2  502    0  0.33521381157E+02  0.19372233811E+02 -0.20266978524E+03  0.20638822226E+03  0.47000000000E+01 0. -1.
         -5    1    1    2    0  502 -0.85052540734E+02 -0.31157237397E+02 -0.23752429537E+03  0.25425300198E+03  0.47000000000E+01 0. -1.
        -11    1    1    2    0    0  0.72048870965E+02 -0.58454007892E+01 -0.77106275179E+02  0.10569099389E+03  0.00000000000E+00 0. -1.
         11    1    1    2    0    0 -0.20517711388E+02  0.17630404375E+02 -0.61175495054E+02  0.66889826088E+02  0.00000000000E+00 0.  1.
<mgrwt>
<rscale>  0 0.12675368E+03</rscale>
<asrwt>0</asrwt>
<pdfrwt beam="2">  1        2 0.93207524E-01 0.13571849E+03</pdfrwt>
<pdfrwt beam="1">  1       -2 0.42112459E-02 0.13571849E+03</pdfrwt>
<totfact> 0.12075122E+04</totfact>
</mgrwt>
</event>
<event>
 6    1  0.8353100E-006  0.1351415E+03  0.7546771E-02  0.1232609E+00
         -4   -1    0    0    0  501 -0.00000000000E+00  0.00000000000E+00  0.21864047468E+03  0.21864047468E+03  0.00000000000E+00 0.  1.
          4   -1    0    0  501    0  0.00000000000E+00 -0.00000000000E+00 -0.79734378871E+02  0.79734378871E+02  0.00000000000E+00 0. -1.
          5    1    1    2  502    0 -0.35517053733E+02  0.36563489992E+02  0.60905335458E+02  0.79560667377E+02  0.47000000000E+01 0. -1.
         -5    1    1    2    0  502 -0.14956872873E+02 -0.27056219673E+02 -0.46831326460E+02  0.56311723532E+02  0.47000000000E+01 0. -1.
        -11    1    1    2    0    0  0.33801674122E+02 -0.98178806749E+01  0.13726269924E+03  0.14170389041E+03  0.00000000000E+00 0.  1.
         11    1    1    2    0    0  0.16672252483E+02  0.31061035637E+00 -0.12430612428E+02  0.20798572234E+02  0.00000000000E+00 0. -1.
<mgrwt>
<rscale>  0 0.12658728E+03</rscale>
<asrwt>0</asrwt>
<pdfrwt beam="2">  1        4 0.12266828E-01 0.13514151E+03</pdfrwt>
<pdfrwt beam="1">  1       -4 0.33636996E-01 0.13514151E+03</pdfrwt>
<totfact> 0.75496733E+02</totfact>
</mgrwt>
</event>
<event>
 6    1  0.8353100E-006  0.1281976E+03  0.7546771E-02  0.1244171E+00
          2   -1    0    0  501    0  0.00000000000E+00  0.00000000000E+00  0.18627670815E+03  0.18627670815E+03  0.00000000000E+00 0. -1.
         -2   -1    0    0    0  501 -0.00000000000E+00 -0.00000000000E+00 -0.68571695064E+02  0.68571695064E+02  0.00000000000E+00 0.  1.
          5    1    1    2  502    0  0.51500601154E+00  0.59864833753E+02  0.40623002965E+02  0.72500909797E+02  0.47000000000E+01 0. -1.
         -5    1    1    2    0  502 -0.28923088611E+02 -0.61459015174E+02  0.41131437272E+02  0.79546469017E+02  0.47000000000E+01 0. -1.
        -11    1    1    2    0    0 -0.20865678308E+01  0.43334755777E+02  0.24608002966E+02  0.49877937342E+02  0.00000000000E+00 0.  1.
         11    1    1    2    0    0  0.30494650430E+02 -0.41740574356E+02  0.11342569884E+02  0.52923087060E+02  0.00000000000E+00 0. -1.
<mgrwt>
<rscale>  0 0.11935143E+03</rscale>
<asrwt>0</asrwt>
<pdfrwt beam="1">  1        2 0.28657955E-01 0.12819757E+03</pdfrwt>
<pdfrwt beam="2">  1       -2 0.10549492E-01 0.12819757E+03</pdfrwt>
<totfact> 0.10532556E+04</totfact>
</mgrwt>
</event>
<event>
 6    1  0.8353100E-006  0.3186503E+03  0.7546771E-02  0.1076272E+00
          2   -1    0    0  501    0  0.00000000000E+00  0.00000000000E+00  0.57634838583E+03  0.57634838583E+03  0.00000000000E+00 0. -1.
         -2   -1    0    0    0  501 -0.00000000000E+00 -0.00000000000E+00 -0.44043688434E+02  0.44043688434E+02  0.00000000000E+00 0.  1.
          5    1    1    2  502    0 -0.85265023721E+02  0.76332658721E+02  0.27830536953E+03  0.30095309895E+03  0.47000000000E+01 0. -1.
         -5    1    1    2    0  502  0.25411283677E+02 -0.15130802165E+02  0.16050398496E+03  0.16327367730E+03  0.47000000000E+01 0. -1.
        -11    1    1    2    0    0  0.44590590496E+02 -0.24689696578E+02  0.10347952465E+03  0.11535126310E+03  0.00000000000E+00 0. -1.
         11    1    1    2    0    0  0.15263149547E+02 -0.36512159978E+02 -0.99841817428E+01  0.40814034907E+02  0.00000000000E+00 0.  1.
<mgrwt>
<rscale>  0 0.31865033E+03</rscale>
<asrwt>0</asrwt>
<pdfrwt beam="1">  1        2 0.88668977E-01 0.31865033E+03</pdfrwt>
<pdfrwt beam="2">  1       -2 0.67759525E-02 0.31865033E+03</pdfrwt>
<totfact> 0.64918286E+03</totfact>
</mgrwt>
</event>
<event>
 6    1  0.8353100E-006  0.1381722E+03  0.7546771E-02  0.1226425E+00
          1   -1    0    0  501    0  0.00000000000E+00  0.00000000000E+00  0.19307983006E+02  0.19307983006E+02  0.00000000000E+00 0. -1.
         -1   -1    0    0    0  501 -0.00000000000E+00 -0.00000000000E+00 -0.84233622232E+03  0.84233622232E+03  0.00000000000E+00 0.  1.
          5    1    1    2  502    0  0.14052730279E+02  0.63947239902E+02 -0.30314342785E+03  0.31016891618E+03  0.47000000000E+01 0.  1.
         -5    1    1    2    0  502 -0.47088974066E+02 -0.15207037748E+02 -0.57325953088E+02  0.75874767698E+02  0.47000000000E+01 0.  1.
        -11    1    1    2    0    0 -0.23705061441E+02  0.11619264983E+02 -0.82628879037E+02  0.86743696644E+02  0.00000000000E+00 0. -1.
         11    1    1    2    0    0  0.56741305228E+02 -0.60359467136E+02 -0.37992997934E+03  0.38885682480E+03  0.00000000000E+00 0.  1.
<mgrwt>
<rscale>  0 0.13069731E+03</rscale>
<asrwt>0</asrwt>
<pdfrwt beam="1">  1        1 0.29704589E-02 0.13817218E+03</pdfrwt>
<pdfrwt beam="2">  1       -1 0.12959019E+00 0.13817218E+03</pdfrwt>
<totfact> 0.18437495E+03</totfact>
</mgrwt>
</event>
<event>
 6    1  0.8353100E-006  0.1160637E+03  0.7546771E-02  0.1337494E+00
          2   -1    0    0  501    0  0.00000000000E+00  0.00000000000E+00  0.83481720987E+03  0.83481720987E+03  0.00000000000E+00 0. -1.
         -2   -1    0    0    0  501 -0.00000000000E+00 -0.00000000000E+00 -0.42548091255E+02  0.42548091255E+02  0.00000000000E+00 0.  1.
          5    1    1    2  502    0  0.22912914970E+02 -0.24748592414E+02  0.80287589556E+03  0.80359771538E+03  0.47000000000E+01 0. -1.
         -5    1    1    2    0  502 -0.19543185891E+02  0.36142650582E+01  0.24574704486E+02  0.31953170848E+02  0.47000000000E+01 0.  1.
        -11    1    1    2    0    0 -0.53727698498E+01  0.10705649591E+02 -0.18420091788E+02  0.21972195396E+02  0.00000000000E+00 0. -1.
         11    1    1    2    0    0  0.20030407710E+01  0.10428677765E+02 -0.16761389637E+02  0.19842219503E+02  0.00000000000E+00 0.  1.
<mgrwt>
<rscale>  0 0.77098163E+02</rscale>
<asrwt>0</asrwt>
<pdfrwt beam="1">  1        2 0.12843340E+00 0.11606372E+03</pdfrwt>
<pdfrwt beam="2">  1       -2 0.65458608E-02 0.11606372E+03</pdfrwt>
<totfact> 0.42094052E+03</totfact>
</mgrwt>
</event>
<event>
 6    1  0.8353100E-006  0.1253307E+03  0.7546771E-02  0.1250305E+00
          2   -1    0    0  501    0  0.00000000000E+00  0.00000000000E+00  0.47697313726E+03  0.47697313726E+03  0.00000000000E+00 0. -1.
         -2   -1    0    0    0  501 -0.00000000000E+00 -0.00000000000E+00 -0.25413734384E+02  0.25413734384E+02  0.00000000000E+00 0.  1.
          5    1    1    2  502    0 -0.35711521249E+01  0.45257512463E+02  0.35944094615E+02  0.58095296707E+02  0.47000000000E+01 0.  1.
         -5    1    1    2    0  502  0.51949889914E+01 -0.36434243266E+02  0.26980808733E+03  0.27234708734E+03  0.47000000000E+01 0.  1.
        -11    1    1    2    0    0 -0.44705961662E+01  0.26412955209E+02  0.56240151585E+01  0.27372613676E+02  0.00000000000E+00 0.  1.
         11    1    1    2    0    0  0.28467592997E+01 -0.35236224406E+02  0.14018320577E+03  0.14457187392E+03  0.00000000000E+00 0. -1.
<mgrwt>
<rscale>  0 0.11573414E+03</rscale>
<asrwt>0</asrwt>
<pdfrwt beam="1">  1        2 0.73380476E-01 0.12533065E+03</pdfrwt>
<pdfrwt beam="2">  1       -2 0.39098057E-02 0.12533065E+03</pdfrwt>
<totfact> 0.17478437E+04</totfact>
</mgrwt>
</event>
<event>
 6    1  0.8353100E-006  0.1278019E+03  0.7546771E-02  0.1246019E+00
         -1   -1    0    0    0  501 -0.00000000000E+00  0.00000000000E+00  0.15548553419E+02  0.15548553419E+02  0.00000000000E+00 0.  1.
          1   -1    0    0  501    0  0.00000000000E+00 -0.00000000000E+00 -0.79404043797E+03  0.79404043797E+03  0.00000000000E+00 0. -1.
          5    1    1    2  502    0 -0.59372158108E+02  0.29850587911E+02 -0.14862319096E+03  0.16287127938E+03  0.47000000000E+01 0.  1.
         -5    1    1    2    0  502  0.35496890163E+02 -0.18084745350E+02 -0.33347822392E+03  0.33588227559E+03  0.47000000000E+01 0.  1.
        -11    1    1    2    0    0  0.22987340216E+02  0.36718392702E+02 -0.10954068857E+03  0.11779567320E+03  0.00000000000E+00 0.  1.
         11    1    1    2    0    0  0.88792772918E+00 -0.48484235262E+02 -0.18684978110E+03  0.19303976321E+03  0.00000000000E+00 0. -1.
<mgrwt>
<rscale>  0 0.11824599E+03</rscale>
<asrwt>0</asrwt>
<pdfrwt beam="2">  1        1 0.12216004E+00 0.12780193E+03</pdfrwt>
<pdfrwt beam="1">  1       -1 0.23920857E-02 0.12780193E+03</pdfrwt>
<totfact> 0.11715907E+04</totfact>
</mgrwt>
</event>
<event>
 6    1  0.8353100E-006  0.4135617E+03  0.7546771E-02  0.1039935E+00
          2   -1    0    0  501    0  0.00000000000E+00  0.00000000000E+00  0.32991022656E+03  0.32991022656E+03  0.00000000000E+00 0. -1.
         -2   -1    0    0    0  501 -0.00000000000E+00 -0.00000000000E+00 -0.51887563799E+03  0.51887563799E+03  0.00000000000E+00 0.  1.
          5    1    1    2  502    0  0.38372418718E+02 -0.22377783634E+02 -0.81588718007E+01  0.45407762637E+02  0.47000000000E+01 0.  1.
         -5    1    1    2    0  502  0.32756277854E+03  0.16899963265E+03 -0.23809633650E+02  0.36938765325E+03  0.47000000000E+01 0.  1.
        -11    1    1    2    0    0 -0.34997679703E+02 -0.45729171266E+02 -0.11794044612E+02  0.58780049146E+02  0.00000000000E+00 0. -1.
         11    1    1    2    0    0 -0.33093751755E+03 -0.10089267775E+03 -0.14520286137E+03  0.37521039951E+03  0.00000000000E+00 0.  1.
<mgrwt>
<rscale>  0 0.41130235E+03</rscale>
<asrwt>0</asrwt>
<pdfrwt beam="1">  1        2 0.50755420E-01 0.41356167E+03</pdfrwt>
<pdfrwt beam="2">  1       -2 0.79827021E-01 0.41356167E+03</pdfrwt>
<totfact> 0.14080208E+02</totfact>
</mgrwt>
</event>
<event>
 6    1  0.8353100E-006  0.1255739E+03  0.7546771E-02  0.1249074E+00
          2   -1    0    0  501    0  0.00000000000E+00  0.00000000000E+00  0.30754445336E+04  0.30754445336E+04  0.00000000000E+00 0. -1.
         -2   -1    0    0    0  501 -0.00000000000E+00 -0.00000000000E+00 -0.74744565177E+01  0.74744565177E+01  0.00000000000E+00 0.  1.
          5    1    1    2  502    0  0.13001484335E+02 -0.53687776224E+02  0.17895949224E+04  0.17904534320E+04  0.47000000000E+01 0.  1.
         -5    1    1    2    0  502 -0.24625798964E+02  0.56222633917E+02  0.92652238576E+03  0.92856514896E+03  0.47000000000E+01 0.  1.
        -11    1    1    2    0    0 -0.30446097541E+02  0.26029629504E+02  0.11903425660E+03  0.12559323513E+03  0.00000000000E+00 0.  1.
         11    1    1    2    0    0  0.42070412170E+02 -0.28564487197E+02  0.23281851236E+03  0.23830717405E+03  0.00000000000E+00 0. -1.
<mgrwt>
<rscale>  0 0.11644820E+03</rscale>
<asrwt>0</asrwt>
<pdfrwt beam="1">  1        2 0.47314430E+00 0.12557393E+03</pdfrwt>
<pdfrwt beam="2">  1       -2 0.11499188E-02 0.12557393E+03</pdfrwt>
<totfact> 0.33205957E+03</totfact>
</mgrwt>
</event>
<event>
 6    1  0.8353100E-006  0.1432684E+03  0.7546771E-02  0.1218762E+00
          1   -1    0    0  501    0  0.00000000000E+00  0.00000000000E+00  0.12833448825E+03  0.12833448825E+03  0.00000000000E+00 0. -1.
         -1   -1    0    0    0  501 -0.00000000000E+00 -0.00000000000E+00 -0.13956738547E+03  0.13956738547E+03  0.00000000000E+00 0.  1.
          5    1    1    2  502    0  0.38858477503E+01  0.73813691425E+02 -0.16233732308E+02  0.75823379767E+02  0.47000000000E+01 0. -1.
         -5    1    1    2    0  502  0.48236538240E+02 -0.27101150895E+02  0.42283182314E+02  0.69793936039E+02  0.47000000000E+01 0. -1.
        -11    1    1    2    0    0 -0.33580314608E+02  0.35687827895E+01  0.23582455971E+02  0.41188663117E+02  0.00000000000E+00 0. -1.
         11    1    1    2    0    0 -0.18542071382E+02 -0.50281323320E+02 -0.60864803190E+02  0.81095894799E+02  0.00000000000E+00 0.  1.
<mgrwt>
<rscale>  0 0.13603774E+03</rscale>
<asrwt>0</asrwt>
<pdfrwt beam="1">  1        1 0.19743767E-01 0.14326838E+03</pdfrwt>
<pdfrwt beam="2">  1       -1 0.21471905E-01 0.14326838E+03</pdfrwt>
<totfact> 0.44737383E+03</totfact>
</mgrwt>
</event>
<event>
 6    1  0.8353100E-006  0.1445165E+03  0.7546771E-02  0.1218347E+00
         -1   -1    0    0    0  501 -0.00000000000E+00  0.00000000000E+00  0.36419148158E+03  0.36419148158E+03  0.00000000000E+00 0.  1.
          1   -1    0    0  501    0  0.00000000000E+00 -0.00000000000E+00 -0.59599445076E+02  0.59599445076E+02  0.00000000000E+00 0. -1.
          5    1    1    2  502    0 -0.63616666438E+02 -0.83475651461E+01  0.15386469568E+02  0.66148284470E+02  0.47000000000E+01 0.  1.
         -5    1    1    2    0  502  0.28953912712E+02  0.72042121629E+02  0.50025104243E+02  0.92482416732E+02  0.47000000000E+01 0.  1.
        -11    1    1    2    0    0 -0.21898633515E+02  0.41666484818E+01  0.25107107664E+02  0.33574960382E+02  0.00000000000E+00 0.  1.
         11    1    1    2    0    0  0.56561387241E+02 -0.67861204964E+02  0.21407335503E+03  0.23158526508E+03  0.00000000000E+00 0. -1.
<mgrwt>
<rscale>  0 0.13633521E+03</rscale>
<asrwt>0</asrwt>
<pdfrwt beam="2">  1        1 0.91691456E-02 0.14451652E+03</pdfrwt>
<pdfrwt beam="1">  1       -1 0.56029457E-01 0.14451652E+03</pdfrwt>
<totfact> 0.23258450E+03</totfact>
</mgrwt>
</event>
<event>
 6    1  0.8353100E-006  0.1486270E+03  0.7546771E-02  0.1211378E+00
         -1   -1    0    0    0  501 -0.00000000000E+00  0.00000000000E+00  0.46650232711E+02  0.46650232711E+02  0.00000000000E+00 0.  1.
          1   -1    0    0  501    0  0.00000000000E+00 -0.00000000000E+00 -0.14803089366E+04  0.14803089366E+04  0.00000000000E+00 0. -1.
          5    1    1    2  502    0  0.83134436402E+02 -0.13365850975E+02 -0.46949189862E+03  0.47700598881E+03  0.47000000000E+01 0.  1.
         -5    1    1    2    0  502 -0.38693225296E+01  0.26911299444E+02 -0.91973194844E+03  0.92014571492E+03  0.47000000000E+01 0.  1.
        -11    1    1    2    0    0 -0.54787414857E+02  0.48022873778E+01  0.19966729759E+02  0.58509769168E+02  0.00000000000E+00 0.  1.
         11    1    1    2    0    0 -0.24477699015E+02 -0.18347735847E+02 -0.64401586577E+02  0.71297696410E+02  0.00000000000E+00 0. -1.
<mgrwt>
<rscale>  0 0.14145956E+03</rscale>
<asrwt>0</asrwt>
<pdfrwt beam="2">  1        1 0.22773983E+00 0.14862700E+03</pdfrwt>
<pdfrwt beam="1">  1       -1 0.71769590E-02 0.14862700E+03</pdfrwt>
<totfact> 0.76087490E+02</totfact>
</mgrwt>
</event>
<event>
 6    1  0.8353100E-006  0.1331673E+03  0.7546771E-02  0.1242234E+00
         -3   -1    0    0    0  501 -0.00000000000E+00  0.00000000000E+00  0.52624364920E+02  0.52624364920E+02  0.00000000000E+00 0.  1.
          3   -1    0    0  501    0  0.00000000000E+00 -0.00000000000E+00 -0.23525941095E+03  0.23525941095E+03  0.00000000000E+00 0. -1.
          5    1    1    2  502    0 -0.55131611023E+01  0.30731068785E+02 -0.89702862063E+02  0.95097250204E+02  0.47000000000E+01 0.  1.
         -5    1    1    2    0  502  0.37470940402E+02 -0.63689102346E+02 -0.18069591820E+02  0.76216620764E+02  0.47000000000E+01 0.  1.
        -11    1    1    2    0    0 -0.82692255639E+01 -0.12018015795E+02  0.99725419391E+01  0.17671004154E+02  0.00000000000E+00 0.  1.
         11    1    1    2    0    0 -0.23688553736E+02  0.44976049356E+02 -0.84835134085E+02  0.98898900747E+02  0.00000000000E+00 0. -1.
<mgrwt>
<rscale>  0 0.12052490E+03</rscale>
<asrwt>0</asrwt>
<pdfrwt beam="2">  1        3 0.36193755E-01 0.13316734E+03</pdfrwt>
<pdfrwt beam="1">  1       -3 0.80960562E-02 0.13316734E+03</pdfrwt>
<totfact> 0.18025864E+03</totfact>
</mgrwt>
</event>
<event>
 6    1  0.8353100E-006  0.1234908E+03  0.7546771E-02  0.1247858E+00
          1   -1    0    0  501    0  0.00000000000E+00  0.00000000000E+00  0.12025344639E+04  0.12025344639E+04  0.00000000000E+00 0. -1.
         -1   -1    0    0    0  501 -0.00000000000E+00 -0.00000000000E+00 -0.13305440622E+02  0.13305440622E+02  0.00000000000E+00 0.  1.
          5    1    1    2  502    0  0.23436884896E+02  0.26632750581E+01  0.77271754862E+03  0.77309176723E+03  0.47000000000E+01 0. -1.
         -5    1    1    2    0  502 -0.44036773491E+02 -0.22532763530E+02  0.15401101881E+03  0.16182844857E+03  0.47000000000E+01 0.  1.
        -11    1    1    2    0    0 -0.31321381873E+02 -0.16438421970E+02  0.11683164199E+03  0.12206917404E+03  0.00000000000E+00 0. -1.
         11    1    1    2    0    0  0.51921270468E+02  0.36307910441E+02  0.14566881389E+03  0.15885051472E+03  0.00000000000E+00 0.  1.
<mgrwt>
<rscale>  0 0.11715931E+03</rscale>
<asrwt>0</asrwt>
<pdfrwt beam="1">  1        1 0.18500522E+00 0.12349078E+03</pdfrwt>
<pdfrwt beam="2">  1       -1 0.20469918E-02 0.12349078E+03</pdfrwt>
<totfact> 0.73212177E+03</totfact>
</mgrwt>
</event>
<event>
 6    1  0.8353100E-006  0.1326375E+03  0.7546771E-02  0.1236099E+00
          2   -1    0    0  501    0  0.00000000000E+00  0.00000000000E+00  0.29480628496E+03  0.29480628496E+03  0.00000000000E+00 0. -1.
         -2   -1    0    0    0  501 -0.00000000000E+00 -0.00000000000E+00 -0.47889988406E+02  0.47889988406E+02  0.00000000000E+00 0.  1.
          5    1    1    2  502    0 -0.28122431459E+02 -0.46478652333E+02  0.30747431897E+01  0.54613920566E+02  0.47000000000E+01 0.  1.
         -5    1    1    2    0  502  0.45832600735E+02  0.58078005633E+01  0.11103265445E+03  0.12035239171E+03  0.47000000000E+01 0.  1.
        -11    1    1    2    0    0  0.15760164507E+01  0.43452175492E+02  0.14027772857E+03  0.14686189606E+03  0.00000000000E+00 0. -1.
         11    1    1    2    0    0 -0.19286185726E+02 -0.27813237221E+01 -0.74688296515E+01  0.20868065025E+02  0.00000000000E+00 0.  1.
<mgrwt>
<rscale>  0 0.12434356E+03</rscale>
<asrwt>0</asrwt>
<pdfrwt beam="1">  1        2 0.45354812E-01 0.13263752E+03</pdfrwt>
<pdfrwt beam="2">  1       -2 0.73676907E-02 0.13263752E+03</pdfrwt>
<totfact> 0.11296266E+04</totfact>
</mgrwt>
</event>
<event>
 6    1  0.8353100E-006  0.1183307E+03  0.7546771E-02  0.1253530E+00
          1   -1    0    0  501    0  0.00000000000E+00  0.00000000000E+00  0.94515549421E+03  0.94515549421E+03  0.00000000000E+00 0. -1.
         -1   -1    0    0    0  501 -0.00000000000E+00 -0.00000000000E+00 -0.67729920972E+02  0.67729920972E+02  0.00000000000E+00 0.  1.
          5    1    1    2  502    0  0.35559502920E+02  0.23958161450E+02  0.53281746469E+03  0.53456057881E+03  0.47000000000E+01 0. -1.
         -5    1    1    2    0  502 -0.42602336381E+02 -0.51109723843E+02  0.36810251419E+03  0.37409719846E+03  0.47000000000E+01 0.  1.
        -11    1    1    2    0    0  0.48252954979E+02  0.17551601573E+02 -0.32766456260E+02  0.60910155457E+02  0.00000000000E+00 0.  1.
         11    1    1    2    0    0 -0.41210121518E+02  0.95999608195E+01  0.92720506133E+01  0.43317482450E+02  0.00000000000E+00 0. -1.
<mgrwt>
<rscale>  0 0.11389057E+03</rscale>
<asrwt>0</asrwt>
<pdfrwt beam="1">  1        1 0.14540853E+00 0.11833067E+03</pdfrwt>
<pdfrwt beam="2">  1       -1 0.10419989E-01 0.11833067E+03</pdfrwt>
<totfact> 0.10110763E+03</totfact>
</mgrwt>
</event>
<event>
 6    1  0.8353100E-006  0.1429924E+03  0.7546771E-02  0.1217094E+00
          1   -1    0    0  501    0  0.00000000000E+00  0.00000000000E+00  0.11858983042E+04  0.11858983042E+04  0.00000000000E+00 0. -1.
         -1   -1    0    0    0  501 -0.00000000000E+00 -0.00000000000E+00 -0.30477916914E+02  0.30477916914E+02  0.00000000000E+00 0.  1.
          5    1    1    2  502    0  0.72135909918E+02  0.22957310345E+02  0.31133094257E+03  0.32043669172E+03  0.47000000000E+01 0. -1.
         -5    1    1    2    0  502 -0.20839658842E+02  0.23842186221E+02  0.72575095610E+03  0.72645666182E+03  0.47000000000E+01 0. -1.
        -11    1    1    2    0    0 -0.75600780815E+02 -0.47187629560E+02  0.63288183827E+02  0.10930482448E+03  0.00000000000E+00 0.  1.
         11    1    1    2    0    0  0.24304529739E+02  0.38813299340E+00  0.55050304815E+02  0.60178043116E+02  0.00000000000E+00 0. -1.
<mgrwt>
<rscale>  0 0.13723815E+03</rscale>
<asrwt>0</asrwt>
<pdfrwt beam="1">  1        1 0.18244586E+00 0.14299241E+03</pdfrwt>
<pdfrwt beam="2">  1       -1 0.46889112E-02 0.14299241E+03</pdfrwt>
<totfact> 0.22560985E+03</totfact>
</mgrwt>
</event>
<event>
 6    1  0.8353100E-006  0.2351914E+03  0.7546771E-02  0.1123038E+00
         -2   -1    0    0    0  501 -0.00000000000E+00  0.00000000000E+00  0.52867679935E+02  0.52867679935E+02  0.00000000000E+00 0. -1.
          2   -1    0    0  501    0  0.00000000000E+00 -0.00000000000E+00 -0.26157278058E+03  0.26157278058E+03  0.00000000000E+00 0.  1.
          5    1    1    2  502    0 -0.13659061351E+02 -0.10823014800E+02  0.14371399634E+02  0.23072380323E+02  0.47000000000E+01 0.  1.
         -5    1    1    2    0  502  0.27188864585E+02  0.32950509608E+02 -0.18558046016E+03  0.19049190962E+03  0.47000000000E+01 0.  1.
        -11    1    1    2    0    0 -0.29950769621E+02  0.49678576601E+01 -0.56349693900E+02  0.64007938674E+02  0.00000000000E+00 0.  1.
         11    1    1    2    0    0  0.16420966387E+02 -0.27095352467E+02  0.18853653775E+02  0.36868231895E+02  0.00000000000E+00 0. -1.
<mgrwt>
<rscale>  0 0.23519138E+03</rscale>
<asrwt>0</asrwt>
<pdfrwt beam="2">  1        2 0.40241968E-01 0.23519138E+03</pdfrwt>
<pdfrwt beam="1">  1       -2 0.81334890E-02 0.23519138E+03</pdfrwt>
<totfact> 0.11474495E+04</totfact>
</mgrwt>
</event>
<event>
 6    1  0.8353100E-006  0.1994982E+03  0.7546771E-02  0.1158500E+00
         -2   -1    0    0    0  501 -0.00000000000E+00  0.00000000000E+00  0.12577800806E+03  0.12577800806E+03  0.00000000000E+00 0.  1.
          2   -1    0    0  501    0  0.00000000000E+00 -0.00000000000E+00 -0.27592103823E+03  0.27592103823E+03  0.00000000000E+00 0. -1.
          5    1    1    2  502    0 -0.80724956755E+02 -0.13633675609E+03 -0.82247892345E+02  0.17858061345E+03  0.47000000000E+01 0. -1.
         -5    1    1    2    0  502 -0.27395375034E+02  0.24613217391E+02 -0.43727484227E+02  0.57362879289E+02  0.47000000000E+01 0. -1.
        -11    1    1    2    0    0  0.54160045180E+02  0.90375315157E+02 -0.88163341907E+01  0.10572954096E+03  0.00000000000E+00 0.  1.
         11    1    1    2    0    0  0.53960286609E+02  0.21348223546E+02 -0.15351319401E+02  0.60026012585E+02  0.00000000000E+00 0. -1.
<mgrwt>
<rscale>  0 0.18995677E+03</rscale>
<asrwt>0</asrwt>
<pdfrwt beam="2">  1        2 0.42449390E-01 0.19949821E+03</pdfrwt>
<pdfrwt beam="1">  1       -2 0.19350463E-01 0.19949821E+03</pdfrwt>
<totfact> 0.26270668E+03</totfact>
</mgrwt>
</event>
<event>
 6    1  0.8353100E-006  0.2623498E+03  0.7546771E-02  0.1105740E+00
         -4   -1    0    0    0  501 -0.00000000000E+00  0.00000000000E+00  0.42124710488E+03  0.42124710488E+03  0.00000000000E+00 0.  1.
          4   -1    0    0  501    0  0.00000000000E+00 -0.00000000000E+00 -0.40847422164E+02  0.40847422164E+02  0.00000000000E+00 0. -1.
          5    1    1    2  502    0  0.26875392578E+00 -0.34173325109E+01 -0.21098872179E+02  0.21886132536E+02  0.47000000000E+01 0.  1.
         -5    1    1    2    0  502  0.10588115959E+02  0.65315235035E+02  0.16968835438E+03  0.18219334713E+03  0.47000000000E+01 0.  1.
        -11    1    1    2    0    0 -0.29202691828E+02 -0.54117774456E+02  0.22991620780E+03  0.23799788514E+03  0.00000000000E+00 0.  1.
         11    1    1    2    0    0  0.18345821943E+02 -0.77801280681E+01  0.18939927134E+01  0.20017162235E+02  0.00000000000E+00 0. -1.
<mgrwt>
<rscale>  0 0.26234983E+03</rscale>
<asrwt>0</asrwt>
<pdfrwt beam="2">  1        4 0.62842191E-02 0.26234983E+03</pdfrwt>
<pdfrwt beam="1">  1       -4 0.64807244E-01 0.26234983E+03</pdfrwt>
<totfact> 0.69002288E+02</totfact>
</mgrwt>
</event>
<event>
 6    1  0.8353100E-006  0.1400281E+03  0.7546771E-02  0.1224573E+00
          2   -1    0    0  501    0  0.00000000000E+00  0.00000000000E+00  0.47908045355E+03  0.47908045355E+03  0.00000000000E+00 0. -1.
         -2   -1    0    0    0  501 -0.00000000000E+00 -0.00000000000E+00 -0.44448618055E+02  0.44448618055E+02  0.00000000000E+00 0.  1.
          5    1    1    2  502    0 -0.56774600078E+02  0.41863886756E+02  0.10516484848E+03  0.12671888408E+03  0.47000000000E+01 0.  1.
         -5    1    1    2    0  502  0.42023612419E+02  0.19496509735E+02  0.26472217287E+03  0.26878619143E+03  0.47000000000E+01 0.  1.
        -11    1    1    2    0    0 -0.36378433115E+02 -0.37298419802E+02  0.19488666999E+02  0.55627067665E+02  0.00000000000E+00 0.  1.
         11    1    1    2    0    0  0.51129420774E+02 -0.24061976689E+02  0.45256147144E+02  0.72396928424E+02  0.00000000000E+00 0. -1.
<mgrwt>
<rscale>  0 0.13196188E+03</rscale>
<asrwt>0</asrwt>
<pdfrwt beam="1">  1        2 0.73704682E-01 0.14002806E+03</pdfrwt>
<pdfrwt beam="2">  1       -2 0.68382492E-02 0.14002806E+03</pdfrwt>
<totfact> 0.75655129E+03</totfact>
</mgrwt>
</event>
<event>
 6    1  0.8353100E-006  0.2422237E+03  0.7546771E-02  0.1118320E+00
         -1   -1    0    0    0  501 -0.00000000000E+00  0.00000000000E+00  0.18275227959E+02  0.18275227959E+02  0.00000000000E+00 0.  1.
          1   -1    0    0  501    0  0.00000000000E+00 -0.00000000000E+00 -0.80262098118E+03  0.80262098118E+03  0.00000000000E+00 0. -1.
          5    1    1    2  502    0  0.13590468122E+02 -0.10391045167E+02 -0.26535494559E+01  0.17938951144E+02  0.47000000000E+01 0. -1.
         -5    1    1    2    0  502 -0.21812848540E+02 -0.38116754196E+02 -0.51392451163E+03  0.51581894204E+03  0.47000000000E+01 0. -1.
        -11    1    1    2    0    0 -0.30875473889E+02  0.40515229893E+02 -0.21515797266E+03  0.22110570309E+03  0.00000000000E+00 0. -1.
         11    1    1    2    0    0  0.39097854307E+02  0.79925694693E+01 -0.52609719471E+02  0.66032612859E+02  0.00000000000E+00 0.  1.
<mgrwt>
<rscale>  0 0.24222371E+03</rscale>
<asrwt>0</asrwt>
<pdfrwt beam="2">  1        1 0.12348015E+00 0.24222371E+03</pdfrwt>
<pdfrwt beam="1">  1       -1 0.28115735E-02 0.24222371E+03</pdfrwt>
<totfact> 0.94453514E+03</totfact>
</mgrwt>
</event>
<event>
 6    1  0.8353100E-006  0.4316988E+03  0.7546771E-02  0.1033325E+00
         -1   -1    0    0    0  501 -0.00000000000E+00  0.00000000000E+00  0.40422463980E+02  0.40422463980E+02  0.00000000000E+00 0.  1.
          1   -1    0    0  501    0  0.00000000000E+00 -0.00000000000E+00 -0.11526007158E+04  0.11526007158E+04  0.00000000000E+00 0. -1.
          5    1    1    2  502    0 -0.13617773636E+03 -0.41996040321E+02 -0.82581232669E+03  0.83803110455E+03  0.47000000000E+01 0. -1.
         -5    1    1    2    0  502  0.28214763017E+02 -0.58635395332E+01 -0.14942688879E+03  0.15225287860E+03  0.47000000000E+01 0. -1.
        -11    1    1    2    0    0  0.47371148169E+02 -0.21658768133E+02 -0.76250623830E+02  0.92343302683E+02  0.00000000000E+00 0. -1.
         11    1    1    2    0    0  0.60591825179E+02  0.69518347987E+02 -0.60688412489E+02  0.11039589393E+03  0.00000000000E+00 0.  1.
<mgrwt>
<rscale>  0 0.43169879E+03</rscale>
<asrwt>0</asrwt>
<pdfrwt beam="2">  1        1 0.17732321E+00 0.43169879E+03</pdfrwt>
<pdfrwt beam="1">  1       -1 0.62188398E-02 0.43169879E+03</pdfrwt>
<totfact> 0.15618286E+03</totfact>
</mgrwt>
</event>
<event>
 6    1  0.8353100E-006  0.1725962E+03  0.7546771E-02  0.1181630E+00
          1   -1    0    0  501    0  0.00000000000E+00  0.00000000000E+00  0.26797654951E+03  0.26797654951E+03  0.00000000000E+00 0. -1.
         -1   -1    0    0    0  501 -0.00000000000E+00 -0.00000000000E+00 -0.13760046510E+03  0.13760046510E+03  0.00000000000E+00 0.  1.
          5    1    1    2  502    0 -0.62928704446E+02  0.32371992679E+02  0.52404699025E+02  0.88183389780E+02  0.47000000000E+01 0.  1.
         -5    1    1    2    0  502 -0.41660869658E+02 -0.89262770569E+02  0.12659266060E+03  0.16047199752E+03  0.47000000000E+01 0.  1.
        -11    1    1    2    0    0  0.70744268175E+02 -0.11363348141E+02 -0.34155699329E+02  0.79375619413E+02  0.00000000000E+00 0. -1.
         11    1    1    2    0    0  0.33845305929E+02  0.68254126032E+02 -0.14465575899E+02  0.77546007891E+02  0.00000000000E+00 0.  1.
<mgrwt>
<rscale>  0 0.16642362E+03</rscale>
<asrwt>0</asrwt>
<pdfrwt beam="1">  1        1 0.41227161E-01 0.17259620E+03</pdfrwt>
<pdfrwt beam="2">  1       -1 0.21169302E-01 0.17259620E+03</pdfrwt>
<totfact> 0.18322631E+03</totfact>
</mgrwt>
</event>
<event>
 6    1  0.8353100E-006  0.1473229E+03  0.7546771E-02  0.1212643E+00
          1   -1    0    0  501    0  0.00000000000E+00  0.00000000000E+00  0.70881516397E+03  0.70881516397E+03  0.00000000000E+00 0. -1.
         -1   -1    0    0    0  501 -0.00000000000E+00 -0.00000000000E+00 -0.29912736885E+02  0.29912736885E+02  0.00000000000E+00 0.  1.
          5    1    1    2  502    0  0.37938277363E+02  0.15913564704E+02  0.10795861067E+03  0.11562744504E+03  0.47000000000E+01 0.  1.
         -5    1    1    2    0  502 -0.44820191884E+02 -0.93601682857E+02  0.39915423248E+03  0.41245159224E+03  0.47000000000E+01 0.  1.
        -11    1    1    2    0    0 -0.85676273647E+01  0.81173176406E+01 -0.99494366712E+01  0.15436527278E+02  0.00000000000E+00 0.  1.
         11    1    1    2    0    0  0.15449541885E+02  0.69570800512E+02  0.18173902061E+03  0.19521233629E+03  0.00000000000E+00 0. -1.
<mgrwt>
<rscale>  0 0.14051080E+03</rscale>
<asrwt>0</asrwt>
<pdfrwt beam="1">  1        1 0.10904847E+00 0.14732289E+03</pdfrwt>
<pdfrwt beam="2">  1       -1 0.46019600E-02 0.14732289E+03</pdfrwt>
<totfact> 0.53644173E+03</totfact>
</mgrwt>
</event>
<event>
 6    1  0.8353100E-006  0.1327249E+03  0.7546771E-02  0.1234814E+00
         -1   -1    0    0    0  501 -0.00000000000E+00  0.00000000000E+00  0.20610571026E+03  0.20610571026E+03  0.00000000000E+00 0.  1.
          1   -1    0    0  501    0  0.00000000000E+00 -0.00000000000E+00 -0.74983592666E+02  0.74983592666E+02  0.00000000000E+00 0. -1.
          5    1    1    2  502    0  0.20305752092E+02 -0.79214303666E+02  0.29985128319E+02  0.87226299896E+02  0.47000000000E+01 0.  1.
         -5    1    1    2    0  502  0.11217349004E+02  0.47650933764E+02  0.15976657125E+01  0.49204501247E+02  0.47000000000E+01 0.  1.
        -11    1    1    2    0    0 -0.36923547968E+01 -0.29715340090E+02  0.79157227597E+01  0.30972464988E+02  0.00000000000E+00 0.  1.
         11    1    1    2    0    0 -0.27830746299E+02  0.61278709992E+02  0.91623600798E+02  0.11368603679E+03  0.00000000000E+00 0. -1.
<mgrwt>
<rscale>  0 0.12516333E+03</rscale>
<asrwt>0</asrwt>
<pdfrwt beam="2">  1        1 0.11535937E-01 0.13272487E+03</pdfrwt>
<pdfrwt beam="1">  1       -1 0.31708571E-01 0.13272487E+03</pdfrwt>
<totfact> 0.46875030E+03</totfact>
</mgrwt>
</event>
<event>
 6    1  0.8353100E-006  0.1286142E+03  0.7546771E-02  0.1243998E+00
          2   -1    0    0  501    0  0.00000000000E+00  0.00000000000E+00  0.69840742298E+03  0.69840742298E+03  0.00000000000E+00 0. -1.
         -2   -1    0    0    0  501 -0.00000000000E+00 -0.00000000000E+00 -0.24303637587E+02  0.24303637587E+02  0.00000000000E+00 0.  1.
          5    1    1    2  502    0  0.66469886735E+02  0.32108361371E+02  0.42569735433E+03  0.43207582691E+03  0.47000000000E+01 0. -1.
         -5    1    1    2    0  502 -0.45988591898E+02 -0.98176631807E+01  0.13036780858E+03  0.13866936435E+03  0.47000000000E+01 0. -1.
        -11    1    1    2    0    0 -0.13872171292E+02 -0.55942113921E+02  0.52340523804E+02  0.77855556503E+02  0.00000000000E+00 0.  1.
         11    1    1    2    0    0 -0.66091235452E+01  0.33651415731E+02  0.65698098675E+02  0.74110312806E+02  0.00000000000E+00 0. -1.
<mgrwt>
<rscale>  0 0.11945562E+03</rscale>
<asrwt>0</asrwt>
<pdfrwt beam="1">  1        2 0.10744728E+00 0.12861418E+03</pdfrwt>
<pdfrwt beam="2">  1       -2 0.37390217E-02 0.12861418E+03</pdfrwt>
<totfact> 0.12168393E+04</totfact>
</mgrwt>
</event>
<event>
 6    1  0.8353100E-006  0.1278061E+03  0.7546771E-02  0.1238757E+00
          2   -1    0    0  501    0  0.00000000000E+00  0.00000000000E+00  0.20604052681E+03  0.20604052681E+03  0.00000000000E+00 0.  1.
         -2   -1    0    0    0  501 -0.00000000000E+00 -0.00000000000E+00 -0.87324316992E+02  0.87324316992E+02  0.00000000000E+00 0. -1.
          5    1    1    2  502    0  0.42535737054E+02  0.59237540002E+02  0.73293312471E+02  0.10350060254E+03  0.47000000000E+01 0. -1.
         -5    1    1    2    0  502 -0.43590080293E+02 -0.32678528988E+02  0.59127646831E+02  0.80536637480E+02  0.47000000000E+01 0. -1.
        -11    1    1    2    0    0  0.73418395725E+01  0.40385209043E+02 -0.21520460173E+01  0.41103515906E+02  0.00000000000E+00 0.  1.
         11    1    1    2    0    0 -0.62874963334E+01 -0.66944220058E+02 -0.11552703470E+02  0.68224087878E+02  0.00000000000E+00 0. -1.
<mgrwt>
<rscale>  0 0.12266941E+03</rscale>
<asrwt>0</asrwt>
<pdfrwt beam="1">  1        2 0.31698543E-01 0.12780608E+03</pdfrwt>
<pdfrwt beam="2">  1       -2 0.13434510E-01 0.12780608E+03</pdfrwt>
<totfact> 0.64238429E+03</totfact>
</mgrwt>
</event>
<event>
 6    1  0.8353100E-006  0.1425705E+03  0.7546771E-02  0.1219440E+00
         -3   -1    0    0    0  501 -0.00000000000E+00  0.00000000000E+00  0.84076111257E+02  0.84076111257E+02  0.00000000000E+00 0.  1.
          3   -1    0    0  501    0  0.00000000000E+00 -0.00000000000E+00 -0.20612079946E+03  0.20612079946E+03  0.00000000000E+00 0. -1.
          5    1    1    2  502    0  0.91818598967E+01  0.73611524887E+02 -0.11579553511E+03  0.13759963335E+03  0.47000000000E+01 0. -1.
         -5    1    1    2    0  502  0.22099232173E+02 -0.26841030464E+01  0.23125636979E+02  0.32441725563E+02  0.47000000000E+01 0.  1.
        -11    1    1    2    0    0  0.20171842789E+02  0.20207573882E+01  0.99811597883E+01  0.22596686763E+02  0.00000000000E+00 0. -1.
         11    1    1    2    0    0 -0.51452934859E+02 -0.72948179229E+02 -0.39355949863E+02  0.97558865041E+02  0.00000000000E+00 0.  1.
<mgrwt>
<rscale>  0 0.13555411E+03</rscale>
<asrwt>0</asrwt>
<pdfrwt beam="2">  1        3 0.31710891E-01 0.14257052E+03</pdfrwt>
<pdfrwt beam="1">  1       -3 0.12934787E-01 0.14257052E+03</pdfrwt>
<totfact> 0.10753921E+03</totfact>
</mgrwt>
</event>
<event>
 6    1  0.8353100E-006  0.1273756E+03  0.7546771E-02  0.1246445E+00
          2   -1    0    0  501    0  0.00000000000E+00  0.00000000000E+00  0.45231651702E+03  0.45231651702E+03  0.00000000000E+00 0. -1.
         -2   -1    0    0    0  501 -0.00000000000E+00 -0.00000000000E+00 -0.30543468358E+02  0.30543468358E+02  0.00000000000E+00 0.  1.
          5    1    1    2  502    0 -0.16008684209E+01 -0.19843535829E+02 -0.13883192691E+01  0.20502344360E+02  0.47000000000E+01 0.  1.
         -5    1    1    2    0  502 -0.16349562638E+02  0.36520031320E+02  0.32159668442E+03  0.32411037984E+03  0.47000000000E+01 0.  1.
        -11    1    1    2    0    0 -0.46181500596E+01 -0.41090726659E+02  0.12528111215E+02  0.43205655855E+02  0.00000000000E+00 0.  1.
         11    1    1    2    0    0  0.22568581118E+02  0.24414231167E+02  0.89036572291E+02  0.95041605324E+02  0.00000000000E+00 0. -1.
<mgrwt>
<rscale>  0 0.11799291E+03</rscale>
<asrwt>0</asrwt>
<pdfrwt beam="1">  1        2 0.69587152E-01 0.12737556E+03</pdfrwt>
<pdfrwt beam="2">  1       -2 0.46989955E-02 0.12737556E+03</pdfrwt>
<totfact> 0.14101245E+04</totfact>
</mgrwt>
</event>
<event>
 6    1  0.8353100E-006  0.2473783E+03  0.7546771E-02  0.1114973E+00
          1   -1    0    0  501    0  0.00000000000E+00  0.00000000000E+00  0.12442200662E+04  0.12442200662E+04  0.00000000000E+00 0. -1.
         -1   -1    0    0    0  501 -0.00000000000E+00 -0.00000000000E+00 -0.12296065125E+02  0.12296065125E+02  0.00000000000E+00 0.  1.
          5    1    1    2  502    0 -0.30207301297E+02 -0.15726324677E+02  0.34284583674E+03  0.34456516961E+03  0.47000000000E+01 0.  1.
         -5    1    1    2    0  502  0.73472621782E+02  0.56154274966E+02  0.35589834298E+03  0.36774617508E+03  0.47000000000E+01 0.  1.
        -11    1    1    2    0    0  0.17950509218E+02 -0.41298186952E+02  0.16808420227E+03  0.17401166651E+03  0.00000000000E+00 0.  1.
         11    1    1    2    0    0 -0.61215829704E+02  0.87023666335E+00  0.36509561910E+03  0.37019312014E+03  0.00000000000E+00 0. -1.
<mgrwt>
<rscale>  0 0.24737834E+03</rscale>
<asrwt>0</asrwt>
<pdfrwt beam="1">  1        1 0.19141837E+00 0.24737834E+03</pdfrwt>
<pdfrwt beam="2">  1       -1 0.18917033E-02 0.24737834E+03</pdfrwt>
<totfact> 0.79058124E+03</totfact>
</mgrwt>
</event>
<event>
 6    1  0.8353100E-006  0.1282043E+03  0.7546771E-02  0.1249150E+00
          2   -1    0    0  501    0  0.00000000000E+00  0.00000000000E+00  0.82371113849E+03  0.82371113849E+03  0.00000000000E+00 0. -1.
         -2   -1    0    0    0  501 -0.00000000000E+00 -0.00000000000E+00 -0.14084901465E+02  0.14084901465E+02  0.00000000000E+00 0.  1.
          5    1    1    2  502    0 -0.87120315833E+01  0.53191628282E+02  0.18806549270E+03  0.19569355727E+03  0.47000000000E+01 0.  1.
         -5    1    1    2    0  502 -0.11852003041E+02 -0.72868637142E+02  0.28200036703E+03  0.29154177275E+03  0.47000000000E+01 0.  1.
        -11    1    1    2    0    0 -0.24679771619E+02 -0.52799414131E+01  0.45825762535E+02  0.52316053180E+02  0.00000000000E+00 0. -1.
         11    1    1    2    0    0  0.45243806242E+02  0.24956950274E+02  0.29373461476E+03  0.29824465675E+03  0.00000000000E+00 0.  1.
<mgrwt>
<rscale>  0 0.11640415E+03</rscale>
<asrwt>0</asrwt>
<pdfrwt beam="1">  1        2 0.12672475E+00 0.12820435E+03</pdfrwt>
<pdfrwt beam="2">  1       -2 0.21669086E-02 0.12820435E+03</pdfrwt>
<totfact> 0.22134407E+04</totfact>
</mgrwt>
</event>
<event>
 6    1  0.8353100E-006  0.1420654E+03  0.7546771E-02  0.1221476E+00
         -1   -1    0    0    0  501 -0.00000000000E+00  0.00000000000E+00  0.26575684342E+02  0.26575684342E+02  0.00000000000E+00 0.  1.
          1   -1    0    0  501    0  0.00000000000E+00 -0.00000000000E+00 -0.61121115114E+03  0.61121115114E+03  0.00000000000E+00 0. -1.
          5    1    1    2  502    0 -0.26396820209E+01 -0.10356390453E+03 -0.22753891116E+03  0.25005698618E+03  0.47000000000E+01 0. -1.
         -5    1    1    2    0  502  0.96526299661E+01  0.36424905561E+02 -0.99828226729E+02  0.10680689052E+03  0.47000000000E+01 0. -1.
        -11    1    1    2    0    0 -0.19492240732E+02  0.82737047690E+02 -0.15553499216E+03  0.17724700363E+03  0.00000000000E+00 0.  1.
         11    1    1    2    0    0  0.12479292787E+02 -0.15598048720E+02 -0.10173333674E+03  0.10367595515E+03  0.00000000000E+00 0. -1.
<mgrwt>
<rscale>  0 0.13411362E+03</rscale>
<asrwt>0</asrwt>
<pdfrwt beam="2">  1        1 0.94032479E-01 0.14206542E+03</pdfrwt>
<pdfrwt beam="1">  1       -1 0.40885671E-02 0.14206542E+03</pdfrwt>
<totfact> 0.78480861E+03</totfact>
</mgrwt>
</event>
<event>
 6    1  0.8353100E-006  0.2646467E+03  0.7546771E-02  0.1104383E+00
          1   -1    0    0  501    0  0.00000000000E+00  0.00000000000E+00  0.21123309614E+03  0.21123309614E+03  0.00000000000E+00 0. -1.
         -1   -1    0    0    0  501 -0.00000000000E+00 -0.00000000000E+00 -0.82891678111E+02  0.82891678111E+02  0.00000000000E+00 0.  1.
          5    1    1    2  502    0 -0.92443891384E+02  0.35887620797E+02  0.47939530716E+02  0.11024555767E+03  0.47000000000E+01 0. -1.
         -5    1    1    2    0  502  0.28598679546E+02 -0.20231552335E+02  0.52846850309E+02  0.63577352645E+02  0.47000000000E+01 0.  1.
        -11    1    1    2    0    0  0.51259857125E+02  0.31297175230E+02 -0.72793866992E+01  0.60498558665E+02  0.00000000000E+00 0.  1.
         11    1    1    2    0    0  0.12585354714E+02 -0.46953243693E+02  0.34834423702E+02  0.59803305270E+02  0.00000000000E+00 0. -1.
<mgrwt>
<rscale>  0 0.26464668E+03</rscale>
<asrwt>0</asrwt>
<pdfrwt beam="1">  1        1 0.32497399E-01 0.26464668E+03</pdfrwt>
<pdfrwt beam="2">  1       -1 0.12752566E-01 0.26464668E+03</pdfrwt>
<totfact> 0.56403898E+03</totfact>
</mgrwt>
</event>
<event>
 6    1  0.8353100E-006  0.1508246E+03  0.7546771E-02  0.1218490E+00
         -2   -1    0    0    0  501 -0.00000000000E+00  0.00000000000E+00  0.24089310522E+02  0.24089310522E+02  0.00000000000E+00 0.  1.
          2   -1    0    0  501    0  0.00000000000E+00 -0.00000000000E+00 -0.98685664170E+03  0.98685664170E+03  0.00000000000E+00 0. -1.
          5    1    1    2  502    0 -0.51879825779E+02  0.66284641337E+02 -0.38315426840E+03  0.39231932580E+03  0.47000000000E+01 0. -1.
         -5    1    1    2    0  502  0.56866797361E+02 -0.26328603848E+02 -0.45155569883E+03  0.45590752041E+03  0.47000000000E+01 0.  1.
        -11    1    1    2    0    0 -0.39258347320E+02  0.65519543372E+01 -0.34048706978E+02  0.52378052529E+02  0.00000000000E+00 0. -1.
         11    1    1    2    0    0  0.34271375738E+02 -0.46507991827E+02 -0.94008656966E+02  0.11034105348E+03  0.00000000000E+00 0.  1.
<mgrwt>
<rscale>  0 0.13623236E+03</rscale>
<asrwt>0</asrwt>
<pdfrwt beam="2">  1        2 0.15182403E+00 0.15082458E+03</pdfrwt>
<pdfrwt beam="1">  1       -2 0.37060495E-02 0.15082458E+03</pdfrwt>
<totfact> 0.80273910E+03</totfact>
</mgrwt>
</event>
<event>
 6    1  0.8353100E-006  0.1387924E+03  0.7546771E-02  0.1227757E+00
         -2   -1    0    0    0  501 -0.00000000000E+00  0.00000000000E+00  0.19381548992E+03  0.19381548992E+03  0.00000000000E+00 0.  1.
          2   -1    0    0  501    0  0.00000000000E+00 -0.00000000000E+00 -0.99533113215E+02  0.99533113215E+02  0.00000000000E+00 0. -1.
          5    1    1    2  502    0 -0.14282154386E+02  0.70891091782E+02  0.21892434052E+01  0.72501100782E+02  0.47000000000E+01 0.  1.
         -5    1    1    2    0  502 -0.41895590706E+02 -0.48936763098E+02 -0.18858378833E+02  0.67288749099E+02  0.47000000000E+01 0.  1.
        -11    1    1    2    0    0  0.26270851546E+02 -0.49051498371E+02  0.95135583008E+02  0.11021336710E+03  0.00000000000E+00 0.  1.
         11    1    1    2    0    0  0.29906893546E+02  0.27097169687E+02  0.15815929124E+02  0.43345386152E+02  0.00000000000E+00 0. -1.
<mgrwt>
<rscale>  0 0.12979714E+03</rscale>
<asrwt>0</asrwt>
<pdfrwt beam="2">  1        2 0.15312787E-01 0.13879244E+03</pdfrwt>
<pdfrwt beam="1">  1       -2 0.29817768E-01 0.13879244E+03</pdfrwt>
<totfact> 0.37716960E+03</totfact>
</mgrwt>
</event>
<event>
 6    1  0.8353100E-006  0.2092741E+03  0.7546771E-02  0.1146788E+00
         -2   -1    0    0    0  501 -0.00000000000E+00  0.00000000000E+00  0.98905936236E+03  0.98905936236E+03  0.00000000000E+00 0.  1.
          2   -1    0    0  501    0  0.00000000000E+00 -0.00000000000E+00 -0.49691886896E+02  0.49691886896E+02  0.00000000000E+00 0. -1.
          5    1    1    2  502    0  0.10307635246E+03 -0.14560576251E+03  0.24099113004E+03  0.29987428578E+03  0.47000000000E+01 0. -1.
         -5    1    1    2    0  502 -0.26926972059E+02 -0.39807880905E+01  0.17449822526E+02  0.32672538993E+02  0.47000000000E+01 0. -1.
        -11    1    1    2    0    0 -0.10529543831E+02  0.82303213074E+02  0.20627693839E+03  0.22233952750E+03  0.00000000000E+00 0. -1.
         11    1    1    2    0    0 -0.65619836574E+02  0.67283337530E+02  0.47464958451E+03  0.48386489699E+03  0.00000000000E+00 0.  1.
<mgrwt>
<rscale>  0 0.20353729E+03</rscale>
<asrwt>0</asrwt>
<pdfrwt beam="2">  1        2 0.76449064E-02 0.20927414E+03</pdfrwt>
<pdfrwt beam="1">  1       -2 0.15216297E+00 0.20927414E+03</pdfrwt>
<totfact> 0.27477996E+02</totfact>
</mgrwt>
</event>
<event>
 6    1  0.8353100E-006  0.2410255E+03  0.7546771E-02  0.1122071E+00
          4   -1    0    0  501    0  0.00000000000E+00  0.00000000000E+00  0.46695742372E+03  0.46695742372E+03  0.00000000000E+00 0. -1.
         -4   -1    0    0    0  501 -0.00000000000E+00 -0.00000000000E+00 -0.12974490506E+03  0.12974490506E+03  0.00000000000E+00 0.  1.
          5    1    1    2  502    0 -0.25417702957E+02 -0.31279239639E+02  0.10170258158E+02  0.41832697821E+02  0.47000000000E+01 0. -1.
         -5    1    1    2    0  502  0.85752787843E+02 -0.16577042603E+03  0.26208850985E+03  0.32178541260E+03  0.47000000000E+01 0. -1.
        -11    1    1    2    0    0  0.12683165714E+02 -0.55041436917E+00  0.19867130548E+00  0.12696657780E+02  0.00000000000E+00 0.  1.
         11    1    1    2    0    0 -0.73018250600E+02  0.19760008004E+03  0.64755079345E+02  0.22038756057E+03  0.00000000000E+00 0. -1.
<mgrwt>
<rscale>  0 0.23661213E+03</rscale>
<asrwt>0</asrwt>
<pdfrwt beam="1">  1        4 0.71839603E-01 0.24102550E+03</pdfrwt>
<pdfrwt beam="2">  1       -4 0.19960755E-01 0.24102550E+03</pdfrwt>
<totfact> 0.74159753E+01</totfact>
</mgrwt>
</event>
<event>
 6    1  0.8353100E-006  0.3242402E+03  0.7546771E-02  0.1075984E+00
         -1   -1    0    0    0  501 -0.00000000000E+00  0.00000000000E+00  0.19924906897E+03  0.19924906897E+03  0.00000000000E+00 0.  1.
          1   -1    0    0  501    0  0.00000000000E+00 -0.00000000000E+00 -0.59001044104E+03  0.59001044104E+03  0.00000000000E+00 0. -1.
          5    1    1    2  502    0  0.55467487989E+02  0.42404038395E+02 -0.20187425897E+02  0.72831084437E+02  0.47000000000E+01 0. -1.
         -5    1    1    2    0  502  0.22232715783E+03  0.68635366652E+02 -0.33728896222E+03  0.40978788745E+03  0.47000000000E+01 0. -1.
        -11    1    1    2    0    0 -0.23986469011E+03 -0.77940462203E+02 -0.13563363213E+02  0.25257424658E+03  0.00000000000E+00 0.  1.
         11    1    1    2    0    0 -0.37929955708E+02 -0.33098942844E+02 -0.19721620732E+02  0.54066291547E+02  0.00000000000E+00 0. -1.
<mgrwt>
<rscale>  0 0.31927440E+03</rscale>
<asrwt>0</asrwt>
<pdfrwt beam="2">  1        1 0.90770837E-01 0.32424019E+03</pdfrwt>
<pdfrwt beam="1">  1       -1 0.30653703E-01 0.32424019E+03</pdfrwt>
<totfact> 0.35562856E+02</totfact>
</mgrwt>
</event>
<event>
 6    1  0.8353100E-006  0.1399724E+03  0.7546771E-02  0.1223319E+00
          1   -1    0    0  501    0  0.00000000000E+00  0.00000000000E+00  0.38056169171E+03  0.38056169171E+03  0.00000000000E+00 0. -1.
         -1   -1    0    0    0  501 -0.00000000000E+00 -0.00000000000E+00 -0.54388998009E+02  0.54388998009E+02  0.00000000000E+00 0.  1.
          5    1    1    2  502    0 -0.75151375070E+01  0.37874545303E+02  0.27372219069E+03  0.27647221587E+03  0.47000000000E+01 0. -1.
         -5    1    1    2    0  502  0.26921815690E+02  0.22043401833E+02  0.50568712751E+01  0.35473337473E+02  0.47000000000E+01 0. -1.
        -11    1    1    2    0    0  0.25124906538E+02 -0.36095070167E+02 -0.11465702504E+02  0.45448623223E+02  0.00000000000E+00 0. -1.
         11    1    1    2    0    0 -0.44531584721E+02 -0.23822876969E+02  0.58859334239E+02  0.77556513149E+02  0.00000000000E+00 0.  1.
<mgrwt>
<rscale>  0 0.13282766E+03</rscale>
<asrwt>0</asrwt>
<pdfrwt beam="1">  1        1 0.58547951E-01 0.13997236E+03</pdfrwt>
<pdfrwt beam="2">  1       -1 0.83675384E-02 0.13997236E+03</pdfrwt>
<totfact> 0.49984694E+03</totfact>
</mgrwt>
</event>
<event>
 6    1  0.8353100E-006  0.1300797E+03  0.7546771E-02  0.1242327E+00
         -1   -1    0    0    0  501 -0.00000000000E+00  0.00000000000E+00  0.16020751048E+02  0.16020751048E+02  0.00000000000E+00 0.  1.
          1   -1    0    0  501    0  0.00000000000E+00 -0.00000000000E+00 -0.14818968106E+04  0.14818968106E+04  0.00000000000E+00 0. -1.
          5    1    1    2  502    0  0.22098101027E+02  0.20856552185E+02 -0.11113094343E+04  0.11117347124E+04  0.47000000000E+01 0.  1.
         -5    1    1    2    0  502 -0.47737903318E+02  0.44195202211E+01 -0.18813690246E+03  0.19420613698E+03  0.47000000000E+01 0.  1.
        -11    1    1    2    0    0 -0.16331152573E+02  0.37603803666E+01  0.11499318659E+01  0.16797897135E+02  0.00000000000E+00 0.  1.
         11    1    1    2    0    0  0.41970954864E+02 -0.29036452772E+02 -0.16757965468E+03  0.17517881523E+03  0.00000000000E+00 0. -1.
<mgrwt>
<rscale>  0 0.12046795E+03</rscale>
<asrwt>0</asrwt>
<pdfrwt beam="2">  1        1 0.22798412E+00 0.13007967E+03</pdfrwt>
<pdfrwt beam="1">  1       -1 0.24647310E-02 0.13007967E+03</pdfrwt>
<totfact> 0.36634726E+03</totfact>
</mgrwt>
</event>
<event>
 6    1  0.8353100E-006  0.1282530E+03  0.7546771E-02  0.1241990E+00
         -2   -1    0    0    0  501 -0.00000000000E+00  0.00000000000E+00  0.53654525078E+02  0.53654525078E+02  0.00000000000E+00 0.  1.
          2   -1    0    0  501    0  0.00000000000E+00 -0.00000000000E+00 -0.26509639216E+03  0.26509639216E+03  0.00000000000E+00 0. -1.
          5    1    1    2  502    0 -0.37009003308E+02 -0.33187216835E+02 -0.17491153450E+03  0.18189885263E+03  0.47000000000E+01 0.  1.
         -5    1    1    2    0  502  0.16241018760E+02  0.13379594576E+02  0.12596343296E+02  0.24970825092E+02  0.47000000000E+01 0.  1.
        -11    1    1    2    0    0  0.46728694353E+02  0.44601990444E+02 -0.32690832980E+02  0.72398888033E+02  0.00000000000E+00 0. -1.
         11    1    1    2    0    0 -0.25960709805E+02 -0.24794368184E+02 -0.16435842906E+02  0.39482351491E+02  0.00000000000E+00 0.  1.
<mgrwt>
<rscale>  0 0.12067361E+03</rscale>
<asrwt>0</asrwt>
<pdfrwt beam="2">  1        2 0.40784060E-01 0.12825304E+03</pdfrwt>
<pdfrwt beam="1">  1       -2 0.82545423E-02 0.12825304E+03</pdfrwt>
<totfact> 0.10582669E+04</totfact>
</mgrwt>
</event>
<event>
 6    1  0.8353100E-006  0.2235251E+03  0.7546771E-02  0.1134533E+00
         -2   -1    0    0    0  501 -0.00000000000E+00  0.00000000000E+00  0.34602310517E+02  0.34602310517E+02  0.00000000000E+00 0.  1.
          2   -1    0    0  501    0  0.00000000000E+00 -0.00000000000E+00 -0.15570119858E+04  0.15570119858E+04  0.00000000000E+00 0. -1.
          5    1    1    2  502    0  0.23114082666E+01 -0.12281893274E+03 -0.68057572937E+03  0.69158892866E+03  0.47000000000E+01 0.  1.
         -5    1    1    2    0  502  0.90851120787E+02 -0.37370616724E+02 -0.40631961680E+03  0.41805287960E+03  0.47000000000E+01 0.  1.
        -11    1    1    2    0    0 -0.56640135668E+02  0.15777538248E+03 -0.38171930307E+03  0.41690622762E+03  0.00000000000E+00 0. -1.
         11    1    1    2    0    0 -0.36522393385E+02  0.24141669759E+01 -0.53795026035E+02  0.65066260434E+02  0.00000000000E+00 0.  1.
<mgrwt>
<rscale>  0 0.21913027E+03</rscale>
<asrwt>0</asrwt>
<pdfrwt beam="2">  1        2 0.23954035E+00 0.22352505E+03</pdfrwt>
<pdfrwt beam="1">  1       -2 0.53234314E-02 0.22352505E+03</pdfrwt>
<totfact> 0.22645396E+03</totfact>
</mgrwt>
</event>
<event>
 6    1  0.8353100E-006  0.1376625E+03  0.7546771E-02  0.1233512E+00
         -2   -1    0    0    0  501 -0.00000000000E+00  0.00000000000E+00  0.23299994565E+02  0.23299994565E+02  0.00000000000E+00 0.  1.
          2   -1    0    0  501    0  0.00000000000E+00 -0.00000000000E+00 -0.83476659372E+03  0.83476659372E+03  0.00000000000E+00 0. -1.
          5    1    1    2  502    0  0.23436174999E+02 -0.65728806831E+02 -0.25344531727E+03  0.26291852196E+03  0.47000000000E+01 0. -1.
         -5    1    1    2    0  502  0.32276528490E+02  0.50876617738E+02 -0.43273186976E+03  0.43693153426E+03  0.47000000000E+01 0. -1.
        -11    1    1    2    0    0 -0.21736795498E+02 -0.29808327385E+02 -0.29650783129E+02  0.47330683496E+02  0.00000000000E+00 0. -1.
         11    1    1    2    0    0 -0.33975907991E+02  0.44660516479E+02 -0.95638628991E+02  0.11088584856E+03  0.00000000000E+00 0.  1.
<mgrwt>
<rscale>  0 0.12600166E+03</rscale>
<asrwt>0</asrwt>
<pdfrwt beam="2">  1        2 0.12842561E+00 0.13766252E+03</pdfrwt>
<pdfrwt beam="1">  1       -2 0.35846151E-02 0.13766252E+03</pdfrwt>
<totfact> 0.10461089E+04</totfact>
</mgrwt>
</event>
<event>
 6    1  0.8353100E-006  0.1365298E+03  0.7546771E-02  0.1229905E+00
          1   -1    0    0  501    0  0.00000000000E+00  0.00000000000E+00  0.29701163327E+03  0.29701163327E+03  0.00000000000E+00 0. -1.
         -1   -1    0    0    0  501 -0.00000000000E+00 -0.00000000000E+00 -0.49812725256E+02  0.49812725256E+02  0.00000000000E+00 0.  1.
          5    1    1    2  502    0 -0.19378331424E+02 -0.80339918710E+02  0.66423486493E+02  0.10613289700E+03  0.47000000000E+01 0.  1.
         -5    1    1    2    0  502  0.40394189448E+02  0.29604783754E+02  0.76199862772E+02  0.91305218080E+02  0.47000000000E+01 0.  1.
        -11    1    1    2    0    0 -0.79390000557E+01 -0.20931192496E+02  0.55541049530E+00  0.22393102108E+02  0.00000000000E+00 0.  1.
         11    1    1    2    0    0 -0.13076857968E+02  0.71666327452E+02  0.10402014826E+03  0.12699314134E+03  0.00000000000E+00 0. -1.
<mgrwt>
<rscale>  0 0.12836285E+03</rscale>
<asrwt>0</asrwt>
<pdfrwt beam="1">  1        1 0.45694096E-01 0.13652981E+03</pdfrwt>
<pdfrwt beam="2">  1       -1 0.76634964E-02 0.13652981E+03</pdfrwt>
<totfact> 0.77604025E+03</totfact>
</mgrwt>
</event>
<event>
 6    1  0.8353100E-006  0.1401630E+03  0.7546771E-02  0.1223859E+00
          2   -1    0    0  501    0  0.00000000000E+00  0.00000000000E+00  0.11019210436E+03  0.11019210436E+03  0.00000000000E+00 0.  1.
         -2   -1    0    0    0  501 -0.00000000000E+00 -0.00000000000E+00 -0.15933279021E+03  0.15933279021E+03  0.00000000000E+00 0. -1.
          5    1    1    2  502    0  0.24520359239E+02  0.61805414653E+02 -0.23850086007E+02  0.70796002007E+02  0.47000000000E+01 0.  1.
         -5    1    1    2    0  502 -0.57977339006E+02 -0.79526897054E+01  0.38328877341E+02  0.70112837269E+02  0.47000000000E+01 0.  1.
        -11    1    1    2    0    0 -0.13055362877E+02  0.11841781840E+02  0.93665771984E+01  0.19960036709E+02  0.00000000000E+00 0.  1.
         11    1    1    2    0    0  0.46512342644E+02 -0.65694506788E+02 -0.72986054376E+02  0.10865601858E+03  0.00000000000E+00 0. -1.
<mgrwt>
<rscale>  0 0.13245414E+03</rscale>
<asrwt>0</asrwt>
<pdfrwt beam="1">  1        2 0.16952631E-01 0.14016300E+03</pdfrwt>
<pdfrwt beam="2">  1       -2 0.24512737E-01 0.14016300E+03</pdfrwt>
<totfact> 0.47423466E+03</totfact>
</mgrwt>
</event>
<event>
 6    1  0.8353100E-006  0.1330216E+03  0.7546771E-02  0.1236611E+00
          2   -1    0    0  501    0  0.00000000000E+00  0.00000000000E+00  0.57399504629E+02  0.57399504629E+02  0.00000000000E+00 0. -1.
         -2   -1    0    0    0  501 -0.00000000000E+00 -0.00000000000E+00 -0.31450656012E+03  0.31450656012E+03  0.00000000000E+00 0.  1.
          5    1    1    2  502    0 -0.48302942400E+02  0.37850840876E+02 -0.48311509440E+02  0.78242906030E+02  0.47000000000E+01 0.  1.
         -5    1    1    2    0  502  0.10458283142E+02 -0.63049536037E+02 -0.24354766600E+01  0.64129877805E+02  0.47000000000E+01 0.  1.
        -11    1    1    2    0    0  0.37112177941E+02  0.35843845242E+02 -0.21149081857E+03  0.21769350320E+03  0.00000000000E+00 0.  1.
         11    1    1    2    0    0  0.73248131700E+00 -0.10645150080E+02  0.51307491851E+01  0.11839777714E+02  0.00000000000E+00 0. -1.
<mgrwt>
<rscale>  0 0.12401879E+03</rscale>
<asrwt>0</asrwt>
<pdfrwt beam="1">  1        2 0.88306930E-02 0.13302163E+03</pdfrwt>
<pdfrwt beam="2">  1       -2 0.48385625E-01 0.13302163E+03</pdfrwt>
<totfact> 0.29464557E+03</totfact>
</mgrwt>
</event>
<event>
 6    1  0.8353100E-006  0.1360096E+03  0.7546771E-02  0.1230133E+00
         -3   -1    0    0    0  501 -0.00000000000E+00  0.00000000000E+00  0.61823495427E+02  0.61823495427E+02  0.00000000000E+00 0.  1.
          3   -1    0    0  501    0  0.00000000000E+00 -0.00000000000E+00 -0.25462011339E+03  0.25462011339E+03  0.00000000000E+00 0. -1.
          5    1    1    2  502    0 -0.41568406097E+02 -0.66371415773E+02 -0.39069456407E+02  0.87644792435E+02  0.47000000000E+01 0. -1.
         -5    1    1    2    0  502 -0.51787233273E+00  0.33172003546E+02 -0.10618528083E+03  0.11134654856E+03  0.47000000000E+01 0. -1.
        -11    1    1    2    0    0  0.24221113482E+01 -0.31154748868E+02 -0.85721064085E+01  0.32403178991E+02  0.00000000000E+00 0.  1.
         11    1    1    2    0    0  0.39664167081E+02  0.64354161095E+02 -0.38969774315E+02  0.85049088829E+02  0.00000000000E+00 0. -1.
<mgrwt>
<rscale>  0 0.12821194E+03</rscale>
<asrwt>0</asrwt>
<pdfrwt beam="2">  1        3 0.39172325E-01 0.13600961E+03</pdfrwt>
<pdfrwt beam="1">  1       -3 0.95113071E-02 0.13600961E+03</pdfrwt>
<totfact> 0.11949909E+03</totfact>
</mgrwt>
</event>
<event>
 6    1  0.8353100E-006  0.1440539E+03  0.7546771E-02  0.1220604E+00
         -3   -1    0    0    0  501 -0.00000000000E+00  0.00000000000E+00  0.18207570859E+02  0.18207570859E+02  0.00000000000E+00 0.  1.
          3   -1    0    0  501    0  0.00000000000E+00 -0.00000000000E+00 -0.16180733985E+04  0.16180733985E+04  0.00000000000E+00 0. -1.
          5    1    1    2  502    0 -0.14883403103E+02  0.20007514167E+02 -0.10192714100E+04  0.10195872270E+04  0.47000000000E+01 0. -1.
         -5    1    1    2    0  502 -0.33479131992E+02 -0.65942502378E+02 -0.38603545069E+03  0.39308361081E+03  0.47000000000E+01 0.  1.
        -11    1    1    2    0    0  0.38322423233E+02  0.63271295611E+02 -0.86978592019E+02  0.11418029795E+03  0.00000000000E+00 0.  1.
         11    1    1    2    0    0  0.10040111862E+02 -0.17336307400E+02 -0.10758037490E+03  0.10942983352E+03  0.00000000000E+00 0. -1.
<mgrwt>
<rscale>  0 0.13472810E+03</rscale>
<asrwt>0</asrwt>
<pdfrwt beam="2">  1        3 0.24893431E+00 0.14405389E+03</pdfrwt>
<pdfrwt beam="1">  1       -3 0.28011654E-02 0.14405389E+03</pdfrwt>
<totfact> 0.11420265E+02</totfact>
</mgrwt>
</event>
<event>
 6    1  0.8353100E-006  0.1964176E+03  0.7546771E-02  0.1161591E+00
         -1   -1    0    0    0  501 -0.00000000000E+00  0.00000000000E+00  0.88918692591E+02  0.88918692591E+02  0.00000000000E+00 0.  1.
          1   -1    0    0  501    0  0.00000000000E+00 -0.00000000000E+00 -0.46260217130E+03  0.46260217130E+03  0.00000000000E+00 0. -1.
          5    1    1    2  502    0  0.85276327482E+02 -0.73263458553E+02 -0.30163936176E+03  0.32194406494E+03  0.47000000000E+01 0. -1.
         -5    1    1    2    0  502 -0.31805061610E+02 -0.46457327253E+02 -0.31226761903E+02  0.64552659578E+02  0.47000000000E+01 0.  1.
        -11    1    1    2    0    0  0.13269638438E+02  0.61039741225E+02 -0.43490830025E+02  0.76114293068E+02  0.00000000000E+00 0.  1.
         11    1    1    2    0    0 -0.66740904309E+02  0.58681044582E+02  0.26734749790E+01  0.88909846304E+02  0.00000000000E+00 0. -1.
<mgrwt>
<rscale>  0 0.18657138E+03</rscale>
<asrwt>0</asrwt>
<pdfrwt beam="2">  1        1 0.71169564E-01 0.19641757E+03</pdfrwt>
<pdfrwt beam="1">  1       -1 0.13679799E-01 0.19641757E+03</pdfrwt>
<totfact> 0.18502821E+03</totfact>
</mgrwt>
</event>
<event>
 6    1  0.8353100E-006  0.1253352E+03  0.7546771E-02  0.1250522E+00
         -2   -1    0    0    0  501 -0.00000000000E+00  0.00000000000E+00  0.14829545598E+03  0.14829545598E+03  0.00000000000E+00 0.  1.
          2   -1    0    0  501    0  0.00000000000E+00 -0.00000000000E+00 -0.94139714699E+02  0.94139714699E+02  0.00000000000E+00 0. -1.
          5    1    1    2  502    0 -0.46504084610E+01  0.52609877719E+02 -0.46388869700E+02  0.70451705192E+02  0.47000000000E+01 0. -1.
         -5    1    1    2    0  502 -0.32583337015E+01 -0.48020954222E+02  0.28531047192E+02  0.56149260341E+02  0.47000000000E+01 0. -1.
        -11    1    1    2    0    0  0.19772665613E+02  0.75895517678E+01 -0.15778725906E+02  0.26410751460E+02  0.00000000000E+00 0. -1.
         11    1    1    2    0    0 -0.11863923450E+02 -0.12178475264E+02  0.87792289697E+02  0.89423453689E+02  0.00000000000E+00 0.  1.
<mgrwt>
<rscale>  0 0.11560864E+03</rscale>
<asrwt>0</asrwt>
<pdfrwt beam="2">  1        2 0.14483033E-01 0.12533516E+03</pdfrwt>
<pdfrwt beam="1">  1       -2 0.22814685E-01 0.12533516E+03</pdfrwt>
<totfact> 0.64000712E+03</totfact>
</mgrwt>
</event>
<event>
 6    1  0.8353100E-006  0.1421495E+03  0.7546771E-02  0.1221295E+00
         -2   -1    0    0    0  501 -0.00000000000E+00  0.00000000000E+00  0.77163224326E+02  0.77163224326E+02  0.00000000000E+00 0.  1.
          2   -1    0    0  501    0  0.00000000000E+00 -0.00000000000E+00 -0.21708301425E+03  0.21708301425E+03  0.00000000000E+00 0. -1.
          5    1    1    2  502    0  0.16270196801E+02  0.45556673546E+02  0.30768764397E+02  0.57523357612E+02  0.47000000000E+01 0. -1.
         -5    1    1    2    0  502  0.41430381690E+02 -0.93275509029E+01 -0.84044499162E+02  0.94281745700E+02  0.47000000000E+01 0. -1.
        -11    1    1    2    0    0  0.17270386571E+02  0.11528975019E+02 -0.41621017467E+01  0.21177974603E+02  0.00000000000E+00 0.  1.
         11    1    1    2    0    0 -0.74970965063E+02 -0.47758097662E+02 -0.82481953411E+02  0.12126316066E+03  0.00000000000E+00 0. -1.
<mgrwt>
<rscale>  0 0.13424098E+03</rscale>
<asrwt>0</asrwt>
<pdfrwt beam="2">  1        2 0.33397387E-01 0.14214952E+03</pdfrwt>
<pdfrwt beam="1">  1       -2 0.11871265E-01 0.14214952E+03</pdfrwt>
<totfact> 0.74602020E+03</totfact>
</mgrwt>
</event>
<event>
 6    1  0.8353100E-006  0.1450707E+03  0.7546771E-02  0.1217047E+00
         -2   -1    0    0    0  501 -0.00000000000E+00  0.00000000000E+00  0.78018945846E+03  0.78018945846E+03  0.00000000000E+00 0.  1.
          2   -1    0    0  501    0  0.00000000000E+00 -0.00000000000E+00 -0.21957296462E+02  0.21957296462E+02  0.00000000000E+00 0. -1.
          5    1    1    2  502    0 -0.89980435625E+02  0.22779910661E+02  0.34095814317E+03  0.35339772003E+03  0.47000000000E+01 0.  1.
         -5    1    1    2    0  502  0.17706812823E+02 -0.36811221256E+02  0.57830287162E+02  0.70957940669E+02  0.47000000000E+01 0.  1.
        -11    1    1    2    0    0  0.36719925592E+01  0.41772653717E+02  0.14481282765E+03  0.15076204158E+03  0.00000000000E+00 0.  1.
         11    1    1    2    0    0  0.68601630243E+02 -0.27741343122E+02  0.21463090401E+03  0.22702905265E+03  0.00000000000E+00 0. -1.
<mgrwt>
<rscale>  0 0.13727210E+03</rscale>
<asrwt>0</asrwt>
<pdfrwt beam="2">  1        2 0.33780462E-02 0.14507072E+03</pdfrwt>
<pdfrwt beam="1">  1       -2 0.12002913E+00 0.14507072E+03</pdfrwt>
<totfact> 0.14307813E+03</totfact>
</mgrwt>
</event>
<event>
 6    1  0.8353100E-006  0.3849920E+03  0.7546771E-02  0.1049104E+00
          1   -1    0    0  501    0  0.00000000000E+00  0.00000000000E+00  0.22619633450E+04  0.22619633450E+04  0.00000000000E+00 0. -1.
         -1   -1    0    0    0  501 -0.00000000000E+00 -0.00000000000E+00 -0.16381654323E+02  0.16381654323E+02  0.00000000000E+00 0.  1.
          5    1    1    2  502    0  0.75852450732E+02  0.31979680057E+02  0.57511732730E+03  0.58099769740E+03  0.47000000000E+01 0. -1.
         -5    1    1    2    0  502  0.49155687645E+01 -0.18107245451E+00  0.13855375738E+04  0.13855542768E+04  0.47000000000E+01 0. -1.
        -11    1    1    2    0    0  0.14645098464E+02  0.56912534423E+01  0.10641979324E+02  0.18976854288E+02  0.00000000000E+00 0. -1.
         11    1    1    2    0    0 -0.95413117961E+02 -0.37489861045E+02  0.27428481034E+03  0.29281617090E+03  0.00000000000E+00 0.  1.
<mgrwt>
<rscale>  0 0.38499196E+03</rscale>
<asrwt>0</asrwt>
<pdfrwt beam="1">  1        1 0.34799411E+00 0.38499196E+03</pdfrwt>
<pdfrwt beam="2">  1       -1 0.25202563E-02 0.38499196E+03</pdfrwt>
<totfact> 0.10999155E+03</totfact>
</mgrwt>
</event>
<event>
 6    1  0.8353100E-006  0.1366511E+03  0.7546771E-02  0.1237677E+00
         -3   -1    0    0    0  501 -0.00000000000E+00  0.00000000000E+00  0.13087474496E+03  0.13087474496E+03  0.00000000000E+00 0.  1.
          3   -1    0    0  501    0  0.00000000000E+00 -0.00000000000E+00 -0.98760356230E+02  0.98760356230E+02  0.00000000000E+00 0. -1.
          5    1    1    2  502    0 -0.48426152065E+01  0.12288389878E+02 -0.42813508209E+02  0.45050437656E+02  0.47000000000E+01 0. -1.
         -5    1    1    2    0  502  0.37940058065E+02 -0.56475332529E+02  0.63450414693E+02  0.93150181508E+02  0.47000000000E+01 0. -1.
        -11    1    1    2    0    0 -0.41629723167E+02  0.28863997263E+02 -0.20751173345E+02  0.54742811256E+02  0.00000000000E+00 0. -1.
         11    1    1    2    0    0  0.85322803091E+01  0.15322945388E+02  0.32228655593E+02  0.36691670771E+02  0.00000000000E+00 0.  1.
<mgrwt>
<rscale>  0 0.12334604E+03</rscale>
<asrwt>0</asrwt>
<pdfrwt beam="2">  1        3 0.15193901E-01 0.13665112E+03</pdfrwt>
<pdfrwt beam="1">  1       -3 0.20134576E-01 0.13665112E+03</pdfrwt>
<totfact> 0.18489698E+03</totfact>
</mgrwt>
</event>
<event>
 6    1  0.8353100E-006  0.1345550E+03  0.7546771E-02  0.1233404E+00
          1   -1    0    0  501    0  0.00000000000E+00  0.00000000000E+00  0.44857920313E+03  0.44857920313E+03  0.00000000000E+00 0. -1.
         -1   -1    0    0    0  501 -0.00000000000E+00 -0.00000000000E+00 -0.38475924542E+02  0.38475924542E+02  0.00000000000E+00 0.  1.
          5    1    1    2  502    0  0.34096199745E+02 -0.25716146589E+01  0.22425795740E+03  0.22689840346E+03  0.47000000000E+01 0. -1.
         -5    1    1    2    0  502 -0.64629885374E+02 -0.36768734748E+02  0.10459979073E+03  0.12842183677E+03  0.47000000000E+01 0. -1.
        -11    1    1    2    0    0  0.28352524581E+02  0.54430971484E+02  0.14222021469E+02  0.62998906351E+02  0.00000000000E+00 0.  1.
         11    1    1    2    0    0  0.21811610478E+01 -0.15090622077E+02  0.67023508998E+02  0.68735981091E+02  0.00000000000E+00 0. -1.
<mgrwt>
<rscale>  0 0.12607163E+03</rscale>
<asrwt>0</asrwt>
<pdfrwt beam="1">  1        1 0.69012181E-01 0.13455502E+03</pdfrwt>
<pdfrwt beam="2">  1       -1 0.59193733E-02 0.13455502E+03</pdfrwt>
<totfact> 0.68067853E+03</totfact>
</mgrwt>
</event>
<event>
 6    1  0.8353100E-006  0.2382493E+03  0.7546771E-02  0.1148767E+00
          2   -1    0    0  501    0  0.00000000000E+00  0.00000000000E+00  0.71598146338E+03  0.71598146338E+03  0.00000000000E+00 0. -1.
         -2   -1    0    0    0  501 -0.00000000000E+00 -0.00000000000E+00 -0.46470818818E+02  0.46470818818E+02  0.00000000000E+00 0.  1.
          5    1    1    2  502    0 -0.11901718206E+03  0.59454570517E+02  0.27876980079E+03  0.30892495434E+03  0.47000000000E+01 0. -1.
         -5    1    1    2    0  502  0.78966914496E+02 -0.69221791604E+02  0.22430245841E+03  0.24771175359E+03  0.47000000000E+01 0.  1.
        -11    1    1    2    0    0  0.73538037880E+02 -0.98603738290E+01  0.70612096321E+02  0.10242625705E+03  0.00000000000E+00 0.  1.
         11    1    1    2    0    0 -0.33487770315E+02  0.19627594916E+02  0.95826289041E+02  0.10338931722E+03  0.00000000000E+00 0. -1.
<mgrwt>
<rscale>  0 0.20115657E+03</rscale>
<asrwt>0</asrwt>
<pdfrwt beam="1">  1        2 0.11015099E+00 0.23824930E+03</pdfrwt>
<pdfrwt beam="2">  1       -2 0.71493573E-02 0.23824930E+03</pdfrwt>
<totfact> 0.45648185E+03</totfact>
</mgrwt>
</event>
<event>
 6    1  0.8353100E-006  0.1320365E+03  0.7546771E-02  0.1237482E+00
          2   -1    0    0  501    0  0.00000000000E+00  0.00000000000E+00  0.10982104396E+04  0.10982104396E+04  0.00000000000E+00 0.  1.
         -2   -1    0    0    0  501 -0.00000000000E+00 -0.00000000000E+00 -0.13217316532E+02  0.13217316532E+02  0.00000000000E+00 0. -1.
          5    1    1    2  502    0 -0.38265916099E+01  0.55312061617E+02  0.47395477855E+03  0.47720990044E+03  0.47000000000E+01 0. -1.
         -5    1    1    2    0  502  0.46049319067E+02 -0.50015985105E+02  0.27669406779E+03  0.28496286724E+03  0.47000000000E+01 0. -1.
        -11    1    1    2    0    0  0.22920768060E+02  0.20133355001E+02  0.11855272921E+03  0.12241512650E+03  0.00000000000E+00 0.  1.
         11    1    1    2    0    0 -0.65143495517E+02 -0.25429431513E+02  0.21579154748E+03  0.22683986193E+03  0.00000000000E+00 0. -1.
<mgrwt>
<rscale>  0 0.12346902E+03</rscale>
<asrwt>0</asrwt>
<pdfrwt beam="1">  1        2 0.16895538E+00 0.13203650E+03</pdfrwt>
<pdfrwt beam="2">  1       -2 0.20334342E-02 0.13203650E+03</pdfrwt>
<totfact> 0.16535455E+04</totfact>
</mgrwt>
</event>
<event>
 6    1  0.8353100E-006  0.1268304E+03  0.7546771E-02  0.1247265E+00
         -2   -1    0    0    0  501 -0.00000000000E+00  0.00000000000E+00  0.67184101626E+02  0.67184101626E+02  0.00000000000E+00 0.  1.
          2   -1    0    0  501    0  0.00000000000E+00 -0.00000000000E+00 -0.20785997805E+03  0.20785997805E+03  0.00000000000E+00 0. -1.
          5    1    1    2  502    0  0.54767812908E+02  0.23882706549E+02 -0.87171382740E+02  0.10578675234E+03  0.47000000000E+01 0. -1.
         -5    1    1    2    0  502 -0.62095570642E+02 -0.36810110930E+01 -0.41753685731E+02  0.75065771215E+02  0.47000000000E+01 0. -1.
        -11    1    1    2    0    0  0.27466363451E+01 -0.41892672353E+02  0.26738298769E+02  0.49774256691E+02  0.00000000000E+00 0.  1.
         11    1    1    2    0    0  0.45811213890E+01  0.21690976897E+02 -0.38489106723E+02  0.44417299425E+02  0.00000000000E+00 0. -1.
<mgrwt>
<rscale>  0 0.11750845E+03</rscale>
<asrwt>0</asrwt>
<pdfrwt beam="2">  1        2 0.31978458E-01 0.12683045E+03</pdfrwt>
<pdfrwt beam="1">  1       -2 0.10336016E-01 0.12683045E+03</pdfrwt>
<totfact> 0.96539517E+03</totfact>
</mgrwt>
</event>
<event>
 6    1  0.8353100E-006  0.1489150E+03  0.7546771E-02  0.1223113E+00
          2   -1    0    0  501    0  0.00000000000E+00  0.00000000000E+00  0.10674629515E+04  0.10674629515E+04  0.00000000000E+00 0. -1.
         -2   -1    0    0    0  501 -0.00000000000E+00 -0.00000000000E+00 -0.15071975518E+02  0.15071975518E+02  0.00000000000E+00 0.  1.
          5    1    1    2  502    0 -0.48338495735E+02  0.39137569748E+02  0.51582886566E+03  0.51958624711E+03  0.47000000000E+01 0. -1.
         -5    1    1    2    0  502  0.71149618697E+02 -0.22392477006E+02  0.26610063304E+03  0.27639704805E+03  0.47000000000E+01 0.  1.
        -11    1    1    2    0    0  0.25592474008E+02 -0.33703083294E+02  0.14387803142E+03  0.14997253240E+03  0.00000000000E+00 0.  1.
         11    1    1    2    0    0 -0.48403596970E+02  0.16957990551E+02  0.12658344589E+03  0.13657909948E+03  0.00000000000E+00 0. -1.
<mgrwt>
<rscale>  0 0.13297100E+03</rscale>
<asrwt>0</asrwt>
<pdfrwt beam="1">  1        2 0.16422501E+00 0.14891496E+03</pdfrwt>
<pdfrwt beam="2">  1       -2 0.23187663E-02 0.14891496E+03</pdfrwt>
<totfact> 0.14334985E+04</totfact>
</mgrwt>
</event>
<event>
 6    1  0.8353100E-006  0.1486625E+04  0.7546771E-02  0.8893396E-01
          2   -1    0    0  501    0  0.00000000000E+00  0.00000000000E+00  0.30093739629E+04  0.30093739629E+04  0.00000000000E+00 0. -1.
         -2   -1    0    0    0  501 -0.00000000000E+00 -0.00000000000E+00 -0.18359740776E+03  0.18359740776E+03  0.00000000000E+00 0.  1.
          5    1    1    2  502    0 -0.14779883651E+02 -0.53931947037E+02  0.19761667653E+04  0.19769633973E+04  0.47000000000E+01 0. -1.
         -5    1    1    2    0  502 -0.23688508032E+03 -0.38727541871E+02  0.79536384632E+03  0.83080689802E+03  0.47000000000E+01 0.  1.
        -11    1    1    2    0    0  0.45981046643E+02  0.12619754017E+03 -0.60487555160E+02  0.14730519381E+03  0.00000000000E+00 0.  1.
         11    1    1    2    0    0  0.20568391733E+03 -0.33538051261E+02  0.11473349863E+03  0.23789588151E+03  0.00000000000E+00 0. -1.
<mgrwt>
<rscale>  0 0.14866247E+04</rscale>
<asrwt>0</asrwt>
<pdfrwt beam="1">  1        2 0.46298057E+00 0.14866247E+04</pdfrwt>
<pdfrwt beam="2">  1       -2 0.28245757E-01 0.14866247E+04</pdfrwt>
<totfact> 0.19202204E+01</totfact>
</mgrwt>
</event>
<event>
 6    1  0.8353100E-006  0.4005379E+03  0.7546771E-02  0.1044412E+00
          1   -1    0    0  501    0  0.00000000000E+00  0.00000000000E+00  0.87282689188E+03  0.87282689188E+03  0.00000000000E+00 0. -1.
         -1   -1    0    0    0  501 -0.00000000000E+00 -0.00000000000E+00 -0.18282955054E+03  0.18282955054E+03  0.00000000000E+00 0.  1.
          5    1    1    2  502    0  0.12308811840E+02  0.16234544173E+02  0.11971500321E+02  0.24093029974E+02  0.47000000000E+01 0. -1.
         -5    1    1    2    0  502  0.32146710197E+03 -0.19898962274E+03  0.40783994582E+03  0.55614159979E+03  0.47000000000E+01 0. -1.
        -11    1    1    2    0    0 -0.22590434081E+03  0.16571793561E+03  0.17333904797E+03  0.32945656911E+03  0.00000000000E+00 0. -1.
         11    1    1    2    0    0 -0.10787157301E+03  0.17037142957E+02  0.96846847235E+02  0.14596524354E+03  0.00000000000E+00 0.  1.
<mgrwt>
<rscale>  0 0.39817881E+03</rscale>
<asrwt>0</asrwt>
<pdfrwt beam="1">  1        1 0.13428106E+00 0.40053786E+03</pdfrwt>
<pdfrwt beam="2">  1       -1 0.28127624E-01 0.40053786E+03</pdfrwt>
<totfact> 0.22753007E+02</totfact>
</mgrwt>
</event>
<event>
 6    1  0.8353100E-006  0.1960683E+03  0.7546771E-02  0.1157640E+00
          2   -1    0    0  501    0  0.00000000000E+00  0.00000000000E+00  0.51453795642E+03  0.51453795642E+03  0.00000000000E+00 0. -1.
         -2   -1    0    0    0  501 -0.00000000000E+00 -0.00000000000E+00 -0.73666391002E+02  0.73666391002E+02  0.00000000000E+00 0.  1.
          5    1    1    2  502    0 -0.15824606098E+02 -0.66089407061E+02  0.14595695402E+03  0.16107063765E+03  0.47000000000E+01 0.  1.
         -5    1    1    2    0  502  0.11508539618E+03 -0.47775194126E+02  0.17120524367E+03  0.21180284004E+03  0.47000000000E+01 0.  1.
        -11    1    1    2    0    0 -0.37185796645E+02  0.48272652719E+02 -0.14980475933E+01  0.60953068989E+02  0.00000000000E+00 0.  1.
         11    1    1    2    0    0 -0.62074993437E+02  0.65591948468E+02  0.12520741532E+03  0.15437780075E+03  0.00000000000E+00 0. -1.
<mgrwt>
<rscale>  0 0.19091348E+03</rscale>
<asrwt>0</asrwt>
<pdfrwt beam="1">  1        2 0.79159683E-01 0.19606828E+03</pdfrwt>
<pdfrwt beam="2">  1       -2 0.11333291E-01 0.19606828E+03</pdfrwt>
<totfact> 0.32240160E+03</totfact>
</mgrwt>
</event>
<event>
 6    1  0.8353100E-006  0.1270844E+03  0.7546771E-02  0.1248433E+00
          1   -1    0    0  501    0  0.00000000000E+00  0.00000000000E+00  0.53750900667E+03  0.53750900667E+03  0.00000000000E+00 0. -1.
         -1   -1    0    0    0  501 -0.00000000000E+00 -0.00000000000E+00 -0.22735364810E+02  0.22735364810E+02  0.00000000000E+00 0.  1.
          5    1    1    2  502    0  0.11010804289E+02 -0.20663999477E+02 -0.21630561521E+01  0.23979313947E+02  0.47000000000E+01 0. -1.
         -5    1    1    2    0  502 -0.28046356601E+02  0.36015874637E+02  0.25393713597E+03  0.25805018963E+03  0.47000000000E+01 0. -1.
        -11    1    1    2    0    0 -0.11240211571E+02  0.32529333194E+02  0.84008324040E+02  0.90784901731E+02  0.00000000000E+00 0.  1.
         11    1    1    2    0    0  0.28275763883E+02 -0.47881208355E+02  0.17899123800E+03  0.18742996617E+03  0.00000000000E+00 0. -1.
<mgrwt>
<rscale>  0 0.11682224E+03</rscale>
<asrwt>0</asrwt>
<pdfrwt beam="1">  1        1 0.82693683E-01 0.12708444E+03</pdfrwt>
<pdfrwt beam="2">  1       -1 0.34977489E-02 0.12708444E+03</pdfrwt>
<totfact> 0.11638134E+04</totfact>
</mgrwt>
</event>
<event>
 6    1  0.8353100E-006  0.1459111E+03  0.7546771E-02  0.1216336E+00
          1   -1    0    0  501    0  0.00000000000E+00  0.00000000000E+00  0.17511201787E+03  0.17511201787E+03  0.00000000000E+00 0. -1.
         -1   -1    0    0    0  501 -0.00000000000E+00 -0.00000000000E+00 -0.13417553449E+03  0.13417553449E+03  0.00000000000E+00 0.  1.
          5    1    1    2  502    0  0.37942718181E+02  0.49962438414E+02  0.92424159188E+02  0.11180433944E+03  0.47000000000E+01 0.  1.
         -5    1    1    2    0  502 -0.61809095407E+02  0.21424856047E+02  0.97094067679E+01  0.66300462378E+02  0.47000000000E+01 0.  1.
        -11    1    1    2    0    0  0.42033666256E+02 -0.48075655643E+02 -0.75050099488E+02  0.98542453783E+02  0.00000000000E+00 0.  1.
         11    1    1    2    0    0 -0.18167289029E+02 -0.23311638818E+02  0.13853016914E+02  0.32640296762E+02  0.00000000000E+00 0. -1.
<mgrwt>
<rscale>  0 0.13778831E+03</rscale>
<asrwt>0</asrwt>
<pdfrwt beam="1">  1        1 0.26940310E-01 0.14591112E+03</pdfrwt>
<pdfrwt beam="2">  1       -1 0.20642390E-01 0.14591112E+03</pdfrwt>
<totfact> 0.32229745E+03</totfact>
</mgrwt>
</event>
<event>
 6    1  0.8353100E-006  0.1500613E+03  0.7546771E-02  0.1209983E+00
          2   -1    0    0  501    0  0.00000000000E+00  0.00000000000E+00  0.63328519137E+03  0.63328519137E+03  0.00000000000E+00 0. -1.
         -2   -1    0    0    0  501 -0.00000000000E+00 -0.00000000000E+00 -0.29762485459E+02  0.29762485459E+02  0.00000000000E+00 0.  1.
          5    1    1    2  502    0 -0.77872176178E+00 -0.24736516258E+02  0.17069218519E+03  0.17254104940E+03  0.47000000000E+01 0. -1.
         -5    1    1    2    0  502 -0.71673880032E+02  0.65281987631E+02  0.11772176538E+03  0.15257584027E+03  0.47000000000E+01 0. -1.
        -11    1    1    2    0    0  0.67637146350E+02 -0.60281653676E+02  0.29768483760E+03  0.31116703533E+03  0.00000000000E+00 0. -1.
         11    1    1    2    0    0  0.48154554434E+01  0.19736182303E+02  0.17423917740E+02  0.26763751838E+02  0.00000000000E+00 0.  1.
<mgrwt>
<rscale>  0 0.14251586E+03</rscale>
<asrwt>0</asrwt>
<pdfrwt beam="1">  1        2 0.97428481E-01 0.15006127E+03</pdfrwt>
<pdfrwt beam="2">  1       -2 0.45788444E-02 0.15006127E+03</pdfrwt>
<totfact> 0.10194898E+04</totfact>
</mgrwt>
</event>
<event>
 6    1  0.1790210E-005  0.3189466E+03  0.7546771E-02  0.1076135E+00
          1   -1    0    0  501    0  0.00000000000E+00  0.00000000000E+00  0.63259098128E+02  0.63259098128E+02  0.00000000000E+00 0. -1.
         -1   -1    0    0    0  501 -0.00000000000E+00 -0.00000000000E+00 -0.40202491983E+03  0.40202491983E+03  0.00000000000E+00 0.  1.
          5    1    1    2  502    0  0.29914612678E+02  0.72295460286E+01 -0.62711921114E+02  0.70014465914E+02  0.47000000000E+01 0. -1.
         -5    1    1    2    0  502 -0.51684258820E+02 -0.12122353959E+03 -0.97485251696E+02  0.16398741860E+03  0.47000000000E+01 0. -1.
        -11    1    1    2    0    0  0.39860812461E+02  0.55663047002E+02 -0.14782279364E+03  0.16290745069E+03  0.00000000000E+00 0.  1.
         11    1    1    2    0    0 -0.18091166319E+02  0.58330946564E+02 -0.30745855253E+02  0.68374682749E+02  0.00000000000E+00 0. -1.
<mgrwt>
<rscale>  0 0.31894660E+03</rscale>
<asrwt>0</asrwt>
<pdfrwt beam="1">  1        1 0.97321693E-02 0.31894660E+03</pdfrwt>
<pdfrwt beam="2">  1       -1 0.61849986E-01 0.31894660E+03</pdfrwt>
<totfact> 0.18269568E+03</totfact>
</mgrwt>
</event>
<event>
 6    1  0.8353100E-006  0.2936124E+03  0.7546771E-02  0.1090000E+00
         -1   -1    0    0    0  501 -0.00000000000E+00  0.00000000000E+00  0.50932373604E+03  0.50932373604E+03  0.00000000000E+00 0.  1.
          1   -1    0    0  501    0  0.00000000000E+00 -0.00000000000E+00 -0.16714071082E+03  0.16714071082E+03  0.00000000000E+00 0. -1.
          5    1    1    2  502    0  0.82782397401E+02 -0.21088435795E+02  0.10272330969E+03  0.13368551080E+03  0.47000000000E+01 0.  1.
         -5    1    1    2    0  502  0.15845535294E+03 -0.90196872243E+02  0.16235052923E+02  0.18310991666E+03  0.47000000000E+01 0.  1.
        -11    1    1    2    0    0 -0.17925598656E+03  0.33728335222E+02  0.13613213716E+03  0.22760111617E+03  0.00000000000E+00 0. -1.
         11    1    1    2    0    0 -0.61981763776E+02  0.77556972816E+02  0.87092525453E+02  0.13206790323E+03  0.00000000000E+00 0.  1.
<mgrwt>
<rscale>  0 0.29066914E+03</rscale>
<asrwt>0</asrwt>
<pdfrwt beam="2">  1        1 0.25713956E-01 0.29361242E+03</pdfrwt>
<pdfrwt beam="1">  1       -1 0.78357497E-01 0.29361242E+03</pdfrwt>
<totfact> 0.31536602E+02</totfact>
</mgrwt>
</event>
<event>
 6    1  0.8353100E-006  0.1681444E+03  0.7546771E-02  0.1185660E+00
          2   -1    0    0  501    0  0.00000000000E+00  0.00000000000E+00  0.12408011705E+04  0.12408011705E+04  0.00000000000E+00 0. -1.
         -2   -1    0    0    0  501 -0.00000000000E+00 -0.00000000000E+00 -0.21246917301E+02  0.21246917301E+02  0.00000000000E+00 0.  1.
          5    1    1    2  502    0 -0.46106378689E+02  0.71791301912E+02  0.20955904176E+03  0.22631144728E+03  0.47000000000E+01 0.  1.
         -5    1    1    2    0  502 -0.28778821218E+00  0.30657424009E+02  0.58610662424E+03  0.58692676328E+03  0.47000000000E+01 0.  1.
        -11    1    1    2    0    0  0.24151766566E+02 -0.11399970538E+03  0.28893668014E+03  0.31155039044E+03  0.00000000000E+00 0.  1.
         11    1    1    2    0    0  0.22242400335E+02  0.11550979460E+02  0.13495190702E+03  0.13725948676E+03  0.00000000000E+00 0. -1.
<mgrwt>
<rscale>  0 0.16272007E+03</rscale>
<asrwt>0</asrwt>
<pdfrwt beam="1">  1        2 0.19089243E+00 0.16814439E+03</pdfrwt>
<pdfrwt beam="2">  1       -2 0.32687575E-02 0.16814439E+03</pdfrwt>
<totfact> 0.69407117E+03</totfact>
</mgrwt>
</event>
<event>
 6    1  0.8353100E-006  0.1856057E+03  0.7546771E-02  0.1167624E+00
          2   -1    0    0  501    0  0.00000000000E+00  0.00000000000E+00  0.37704018341E+03  0.37704018341E+03  0.00000000000E+00 0. -1.
         -2   -1    0    0    0  501 -0.00000000000E+00 -0.00000000000E+00 -0.88359843035E+02  0.88359843035E+02  0.00000000000E+00 0.  1.
          5    1    1    2  502    0 -0.42531675126E+02 -0.45391149700E+02  0.82688135782E+02  0.10357952336E+03  0.47000000000E+01 0.  1.
         -5    1    1    2    0  502 -0.88990391027E+02  0.84462350957E+02  0.13455117379E+03  0.18215182347E+03  0.47000000000E+01 0.  1.
        -11    1    1    2    0    0  0.77993064618E+02 -0.67353783933E+02  0.55581882045E+02  0.11708456752E+03  0.00000000000E+00 0.  1.
         11    1    1    2    0    0  0.53529001534E+02  0.28282582676E+02  0.15859148753E+02  0.62584112099E+02  0.00000000000E+00 0. -1.
<mgrwt>
<rscale>  0 0.18018504E+03</rscale>
<asrwt>0</asrwt>
<pdfrwt beam="1">  1        2 0.58006181E-01 0.18560572E+03</pdfrwt>
<pdfrwt beam="2">  1       -2 0.13593822E-01 0.18560572E+03</pdfrwt>
<totfact> 0.33701758E+03</totfact>
</mgrwt>
</event>
<event>
 6    1  0.8353100E-006  0.2226750E+03  0.7546771E-02  0.1135294E+00
          2   -1    0    0  501    0  0.00000000000E+00  0.00000000000E+00  0.13939129401E+04  0.13939129401E+04  0.00000000000E+00 0. -1.
         -2   -1    0    0    0  501 -0.00000000000E+00 -0.00000000000E+00 -0.32921628413E+02  0.32921628413E+02  0.00000000000E+00 0.  1.
          5    1    1    2  502    0  0.10091112068E+03  0.13726699678E+03  0.50643344251E+03  0.53434277797E+03  0.47000000000E+01 0. -1.
         -5    1    1    2    0  502 -0.31950421769E+02  0.33629981329E+02  0.24468146095E+03  0.24908414728E+03  0.47000000000E+01 0. -1.
        -11    1    1    2    0    0 -0.87381102699E+02 -0.12911521512E+03  0.41676313417E+03  0.44496933140E+03  0.00000000000E+00 0.  1.
         11    1    1    2    0    0  0.18420403787E+02 -0.41781762989E+02  0.19311327409E+03  0.19843831188E+03  0.00000000000E+00 0. -1.
<mgrwt>
<rscale>  0 0.21811772E+03</rscale>
<asrwt>0</asrwt>
<pdfrwt beam="1">  1        2 0.21444810E+00 0.22267499E+03</pdfrwt>
<pdfrwt beam="2">  1       -2 0.50648670E-02 0.22267499E+03</pdfrwt>
<totfact> 0.29854677E+03</totfact>
</mgrwt>
</event>
<event>
 6    1  0.8353100E-006  0.1420411E+03  0.7546771E-02  0.1221653E+00
          1   -1    0    0  501    0  0.00000000000E+00  0.00000000000E+00  0.71252634217E+03  0.71252634217E+03  0.00000000000E+00 0. -1.
         -1   -1    0    0    0  501 -0.00000000000E+00 -0.00000000000E+00 -0.58221114751E+02  0.58221114751E+02  0.00000000000E+00 0.  1.
          5    1    1    2  502    0 -0.21044362453E+02 -0.73240494920E+02  0.18150153255E+03  0.19690589531E+03  0.47000000000E+01 0.  1.
         -5    1    1    2    0  502  0.53240279430E+01  0.76895564986E+01  0.46058825974E+03  0.46070718419E+03  0.47000000000E+01 0.  1.
        -11    1    1    2    0    0 -0.63215132763E+01  0.11340176074E+02 -0.35389881287E+02  0.37696217595E+02  0.00000000000E+00 0.  1.
         11    1    1    2    0    0  0.22041847787E+02  0.54210762347E+02  0.47605316413E+02  0.75438159832E+02  0.00000000000E+00 0. -1.
<mgrwt>
<rscale>  0 0.13399002E+03</rscale>
<asrwt>0</asrwt>
<pdfrwt beam="1">  1        1 0.10961943E+00 0.14204105E+03</pdfrwt>
<pdfrwt beam="2">  1       -1 0.89570951E-02 0.14204105E+03</pdfrwt>
<totfact> 0.19623192E+03</totfact>
</mgrwt>
</event>
<event>
 6    1  0.8353100E-006  0.1357538E+03  0.7546771E-02  0.1231068E+00
         -1   -1    0    0    0  501 -0.00000000000E+00  0.00000000000E+00  0.57879981759E+02  0.57879981759E+02  0.00000000000E+00 0.  1.
          1   -1    0    0  501    0  0.00000000000E+00 -0.00000000000E+00 -0.26374788772E+03  0.26374788772E+03  0.00000000000E+00 0. -1.
          5    1    1    2  502    0 -0.92588867758E+02  0.11172246143E+02 -0.10163254163E+03  0.13801732150E+03  0.47000000000E+01 0.  1.
         -5    1    1    2    0  502  0.39666826596E+02 -0.14142006558E+02 -0.46668313406E+02  0.63035505534E+02  0.47000000000E+01 0.  1.
        -11    1    1    2    0    0  0.24028837677E+02 -0.64191886515E+01  0.23367308242E+02  0.34126560294E+02  0.00000000000E+00 0.  1.
         11    1    1    2    0    0  0.28893203485E+02  0.93889490663E+01 -0.80934359173E+02  0.86448482155E+02  0.00000000000E+00 0. -1.
<mgrwt>
<rscale>  0 0.12759518E+03</rscale>
<asrwt>0</asrwt>
<pdfrwt beam="2">  1        1 0.40576597E-01 0.13575381E+03</pdfrwt>
<pdfrwt beam="1">  1       -1 0.89046128E-02 0.13575381E+03</pdfrwt>
<totfact> 0.71611621E+03</totfact>
</mgrwt>
</event>
<event>
 6    1  0.8353100E-006  0.1367206E+03  0.7546771E-02  0.1232435E+00
         -2   -1    0    0    0  501 -0.00000000000E+00  0.00000000000E+00  0.22902740801E+02  0.22902740801E+02  0.00000000000E+00 0.  1.
          2   -1    0    0  501    0  0.00000000000E+00 -0.00000000000E+00 -0.66425276306E+03  0.66425276306E+03  0.00000000000E+00 0. -1.
          5    1    1    2  502    0  0.59170631555E+02  0.50682684557E+02 -0.26391208704E+03  0.27521187809E+03  0.47000000000E+01 0.  1.
         -5    1    1    2    0  502 -0.58279105381E+02  0.47287725186E+01 -0.19329063806E+03  0.20199548553E+03  0.47000000000E+01 0.  1.
        -11    1    1    2    0    0 -0.14450617508E+02 -0.87492067024E+01  0.25021049932E+01  0.17077162928E+02  0.00000000000E+00 0.  1.
         11    1    1    2    0    0  0.13559091334E+02 -0.46662250373E+02 -0.18664940215E+03  0.19287097731E+03  0.00000000000E+00 0. -1.
<mgrwt>
<rscale>  0 0.12670099E+03</rscale>
<asrwt>0</asrwt>
<pdfrwt beam="2">  1        2 0.10219273E+00 0.13672065E+03</pdfrwt>
<pdfrwt beam="1">  1       -2 0.35234986E-02 0.13672065E+03</pdfrwt>
<totfact> 0.14153987E+04</totfact>
</mgrwt>
</event>
<event>
 6    1  0.8353100E-006  0.1684222E+03  0.7546771E-02  0.1186100E+00
         -1   -1    0    0    0  501 -0.00000000000E+00  0.00000000000E+00  0.35261545134E+03  0.35261545134E+03  0.00000000000E+00 0.  1.
          1   -1    0    0  501    0  0.00000000000E+00 -0.00000000000E+00 -0.76391051796E+02  0.76391051796E+02  0.00000000000E+00 0. -1.
          5    1    1    2  502    0 -0.49537572415E+02 -0.22308665319E+02  0.62599403414E+02  0.83020617541E+02  0.47000000000E+01 0. -1.
         -5    1    1    2    0  502  0.49042577593E+02 -0.90574932603E+02  0.21887561263E+02  0.10540468761E+03  0.47000000000E+01 0. -1.
        -11    1    1    2    0    0  0.67299548338E+01  0.61749926585E+02  0.17612095948E+03  0.18675368295E+03  0.00000000000E+00 0.  1.
         11    1    1    2    0    0 -0.62349600115E+01  0.51133671337E+02  0.15616475379E+02  0.53827515028E+02  0.00000000000E+00 0. -1.
<mgrwt>
<rscale>  0 0.16232156E+03</rscale>
<asrwt>0</asrwt>
<pdfrwt beam="2">  1        1 0.11752470E-01 0.16842223E+03</pdfrwt>
<pdfrwt beam="1">  1       -1 0.54248530E-01 0.16842223E+03</pdfrwt>
<totfact> 0.17876892E+03</totfact>
</mgrwt>
</event>
<event>
 6    1  0.8353100E-006  0.1411335E+03  0.7546771E-02  0.1234238E+00
          4   -1    0    0  501    0  0.00000000000E+00  0.00000000000E+00  0.15977779155E+03  0.15977779155E+03  0.00000000000E+00 0. -1.
         -4   -1    0    0    0  501 -0.00000000000E+00 -0.00000000000E+00 -0.85390434279E+02  0.85390434279E+02  0.00000000000E+00 0.  1.
          5    1    1    2  502    0  0.58601830291E+02  0.23073434676E+02 -0.76900867547E+01  0.63622207879E+02  0.47000000000E+01 0. -1.
         -5    1    1    2    0  502 -0.37442523243E+02  0.38924901111E+02  0.75520620251E+02  0.92965286836E+02  0.47000000000E+01 0. -1.
        -11    1    1    2    0    0  0.19932503027E+02 -0.28315926701E+02  0.75398996979E+01  0.35439335057E+02  0.00000000000E+00 0. -1.
         11    1    1    2    0    0 -0.41091810074E+02 -0.33682409086E+02 -0.98307592080E+00  0.53141396060E+02  0.00000000000E+00 0.  1.
<mgrwt>
<rscale>  0 0.12553335E+03</rscale>
<asrwt>0</asrwt>
<pdfrwt beam="1">  1        4 0.24581199E-01 0.14113349E+03</pdfrwt>
<pdfrwt beam="2">  1       -4 0.13136990E-01 0.14113349E+03</pdfrwt>
<totfact> 0.12210847E+03</totfact>
</mgrwt>
</event>
<event>
 6    1  0.8353100E-006  0.1178468E+03  0.7546771E-02  0.1339308E+00
          2   -1    0    0  501    0  0.00000000000E+00  0.00000000000E+00  0.26797310888E+04  0.26797310888E+04  0.00000000000E+00 0. -1.
         -2   -1    0    0    0  501 -0.00000000000E+00 -0.00000000000E+00 -0.35306357642E+01  0.35306357642E+01  0.00000000000E+00 0.  1.
          5    1    1    2  502    0  0.80532682739E+00  0.40124718760E+02  0.23837096921E+04  0.23840521445E+04  0.47000000000E+01 0. -1.
         -5    1    1    2    0  502 -0.16823670535E+02 -0.28756730709E+02  0.24521328628E+03  0.24751087091E+03  0.47000000000E+01 0.  1.
        -11    1    1    2    0    0  0.59384088259E+01 -0.82037212047E+01  0.26941829211E+02  0.28782423495E+02  0.00000000000E+00 0. -1.
         11    1    1    2    0    0  0.10079934882E+02 -0.31642668466E+01  0.20335645522E+02  0.22916285709E+02  0.00000000000E+00 0.  1.
<mgrwt>
<rscale>  0 0.76493184E+02</rscale>
<asrwt>0</asrwt>
<pdfrwt beam="1">  1        2 0.41226470E+00 0.11784684E+03</pdfrwt>
<pdfrwt beam="2">  1       -2 0.54317687E-03 0.11784684E+03</pdfrwt>
<totfact> 0.16106818E+04</totfact>
</mgrwt>
</event>
<event>
 6    1  0.8353100E-006  0.1367772E+03  0.7546771E-02  0.1230185E+00
          1   -1    0    0  501    0  0.00000000000E+00  0.00000000000E+00  0.17645842252E+04  0.17645842252E+04  0.00000000000E+00 0. -1.
         -1   -1    0    0    0  501 -0.00000000000E+00 -0.00000000000E+00 -0.10296415545E+02  0.10296415545E+02  0.00000000000E+00 0.  1.
          5    1    1    2  502    0  0.33550014863E+02 -0.88518354419E+02  0.83254115343E+03  0.83791882944E+03  0.47000000000E+01 0.  1.
         -5    1    1    2    0  502 -0.10407738977E+02  0.38041478071E+02  0.52272231412E+03  0.52422913193E+03  0.47000000000E+01 0.  1.
        -11    1    1    2    0    0 -0.85287584794E+00  0.73298348352E+02  0.29154566991E+03  0.30061978130E+03  0.00000000000E+00 0.  1.
         11    1    1    2    0    0 -0.22289400038E+02 -0.22821472004E+02  0.10747867222E+03  0.11211289810E+03  0.00000000000E+00 0. -1.
<mgrwt>
<rscale>  0 0.12817745E+03</rscale>
<asrwt>0</asrwt>
<pdfrwt beam="1">  1        1 0.27147426E+00 0.13677720E+03</pdfrwt>
<pdfrwt beam="2">  1       -1 0.15840653E-02 0.13677720E+03</pdfrwt>
<totfact> 0.45696184E+03</totfact>
</mgrwt>
</event>
<event>
 6    1  0.8353100E-006  0.1374486E+03  0.7546771E-02  0.1228332E+00
         -1   -1    0    0    0  501 -0.00000000000E+00  0.00000000000E+00  0.90688873033E+02  0.90688873033E+02  0.00000000000E+00 0.  1.
          1   -1    0    0  501    0  0.00000000000E+00 -0.00000000000E+00 -0.18180993813E+03  0.18180993813E+03  0.00000000000E+00 0. -1.
          5    1    1    2  502    0  0.56320171711E+02 -0.75052771394E+02 -0.42474244301E+02  0.10310689436E+03  0.47000000000E+01 0.  1.
         -5    1    1    2    0  502 -0.28766271185E+02  0.25010395944E+02 -0.47877608886E+02  0.61378935278E+02  0.47000000000E+01 0.  1.
        -11    1    1    2    0    0 -0.55919288606E+02  0.27163133186E+02  0.20933812192E+02  0.65597462874E+02  0.00000000000E+00 0.  1.
         11    1    1    2    0    0  0.28365388080E+02  0.22879242264E+02 -0.21703024103E+02  0.42415518654E+02  0.00000000000E+00 0. -1.
<mgrwt>
<rscale>  0 0.12941112E+03</rscale>
<asrwt>0</asrwt>
<pdfrwt beam="2">  1        1 0.27970760E-01 0.13744865E+03</pdfrwt>
<pdfrwt beam="1">  1       -1 0.13952134E-01 0.13744865E+03</pdfrwt>
<totfact> 0.57021629E+03</totfact>
</mgrwt>
</event>
<event>
 6    1  0.8353100E-006  0.1484056E+03  0.7546771E-02  0.1213940E+00
          1   -1    0    0  501    0  0.00000000000E+00  0.00000000000E+00  0.54372591702E+02  0.54372591702E+02  0.00000000000E+00 0. -1.
         -1   -1    0    0    0  501 -0.00000000000E+00 -0.00000000000E+00 -0.33688121398E+03  0.33688121398E+03  0.00000000000E+00 0.  1.
          5    1    1    2  502    0  0.37850002027E+02 -0.15351198180E+02 -0.91007701904E+02  0.99863775939E+02  0.47000000000E+01 0.  1.
         -5    1    1    2    0  502  0.17873474416E+01  0.84833031119E+02 -0.25240334951E+02  0.88651014028E+02  0.47000000000E+01 0.  1.
        -11    1    1    2    0    0  0.21334612189E+02 -0.44133280195E+02 -0.58111882837E+02  0.76025673459E+02  0.00000000000E+00 0. -1.
         11    1    1    2    0    0 -0.60971961657E+02 -0.25348552743E+02 -0.10814870258E+03  0.12671334225E+03  0.00000000000E+00 0.  1.
<mgrwt>
<rscale>  0 0.13954698E+03</rscale>
<asrwt>0</asrwt>
<pdfrwt beam="1">  1        1 0.83650142E-02 0.14840559E+03</pdfrwt>
<pdfrwt beam="2">  1       -1 0.51827879E-01 0.14840559E+03</pdfrwt>
<totfact> 0.30432801E+03</totfact>
</mgrwt>
</event>
<event>
 6    1  0.8353100E-006  0.1360172E+03  0.7546771E-02  0.1233134E+00
          1   -1    0    0  501    0  0.00000000000E+00  0.00000000000E+00  0.41214140141E+02  0.41214140141E+02  0.00000000000E+00 0. -1.
         -1   -1    0    0    0  501 -0.00000000000E+00 -0.00000000000E+00 -0.34089483637E+03  0.34089483637E+03  0.00000000000E+00 0.  1.
          5    1    1    2  502    0  0.71695401870E+02 -0.53202559829E+02 -0.84152053338E+02  0.12277785266E+03  0.47000000000E+01 0.  1.
         -5    1    1    2    0  502 -0.40009489080E+02  0.99182676159E+01 -0.82422713510E+02  0.92275267278E+02  0.47000000000E+01 0.  1.
        -11    1    1    2    0    0 -0.54684119107E+01  0.65892415393E+02 -0.92390505988E+02  0.11361214518E+03  0.00000000000E+00 0.  1.
         11    1    1    2    0    0 -0.26217500879E+02 -0.22608123180E+02 -0.40715423389E+02  0.53443711397E+02  0.00000000000E+00 0. -1.
<mgrwt>
<rscale>  0 0.12624662E+03</rscale>
<asrwt>0</asrwt>
<pdfrwt beam="1">  1        1 0.63406371E-02 0.13601725E+03</pdfrwt>
<pdfrwt beam="2">  1       -1 0.52445359E-01 0.13601725E+03</pdfrwt>
<totfact> 0.43048009E+03</totfact>
</mgrwt>
</event>
<event>
 6    1  0.8353100E-006  0.1581741E+03  0.7546771E-02  0.1198489E+00
         -1   -1    0    0    0  501 -0.00000000000E+00  0.00000000000E+00  0.16040764343E+03  0.16040764343E+03  0.00000000000E+00 0.  1.
          1   -1    0    0  501    0  0.00000000000E+00 -0.00000000000E+00 -0.18654732196E+03  0.18654732196E+03  0.00000000000E+00 0. -1.
          5    1    1    2  502    0 -0.16123611503E+02 -0.15782611737E+02  0.25843126158E+02  0.34626851586E+02  0.47000000000E+01 0.  1.
         -5    1    1    2    0  502  0.14283068823E+02 -0.81122074141E+02 -0.13270809908E+03  0.15626364430E+03  0.47000000000E+01 0.  1.
        -11    1    1    2    0    0 -0.24176923576E+02 -0.47477803502E+01  0.31966419326E+02  0.40359844108E+02  0.00000000000E+00 0.  1.
         11    1    1    2    0    0  0.26017466256E+02  0.10165246623E+03  0.48758875069E+02  0.11570462540E+03  0.00000000000E+00 0. -1.
<mgrwt>
<rscale>  0 0.15162632E+03</rscale>
<asrwt>0</asrwt>
<pdfrwt beam="2">  1        1 0.28699588E-01 0.15817414E+03</pdfrwt>
<pdfrwt beam="1">  1       -1 0.24678099E-01 0.15817414E+03</pdfrwt>
<totfact> 0.22335804E+03</totfact>
</mgrwt>
</event>
<event>
 6    1  0.8353100E-006  0.1278437E+03  0.7546771E-02  0.1244233E+00
         -2   -1    0    0    0  501 -0.00000000000E+00  0.00000000000E+00  0.13172777588E+03  0.13172777588E+03  0.00000000000E+00 0.  1.
          2   -1    0    0  501    0  0.00000000000E+00 -0.00000000000E+00 -0.20281585991E+03  0.20281585991E+03  0.00000000000E+00 0. -1.
          5    1    1    2  502    0 -0.17424143894E+02  0.11339289798E+02 -0.16632569240E+03  0.16768573653E+03  0.47000000000E+01 0.  1.
         -5    1    1    2    0  502  0.33518481439E+02  0.10116682007E+02  0.75882626150E+01  0.36131808456E+02  0.47000000000E+01 0.  1.
        -11    1    1    2    0    0 -0.29047591994E+02 -0.16474807943E+02  0.10402907991E+03  0.10925763755E+03  0.00000000000E+00 0.  1.
         11    1    1    2    0    0  0.12953254450E+02 -0.49811638621E+01 -0.16379734143E+02  0.21468453248E+02  0.00000000000E+00 0. -1.
<mgrwt>
<rscale>  0 0.11931373E+03</rscale>
<asrwt>0</asrwt>
<pdfrwt beam="2">  1        2 0.31202440E-01 0.12784373E+03</pdfrwt>
<pdfrwt beam="1">  1       -2 0.20265812E-01 0.12784373E+03</pdfrwt>
<totfact> 0.33152336E+03</totfact>
</mgrwt>
</event>
<event>
 6    1  0.8353100E-006  0.1285080E+03  0.7546771E-02  0.1243575E+00
         -2   -1    0    0    0  501 -0.00000000000E+00  0.00000000000E+00  0.95600547297E+02  0.95600547297E+02  0.00000000000E+00 0.  1.
          2   -1    0    0  501    0  0.00000000000E+00 -0.00000000000E+00 -0.13500271373E+03  0.13500271373E+03  0.00000000000E+00 0. -1.
          5    1    1    2  502    0 -0.27676670221E+01 -0.75803087539E+01  0.43707701246E+02  0.44694230162E+02  0.47000000000E+01 0. -1.
         -5    1    1    2    0  502 -0.38395968752E+01  0.36659146011E+02 -0.80998433290E+02  0.89114935257E+02  0.47000000000E+01 0. -1.
        -11    1    1    2    0    0 -0.30628587521E+01 -0.35040808290E+02  0.39948436016E+02  0.53227031568E+02  0.00000000000E+00 0.  1.
         11    1    1    2    0    0  0.96701226494E+01  0.59619710332E+01 -0.42059870404E+02  0.43567064040E+02  0.00000000000E+00 0. -1.
<mgrwt>
<rscale>  0 0.11971095E+03</rscale>
<asrwt>0</asrwt>
<pdfrwt beam="2">  1        2 0.20769648E-01 0.12850795E+03</pdfrwt>
<pdfrwt beam="1">  1       -2 0.14707777E-01 0.12850795E+03</pdfrwt>
<totfact> 0.88301002E+03</totfact>
</mgrwt>
</event>
<event>
 6    1  0.8353100E-006  0.3407408E+03  0.7546771E-02  0.1066481E+00
         -3   -1    0    0    0  501 -0.00000000000E+00  0.00000000000E+00  0.12236402293E+03  0.12236402293E+03  0.00000000000E+00 0.  1.
          3   -1    0    0  501    0  0.00000000000E+00 -0.00000000000E+00 -0.23721089617E+03  0.23721089617E+03  0.00000000000E+00 0. -1.
          5    1    1    2  502    0 -0.12921486253E+02 -0.11107745210E+03 -0.26008950803E+02  0.11490744404E+03  0.47000000000E+01 0.  1.
         -5    1    1    2    0  502 -0.16859358820E+02 -0.44978256780E+01 -0.93466946638E+02  0.95197838891E+02  0.47000000000E+01 0.  1.
        -11    1    1    2    0    0  0.32294736583E+02  0.32581155416E+02  0.38407235252E+02  0.59829736912E+02  0.00000000000E+00 0.  1.
         11    1    1    2    0    0 -0.25138915101E+01  0.82994122366E+02 -0.33778211050E+02  0.89639899261E+02  0.00000000000E+00 0. -1.
<mgrwt>
<rscale>  0 0.34074084E+03</rscale>
<asrwt>0</asrwt>
<pdfrwt beam="2">  1        3 0.36493984E-01 0.34074084E+03</pdfrwt>
<pdfrwt beam="1">  1       -3 0.18825235E-01 0.34074084E+03</pdfrwt>
<totfact> 0.47912500E+02</totfact>
</mgrwt>
</event>
<event>
 6    1  0.8353100E-006  0.2978851E+03  0.7546771E-02  0.1086303E+00
         -1   -1    0    0    0  501 -0.00000000000E+00  0.00000000000E+00  0.48499421426E+02  0.48499421426E+02  0.00000000000E+00 0.  1.
          1   -1    0    0  501    0  0.00000000000E+00 -0.00000000000E+00 -0.45740504854E+03  0.45740504854E+03  0.00000000000E+00 0. -1.
          5    1    1    2  502    0 -0.37550433633E+02 -0.68839763148E+02 -0.10652103296E+03  0.13235470720E+03  0.47000000000E+01 0. -1.
         -5    1    1    2    0  502  0.66456333378E+01  0.25472714661E+02 -0.21558594363E+03  0.21723814750E+03  0.47000000000E+01 0. -1.
        -11    1    1    2    0    0  0.62469043507E+01  0.18659990508E+02 -0.11170862433E+03  0.11342854936E+03  0.00000000000E+00 0. -1.
         11    1    1    2    0    0  0.24657895945E+02  0.24707057980E+02  0.24909973811E+02  0.42883065908E+02  0.00000000000E+00 0.  1.
<mgrwt>
<rscale>  0 0.29788508E+03</rscale>
<asrwt>0</asrwt>
<pdfrwt beam="2">  1        1 0.70370004E-01 0.29788508E+03</pdfrwt>
<pdfrwt beam="1">  1       -1 0.74614498E-02 0.29788508E+03</pdfrwt>
<totfact> 0.48632525E+03</totfact>
</mgrwt>
</event>
<event>
 6    1  0.8353100E-006  0.1658990E+03  0.7546771E-02  0.1189424E+00
          2   -1    0    0  501    0  0.00000000000E+00  0.00000000000E+00  0.66818560355E+02  0.66818560355E+02  0.00000000000E+00 0. -1.
         -2   -1    0    0    0  501 -0.00000000000E+00 -0.00000000000E+00 -0.35300456470E+03  0.35300456470E+03  0.00000000000E+00 0.  1.
          5    1    1    2  502    0  0.16704140024E+02 -0.85199945914E+02 -0.15994350194E+03  0.18204964403E+03  0.47000000000E+01 0. -1.
         -5    1    1    2    0  502  0.45932094463E+02 -0.40902060268E+01  0.28301032245E+01  0.46439062990E+02  0.47000000000E+01 0. -1.
        -11    1    1    2    0    0 -0.67430805008E+01  0.40536061259E+02  0.15514969853E+01  0.41122360583E+02  0.00000000000E+00 0. -1.
         11    1    1    2    0    0 -0.55893153987E+02  0.48754090682E+02 -0.13062410262E+03  0.15021205746E+03  0.00000000000E+00 0.  1.
<mgrwt>
<rscale>  0 0.15935777E+03</rscale>
<asrwt>0</asrwt>
<pdfrwt beam="1">  1        2 0.10279779E-01 0.16589897E+03</pdfrwt>
<pdfrwt beam="2">  1       -2 0.54308393E-01 0.16589897E+03</pdfrwt>
<totfact> 0.19635058E+03</totfact>
</mgrwt>
</event>
<event>
 6    1  0.1921432E-005  0.2411895E+03  0.7546771E-02  0.1121758E+00
          1   -1    0    0  501    0  0.00000000000E+00  0.00000000000E+00  0.25804525740E+03  0.25804525740E+03  0.00000000000E+00 0. -1.
         -1   -1    0    0    0  501 -0.00000000000E+00 -0.00000000000E+00 -0.25490470230E+03  0.25490470230E+03  0.00000000000E+00 0.  1.
          5    1    1    2  502    0 -0.13641982330E+02 -0.54216918576E+02  0.86119303106E+02  0.10278230543E+03  0.47000000000E+01 0.  1.
         -5    1    1    2    0  502 -0.12881129582E+03 -0.94961843239E+02  0.22267313617E+02  0.16164165570E+03  0.47000000000E+01 0.  1.
        -11    1    1    2    0    0  0.72917719050E+02  0.15651695094E+02 -0.33543942087E+02  0.81775090104E+02  0.00000000000E+00 0.  1.
         11    1    1    2    0    0  0.69535559103E+02  0.13352706672E+03 -0.71702119541E+02  0.16675090846E+03  0.00000000000E+00 0. -1.
<mgrwt>
<rscale>  0 0.23707317E+03</rscale>
<asrwt>0</asrwt>
<pdfrwt beam="1">  1        1 0.39699270E-01 0.24118950E+03</pdfrwt>
<pdfrwt beam="2">  1       -1 0.39216108E-01 0.24118950E+03</pdfrwt>
<totfact> 0.68058087E+02</totfact>
</mgrwt>
</event>
<event>
 6    1  0.8353100E-006  0.3868256E+03  0.7546771E-02  0.1048439E+00
         -1   -1    0    0    0  501 -0.00000000000E+00  0.00000000000E+00  0.26079838853E+02  0.26079838853E+02  0.00000000000E+00 0.  1.
          1   -1    0    0  501    0  0.00000000000E+00 -0.00000000000E+00 -0.14343840877E+04  0.14343840877E+04  0.00000000000E+00 0. -1.
          5    1    1    2  502    0  0.15298427333E+03  0.51859442680E+01 -0.76520577508E+03  0.78038006774E+03  0.47000000000E+01 0. -1.
         -5    1    1    2    0  502 -0.16631917945E+02  0.58217629191E+00 -0.29211005889E+03  0.29262148952E+03  0.47000000000E+01 0.  1.
        -11    1    1    2    0    0 -0.30368553052E+02 -0.24991381475E+02 -0.18819316543E+03  0.19225890273E+03  0.00000000000E+00 0. -1.
         11    1    1    2    0    0 -0.10598380233E+03  0.19223260915E+02 -0.16279524942E+03  0.19520346654E+03  0.00000000000E+00 0.  1.
<mgrwt>
<rscale>  0 0.38682557E+03</rscale>
<asrwt>0</asrwt>
<pdfrwt beam="2">  1        1 0.22067441E+00 0.38682557E+03</pdfrwt>
<pdfrwt beam="1">  1       -1 0.40122841E-02 0.38682557E+03</pdfrwt>
<totfact> 0.19343404E+03</totfact>
</mgrwt>
</event>
<event>
 6    1  0.8353100E-006  0.2380552E+03  0.7546771E-02  0.1125653E+00
         -2   -1    0    0    0  501 -0.00000000000E+00  0.00000000000E+00  0.79379440056E+03  0.79379440056E+03  0.00000000000E+00 0.  1.
          2   -1    0    0  501    0  0.00000000000E+00 -0.00000000000E+00 -0.10256697197E+03  0.10256697197E+03  0.00000000000E+00 0. -1.
          5    1    1    2  502    0 -0.83198707934E+02 -0.12508370021E+03  0.39094822983E+01  0.15035069375E+03  0.47000000000E+01 0. -1.
         -5    1    1    2    0  502 -0.63771599456E+02  0.18980446602E+01  0.79167991676E+02  0.10178448004E+03  0.47000000000E+01 0.  1.
        -11    1    1    2    0    0  0.88875038590E+02  0.12012533818E+03  0.49401649673E+03  0.51612127296E+03  0.00000000000E+00 0.  1.
         11    1    1    2    0    0  0.58095268800E+02  0.30603173667E+01  0.11413345789E+03  0.12810492578E+03  0.00000000000E+00 0. -1.
<mgrwt>
<rscale>  0 0.23140768E+03</rscale>
<asrwt>0</asrwt>
<pdfrwt beam="2">  1        2 0.15779535E-01 0.23805520E+03</pdfrwt>
<pdfrwt beam="1">  1       -2 0.12212221E+00 0.23805520E+03</pdfrwt>
<totfact> 0.19583802E+02</totfact>
</mgrwt>
</event>
<event>
 6    1  0.8353100E-006  0.1188906E+03  0.7546771E-02  0.1255454E+00
          1   -1    0    0  501    0  0.00000000000E+00  0.00000000000E+00  0.12861959599E+04  0.12861959599E+04  0.00000000000E+00 0. -1.
         -1   -1    0    0    0  501 -0.00000000000E+00 -0.00000000000E+00 -0.11724425843E+02  0.11724425843E+02  0.00000000000E+00 0.  1.
          5    1    1    2  502    0 -0.44465480358E+02  0.30947530987E+01  0.94674045310E+03  0.94780078708E+03  0.47000000000E+01 0. -1.
         -5    1    1    2    0  502  0.18713845431E+02 -0.17208920400E+02  0.52848657730E+02  0.58833881191E+02  0.47000000000E+01 0.  1.
        -11    1    1    2    0    0  0.43918698472E+02  0.43500848039E+02  0.17771331104E+03  0.18815737237E+03  0.00000000000E+00 0.  1.
         11    1    1    2    0    0 -0.18167063546E+02 -0.29386680738E+02  0.97169112220E+02  0.10312834514E+03  0.00000000000E+00 0. -1.
<mgrwt>
<rscale>  0 0.11280935E+03</rscale>
<asrwt>0</asrwt>
<pdfrwt beam="1">  1        1 0.19787619E+00 0.11889056E+03</pdfrwt>
<pdfrwt beam="2">  1       -1 0.18037588E-02 0.11889056E+03</pdfrwt>
<totfact> 0.76981234E+03</totfact>
</mgrwt>
</event>
<event>
 6    1  0.8353100E-006  0.2558940E+03  0.7546771E-02  0.1109636E+00
         -2   -1    0    0    0  501 -0.00000000000E+00  0.00000000000E+00  0.26642054601E+02  0.26642054601E+02  0.00000000000E+00 0.  1.
          2   -1    0    0  501    0  0.00000000000E+00 -0.00000000000E+00 -0.61445833537E+03  0.61445833537E+03  0.00000000000E+00 0. -1.
          5    1    1    2  502    0  0.69675466193E+02  0.50169852603E+02 -0.10045130009E+03  0.13222797885E+03  0.47000000000E+01 0. -1.
         -5    1    1    2    0  502 -0.43406025212E+01 -0.19816266110E+02 -0.19982631563E+03  0.20090836630E+03  0.47000000000E+01 0. -1.
        -11    1    1    2    0    0 -0.24658447029E+02 -0.37835321942E+02 -0.52225263348E+02  0.69043672615E+02  0.00000000000E+00 0. -1.
         11    1    1    2    0    0 -0.40676416643E+02  0.74817354494E+01 -0.23531340170E+03  0.23892037221E+03  0.00000000000E+00 0.  1.
<mgrwt>
<rscale>  0 0.25589398E+03</rscale>
<asrwt>0</asrwt>
<pdfrwt beam="2">  1        2 0.94532043E-01 0.25589398E+03</pdfrwt>
<pdfrwt beam="1">  1       -2 0.40987780E-02 0.25589398E+03</pdfrwt>
<totfact> 0.12880804E+04</totfact>
</mgrwt>
</event>
<event>
 6    1  0.8353100E-006  0.3263988E+03  0.7546771E-02  0.1072741E+00
         -2   -1    0    0    0  501 -0.00000000000E+00  0.00000000000E+00  0.30674866357E+03  0.30674866357E+03  0.00000000000E+00 0.  1.
          2   -1    0    0  501    0  0.00000000000E+00 -0.00000000000E+00 -0.86826941445E+02  0.86826941445E+02  0.00000000000E+00 0. -1.
          5    1    1    2  502    0 -0.83443302209E+02  0.64652162547E+02  0.59831491854E+02  0.12142727957E+03  0.47000000000E+01 0. -1.
         -5    1    1    2    0  502  0.59362790202E+01 -0.10762106605E+02 -0.34797099947E+02  0.37202022954E+02  0.47000000000E+01 0. -1.
        -11    1    1    2    0    0  0.26591238566E+02 -0.53773227069E+02  0.40501297286E+02  0.72380998886E+02  0.00000000000E+00 0. -1.
         11    1    1    2    0    0  0.50915784622E+02 -0.11682887418E+00  0.15438603293E+03  0.16256530361E+03  0.00000000000E+00 0.  1.
<mgrwt>
<rscale>  0 0.32639883E+03</rscale>
<asrwt>0</asrwt>
<pdfrwt beam="2">  1        2 0.13357991E-01 0.32639883E+03</pdfrwt>
<pdfrwt beam="1">  1       -2 0.47192102E-01 0.32639883E+03</pdfrwt>
<totfact> 0.19386954E+03</totfact>
</mgrwt>
</event>
<event>
 6    1  0.8353100E-006  0.1330502E+03  0.7546771E-02  0.1235696E+00
         -1   -1    0    0    0  501 -0.00000000000E+00  0.00000000000E+00  0.11992782448E+03  0.11992782448E+03  0.00000000000E+00 0.  1.
          1   -1    0    0  501    0  0.00000000000E+00 -0.00000000000E+00 -0.18410322213E+03  0.18410322213E+03  0.00000000000E+00 0. -1.
          5    1    1    2  502    0  0.19514287346E+02 -0.53296408222E+02 -0.34994346288E+02  0.66843165785E+02  0.47000000000E+01 0. -1.
         -5    1    1    2    0  502 -0.62069610688E+02  0.37012607237E+02 -0.92020311644E+02  0.11709994629E+03  0.47000000000E+01 0. -1.
        -11    1    1    2    0    0  0.37012438098E+02  0.27291632785E+01 -0.15625614833E+02  0.40268210106E+02  0.00000000000E+00 0. -1.
         11    1    1    2    0    0  0.55428852428E+01  0.13554637707E+02  0.78464875119E+02  0.79819724427E+02  0.00000000000E+00 0.  1.
<mgrwt>
<rscale>  0 0.12459971E+03</rscale>
<asrwt>0</asrwt>
<pdfrwt beam="2">  1        1 0.28323572E-01 0.13305016E+03</pdfrwt>
<pdfrwt beam="1">  1       -1 0.18450435E-01 0.13305016E+03</pdfrwt>
<totfact> 0.36079251E+03</totfact>
</mgrwt>
</event>
<event>
 6    1  0.8353100E-006  0.1328960E+03  0.7546771E-02  0.1236654E+00
          1   -1    0    0  501    0  0.00000000000E+00  0.00000000000E+00  0.31467293415E+03  0.31467293415E+03  0.00000000000E+00 0. -1.
         -1   -1    0    0    0  501 -0.00000000000E+00 -0.00000000000E+00 -0.91562036101E+02  0.91562036101E+02  0.00000000000E+00 0.  1.
          5    1    1    2  502    0 -0.46157740111E+01  0.73958175772E+02  0.11942199257E+03  0.14062296912E+03  0.47000000000E+01 0. -1.
         -5    1    1    2    0  502  0.36274722216E+02 -0.41786403317E+02  0.14613488026E+03  0.15633122594E+03  0.47000000000E+01 0. -1.
        -11    1    1    2    0    0 -0.20972252089E+02 -0.36765414470E+02  0.19249638665E+02  0.46498168218E+02  0.00000000000E+00 0. -1.
         11    1    1    2    0    0 -0.10686696116E+02  0.45936420157E+01 -0.61695613447E+02  0.62782606982E+02  0.00000000000E+00 0.  1.
<mgrwt>
<rscale>  0 0.12399152E+03</rscale>
<asrwt>0</asrwt>
<pdfrwt beam="1">  1        1 0.48411220E-01 0.13289598E+03</pdfrwt>
<pdfrwt beam="2">  1       -1 0.14086467E-01 0.13289598E+03</pdfrwt>
<totfact> 0.28420371E+03</totfact>
</mgrwt>
</event>
<event>
 6    1  0.8353100E-006  0.2349319E+03  0.7546771E-02  0.1149232E+00
          1   -1    0    0  501    0  0.00000000000E+00  0.00000000000E+00  0.11368043055E+04  0.11368043055E+04  0.00000000000E+00 0. -1.
         -1   -1    0    0    0  501 -0.00000000000E+00 -0.00000000000E+00 -0.37118711714E+02  0.37118711714E+02  0.00000000000E+00 0.  1.
          5    1    1    2  502    0  0.62911631142E+01 -0.11313602855E+03  0.66795472013E+03  0.67751379162E+03  0.47000000000E+01 0. -1.
         -5    1    1    2    0  502  0.13434287688E+02  0.10463143102E+03  0.28381497208E+03  0.30282213396E+03  0.47000000000E+01 0.  1.
        -11    1    1    2    0    0 -0.33020091459E+02 -0.34554011376E+02  0.13986964563E+03  0.14781009408E+03  0.00000000000E+00 0. -1.
         11    1    1    2    0    0  0.13294640658E+02  0.43058608909E+02  0.80462559629E+01  0.45776997569E+02  0.00000000000E+00 0.  1.
<mgrwt>
<rscale>  0 0.20060236E+03</rscale>
<asrwt>0</asrwt>
<pdfrwt beam="1">  1        1 0.17489294E+00 0.23493186E+03</pdfrwt>
<pdfrwt beam="2">  1       -1 0.57105719E-02 0.23493186E+03</pdfrwt>
<totfact> 0.18271845E+03</totfact>
</mgrwt>
</event>
<event>
 6    1  0.8353100E-006  0.3081044E+03  0.7546771E-02  0.1081258E+00
         -1   -1    0    0    0  501 -0.00000000000E+00  0.00000000000E+00  0.11774208825E+02  0.11774208825E+02  0.00000000000E+00 0.  1.
          1   -1    0    0  501    0  0.00000000000E+00 -0.00000000000E+00 -0.20155982603E+04  0.20155982603E+04  0.00000000000E+00 0. -1.
          5    1    1    2  502    0 -0.97830139326E+01  0.52775145699E+01 -0.15403147889E+02  0.19567996488E+02  0.47000000000E+01 0.  1.
         -5    1    1    2    0  502  0.50522509995E+02 -0.25472918252E+02 -0.17152242868E+04  0.17161636977E+04  0.47000000000E+01 0.  1.
        -11    1    1    2    0    0  0.15831387185E+02  0.37366439591E+02 -0.14306760465E+03  0.14871187958E+03  0.00000000000E+00 0.  1.
         11    1    1    2    0    0 -0.56570883247E+02 -0.17171035908E+02 -0.13012901222E+03  0.14292889535E+03  0.00000000000E+00 0. -1.
<mgrwt>
<rscale>  0 0.30810436E+03</rscale>
<asrwt>0</asrwt>
<pdfrwt beam="2">  1        1 0.31009184E+00 0.30810436E+03</pdfrwt>
<pdfrwt beam="1">  1       -1 0.18114179E-02 0.30810436E+03</pdfrwt>
<totfact> 0.26095123E+03</totfact>
</mgrwt>
</event>
<event>
 6    1  0.8353100E-006  0.4075458E+03  0.7546771E-02  0.1041198E+00
          2   -1    0    0  501    0  0.00000000000E+00  0.00000000000E+00  0.44586809868E+03  0.44586809868E+03  0.00000000000E+00 0.  1.
         -2   -1    0    0    0  501 -0.00000000000E+00 -0.00000000000E+00 -0.93129305176E+02  0.93129305176E+02  0.00000000000E+00 0. -1.
          5    1    1    2  502    0 -0.33746476304E+01 -0.34761616405E+01 -0.99647675232E+01  0.12035719263E+02  0.47000000000E+01 0.  1.
         -5    1    1    2    0  502  0.50271805373E+02 -0.10776435814E+03  0.35269661105E+03  0.37223299255E+03  0.47000000000E+01 0.  1.
        -11    1    1    2    0    0 -0.10366048100E+02  0.53938262830E+01  0.37626476333E+02  0.39399239033E+02  0.00000000000E+00 0.  1.
         11    1    1    2    0    0 -0.36531109643E+02  0.10584669350E+03 -0.27619526351E+02  0.11532945301E+03  0.00000000000E+00 0. -1.
<mgrwt>
<rscale>  0 0.40754576E+03</rscale>
<asrwt>0</asrwt>
<pdfrwt beam="1">  1        2 0.68595091E-01 0.40754576E+03</pdfrwt>
<pdfrwt beam="2">  1       -2 0.14327586E-01 0.40754576E+03</pdfrwt>
<totfact> 0.26317665E+03</totfact>
</mgrwt>
</event>
<event>
 6    1  0.8353100E-006  0.1692573E+03  0.7546771E-02  0.1185957E+00
         -2   -1    0    0    0  501 -0.00000000000E+00  0.00000000000E+00  0.11809500923E+02  0.11809500923E+02  0.00000000000E+00 0.  1.
          2   -1    0    0  501    0  0.00000000000E+00 -0.00000000000E+00 -0.23151939031E+04  0.23151939031E+04  0.00000000000E+00 0. -1.
          5    1    1    2  502    0  0.46996488892E+02  0.29766381959E+02 -0.26361829570E+03  0.26946503167E+03  0.47000000000E+01 0.  1.
         -5    1    1    2    0  502 -0.33641214403E+02  0.83593163481E+02 -0.13481048683E+04  0.13511211545E+04  0.47000000000E+01 0.  1.
        -11    1    1    2    0    0 -0.44831925001E+02 -0.95707973166E+02 -0.56074807470E+03  0.57062099585E+03  0.00000000000E+00 0. -1.
         11    1    1    2    0    0  0.31476650512E+02 -0.17651572274E+02 -0.13091316349E+03  0.13579622199E+03  0.00000000000E+00 0.  1.
<mgrwt>
<rscale>  0 0.16245122E+03</rscale>
<asrwt>0</asrwt>
<pdfrwt beam="2">  1        2 0.35618373E+00 0.16925729E+03</pdfrwt>
<pdfrwt beam="1">  1       -2 0.18168460E-02 0.16925729E+03</pdfrwt>
<totfact> 0.45023607E+03</totfact>
</mgrwt>
</event>
<event>
 6    1  0.2270857E-005  0.3311885E+03  0.7546771E-02  0.1070612E+00
         -1   -1    0    0    0  501 -0.00000000000E+00  0.00000000000E+00  0.41160413464E+02  0.41160413464E+02  0.00000000000E+00 0.  1.
          1   -1    0    0  501    0  0.00000000000E+00 -0.00000000000E+00 -0.66620949821E+03  0.66620949821E+03  0.00000000000E+00 0. -1.
          5    1    1    2  502    0  0.83178666405E+01 -0.23723076627E+02 -0.27612152618E+03  0.27730336905E+03  0.47000000000E+01 0.  1.
         -5    1    1    2    0  502  0.66872250341E+02 -0.71647799337E+02 -0.11686381394E+03  0.15259274565E+03  0.47000000000E+01 0.  1.
        -11    1    1    2    0    0 -0.67976150432E+02  0.19943328648E+02 -0.14935426891E+03  0.16530333036E+03  0.00000000000E+00 0.  1.
         11    1    1    2    0    0 -0.72139665502E+01  0.75427547315E+02 -0.82709475714E+02  0.11217046661E+03  0.00000000000E+00 0. -1.
<mgrwt>
<rscale>  0 0.33118852E+03</rscale>
<asrwt>0</asrwt>
<pdfrwt beam="2">  1        1 0.10249375E+00 0.33118852E+03</pdfrwt>
<pdfrwt beam="1">  1       -1 0.63323723E-02 0.33118852E+03</pdfrwt>
<totfact> 0.37385065E+03</totfact>
</mgrwt>
</event>
<event>
 6    1  0.8353100E-006  0.1295232E+03  0.7546771E-02  0.1238145E+00
         -1   -1    0    0    0  501 -0.00000000000E+00  0.00000000000E+00  0.12240332079E+03  0.12240332079E+03  0.00000000000E+00 0.  1.
          1   -1    0    0  501    0  0.00000000000E+00 -0.00000000000E+00 -0.11315853489E+03  0.11315853489E+03  0.00000000000E+00 0. -1.
          5    1    1    2  502    0 -0.35521767649E+02  0.17968220390E+02  0.42536013273E+02  0.58447030259E+02  0.47000000000E+01 0. -1.
         -5    1    1    2    0  502  0.54845719451E+02  0.10410191356E+02 -0.43750606193E+02  0.71081858223E+02  0.47000000000E+01 0. -1.
        -11    1    1    2    0    0 -0.52441345206E+02 -0.58654733318E+01 -0.19250867652E+02  0.56170226720E+02  0.00000000000E+00 0. -1.
         11    1    1    2    0    0  0.33117393404E+02 -0.22512938414E+02  0.29710246475E+02  0.49862740474E+02  0.00000000000E+00 0.  1.
<mgrwt>
<rscale>  0 0.12305239E+03</rscale>
<asrwt>0</asrwt>
<pdfrwt beam="2">  1        1 0.17409005E-01 0.12952319E+03</pdfrwt>
<pdfrwt beam="1">  1       -1 0.18831280E-01 0.12952319E+03</pdfrwt>
<totfact> 0.64452712E+03</totfact>
</mgrwt>
</event>
<event>
 6    1  0.8353100E-006  0.1313955E+03  0.7546771E-02  0.1234933E+00
          1   -1    0    0  501    0  0.00000000000E+00  0.00000000000E+00  0.68412982741E+03  0.68412982741E+03  0.00000000000E+00 0. -1.
         -1   -1    0    0    0  501 -0.00000000000E+00 -0.00000000000E+00 -0.41823845001E+02  0.41823845001E+02  0.00000000000E+00 0.  1.
          5    1    1    2  502    0  0.88249698105E+02  0.28821886849E+01  0.38043256978E+03  0.39057309991E+03  0.47000000000E+01 0. -1.
         -5    1    1    2    0  502 -0.32256819233E+02  0.27552961040E+02  0.21242436928E+03  0.21666995803E+03  0.47000000000E+01 0.  1.
        -11    1    1    2    0    0 -0.69423921358E+02 -0.32579776453E+02  0.10436819958E+02  0.77395412663E+02  0.00000000000E+00 0.  1.
         11    1    1    2    0    0  0.13431042486E+02  0.21446267282E+01  0.39012223390E+02  0.41315201802E+02  0.00000000000E+00 0. -1.
<mgrwt>
<rscale>  0 0.12508700E+03</rscale>
<asrwt>0</asrwt>
<pdfrwt beam="1">  1        1 0.10525073E+00 0.13139551E+03</pdfrwt>
<pdfrwt beam="2">  1       -1 0.64344382E-02 0.13139551E+03</pdfrwt>
<totfact> 0.34138876E+03</totfact>
</mgrwt>
</event>
<event>
 6    1  0.8353100E-006  0.1464399E+03  0.7546771E-02  0.1214717E+00
          1   -1    0    0  501    0  0.00000000000E+00  0.00000000000E+00  0.20081858016E+03  0.20081858016E+03  0.00000000000E+00 0. -1.
         -1   -1    0    0    0  501 -0.00000000000E+00 -0.00000000000E+00 -0.89670866168E+02  0.89670866168E+02  0.00000000000E+00 0.  1.
          5    1    1    2  502    0  0.45432555801E+02 -0.15064234385E+02  0.10694446840E+03  0.11726149242E+03  0.47000000000E+01 0.  1.
         -5    1    1    2    0  502  0.28061449710E+02  0.35484485432E+02 -0.23593300824E+02  0.51237949900E+02  0.47000000000E+01 0.  1.
        -11    1    1    2    0    0 -0.91587414970E+02 -0.15630005114E+02  0.57775722264E+01  0.93090987649E+02  0.00000000000E+00 0.  1.
         11    1    1    2    0    0  0.18093409459E+02 -0.47902459319E+01  0.22018974194E+02  0.28899016359E+02  0.00000000000E+00 0. -1.
<mgrwt>
<rscale>  0 0.13897327E+03</rscale>
<asrwt>0</asrwt>
<pdfrwt beam="1">  1        1 0.30895166E-01 0.14643990E+03</pdfrwt>
<pdfrwt beam="2">  1       -1 0.13795518E-01 0.14643990E+03</pdfrwt>
<totfact> 0.51467817E+03</totfact>
</mgrwt>
</event>
<event>
 6    1  0.8353100E-006  0.2760600E+03  0.7546771E-02  0.1097861E+00
         -1   -1    0    0    0  501 -0.00000000000E+00  0.00000000000E+00  0.81996141007E+02  0.81996141007E+02  0.00000000000E+00 0.  1.
          1   -1    0    0  501    0  0.00000000000E+00 -0.00000000000E+00 -0.23235579739E+03  0.23235579739E+03  0.00000000000E+00 0. -1.
          5    1    1    2  502    0 -0.74176797937E+02 -0.28469778317E+02 -0.21919914880E+01  0.79621733567E+02  0.47000000000E+01 0. -1.
         -5    1    1    2    0  502 -0.49240581739E+01  0.13230655530E+02 -0.99324964090E+02  0.10043323696E+03  0.47000000000E+01 0. -1.
        -11    1    1    2    0    0  0.53041937288E+02 -0.17135098220E+02  0.15358813519E+02  0.57818265755E+02  0.00000000000E+00 0.  1.
         11    1    1    2    0    0  0.26058918823E+02  0.32374221007E+02 -0.64201514328E+02  0.76478702120E+02  0.00000000000E+00 0. -1.
<mgrwt>
<rscale>  0 0.27605998E+03</rscale>
<asrwt>0</asrwt>
<pdfrwt beam="2">  1        1 0.35747045E-01 0.27605998E+03</pdfrwt>
<pdfrwt beam="1">  1       -1 0.12614791E-01 0.27605998E+03</pdfrwt>
<totfact> 0.50967972E+03</totfact>
</mgrwt>
</event>
<event>
 6    1  0.8353100E-006  0.1614833E+03  0.7546771E-02  0.1194306E+00
          2   -1    0    0  501    0  0.00000000000E+00  0.00000000000E+00  0.30361382813E+03  0.30361382813E+03  0.00000000000E+00 0.  1.
         -2   -1    0    0    0  501 -0.00000000000E+00 -0.00000000000E+00 -0.76044465112E+02  0.76044465112E+02  0.00000000000E+00 0. -1.
          5    1    1    2  502    0  0.55353437342E+02  0.13182808400E+02  0.14423529146E+03  0.15512478450E+03  0.47000000000E+01 0. -1.
         -5    1    1    2    0  502  0.36614516314E+02 -0.57817536763E+02  0.12138122514E+02  0.69662862275E+02  0.47000000000E+01 0. -1.
        -11    1    1    2    0    0 -0.31477772802E+02  0.12498713243E+02 -0.21123346497E+02  0.39915708444E+02  0.00000000000E+00 0. -1.
         11    1    1    2    0    0 -0.60490180853E+02  0.32136015119E+02  0.92319295537E+02  0.11495493802E+03  0.00000000000E+00 0.  1.
<mgrwt>
<rscale>  0 0.15513130E+03</rscale>
<asrwt>0</asrwt>
<pdfrwt beam="1">  1        2 0.46709819E-01 0.16148325E+03</pdfrwt>
<pdfrwt beam="2">  1       -2 0.11699149E-01 0.16148325E+03</pdfrwt>
<totfact> 0.53786837E+03</totfact>
</mgrwt>
</event>
<event>
 6    1  0.8353100E-006  0.1266846E+03  0.7546771E-02  0.1248594E+00
          1   -1    0    0  501    0  0.00000000000E+00  0.00000000000E+00  0.44918741101E+03  0.44918741101E+03  0.00000000000E+00 0. -1.
         -1   -1    0    0    0  501 -0.00000000000E+00 -0.00000000000E+00 -0.26512196618E+02  0.26512196618E+02  0.00000000000E+00 0.  1.
          5    1    1    2  502    0 -0.10547302099E+02 -0.58963379014E+02  0.14550424627E+03  0.15742141318E+03  0.47000000000E+01 0.  1.
         -5    1    1    2    0  502 -0.91691471309E+01  0.64271122914E+02  0.11148097713E+03  0.12909279129E+03  0.47000000000E+01 0.  1.
        -11    1    1    2    0    0 -0.20750661204E+02 -0.33851925364E+02  0.54159073891E+02  0.67154657888E+02  0.00000000000E+00 0.  1.
         11    1    1    2    0    0  0.40467110434E+02  0.28544181465E+02  0.11153091710E+03  0.12203074527E+03  0.00000000000E+00 0. -1.
<mgrwt>
<rscale>  0 0.11672804E+03</rscale>
<asrwt>0</asrwt>
<pdfrwt beam="1">  1        1 0.69105750E-01 0.12668459E+03</pdfrwt>
<pdfrwt beam="2">  1       -1 0.40787998E-02 0.12668459E+03</pdfrwt>
<totfact> 0.11729118E+04</totfact>
</mgrwt>
</event>
<event>
 6    1  0.8353100E-006  0.1387371E+03  0.7546771E-02  0.1227121E+00
         -1   -1    0    0    0  501 -0.00000000000E+00  0.00000000000E+00  0.25152611381E+02  0.25152611381E+02  0.00000000000E+00 0.  1.
          1   -1    0    0  501    0  0.00000000000E+00 -0.00000000000E+00 -0.61089459391E+03  0.61089459391E+03  0.00000000000E+00 0. -1.
          5    1    1    2  502    0  0.29917166812E+02 -0.35410516029E+02 -0.53736690327E+02  0.71124281386E+02  0.47000000000E+01 0.  1.
         -5    1    1    2    0  502 -0.70979427773E+02 -0.85962474795E+01 -0.30999982624E+03  0.31817284125E+03  0.47000000000E+01 0.  1.
        -11    1    1    2    0    0 -0.19918774060E+02 -0.10761469270E+02 -0.27108580549E+02  0.35319143821E+02  0.00000000000E+00 0.  1.
         11    1    1    2    0    0  0.60981035021E+02  0.54768232778E+02 -0.19489688542E+03  0.21143093884E+03  0.00000000000E+00 0. -1.
<mgrwt>
<rscale>  0 0.13022608E+03</rscale>
<asrwt>0</asrwt>
<pdfrwt beam="2">  1        1 0.93983778E-01 0.13873715E+03</pdfrwt>
<pdfrwt beam="1">  1       -1 0.38696327E-02 0.13873715E+03</pdfrwt>
<totfact> 0.85028410E+03</totfact>
</mgrwt>
</event>
<event>
 6    1  0.8353100E-006  0.4418045E+03  0.7546771E-02  0.1030195E+00
         -1   -1    0    0    0  501 -0.00000000000E+00  0.00000000000E+00  0.25778253128E+03  0.25778253128E+03  0.00000000000E+00 0.  1.
          1   -1    0    0  501    0  0.00000000000E+00 -0.00000000000E+00 -0.18929835166E+03  0.18929835166E+03  0.00000000000E+00 0. -1.
          5    1    1    2  502    0  0.53895647165E+02 -0.19076750531E+03  0.29278547763E+02  0.20044027845E+03  0.47000000000E+01 0. -1.
         -5    1    1    2    0  502 -0.25590131205E+02  0.15233043554E+01  0.21276231426E+02  0.33644364980E+02  0.47000000000E+01 0. -1.
        -11    1    1    2    0    0 -0.24831771684E+02  0.50606485718E+02 -0.32928821248E+02  0.65283539660E+02  0.00000000000E+00 0.  1.
         11    1    1    2    0    0 -0.34737442758E+01  0.13863771523E+03  0.50858221679E+02  0.14771269985E+03  0.00000000000E+00 0. -1.
<mgrwt>
<rscale>  0 0.44180452E+03</rscale>
<asrwt>0</asrwt>
<pdfrwt beam="2">  1        1 0.29122823E-01 0.44180452E+03</pdfrwt>
<pdfrwt beam="1">  1       -1 0.39658851E-01 0.44180452E+03</pdfrwt>
<totfact> 0.99046299E+02</totfact>
</mgrwt>
</event>
<event>
 6    1  0.8353100E-006  0.1663998E+03  0.7546771E-02  0.1189591E+00
          2   -1    0    0  501    0  0.00000000000E+00  0.00000000000E+00  0.80570292838E+03  0.80570292838E+03  0.00000000000E+00 0. -1.
         -2   -1    0    0    0  501 -0.00000000000E+00 -0.00000000000E+00 -0.35355428099E+02  0.35355428099E+02  0.00000000000E+00 0.  1.
          5    1    1    2  502    0 -0.10030504342E+03 -0.42925394404E+02  0.25971772118E+03  0.28174292523E+03  0.47000000000E+01 0. -1.
         -5    1    1    2    0  502  0.11762707913E+02 -0.22047637600E+02  0.33067840617E+03  0.33165457622E+03  0.47000000000E+01 0. -1.
        -11    1    1    2    0    0 -0.92784709072E+01  0.32694993218E+02  0.64714233284E+02  0.73095722128E+02  0.00000000000E+00 0. -1.
         11    1    1    2    0    0  0.97820806414E+02  0.32278038786E+02  0.11523713965E+03  0.15456513290E+03  0.00000000000E+00 0.  1.
<mgrwt>
<rscale>  0 0.15921030E+03</rscale>
<asrwt>0</asrwt>
<pdfrwt beam="1">  1        2 0.12395428E+00 0.16639984E+03</pdfrwt>
<pdfrwt beam="2">  1       -2 0.54392972E-02 0.16639984E+03</pdfrwt>
<totfact> 0.59173057E+03</totfact>
</mgrwt>
</event>
<event>
 6    1  0.8353100E-006  0.1255347E+03  0.7546771E-02  0.1249190E+00
         -1   -1    0    0    0  501 -0.00000000000E+00  0.00000000000E+00  0.30549025500E+02  0.30549025500E+02  0.00000000000E+00 0.  1.
          1   -1    0    0  501    0  0.00000000000E+00 -0.00000000000E+00 -0.43652586523E+03  0.43652586523E+03  0.00000000000E+00 0. -1.
          5    1    1    2  502    0  0.12673768786E+02  0.33417791391E+02 -0.15797204437E+02  0.39357526151E+02  0.47000000000E+01 0. -1.
         -5    1    1    2    0  502 -0.40852100104E+01 -0.25700789115E+02 -0.29001045351E+03  0.29121362030E+03  0.47000000000E+01 0. -1.
        -11    1    1    2    0    0  0.10066105121E+02  0.24781733267E+02 -0.94979330607E+02  0.98673877083E+02  0.00000000000E+00 0. -1.
         11    1    1    2    0    0 -0.18654663896E+02 -0.32498735543E+02 -0.51898511752E+01  0.37829867197E+02  0.00000000000E+00 0.  1.
<mgrwt>
<rscale>  0 0.11638081E+03</rscale>
<asrwt>0</asrwt>
<pdfrwt beam="2">  1        1 0.67157824E-01 0.12553469E+03</pdfrwt>
<pdfrwt beam="1">  1       -1 0.46998502E-02 0.12553469E+03</pdfrwt>
<totfact> 0.98699937E+03</totfact>
</mgrwt>
</event>
<event>
 6    1  0.8353100E-006  0.3617134E+03  0.7546771E-02  0.1057907E+00
          2   -1    0    0  501    0  0.00000000000E+00  0.00000000000E+00  0.39925678611E+03  0.39925678611E+03  0.00000000000E+00 0. -1.
         -2   -1    0    0    0  501 -0.00000000000E+00 -0.00000000000E+00 -0.81925106466E+02  0.81925106466E+02  0.00000000000E+00 0.  1.
          5    1    1    2  502    0  0.43836227900E+01 -0.36997504460E+02  0.10273078613E+03  0.10937886406E+03  0.47000000000E+01 0.  1.
         -5    1    1    2    0  502  0.12110372581E+03  0.53780446516E+02  0.15760320302E+03  0.20595948251E+03  0.47000000000E+01 0.  1.
        -11    1    1    2    0    0 -0.66908978137E+02  0.18524640021E+02 -0.99500163913E+01  0.70135415230E+02  0.00000000000E+00 0.  1.
         11    1    1    2    0    0 -0.58578370468E+02 -0.35307582077E+02  0.66947706888E+02  0.95708130774E+02  0.00000000000E+00 0. -1.
<mgrwt>
<rscale>  0 0.36171345E+03</rscale>
<asrwt>0</asrwt>
<pdfrwt beam="1">  1        2 0.61424120E-01 0.36171345E+03</pdfrwt>
<pdfrwt beam="2">  1       -2 0.12603863E-01 0.36171345E+03</pdfrwt>
<totfact> 0.36661375E+03</totfact>
</mgrwt>
</event>
<event>
 6    1  0.8353100E-006  0.1514622E+03  0.7546771E-02  0.1207864E+00
          1   -1    0    0  501    0  0.00000000000E+00  0.00000000000E+00  0.19607532578E+04  0.19607532578E+04  0.00000000000E+00 0. -1.
         -1   -1    0    0    0  501 -0.00000000000E+00 -0.00000000000E+00 -0.11001469373E+02  0.11001469373E+02  0.00000000000E+00 0.  1.
          5    1    1    2  502    0 -0.17129214185E+01 -0.77535346587E+02  0.10181756410E+04  0.10211358332E+04  0.47000000000E+01 0.  1.
         -5    1    1    2    0  502 -0.60242115550E+02  0.18570950138E+02  0.38031188350E+03  0.38552978018E+03  0.47000000000E+01 0.  1.
        -11    1    1    2    0    0 -0.20090346430E+02  0.22997271110E+02  0.85535993453E+02  0.90823469843E+02  0.00000000000E+00 0.  1.
         11    1    1    2    0    0  0.82045383399E+02  0.35967125339E+02  0.46572827049E+03  0.47426564389E+03  0.00000000000E+00 0. -1.
<mgrwt>
<rscale>  0 0.14414046E+03</rscale>
<asrwt>0</asrwt>
<pdfrwt beam="1">  1        1 0.30165407E+00 0.15146218E+03</pdfrwt>
<pdfrwt beam="2">  1       -1 0.16925353E-02 0.15146218E+03</pdfrwt>
<totfact> 0.31208990E+03</totfact>
</mgrwt>
</event>
<event>
 6    1  0.8353100E-006  0.1901325E+03  0.7546771E-02  0.1163235E+00
          1   -1    0    0  501    0  0.00000000000E+00  0.00000000000E+00  0.14246604435E+04  0.14246604435E+04  0.00000000000E+00 0. -1.
         -1   -1    0    0    0  501 -0.00000000000E+00 -0.00000000000E+00 -0.41834221796E+02  0.41834221796E+02  0.00000000000E+00 0.  1.
          5    1    1    2  502    0  0.13506091665E+03  0.10462660441E+02  0.86164182378E+03  0.87223829368E+03  0.47000000000E+01 0. -1.
         -5    1    1    2    0  502 -0.70678674663E+01  0.53921369791E+02  0.34630958964E+03  0.35058506920E+03  0.47000000000E+01 0. -1.
        -11    1    1    2    0    0 -0.13490371585E+02  0.15147616871E+02  0.59000014526E+02  0.62389439302E+02  0.00000000000E+00 0. -1.
         11    1    1    2    0    0 -0.11450267760E+03 -0.79531647103E+02  0.11587479378E+03  0.18128186314E+03  0.00000000000E+00 0.  1.
<mgrwt>
<rscale>  0 0.18480169E+03</rscale>
<asrwt>0</asrwt>
<pdfrwt beam="1">  1        1 0.21917849E+00 0.19013248E+03</pdfrwt>
<pdfrwt beam="2">  1       -1 0.64360352E-02 0.19013248E+03</pdfrwt>
<totfact> 0.97119496E+02</totfact>
</mgrwt>
</event>
<event>
 6    1  0.8353100E-006  0.1327230E+03  0.7546771E-02  0.1237314E+00
          1   -1    0    0  501    0  0.00000000000E+00  0.00000000000E+00  0.16787824600E+03  0.16787824600E+03  0.00000000000E+00 0. -1.
         -1   -1    0    0    0  501 -0.00000000000E+00 -0.00000000000E+00 -0.88121334090E+02  0.88121334090E+02  0.00000000000E+00 0.  1.
          5    1    1    2  502    0 -0.26594412992E+02  0.15771968100E+02  0.10029222211E+03  0.10505540251E+03  0.47000000000E+01 0. -1.
         -5    1    1    2    0  502  0.39317833235E+02  0.27021950585E+02 -0.17888526277E+02  0.51168029042E+02  0.47000000000E+01 0. -1.
        -11    1    1    2    0    0 -0.43178862056E+02 -0.20309781442E+02 -0.26939257246E+02  0.54796212749E+02  0.00000000000E+00 0.  1.
         11    1    1    2    0    0  0.30455441813E+02 -0.22484137243E+02  0.24292473323E+02  0.44979935790E+02  0.00000000000E+00 0. -1.
<mgrwt>
<rscale>  0 0.12357428E+03</rscale>
<asrwt>0</asrwt>
<pdfrwt beam="1">  1        1 0.25827422E-01 0.13272299E+03</pdfrwt>
<pdfrwt beam="2">  1       -1 0.13557128E-01 0.13272299E+03</pdfrwt>
<totfact> 0.65729483E+03</totfact>
</mgrwt>
</event>
<event>
 6    1  0.8353100E-006  0.3886013E+03  0.7546771E-02  0.1047800E+00
         -1   -1    0    0    0  501 -0.00000000000E+00  0.00000000000E+00  0.25291847856E+03  0.25291847856E+03  0.00000000000E+00 0.  1.
          1   -1    0    0  501    0  0.00000000000E+00 -0.00000000000E+00 -0.14926842708E+03  0.14926842708E+03  0.00000000000E+00 0. -1.
          5    1    1    2  502    0 -0.98627350991E+02 -0.40030403514E+02 -0.59670913437E+02  0.12211672891E+03  0.47000000000E+01 0. -1.
         -5    1    1    2    0  502  0.41101389465E+02 -0.18165972334E+02 -0.27921491377E+02  0.53113335873E+02  0.47000000000E+01 0.  1.
        -11    1    1    2    0    0  0.16641560221E+02  0.46664629490E+02  0.17433190945E+03  0.18123505132E+03  0.00000000000E+00 0.  1.
         11    1    1    2    0    0  0.40884401304E+02  0.11531746357E+02  0.16910546846E+02  0.45721789539E+02  0.00000000000E+00 0. -1.
<mgrwt>
<rscale>  0 0.38860130E+03</rscale>
<asrwt>0</asrwt>
<pdfrwt beam="2">  1        1 0.22964373E-01 0.38860130E+03</pdfrwt>
<pdfrwt beam="1">  1       -1 0.38910535E-01 0.38860130E+03</pdfrwt>
<totfact> 0.13910614E+03</totfact>
</mgrwt>
</event>
<event>
 6    1  0.8353100E-006  0.1269708E+03  0.7546771E-02  0.1249153E+00
         -1   -1    0    0    0  501 -0.00000000000E+00  0.00000000000E+00  0.91686936919E+02  0.91686936919E+02  0.00000000000E+00 0.  1.
          1   -1    0    0  501    0  0.00000000000E+00 -0.00000000000E+00 -0.14551494248E+03  0.14551494248E+03  0.00000000000E+00 0. -1.
          5    1    1    2  502    0  0.42918146895E+02  0.25151988563E+02  0.11067256817E+02  0.51177768953E+02  0.47000000000E+01 0.  1.
         -5    1    1    2    0  502 -0.45621026633E+02 -0.31083208304E+01 -0.82671345704E+02  0.94591654653E+02  0.47000000000E+01 0.  1.
        -11    1    1    2    0    0 -0.95422115878E+01 -0.31870662242E+02  0.47397154943E+02  0.57907540186E+02  0.00000000000E+00 0.  1.
         11    1    1    2    0    0  0.12245091326E+02  0.98269945096E+01 -0.29621071613E+02  0.33524915603E+02  0.00000000000E+00 0. -1.
<mgrwt>
<rscale>  0 0.11640221E+03</rscale>
<asrwt>0</asrwt>
<pdfrwt beam="2">  1        1 0.22386914E-01 0.12697078E+03</pdfrwt>
<pdfrwt beam="1">  1       -1 0.14105683E-01 0.12697078E+03</pdfrwt>
<totfact> 0.73712848E+03</totfact>
</mgrwt>
</event>
<event>
 6    1  0.8353100E-006  0.1378357E+03  0.7546771E-02  0.1235603E+00
         -2   -1    0    0    0  501 -0.00000000000E+00  0.00000000000E+00  0.23164343874E+02  0.23164343874E+02  0.00000000000E+00 0. -1.
          2   -1    0    0  501    0  0.00000000000E+00 -0.00000000000E+00 -0.57118520029E+03  0.57118520029E+03  0.00000000000E+00 0.  1.
          5    1    1    2  502    0  0.26659878362E+02 -0.80713560293E+02 -0.27836588113E+03  0.29109290907E+03  0.47000000000E+01 0.  1.
         -5    1    1    2    0  502 -0.34496126478E+02  0.23163081719E+02 -0.51001476541E+02  0.65952647453E+02  0.47000000000E+01 0.  1.
        -11    1    1    2    0    0  0.22869660762E+02 -0.54717017152E+01 -0.93039169525E+02  0.95964826728E+02  0.00000000000E+00 0. -1.
         11    1    1    2    0    0 -0.15033412646E+02  0.63022180289E+02 -0.12561432922E+03  0.14133916092E+03  0.00000000000E+00 0.  1.
<mgrwt>
<rscale>  0 0.12465883E+03</rscale>
<asrwt>0</asrwt>
<pdfrwt beam="2">  1        2 0.87874653E-01 0.13783567E+03</pdfrwt>
<pdfrwt beam="1">  1       -2 0.35637449E-02 0.13783567E+03</pdfrwt>
<totfact> 0.16557636E+04</totfact>
</mgrwt>
</event>
<event>
 6    1  0.8353100E-006  0.1689813E+03  0.7546771E-02  0.1185581E+00
         -1   -1    0    0    0  501 -0.00000000000E+00  0.00000000000E+00  0.53593294899E+03  0.53593294899E+03  0.00000000000E+00 0.  1.
          1   -1    0    0  501    0  0.00000000000E+00 -0.00000000000E+00 -0.48336892606E+02  0.48336892606E+02  0.00000000000E+00 0. -1.
          5    1    1    2  502    0  0.61298593933E+02  0.22775817916E+02  0.43887698998E+02  0.78895346017E+02  0.47000000000E+01 0. -1.
         -5    1    1    2    0  502 -0.36406844535E+02  0.88172229207E+02  0.15525326082E+03  0.18227853776E+03  0.47000000000E+01 0. -1.
        -11    1    1    2    0    0 -0.23892043352E+02 -0.66127408303E+02  0.26149363318E+03  0.27078143226E+03  0.00000000000E+00 0.  1.
         11    1    1    2    0    0 -0.99970604569E+00 -0.44820638819E+02  0.26961463387E+02  0.52314525558E+02  0.00000000000E+00 0. -1.
<mgrwt>
<rscale>  0 0.16279147E+03</rscale>
<asrwt>0</asrwt>
<pdfrwt beam="2">  1        1 0.74364454E-02 0.16898129E+03</pdfrwt>
<pdfrwt beam="1">  1       -1 0.82451219E-01 0.16898129E+03</pdfrwt>
<totfact> 0.14498739E+03</totfact>
</mgrwt>
</event>
<event>
 6    1  0.8353100E-006  0.1384799E+03  0.7546771E-02  0.1233440E+00
          1   -1    0    0  501    0  0.00000000000E+00  0.00000000000E+00  0.49328584670E+03  0.49328584670E+03  0.00000000000E+00 0. -1.
         -1   -1    0    0    0  501 -0.00000000000E+00 -0.00000000000E+00 -0.28312885436E+02  0.28312885436E+02  0.00000000000E+00 0.  1.
          5    1    1    2  502    0 -0.64195756592E+02  0.22532215313E+02  0.20612361979E+03  0.21711248818E+03  0.47000000000E+01 0. -1.
         -5    1    1    2    0  502  0.64965599717E+02  0.39813066739E+01  0.10805757758E+03  0.12623355347E+03  0.47000000000E+01 0.  1.
        -11    1    1    2    0    0 -0.11224595199E+02  0.29547594887E+02  0.87625903300E+02  0.93152299113E+02  0.00000000000E+00 0. -1.
         11    1    1    2    0    0  0.10454752073E+02 -0.56061116874E+02  0.63165860599E+02  0.85100391370E+02  0.00000000000E+00 0.  1.
<mgrwt>
<rscale>  0 0.12604808E+03</rscale>
<asrwt>0</asrwt>
<pdfrwt beam="1">  1        1 0.75890124E-01 0.13847989E+03</pdfrwt>
<pdfrwt beam="2">  1       -1 0.43558289E-02 0.13847989E+03</pdfrwt>
<totfact> 0.94999455E+03</totfact>
</mgrwt>
</event>
<event>
 6    1  0.8353100E-006  0.1420932E+03  0.7546771E-02  0.1220977E+00
          2   -1    0    0  501    0  0.00000000000E+00  0.00000000000E+00  0.62981090953E+03  0.62981090953E+03  0.00000000000E+00 0. -1.
         -2   -1    0    0    0  501 -0.00000000000E+00 -0.00000000000E+00 -0.28311364209E+02  0.28311364209E+02  0.00000000000E+00 0.  1.
          5    1    1    2  502    0  0.30428022464E+02 -0.64259730637E+02  0.20942763581E+03  0.22121754491E+03  0.47000000000E+01 0.  1.
         -5    1    1    2    0  502  0.36909174654E+02  0.60261808172E+02  0.21473407233E+03  0.22611188495E+03  0.47000000000E+01 0.  1.
        -11    1    1    2    0    0 -0.17298738108E+02  0.22301961749E+02  0.28694941329E+01  0.28370016471E+02  0.00000000000E+00 0.  1.
         11    1    1    2    0    0 -0.50038459009E+02 -0.18304039284E+02  0.17446834304E+03  0.18242282740E+03  0.00000000000E+00 0. -1.
<mgrwt>
<rscale>  0 0.13446515E+03</rscale>
<asrwt>0</asrwt>
<pdfrwt beam="1">  1        2 0.96893976E-01 0.14209315E+03</pdfrwt>
<pdfrwt beam="2">  1       -2 0.43555949E-02 0.14209315E+03</pdfrwt>
<totfact> 0.11017648E+04</totfact>
</mgrwt>
</event>
<event>
 6    1  0.8353100E-006  0.1426111E+03  0.7546771E-02  0.1220278E+00
          2   -1    0    0  501    0  0.00000000000E+00  0.00000000000E+00  0.24224952102E+03  0.24224952102E+03  0.00000000000E+00 0. -1.
         -2   -1    0    0    0  501 -0.00000000000E+00 -0.00000000000E+00 -0.68309132401E+02  0.68309132401E+02  0.00000000000E+00 0.  1.
          5    1    1    2  502    0 -0.10311463816E+02  0.27865107751E+02  0.63324209599E+02  0.70105891603E+02  0.47000000000E+01 0.  1.
         -5    1    1    2    0  502  0.24129960595E+02 -0.95148297885E+02  0.40479690657E+02  0.10628334274E+03  0.47000000000E+01 0.  1.
        -11    1    1    2    0    0 -0.23696123750E+02  0.80585676326E+02  0.27431931476E+02  0.88363275031E+02  0.00000000000E+00 0.  1.
         11    1    1    2    0    0  0.98776269709E+01 -0.13302486193E+02  0.42704556887E+02  0.45806144046E+02  0.00000000000E+00 0. -1.
<mgrwt>
<rscale>  0 0.13495856E+03</rscale>
<asrwt>0</asrwt>
<pdfrwt beam="1">  1        2 0.37269157E-01 0.14261105E+03</pdfrwt>
<pdfrwt beam="2">  1       -2 0.10509097E-01 0.14261105E+03</pdfrwt>
<totfact> 0.80505833E+03</totfact>
</mgrwt>
</event>
<event>
 6    1  0.8353100E-006  0.2206944E+03  0.7546771E-02  0.1152340E+00
         -2   -1    0    0    0  501 -0.00000000000E+00  0.00000000000E+00  0.35117813664E+02  0.35117813664E+02  0.00000000000E+00 0.  1.
          2   -1    0    0  501    0  0.00000000000E+00 -0.00000000000E+00 -0.13325564320E+04  0.13325564320E+04  0.00000000000E+00 0. -1.
          5    1    1    2  502    0 -0.37963553046E+02  0.72548081850E+02 -0.10912905035E+04  0.10943680865E+04  0.47000000000E+01 0. -1.
         -5    1    1    2    0  502  0.19413072495E+02  0.32039117247E+02 -0.29416359834E+02  0.47862142070E+02  0.47000000000E+01 0.  1.
        -11    1    1    2    0    0 -0.25573248535E+02 -0.82500422710E+02 -0.84445421265E+02  0.12079461892E+03  0.00000000000E+00 0.  1.
         11    1    1    2    0    0  0.44123729086E+02 -0.22086776386E+02 -0.92286333701E+02  0.10464939822E+03  0.00000000000E+00 0. -1.
<mgrwt>
<rscale>  0 0.19694741E+03</rscale>
<asrwt>0</asrwt>
<pdfrwt beam="2">  1        2 0.20500865E+00 0.22069441E+03</pdfrwt>
<pdfrwt beam="1">  1       -2 0.54027414E-02 0.22069441E+03</pdfrwt>
<totfact> 0.29216325E+03</totfact>
</mgrwt>
</event>
<event>
 6    1  0.8353100E-006  0.1286192E+03  0.7546771E-02  0.1242847E+00
         -1   -1    0    0    0  501 -0.00000000000E+00  0.00000000000E+00  0.79898257915E+02  0.79898257915E+02  0.00000000000E+00 0.  1.
          1   -1    0    0  501    0  0.00000000000E+00 -0.00000000000E+00 -0.16924207279E+03  0.16924207279E+03  0.00000000000E+00 0. -1.
          5    1    1    2  502    0 -0.32374385491E+02  0.43000399457E+02 -0.86622669319E+02  0.10209168443E+03  0.47000000000E+01 0.  1.
         -5    1    1    2    0  502  0.24312183061E+01 -0.47458776086E+02  0.83425736105E+01  0.48476125923E+02  0.47000000000E+01 0.  1.
        -11    1    1    2    0    0  0.35921983129E+02 -0.12469573057E+02 -0.45766073124E+02  0.59501366147E+02  0.00000000000E+00 0. -1.
         11    1    1    2    0    0 -0.59788159441E+01  0.16927949686E+02  0.34702353960E+02  0.39071154206E+02  0.00000000000E+00 0.  1.
<mgrwt>
<rscale>  0 0.12015173E+03</rscale>
<asrwt>0</asrwt>
<pdfrwt beam="2">  1        1 0.26037242E-01 0.12861917E+03</pdfrwt>
<pdfrwt beam="1">  1       -1 0.12292040E-01 0.12861917E+03</pdfrwt>
<totfact> 0.75555487E+03</totfact>
</mgrwt>
</event>
<event>
 6    1  0.9724980E-006  0.1516811E+03  0.7546771E-02  0.1207572E+00
         -1   -1    0    0    0  501 -0.00000000000E+00  0.00000000000E+00  0.18970440468E+02  0.18970440468E+02  0.00000000000E+00 0.  1.
          1   -1    0    0  501    0  0.00000000000E+00 -0.00000000000E+00 -0.13436609962E+04  0.13436609962E+04  0.00000000000E+00 0. -1.
          5    1    1    2  502    0  0.53464906334E+02 -0.36582928835E+02 -0.23866147122E+03  0.24734226234E+03  0.47000000000E+01 0. -1.
         -5    1    1    2    0  502  0.31269545913E+02  0.50799529004E+02 -0.81331093484E+03  0.81550913139E+03  0.47000000000E+01 0. -1.
        -11    1    1    2    0    0 -0.34258109134E+02  0.25104005520E+02 -0.19270447320E+03  0.19732927589E+03  0.00000000000E+00 0. -1.
         11    1    1    2    0    0 -0.50476343112E+02 -0.39320605689E+02 -0.80013676461E+02  0.10245076704E+03  0.00000000000E+00 0.  1.
<mgrwt>
<rscale>  0 0.14436604E+03</rscale>
<asrwt>0</asrwt>
<pdfrwt beam="2">  1        1 0.20671720E+00 0.15168105E+03</pdfrwt>
<pdfrwt beam="1">  1       -1 0.29185276E-02 0.15168105E+03</pdfrwt>
<totfact> 0.35439460E+03</totfact>
</mgrwt>
</event>
<event>
 6    1  0.8353100E-006  0.1166951E+03  0.7546771E-02  0.1257558E+00
         -4   -1    0    0    0  501 -0.00000000000E+00  0.00000000000E+00  0.11412872761E+03  0.11412872761E+03  0.00000000000E+00 0.  1.
          4   -1    0    0  501    0  0.00000000000E+00 -0.00000000000E+00 -0.14838300570E+03  0.14838300570E+03  0.00000000000E+00 0. -1.
          5    1    1    2  502    0  0.58721629711E+02 -0.20384123385E+02 -0.26298007237E+02  0.67656614360E+02  0.47000000000E+01 0. -1.
         -5    1    1    2    0  502 -0.46736561429E+02 -0.42789475106E+01 -0.66030185923E+02  0.81146109082E+02  0.47000000000E+01 0.  1.
        -11    1    1    2    0    0 -0.41017486127E+02 -0.13005087488E+02  0.64376060346E+01  0.43508726024E+02  0.00000000000E+00 0.  1.
         11    1    1    2    0    0  0.29032417845E+02  0.37668158384E+02  0.51636309035E+02  0.70200283850E+02  0.00000000000E+00 0. -1.
<mgrwt>
<rscale>  0 0.11164279E+03</rscale>
<asrwt>0</asrwt>
<pdfrwt beam="2">  1        4 0.22828155E-01 0.11669514E+03</pdfrwt>
<pdfrwt beam="1">  1       -4 0.17558266E-01 0.11669514E+03</pdfrwt>
<totfact> 0.80895124E+02</totfact>
</mgrwt>
</event>
<event>
 6    1  0.8353100E-006  0.1700633E+03  0.7546771E-02  0.1184397E+00
         -3   -1    0    0    0  501 -0.00000000000E+00  0.00000000000E+00  0.91740083868E+02  0.91740083868E+02  0.00000000000E+00 0.  1.
          3   -1    0    0  501    0  0.00000000000E+00 -0.00000000000E+00 -0.31187060787E+03  0.31187060787E+03  0.00000000000E+00 0. -1.
          5    1    1    2  502    0  0.36932907268E+01 -0.43128357935E+02 -0.83935906483E+02  0.94556977805E+02  0.47000000000E+01 0. -1.
         -5    1    1    2    0  502  0.11161376025E+03  0.44235973040E+02 -0.10409795434E+03  0.15897461082E+03  0.47000000000E+01 0. -1.
        -11    1    1    2    0    0 -0.19065990375E+02  0.33493083204E+02  0.94648240589E+01  0.39684776753E+02  0.00000000000E+00 0. -1.
         11    1    1    2    0    0 -0.96241060604E+02 -0.34600698309E+02 -0.41561487230E+02  0.11039432635E+03  0.00000000000E+00 0.  1.
<mgrwt>
<rscale>  0 0.16386888E+03</rscale>
<asrwt>0</asrwt>
<pdfrwt beam="2">  1        3 0.47980094E-01 0.17006332E+03</pdfrwt>
<pdfrwt beam="1">  1       -3 0.14113859E-01 0.17006332E+03</pdfrwt>
<totfact> 0.42832969E+02</totfact>
</mgrwt>
</event>
<event>
 6    1  0.8353100E-006  0.2068097E+03  0.7546771E-02  0.1147666E+00
          2   -1    0    0  501    0  0.00000000000E+00  0.00000000000E+00  0.46205552590E+03  0.46205552590E+03  0.00000000000E+00 0. -1.
         -2   -1    0    0    0  501 -0.00000000000E+00 -0.00000000000E+00 -0.93036734705E+02  0.93036734705E+02  0.00000000000E+00 0.  1.
          5    1    1    2  502    0  0.86386556696E+02 -0.27570050293E+02  0.24644004789E+03  0.26263574025E+03  0.47000000000E+01 0.  1.
         -5    1    1    2    0  502  0.74106147575E+02 -0.96781908348E+01  0.25703216675E+02  0.79171546869E+02  0.47000000000E+01 0.  1.
        -11    1    1    2    0    0 -0.54769946657E+02 -0.30791201846E+02  0.44972095066E+02  0.77267939681E+02  0.00000000000E+00 0. -1.
         11    1    1    2    0    0 -0.10572275761E+03  0.68039442973E+02  0.51903431564E+02  0.13601703381E+03  0.00000000000E+00 0.  1.
<mgrwt>
<rscale>  0 0.20247671E+03</rscale>
<asrwt>0</asrwt>
<pdfrwt beam="1">  1        2 0.71085464E-01 0.20680973E+03</pdfrwt>
<pdfrwt beam="2">  1       -2 0.14313344E-01 0.20680973E+03</pdfrwt>
<totfact> 0.24922781E+03</totfact>
</mgrwt>
</event>
<event>
 6    1  0.8353100E-006  0.1321186E+03  0.7546771E-02  0.1232988E+00
         -1   -1    0    0    0  501 -0.00000000000E+00  0.00000000000E+00  0.31261387608E+02  0.31261387608E+02  0.00000000000E+00 0.  1.
          1   -1    0    0  501    0  0.00000000000E+00 -0.00000000000E+00 -0.47072646781E+03  0.47072646781E+03  0.00000000000E+00 0. -1.
          5    1    1    2  502    0  0.70943147670E+01  0.43881124533E+02 -0.23630498556E+03  0.24049536085E+03  0.47000000000E+01 0.  1.
         -5    1    1    2    0  502 -0.29229286516E+02 -0.72540125245E+01 -0.28182734434E+00  0.30481819411E+02  0.47000000000E+01 0.  1.
        -11    1    1    2    0    0  0.85881143781E+01  0.32971308226E+02 -0.10325606542E+03  0.10873213840E+03  0.00000000000E+00 0. -1.
         11    1    1    2    0    0  0.13546857371E+02 -0.69598420234E+02 -0.99622201877E+02  0.12227853675E+03  0.00000000000E+00 0.  1.
<mgrwt>
<rscale>  0 0.12634150E+03</rscale>
<asrwt>0</asrwt>
<pdfrwt beam="2">  1        1 0.72419451E-01 0.13211855E+03</pdfrwt>
<pdfrwt beam="1">  1       -1 0.48094446E-02 0.13211855E+03</pdfrwt>
<totfact> 0.86941742E+03</totfact>
</mgrwt>
</event>
<event>
 6    1  0.8353100E-006  0.1323341E+03  0.7546771E-02  0.1234486E+00
         -2   -1    0    0    0  501 -0.00000000000E+00  0.00000000000E+00  0.96517036399E+02  0.96517036399E+02  0.00000000000E+00 0.  1.
          2   -1    0    0  501    0  0.00000000000E+00 -0.00000000000E+00 -0.49314677301E+03  0.49314677301E+03  0.00000000000E+00 0. -1.
          5    1    1    2  502    0 -0.27079513476E+02 -0.46539808069E+02 -0.75692484380E+02  0.93009117708E+02  0.47000000000E+01 0. -1.
         -5    1    1    2    0  502 -0.14041876268E+02  0.32531976945E+02 -0.37528845605E+03  0.37698676244E+03  0.47000000000E+01 0. -1.
        -11    1    1    2    0    0  0.63100148587E+02 -0.78809370805E+01  0.82795625442E+01  0.64127132143E+02  0.00000000000E+00 0.  1.
         11    1    1    2    0    0 -0.21978758843E+02  0.21888768205E+02  0.46071641278E+02  0.55540797112E+02  0.00000000000E+00 0. -1.
<mgrwt>
<rscale>  0 0.12537373E+03</rscale>
<asrwt>0</asrwt>
<pdfrwt beam="2">  1        2 0.75868734E-01 0.13233412E+03</pdfrwt>
<pdfrwt beam="1">  1       -2 0.14848775E-01 0.13233412E+03</pdfrwt>
<totfact> 0.21559192E+03</totfact>
</mgrwt>
</event>
<event>
 6    1  0.2022563E-005  0.1929422E+03  0.7546771E-02  0.1160538E+00
          1   -1    0    0  501    0  0.00000000000E+00  0.00000000000E+00  0.40507105822E+03  0.40507105822E+03  0.00000000000E+00 0. -1.
         -1   -1    0    0    0  501 -0.00000000000E+00 -0.00000000000E+00 -0.87898819289E+02  0.87898819289E+02  0.00000000000E+00 0.  1.
          5    1    1    2  502    0 -0.35326631696E+02 -0.54186253074E+02  0.10300177881E+02  0.65668139866E+02  0.47000000000E+01 0. -1.
         -5    1    1    2    0  502 -0.27941434323E+02 -0.78474549907E+02  0.21695820755E+03  0.23244769855E+03  0.47000000000E+01 0. -1.
        -11    1    1    2    0    0  0.20070170115E+02  0.28414853217E+02 -0.17605821422E+02  0.38989492941E+02  0.00000000000E+00 0.  1.
         11    1    1    2    0    0  0.43197895904E+02  0.10424594976E+03  0.10751967492E+03  0.15586454615E+03  0.00000000000E+00 0. -1.
<mgrwt>
<rscale>  0 0.18771521E+03</rscale>
<asrwt>0</asrwt>
<pdfrwt beam="1">  1        1 0.62318623E-01 0.19294217E+03</pdfrwt>
<pdfrwt beam="2">  1       -1 0.13522896E-01 0.19294217E+03</pdfrwt>
<totfact> 0.22349725E+03</totfact>
</mgrwt>
</event>
<event>
 6    1  0.8353100E-006  0.1262149E+03  0.7546771E-02  0.1248375E+00
          2   -1    0    0  501    0  0.00000000000E+00  0.00000000000E+00  0.58767850997E+02  0.58767850997E+02  0.00000000000E+00 0.  1.
         -2   -1    0    0    0  501 -0.00000000000E+00 -0.00000000000E+00 -0.24209617535E+03  0.24209617535E+03  0.00000000000E+00 0. -1.
          5    1    1    2  502    0 -0.40499025438E+02  0.35109522774E+02  0.38078279165E+01  0.53939217684E+02  0.47000000000E+01 0.  1.
         -5    1    1    2    0  502  0.36326667433E+02 -0.52095700314E+02 -0.48151335727E+02  0.79838774354E+02  0.47000000000E+01 0.  1.
        -11    1    1    2    0    0  0.24729376374E+02 -0.88552060512E+01 -0.21854305493E+01  0.26357785126E+02  0.00000000000E+00 0.  1.
         11    1    1    2    0    0 -0.20557018369E+02  0.25841383591E+02 -0.13679938599E+03  0.14072824918E+03  0.00000000000E+00 0. -1.
<mgrwt>
<rscale>  0 0.11685610E+03</rscale>
<asrwt>0</asrwt>
<pdfrwt beam="1">  1        2 0.90412077E-02 0.12621491E+03</pdfrwt>
<pdfrwt beam="2">  1       -2 0.37245566E-01 0.12621491E+03</pdfrwt>
<totfact> 0.47037743E+03</totfact>
</mgrwt>
</event>
<event>
 6    1  0.8353100E-006  0.1279299E+03  0.7546771E-02  0.1246626E+00
          2   -1    0    0  501    0  0.00000000000E+00  0.00000000000E+00  0.77087836855E+02  0.77087836855E+02  0.00000000000E+00 0. -1.
         -2   -1    0    0    0  501 -0.00000000000E+00 -0.00000000000E+00 -0.15724028573E+03  0.15724028573E+03  0.00000000000E+00 0.  1.
          5    1    1    2  502    0  0.50779348846E+02 -0.25333494426E+02  0.16414922497E+02  0.59261014922E+02  0.47000000000E+01 0.  1.
         -5    1    1    2    0  502 -0.26123428267E+02  0.36824839794E+02 -0.61378047973E+02  0.76340402824E+02  0.47000000000E+01 0.  1.
        -11    1    1    2    0    0  0.82713788012E+01 -0.37610869800E+02  0.70389286553E+01  0.39147665971E+02  0.00000000000E+00 0. -1.
         11    1    1    2    0    0 -0.32927299380E+02  0.26119524431E+02 -0.42228252050E+02  0.59579038866E+02  0.00000000000E+00 0.  1.
<mgrwt>
<rscale>  0 0.11788588E+03</rscale>
<asrwt>0</asrwt>
<pdfrwt beam="1">  1        2 0.11859667E-01 0.12792991E+03</pdfrwt>
<pdfrwt beam="2">  1       -2 0.24190813E-01 0.12792991E+03</pdfrwt>
<totfact> 0.73445968E+03</totfact>
</mgrwt>
</event>
<event>
 6    1  0.8353100E-006  0.3721066E+03  0.7546771E-02  0.1053890E+00
         -1   -1    0    0    0  501 -0.00000000000E+00  0.00000000000E+00  0.10640806294E+03  0.10640806294E+03  0.00000000000E+00 0.  1.
          1   -1    0    0  501    0  0.00000000000E+00 -0.00000000000E+00 -0.32531207554E+03  0.32531207554E+03  0.00000000000E+00 0. -1.
          5    1    1    2  502    0 -0.10341090916E+03 -0.23343767539E+02 -0.13603145987E+03  0.17252650721E+03  0.47000000000E+01 0.  1.
         -5    1    1    2    0  502  0.25040925066E+02  0.15724380344E+01 -0.12973986427E+03  0.13222723952E+03  0.47000000000E+01 0.  1.
        -11    1    1    2    0    0  0.63821086502E+02 -0.25201141267E+02  0.31014041700E+02  0.75300062324E+02  0.00000000000E+00 0.  1.
         11    1    1    2    0    0  0.14548897596E+02  0.46972470771E+02  0.15853269841E+02  0.51666329425E+02  0.00000000000E+00 0. -1.
<mgrwt>
<rscale>  0 0.37210659E+03</rscale>
<asrwt>0</asrwt>
<pdfrwt beam="2">  1        1 0.50048011E-01 0.37210659E+03</pdfrwt>
<pdfrwt beam="1">  1       -1 0.16370471E-01 0.37210659E+03</pdfrwt>
<totfact> 0.22161094E+03</totfact>
</mgrwt>
</event>
<event>
 6    1  0.8353100E-006  0.1679341E+03  0.7546771E-02  0.1189061E+00
         -2   -1    0    0    0  501 -0.00000000000E+00  0.00000000000E+00  0.25822015177E+03  0.25822015177E+03  0.00000000000E+00 0.  1.
          2   -1    0    0  501    0  0.00000000000E+00 -0.00000000000E+00 -0.90345997731E+02  0.90345997731E+02  0.00000000000E+00 0. -1.
          5    1    1    2  502    0 -0.10985469991E+03 -0.41407667482E+02  0.22117898512E+02  0.11955727269E+03  0.47000000000E+01 0. -1.
         -5    1    1    2    0  502  0.88684787247E+01  0.25748475608E+02  0.62830616409E+02  0.68639713500E+02  0.47000000000E+01 0.  1.
        -11    1    1    2    0    0 -0.85266875909E+01  0.21452712975E+02  0.34503981508E+00  0.23087709885E+02  0.00000000000E+00 0.  1.
         11    1    1    2    0    0  0.10951290877E+03 -0.57935211001E+01  0.82580599306E+02  0.13728145343E+03  0.00000000000E+00 0. -1.
<mgrwt>
<rscale>  0 0.15967755E+03</rscale>
<asrwt>0</asrwt>
<pdfrwt beam="2">  1        2 0.13899384E-01 0.16793408E+03</pdfrwt>
<pdfrwt beam="1">  1       -2 0.39726177E-01 0.16793408E+03</pdfrwt>
<totfact> 0.25150026E+03</totfact>
</mgrwt>
</event>
<event>
 6    1  0.8353100E-006  0.1469694E+03  0.7546771E-02  0.1213544E+00
          1   -1    0    0  501    0  0.00000000000E+00  0.00000000000E+00  0.18123102964E+03  0.18123102964E+03  0.00000000000E+00 0. -1.
         -1   -1    0    0    0  501 -0.00000000000E+00 -0.00000000000E+00 -0.14729163744E+03  0.14729163744E+03  0.00000000000E+00 0.  1.
          5    1    1    2  502    0 -0.39246794716E+02  0.24056196671E+01 -0.17086193707E+02  0.43129177094E+02  0.47000000000E+01 0.  1.
         -5    1    1    2    0  502 -0.10054086517E+02  0.57129934496E+02  0.12925939626E+03  0.14175681851E+03  0.47000000000E+01 0.  1.
        -11    1    1    2    0    0 -0.15946729463E+02 -0.42134245673E+02 -0.71921220643E+01  0.45621480235E+02  0.00000000000E+00 0. -1.
         11    1    1    2    0    0  0.65247610696E+02 -0.17401308490E+02 -0.71041688290E+02  0.98015191240E+02  0.00000000000E+00 0.  1.
<mgrwt>
<rscale>  0 0.13984026E+03</rscale>
<asrwt>0</asrwt>
<pdfrwt beam="1">  1        1 0.27881697E-01 0.14696940E+03</pdfrwt>
<pdfrwt beam="2">  1       -1 0.22660252E-01 0.14696940E+03</pdfrwt>
<totfact> 0.26550614E+03</totfact>
</mgrwt>
</event>
<event>
 6    1  0.8353100E-006  0.1529533E+03  0.7546771E-02  0.1208095E+00
          2   -1    0    0  501    0  0.00000000000E+00  0.00000000000E+00  0.68394696311E+02  0.68394696311E+02  0.00000000000E+00 0. -1.
         -2   -1    0    0    0  501 -0.00000000000E+00 -0.00000000000E+00 -0.29841064712E+03  0.29841064712E+03  0.00000000000E+00 0.  1.
          5    1    1    2  502    0 -0.91894449506E+02  0.16595765145E+02 -0.51448460460E+02  0.10671946099E+03  0.47000000000E+01 0. -1.
         -5    1    1    2    0  502  0.13652473661E+02 -0.57230185956E+02 -0.22433074983E+02  0.63142830748E+02  0.47000000000E+01 0. -1.
        -11    1    1    2    0    0  0.45577606318E+02  0.56736098485E+02 -0.13855448693E+03  0.15650446932E+03  0.00000000000E+00 0.  1.
         11    1    1    2    0    0  0.32664369527E+02 -0.16101677675E+02 -0.17579928442E+02  0.40438582375E+02  0.00000000000E+00 0. -1.
<mgrwt>
<rscale>  0 0.14396169E+03</rscale>
<asrwt>0</asrwt>
<pdfrwt beam="1">  1        2 0.10522261E-01 0.15295332E+03</pdfrwt>
<pdfrwt beam="2">  1       -2 0.45909331E-01 0.15295332E+03</pdfrwt>
<totfact> 0.26517309E+03</totfact>
</mgrwt>
</event>
<event>
 6    1  0.8353100E-006  0.1267281E+03  0.7546771E-02  0.1246727E+00
         -2   -1    0    0    0  501 -0.00000000000E+00  0.00000000000E+00  0.15803137746E+02  0.15803137746E+02  0.00000000000E+00 0.  1.
          2   -1    0    0  501    0  0.00000000000E+00 -0.00000000000E+00 -0.79344054494E+03  0.79344054494E+03  0.00000000000E+00 0. -1.
          5    1    1    2  502    0  0.38468037200E+02  0.57236995820E+02 -0.23010189392E+03  0.24025993249E+03  0.47000000000E+01 0. -1.
         -5    1    1    2    0  502 -0.18290907841E+02 -0.52006973641E+02 -0.27367606124E+03  0.27921310699E+03  0.47000000000E+01 0. -1.
        -11    1    1    2    0    0  0.28403699463E+02 -0.22964593923E+02 -0.16836537108E+03  0.17228186468E+03  0.00000000000E+00 0. -1.
         11    1    1    2    0    0 -0.48580828822E+02  0.17734571744E+02 -0.10549408095E+03  0.11748877853E+03  0.00000000000E+00 0.  1.
<mgrwt>
<rscale>  0 0.11782618E+03</rscale>
<asrwt>0</asrwt>
<pdfrwt beam="2">  1        2 0.12206774E+00 0.12672810E+03</pdfrwt>
<pdfrwt beam="1">  1       -2 0.24312526E-02 0.12672810E+03</pdfrwt>
<totfact> 0.19596305E+04</totfact>
</mgrwt>
</event>
<event>
 6    1  0.8353100E-006  0.1365237E+03  0.7546771E-02  0.1229291E+00
          1   -1    0    0  501    0  0.00000000000E+00  0.00000000000E+00  0.39196004559E+02  0.39196004559E+02  0.00000000000E+00 0. -1.
         -1   -1    0    0    0  501 -0.00000000000E+00 -0.00000000000E+00 -0.41092594605E+03  0.41092594605E+03  0.00000000000E+00 0.  1.
          5    1    1    2  502    0 -0.12781939143E+02  0.15982890053E+02  0.20609814946E+02  0.29422529035E+02  0.47000000000E+01 0. -1.
         -5    1    1    2    0  502 -0.90262483888E+01  0.34401121898E+02 -0.16675494999E+03  0.17057026028E+03  0.47000000000E+01 0. -1.
        -11    1    1    2    0    0  0.45889858211E+02  0.64375980311E+01 -0.97623985308E+02  0.10806370465E+03  0.00000000000E+00 0.  1.
         11    1    1    2    0    0 -0.24081670679E+02 -0.56821609983E+02 -0.12796082114E+03  0.14206545664E+03  0.00000000000E+00 0. -1.
<mgrwt>
<rscale>  0 0.12877103E+03</rscale>
<asrwt>0</asrwt>
<pdfrwt beam="1">  1        1 0.60301547E-02 0.13652368E+03</pdfrwt>
<pdfrwt beam="2">  1       -1 0.63219375E-01 0.13652368E+03</pdfrwt>
<totfact> 0.32427029E+03</totfact>
</mgrwt>
</event>
<event>
 6    1  0.8353100E-006  0.1653170E+03  0.7546771E-02  0.1189334E+00
          2   -1    0    0  501    0  0.00000000000E+00  0.00000000000E+00  0.56196556144E+02  0.56196556144E+02  0.00000000000E+00 0. -1.
         -2   -1    0    0    0  501 -0.00000000000E+00 -0.00000000000E+00 -0.42815949554E+03  0.42815949554E+03  0.00000000000E+00 0.  1.
          5    1    1    2  502    0 -0.84728634526E+02  0.56931300412E+02 -0.84314466097E+02  0.13248069168E+03  0.47000000000E+01 0.  1.
         -5    1    1    2    0  502  0.41643653370E+02  0.42367507684E+02 -0.88307937951E+02  0.10653441453E+03  0.47000000000E+01 0.  1.
        -11    1    1    2    0    0  0.43905884468E+02 -0.76097854052E+02 -0.20359209757E+03  0.22173937918E+03  0.00000000000E+00 0.  1.
         11    1    1    2    0    0 -0.82090331152E+00 -0.23200954043E+02  0.42515622207E+01  0.23601566306E+02  0.00000000000E+00 0. -1.
<mgrwt>
<rscale>  0 0.15943717E+03</rscale>
<asrwt>0</asrwt>
<pdfrwt beam="1">  1        2 0.86456241E-02 0.16531705E+03</pdfrwt>
<pdfrwt beam="2">  1       -2 0.65870691E-01 0.16531705E+03</pdfrwt>
<totfact> 0.16353166E+03</totfact>
</mgrwt>
</event>
<event>
 6    1  0.8353100E-006  0.1577018E+03  0.7546771E-02  0.1199316E+00
         -2   -1    0    0    0  501 -0.00000000000E+00  0.00000000000E+00  0.65580837694E+02  0.65580837694E+02  0.00000000000E+00 0.  1.
          2   -1    0    0  501    0  0.00000000000E+00 -0.00000000000E+00 -0.32390834209E+03  0.32390834209E+03  0.00000000000E+00 0. -1.
          5    1    1    2  502    0 -0.53983561838E+02  0.59558319714E+02 -0.21867110140E+02  0.83436675999E+02  0.47000000000E+01 0.  1.
         -5    1    1    2    0  502  0.12110105776E+02  0.26998268217E+02 -0.13765648943E+03  0.14087923989E+03  0.47000000000E+01 0.  1.
        -11    1    1    2    0    0 -0.86276692436E+00  0.18671686294E+02 -0.16207937344E+02  0.24740118609E+02  0.00000000000E+00 0.  1.
         11    1    1    2    0    0  0.42736222986E+02 -0.10522827423E+03 -0.82595967481E+02  0.14043314529E+03  0.00000000000E+00 0. -1.
<mgrwt>
<rscale>  0 0.15094516E+03</rscale>
<asrwt>0</asrwt>
<pdfrwt beam="2">  1        2 0.49832052E-01 0.15770178E+03</pdfrwt>
<pdfrwt beam="1">  1       -2 0.10089360E-01 0.15770178E+03</pdfrwt>
<totfact> 0.63427921E+03</totfact>
</mgrwt>
</event>
<event>
 6    1  0.8353100E-006  0.1267282E+03  0.7546771E-02  0.1247058E+00
         -2   -1    0    0    0  501 -0.00000000000E+00  0.00000000000E+00  0.12161060210E+02  0.12161060210E+02  0.00000000000E+00 0.  1.
          2   -1    0    0  501    0  0.00000000000E+00 -0.00000000000E+00 -0.13081649031E+04  0.13081649031E+04  0.00000000000E+00 0. -1.
          5    1    1    2  502    0  0.10211011655E+02  0.27522688721E+02 -0.98505234676E+03  0.98550087723E+03  0.47000000000E+01 0. -1.
         -5    1    1    2    0  502 -0.25124400733E+02 -0.12958396035E+02 -0.52938171380E+02  0.60197138878E+02  0.47000000000E+01 0. -1.
        -11    1    1    2    0    0 -0.15994183391E+02 -0.45592865513E+02 -0.16292970052E+03  0.16994296278E+03  0.00000000000E+00 0. -1.
         11    1    1    2    0    0  0.30907572469E+02  0.31028572827E+02 -0.95083624250E+02  0.10468498444E+03  0.00000000000E+00 0.  1.
<mgrwt>
<rscale>  0 0.11763065E+03</rscale>
<asrwt>0</asrwt>
<pdfrwt beam="2">  1        2 0.20125610E+00 0.12672815E+03</pdfrwt>
<pdfrwt beam="1">  1       -2 0.18709327E-02 0.12672815E+03</pdfrwt>
<totfact> 0.14246655E+04</totfact>
</mgrwt>
</event>
<event>
 6    1  0.8353100E-006  0.1262957E+03  0.7546771E-02  0.1248887E+00
          1   -1    0    0  501    0  0.00000000000E+00  0.00000000000E+00  0.39972473043E+02  0.39972473043E+02  0.00000000000E+00 0. -1.
         -1   -1    0    0    0  501 -0.00000000000E+00 -0.00000000000E+00 -0.29716823209E+03  0.29716823209E+03  0.00000000000E+00 0.  1.
          5    1    1    2  502    0 -0.44346708286E+02 -0.36919122041E+02 -0.41946115520E+02  0.71492787855E+02  0.47000000000E+01 0. -1.
         -5    1    1    2    0  502  0.57718549422E+02  0.24814074071E+02 -0.10316692601E+03  0.12088289309E+03  0.47000000000E+01 0. -1.
        -11    1    1    2    0    0 -0.14267081963E+02  0.48877709584E+02 -0.43621796768E+02  0.67048051987E+02  0.00000000000E+00 0. -1.
         11    1    1    2    0    0  0.89524082736E+00 -0.36772661614E+02 -0.68460920756E+02  0.77716972207E+02  0.00000000000E+00 0.  1.
<mgrwt>
<rscale>  0 0.11655745E+03</rscale>
<asrwt>0</asrwt>
<pdfrwt beam="1">  1        1 0.61496112E-02 0.12629572E+03</pdfrwt>
<pdfrwt beam="2">  1       -1 0.45718190E-01 0.12629572E+03</pdfrwt>
<totfact> 0.57282200E+03</totfact>
</mgrwt>
</event>
<event>
 6    1  0.8353100E-006  0.3529906E+03  0.7546771E-02  0.1061394E+00
         -1   -1    0    0    0  501 -0.00000000000E+00  0.00000000000E+00  0.47352432500E+03  0.47352432500E+03  0.00000000000E+00 0.  1.
          1   -1    0    0  501    0  0.00000000000E+00 -0.00000000000E+00 -0.65784581148E+02  0.65784581148E+02  0.00000000000E+00 0. -1.
          5    1    1    2  502    0  0.25306101757E+02  0.15137255134E+02  0.26498696636E+02  0.39922502459E+02  0.47000000000E+01 0. -1.
         -5    1    1    2    0  502 -0.13802368701E+03  0.18488808592E+01  0.69971134822E+02  0.15482895803E+03  0.47000000000E+01 0. -1.
        -11    1    1    2    0    0  0.35133473567E+02 -0.43163949041E+02  0.19186831258E+03  0.19977721800E+03  0.00000000000E+00 0.  1.
         11    1    1    2    0    0  0.77584111685E+02  0.26177813048E+02  0.11940159981E+03  0.14478022766E+03  0.00000000000E+00 0. -1.
<mgrwt>
<rscale>  0 0.35299065E+03</rscale>
<asrwt>0</asrwt>
<pdfrwt beam="2">  1        1 0.10120705E-01 0.35299065E+03</pdfrwt>
<pdfrwt beam="1">  1       -1 0.72849894E-01 0.35299065E+03</pdfrwt>
<totfact> 0.12527149E+03</totfact>
</mgrwt>
</event>
<event>
 6    1  0.8353100E-006  0.1332769E+03  0.7546771E-02  0.1237492E+00
         -2   -1    0    0    0  501 -0.00000000000E+00  0.00000000000E+00  0.37822994656E+03  0.37822994656E+03  0.00000000000E+00 0.  1.
          2   -1    0    0  501    0  0.00000000000E+00 -0.00000000000E+00 -0.41407344372E+02  0.41407344372E+02  0.00000000000E+00 0. -1.
          5    1    1    2  502    0  0.70744492092E+02 -0.86328065359E+01  0.27504815182E+02  0.76537006527E+02  0.47000000000E+01 0. -1.
         -5    1    1    2    0  502 -0.44746105705E+02  0.19744983735E+02  0.83631564925E+02  0.96996943304E+02  0.47000000000E+01 0.  1.
        -11    1    1    2    0    0 -0.21842507025E+02  0.35441373289E+02  0.16101920591E+03  0.16631407255E+03  0.00000000000E+00 0.  1.
         11    1    1    2    0    0 -0.41558793616E+01 -0.46553550489E+02  0.64667016167E+02  0.79789268554E+02  0.00000000000E+00 0. -1.
<mgrwt>
<rscale>  0 0.12346221E+03</rscale>
<asrwt>0</asrwt>
<pdfrwt beam="2">  1        2 0.63703609E-02 0.13327692E+03</pdfrwt>
<pdfrwt beam="1">  1       -2 0.58189220E-01 0.13327692E+03</pdfrwt>
<totfact> 0.30758724E+03</totfact>
</mgrwt>
</event>
<event>
 6    1  0.8353100E-006  0.1483276E+03  0.7546771E-02  0.1212999E+00
          2   -1    0    0  501    0  0.00000000000E+00  0.00000000000E+00  0.35702335829E+02  0.35702335829E+02  0.00000000000E+00 0. -1.
         -2   -1    0    0    0  501 -0.00000000000E+00 -0.00000000000E+00 -0.62605290494E+03  0.62605290494E+03  0.00000000000E+00 0.  1.
          5    1    1    2  502    0  0.37943478011E+02 -0.77707699350E+02 -0.12014113155E+03  0.14810190935E+03  0.47000000000E+01 0.  1.
         -5    1    1    2    0  502 -0.59555399388E+02  0.89131889528E+00 -0.52792598534E+02  0.79729470747E+02  0.47000000000E+01 0.  1.
        -11    1    1    2    0    0  0.31886499663E+02  0.63611286265E+02 -0.40909499503E+03  0.41523711245E+03  0.00000000000E+00 0.  1.
         11    1    1    2    0    0 -0.10274578286E+02  0.13205094190E+02 -0.83218439944E+01  0.18686748219E+02  0.00000000000E+00 0. -1.
<mgrwt>
<rscale>  0 0.14024516E+03</rscale>
<asrwt>0</asrwt>
<pdfrwt beam="1">  1        2 0.54926672E-02 0.14832755E+03</pdfrwt>
<pdfrwt beam="2">  1       -2 0.96315829E-01 0.14832755E+03</pdfrwt>
<totfact> 0.12629376E+03</totfact>
</mgrwt>
</event>
<event>
 6    1  0.8353100E-006  0.2656230E+03  0.7546771E-02  0.1103811E+00
         -4   -1    0    0    0  501 -0.00000000000E+00  0.00000000000E+00  0.32731552870E+03  0.32731552870E+03  0.00000000000E+00 0. -1.
          4   -1    0    0  501    0  0.00000000000E+00 -0.00000000000E+00 -0.53889571577E+02  0.53889571577E+02  0.00000000000E+00 0.  1.
          5    1    1    2  502    0  0.15702864643E+02  0.66277377877E+01  0.87554034707E+02  0.89321362840E+02  0.47000000000E+01 0. -1.
         -5    1    1    2    0  502 -0.11634456161E+02 -0.58980232630E+02 -0.18176239557E+02  0.62980108730E+02  0.47000000000E+01 0. -1.
        -11    1    1    2    0    0  0.30215221987E+02  0.42762813294E+02  0.56124828600E+02  0.76756851329E+02  0.00000000000E+00 0.  1.
         11    1    1    2    0    0 -0.34283630469E+02  0.95896815481E+01  0.14792333338E+03  0.15214677738E+03  0.00000000000E+00 0. -1.
<mgrwt>
<rscale>  0 0.26562299E+03</rscale>
<asrwt>0</asrwt>
<pdfrwt beam="2">  1        4 0.82907035E-02 0.26562299E+03</pdfrwt>
<pdfrwt beam="1">  1       -4 0.50356234E-01 0.26562299E+03</pdfrwt>
<totfact> 0.74202597E+02</totfact>
</mgrwt>
</event>
<event>
 6    1  0.8353100E-006  0.1333793E+03  0.7546771E-02  0.1235394E+00
          2   -1    0    0  501    0  0.00000000000E+00  0.00000000000E+00  0.94646069973E+02  0.94646069973E+02  0.00000000000E+00 0.  1.
         -2   -1    0    0    0  501 -0.00000000000E+00 -0.00000000000E+00 -0.15406420832E+03  0.15406420832E+03  0.00000000000E+00 0. -1.
          5    1    1    2  502    0 -0.68096366218E+02  0.40215173965E+02 -0.37178814782E+02  0.87514167868E+02  0.47000000000E+01 0. -1.
         -5    1    1    2    0  502  0.24924162088E+02 -0.22831243890E+02  0.30866676187E+02  0.46014359196E+02  0.47000000000E+01 0. -1.
        -11    1    1    2    0    0 -0.10967269618E+02  0.22071732918E+01  0.19522460619E+02  0.22500646334E+02  0.00000000000E+00 0.  1.
         11    1    1    2    0    0  0.54139473748E+02 -0.19591103367E+02 -0.72628460373E+02  0.92681104898E+02  0.00000000000E+00 0. -1.
<mgrwt>
<rscale>  0 0.12479237E+03</rscale>
<asrwt>0</asrwt>
<pdfrwt beam="1">  1        2 0.14560934E-01 0.13337925E+03</pdfrwt>
<pdfrwt beam="2">  1       -2 0.23702186E-01 0.13337925E+03</pdfrwt>
<totfact> 0.59819818E+03</totfact>
</mgrwt>
</event>
<event>
 6    1  0.8353100E-006  0.1500911E+03  0.7546771E-02  0.1223629E+00
          3   -1    0    0  501    0  0.00000000000E+00  0.00000000000E+00  0.97859730881E+02  0.97859730881E+02  0.00000000000E+00 0. -1.
         -3   -1    0    0    0  501 -0.00000000000E+00 -0.00000000000E+00 -0.15320081521E+03  0.15320081521E+03  0.00000000000E+00 0.  1.
          5    1    1    2  502    0  0.67763472184E+02  0.22758917311E+02 -0.52660753306E+01  0.71830898845E+02  0.47000000000E+01 0. -1.
         -5    1    1    2    0  502 -0.55379528096E+02 -0.55328440973E+02 -0.89255816968E+01  0.78929617517E+02  0.47000000000E+01 0.  1.
        -11    1    1    2    0    0  0.24190724289E+02  0.41325741811E+02 -0.50176514755E+01  0.48147532690E+02  0.00000000000E+00 0. -1.
         11    1    1    2    0    0 -0.36574668376E+02 -0.87562181479E+01 -0.36131775825E+02  0.52152497038E+02  0.00000000000E+00 0.  1.
<mgrwt>
<rscale>  0 0.13261303E+03</rscale>
<asrwt>0</asrwt>
<pdfrwt beam="1">  1        3 0.15055343E-01 0.15009107E+03</pdfrwt>
<pdfrwt beam="2">  1       -3 0.23569356E-01 0.15009107E+03</pdfrwt>
<totfact> 0.14411026E+03</totfact>
</mgrwt>
</event>
<event>
 6    1  0.8353100E-006  0.1605989E+03  0.7546771E-02  0.1200192E+00
         -2   -1    0    0    0  501 -0.00000000000E+00  0.00000000000E+00  0.54158777864E+02  0.54158777864E+02  0.00000000000E+00 0.  1.
          2   -1    0    0  501    0  0.00000000000E+00 -0.00000000000E+00 -0.37441503577E+03  0.37441503577E+03  0.00000000000E+00 0. -1.
          5    1    1    2  502    0  0.43740838367E+02  0.11365924158E+02 -0.18688555729E+03  0.19232978629E+03  0.47000000000E+01 0. -1.
         -5    1    1    2    0  502  0.25165438050E+02 -0.57971568446E+02 -0.14070447950E+02  0.64915864978E+02  0.47000000000E+01 0.  1.
        -11    1    1    2    0    0 -0.12463135018E+02 -0.24211661676E+02 -0.91421733938E+01  0.28724791208E+02  0.00000000000E+00 0.  1.
         11    1    1    2    0    0 -0.56443141399E+02  0.70817305965E+02 -0.11015807928E+03  0.14260337116E+03  0.00000000000E+00 0. -1.
<mgrwt>
<rscale>  0 0.15022899E+03</rscale>
<asrwt>0</asrwt>
<pdfrwt beam="2">  1        2 0.57602314E-01 0.16059891E+03</pdfrwt>
<pdfrwt beam="1">  1       -2 0.83321195E-02 0.16059891E+03</pdfrwt>
<totfact> 0.73403992E+03</totfact>
</mgrwt>
</event>
<event>
 6    1  0.8353100E-006  0.1478116E+03  0.7546771E-02  0.1213085E+00
          2   -1    0    0  501    0  0.00000000000E+00  0.00000000000E+00  0.57510677344E+03  0.57510677344E+03  0.00000000000E+00 0.  1.
         -2   -1    0    0    0  501 -0.00000000000E+00 -0.00000000000E+00 -0.33958148279E+02  0.33958148279E+02  0.00000000000E+00 0. -1.
          5    1    1    2  502    0 -0.22115792358E+02  0.49687895723E+01  0.43309830809E+00  0.23153287360E+02  0.47000000000E+01 0. -1.
         -5    1    1    2    0  502 -0.37092045444E+02  0.47173835435E+02  0.38450952412E+03  0.38919256766E+03  0.47000000000E+01 0. -1.
        -11    1    1    2    0    0  0.27028127273E+02  0.12385674765E+02  0.63270001474E+01  0.30396636889E+02  0.00000000000E+00 0. -1.
         11    1    1    2    0    0  0.32179710528E+02 -0.64528299771E+02  0.14987900259E+03  0.16632242981E+03  0.00000000000E+00 0.  1.
<mgrwt>
<rscale>  0 0.14018165E+03</rscale>
<asrwt>0</asrwt>
<pdfrwt beam="1">  1        2 0.88477958E-01 0.14781164E+03</pdfrwt>
<pdfrwt beam="2">  1       -2 0.52243309E-02 0.14781164E+03</pdfrwt>
<totfact> 0.93268490E+03</totfact>
</mgrwt>
</event>
<event>
 6    1  0.8353100E-006  0.3843813E+03  0.7546771E-02  0.1049326E+00
         -2   -1    0    0    0  501 -0.00000000000E+00  0.00000000000E+00  0.20264351927E+03  0.20264351927E+03  0.00000000000E+00 0.  1.
          2   -1    0    0  501    0  0.00000000000E+00 -0.00000000000E+00 -0.18227693386E+03  0.18227693386E+03  0.00000000000E+00 0. -1.
          5    1    1    2  502    0  0.29583189053E+02 -0.23260490687E+02  0.10398864485E+02  0.39324825291E+02  0.47000000000E+01 0.  1.
         -5    1    1    2    0  502 -0.85637055276E+02 -0.84974111102E+02 -0.10045975242E+03  0.15706226997E+03  0.47000000000E+01 0.  1.
        -11    1    1    2    0    0  0.61511883879E+02  0.26961605575E+02  0.28358797545E+02  0.72903096174E+02  0.00000000000E+00 0.  1.
         11    1    1    2    0    0 -0.54580176557E+01  0.81272996213E+02  0.82068675796E+02  0.11563026168E+03  0.00000000000E+00 0. -1.
<mgrwt>
<rscale>  0 0.38438127E+03</rscale>
<asrwt>0</asrwt>
<pdfrwt beam="2">  1        2 0.28042605E-01 0.38438127E+03</pdfrwt>
<pdfrwt beam="1">  1       -2 0.31175926E-01 0.38438127E+03</pdfrwt>
<totfact> 0.18130691E+03</totfact>
</mgrwt>
</event>
<event>
 6    1  0.8353100E-006  0.1614219E+03  0.7546771E-02  0.1194355E+00
          1   -1    0    0  501    0  0.00000000000E+00  0.00000000000E+00  0.19426611012E+03  0.19426611012E+03  0.00000000000E+00 0. -1.
         -1   -1    0    0    0  501 -0.00000000000E+00 -0.00000000000E+00 -0.19828103082E+03  0.19828103082E+03  0.00000000000E+00 0.  1.
          5    1    1    2  502    0  0.10442270798E+03 -0.30160868733E+02  0.10153196892E+03  0.14881065371E+03  0.47000000000E+01 0. -1.
         -5    1    1    2    0  502 -0.29347963582E+02 -0.40328896010E+02  0.23315793058E+02  0.55257931790E+02  0.47000000000E+01 0.  1.
        -11    1    1    2    0    0 -0.37465902011E+02  0.53129299214E+02 -0.13179047403E+03  0.14695286759E+03  0.00000000000E+00 0.  1.
         11    1    1    2    0    0 -0.37608842390E+02  0.17360465530E+02  0.29277913478E+01  0.41525687851E+02  0.00000000000E+00 0. -1.
<mgrwt>
<rscale>  0 0.15508966E+03</rscale>
<asrwt>0</asrwt>
<pdfrwt beam="1">  1        1 0.29887094E-01 0.16142188E+03</pdfrwt>
<pdfrwt beam="2">  1       -1 0.30504774E-01 0.16142188E+03</pdfrwt>
<totfact> 0.14917814E+03</totfact>
</mgrwt>
</event>
<event>
 6    1  0.8353100E-006  0.1960556E+03  0.7546771E-02  0.1179610E+00
         -2   -1    0    0    0  501 -0.00000000000E+00  0.00000000000E+00  0.15853636873E+02  0.15853636873E+02  0.00000000000E+00 0.  1.
          2   -1    0    0  501    0  0.00000000000E+00 -0.00000000000E+00 -0.16986202386E+04  0.16986202386E+04  0.00000000000E+00 0. -1.
          5    1    1    2  502    0  0.42859870857E+02  0.60748493110E+02 -0.89817002035E+03  0.90125402823E+03  0.47000000000E+01 0. -1.
         -5    1    1    2    0  502 -0.93331370517E+02 -0.40941802965E+02 -0.47434667453E+03  0.48519463475E+03  0.47000000000E+01 0.  1.
        -11    1    1    2    0    0 -0.96580282265E+01  0.24693222460E+02 -0.13332724258E+03  0.13593817109E+03  0.00000000000E+00 0.  1.
         11    1    1    2    0    0  0.60129527886E+02 -0.44499912605E+02 -0.17692266431E+03  0.19208704145E+03  0.00000000000E+00 0. -1.
<mgrwt>
<rscale>  0 0.16832074E+03</rscale>
<asrwt>0</asrwt>
<pdfrwt beam="2">  1        2 0.26132630E+00 0.19605565E+03</pdfrwt>
<pdfrwt beam="1">  1       -2 0.24390201E-02 0.19605565E+03</pdfrwt>
<totfact> 0.61315822E+03</totfact>
</mgrwt>
</event>
<event>
 6    1  0.8353100E-006  0.1212708E+03  0.7546771E-02  0.1251504E+00
          1   -1    0    0  501    0  0.00000000000E+00  0.00000000000E+00  0.28161604817E+04  0.28161604817E+04  0.00000000000E+00 0. -1.
         -1   -1    0    0    0  501 -0.00000000000E+00 -0.00000000000E+00 -0.88349171184E+01  0.88349171184E+01  0.00000000000E+00 0.  1.
          5    1    1    2  502    0  0.41862072338E+02  0.29591120156E+02  0.13475171442E+04  0.13485001340E+04  0.47000000000E+01 0. -1.
         -5    1    1    2    0  502 -0.29284487446E+02 -0.60150602883E+02  0.11393788375E+04  0.11413509108E+04  0.47000000000E+01 0.  1.
        -11    1    1    2    0    0  0.39656140715E+02  0.84661830227E+01  0.11112859091E+03  0.11829560207E+03  0.00000000000E+00 0. -1.
         11    1    1    2    0    0 -0.52233725607E+02  0.22093299704E+02  0.20930099202E+03  0.21684875200E+03  0.00000000000E+00 0.  1.
<mgrwt>
<rscale>  0 0.11504401E+03</rscale>
<asrwt>0</asrwt>
<pdfrwt beam="1">  1        1 0.43325474E+00 0.12127078E+03</pdfrwt>
<pdfrwt beam="2">  1       -1 0.13592203E-02 0.12127078E+03</pdfrwt>
<totfact> 0.11919710E+03</totfact>
</mgrwt>
</event>
<event>
 6    1  0.8353100E-006  0.1338126E+03  0.7546771E-02  0.1234633E+00
          2   -1    0    0  501    0  0.00000000000E+00  0.00000000000E+00  0.16729362713E+03  0.16729362713E+03  0.00000000000E+00 0. -1.
         -2   -1    0    0    0  501 -0.00000000000E+00 -0.00000000000E+00 -0.83700531822E+02  0.83700531822E+02  0.00000000000E+00 0.  1.
          5    1    1    2  502    0 -0.39824419203E+02  0.14691719010E+02  0.82071071565E+02  0.92518007761E+02  0.47000000000E+01 0.  1.
         -5    1    1    2    0  502  0.15824324703E+02  0.26603367299E+02 -0.37196047590E+02  0.48618765516E+02  0.47000000000E+01 0.  1.
        -11    1    1    2    0    0  0.50374172259E+02 -0.41301343107E+02  0.26757669443E+01  0.65195996058E+02  0.00000000000E+00 0.  1.
         11    1    1    2    0    0 -0.26374077760E+02  0.62567981030E-02  0.36042304392E+02  0.44661389619E+02  0.00000000000E+00 0. -1.
<mgrwt>
<rscale>  0 0.12527948E+03</rscale>
<asrwt>0</asrwt>
<pdfrwt beam="1">  1        2 0.25737481E-01 0.13381263E+03</pdfrwt>
<pdfrwt beam="2">  1       -2 0.12877005E-01 0.13381263E+03</pdfrwt>
<totfact> 0.86543125E+03</totfact>
</mgrwt>
</event>
<event>
 6    1  0.8353100E-006  0.1737786E+03  0.7546771E-02  0.1180240E+00
          4   -1    0    0  501    0  0.00000000000E+00  0.00000000000E+00  0.11074930368E+04  0.11074930368E+04  0.00000000000E+00 0. -1.
         -4   -1    0    0    0  501 -0.00000000000E+00 -0.00000000000E+00 -0.24850140464E+02  0.24850140464E+02  0.00000000000E+00 0.  1.
          5    1    1    2  502    0 -0.68013627308E+01 -0.10024168060E+03  0.40779281994E+03  0.42001396055E+03  0.47000000000E+01 0. -1.
         -5    1    1    2    0  502 -0.72448318295E+02  0.91583258193E+01  0.28728534828E+03  0.29645842051E+03  0.47000000000E+01 0. -1.
        -11    1    1    2    0    0  0.46996445427E+02  0.53436849691E+02  0.92685572069E+02  0.11685366086E+03  0.00000000000E+00 0.  1.
         11    1    1    2    0    0  0.32253235599E+02  0.37646505091E+02  0.29487915599E+03  0.29901713528E+03  0.00000000000E+00 0. -1.
<mgrwt>
<rscale>  0 0.16772628E+03</rscale>
<asrwt>0</asrwt>
<pdfrwt beam="1">  1        4 0.17038351E+00 0.17377863E+03</pdfrwt>
<pdfrwt beam="2">  1       -4 0.38230994E-02 0.17377863E+03</pdfrwt>
<totfact> 0.14576158E+02</totfact>
</mgrwt>
</event>
<event>
 6    1  0.8353100E-006  0.1262533E+03  0.7546771E-02  0.1247717E+00
          1   -1    0    0  501    0  0.00000000000E+00  0.00000000000E+00  0.53610346554E+03  0.53610346554E+03  0.00000000000E+00 0.  1.
         -1   -1    0    0    0  501 -0.00000000000E+00 -0.00000000000E+00 -0.25741648163E+02  0.25741648163E+02  0.00000000000E+00 0. -1.
          5    1    1    2  502    0 -0.27497711081E+02  0.27649725327E+01  0.99065994410E+01  0.29732135817E+02  0.47000000000E+01 0. -1.
         -5    1    1    2    0  502  0.11256137245E+02 -0.99752321977E+01  0.37542734075E+03  0.37575787958E+03  0.47000000000E+01 0. -1.
        -11    1    1    2    0    0  0.19497589366E+02 -0.20872808617E+02  0.12485802307E+03  0.12808339493E+03  0.00000000000E+00 0.  1.
         11    1    1    2    0    0 -0.32560155305E+01  0.28083068283E+02  0.16985411042E+00  0.28271703375E+02  0.00000000000E+00 0. -1.
<mgrwt>
<rscale>  0 0.11724238E+03</rscale>
<asrwt>0</asrwt>
<pdfrwt beam="1">  1        1 0.82477448E-01 0.12625334E+03</pdfrwt>
<pdfrwt beam="2">  1       -1 0.39602540E-02 0.12625334E+03</pdfrwt>
<totfact> 0.97343384E+03</totfact>
</mgrwt>
</event>
<event>
 6    1  0.8353100E-006  0.2809946E+03  0.7546771E-02  0.1119054E+00
         -2   -1    0    0    0  501 -0.00000000000E+00  0.00000000000E+00  0.18509287021E+02  0.18509287021E+02  0.00000000000E+00 0.  1.
          2   -1    0    0  501    0  0.00000000000E+00 -0.00000000000E+00 -0.33751832957E+04  0.33751832957E+04  0.00000000000E+00 0. -1.
          5    1    1    2  502    0 -0.42287226670E+02  0.39750461874E+02 -0.18970284638E+04  0.18979218612E+04  0.47000000000E+01 0. -1.
         -5    1    1    2    0  502  0.13881910823E+02 -0.15786195131E+03 -0.97328219815E+03  0.98611025263E+03  0.47000000000E+01 0.  1.
        -11    1    1    2    0    0  0.60622491431E+02  0.68655786832E+02 -0.25731896666E+03  0.27313321683E+03  0.00000000000E+00 0.  1.
         11    1    1    2    0    0 -0.32217175584E+02  0.49455702603E+02 -0.22904438005E+03  0.23652725204E+03  0.00000000000E+00 0. -1.
<mgrwt>
<rscale>  0 0.24111261E+03</rscale>
<asrwt>0</asrwt>
<pdfrwt beam="2">  1        2 0.51925905E+00 0.28099455E+03</pdfrwt>
<pdfrwt beam="1">  1       -2 0.28475822E-02 0.28099455E+03</pdfrwt>
<totfact> 0.55852076E+02</totfact>
</mgrwt>
</event>
<event>
 6    1  0.8353100E-006  0.1287548E+03  0.7546771E-02  0.1243090E+00
          2   -1    0    0  501    0  0.00000000000E+00  0.00000000000E+00  0.34547087512E+03  0.34547087512E+03  0.00000000000E+00 0. -1.
         -2   -1    0    0    0  501 -0.00000000000E+00 -0.00000000000E+00 -0.37457295509E+02  0.37457295509E+02  0.00000000000E+00 0.  1.
          5    1    1    2  502    0  0.19625722963E+02  0.68144610684E+02  0.13657322097E+03  0.15395840884E+03  0.47000000000E+01 0.  1.
         -5    1    1    2    0  502 -0.23764368414E+01 -0.42574993599E+02  0.16251692419E+02  0.45874666631E+02  0.47000000000E+01 0.  1.
        -11    1    1    2    0    0 -0.13619907354E+02  0.18366487998E+02  0.11746503040E+01  0.22895623186E+02  0.00000000000E+00 0.  1.
         11    1    1    2    0    0 -0.36293787679E+01 -0.43936105084E+02  0.15401401592E+03  0.16019947197E+03  0.00000000000E+00 0. -1.
<mgrwt>
<rscale>  0 0.12000402E+03</rscale>
<asrwt>0</asrwt>
<pdfrwt beam="1">  1        2 0.53149363E-01 0.12875482E+03</pdfrwt>
<pdfrwt beam="2">  1       -2 0.57626611E-02 0.12875482E+03</pdfrwt>
<totfact> 0.13848693E+04</totfact>
</mgrwt>
</event>
<event>
 6    1  0.8353100E-006  0.1353544E+03  0.7546771E-02  0.1232347E+00
         -2   -1    0    0    0  501 -0.00000000000E+00  0.00000000000E+00  0.96920531227E+02  0.96920531227E+02  0.00000000000E+00 0.  1.
          2   -1    0    0  501    0  0.00000000000E+00 -0.00000000000E+00 -0.21688280754E+03  0.21688280754E+03  0.00000000000E+00 0. -1.
          5    1    1    2  502    0 -0.24487323574E+02  0.23617473357E+02  0.12427647621E+02  0.36523286941E+02  0.47000000000E+01 0. -1.
         -5    1    1    2    0  502  0.82888510117E+01  0.25731812408E+02 -0.16571248439E+03  0.16796889207E+03  0.47000000000E+01 0. -1.
        -11    1    1    2    0    0  0.10669769875E+02  0.10290892459E+02  0.45791509271E+02  0.48131162235E+02  0.00000000000E+00 0.  1.
         11    1    1    2    0    0  0.55287026874E+01 -0.59640178224E+02 -0.12468948815E+02  0.61179997520E+02  0.00000000000E+00 0. -1.
<mgrwt>
<rscale>  0 0.12675806E+03</rscale>
<asrwt>0</asrwt>
<pdfrwt beam="2">  1        2 0.33366586E-01 0.13535439E+03</pdfrwt>
<pdfrwt beam="1">  1       -2 0.14910851E-01 0.13535439E+03</pdfrwt>
<totfact> 0.51522425E+03</totfact>
</mgrwt>
</event>
<event>
 6    1  0.8353100E-006  0.2906842E+03  0.7546771E-02  0.1091648E+00
          2   -1    0    0  501    0  0.00000000000E+00  0.00000000000E+00  0.19490689480E+04  0.19490689480E+04  0.00000000000E+00 0. -1.
         -2   -1    0    0    0  501 -0.00000000000E+00 -0.00000000000E+00 -0.48877146001E+02  0.48877146001E+02  0.00000000000E+00 0.  1.
          5    1    1    2  502    0  0.19104072634E+03  0.13641458762E+03  0.93050208454E+03  0.95966750397E+03  0.47000000000E+01 0. -1.
         -5    1    1    2    0  502  0.61308227272E+01  0.36764831361E+02  0.42474679042E+03  0.42640493171E+03  0.47000000000E+01 0. -1.
        -11    1    1    2    0    0 -0.22811121846E+02  0.92798097646E+01  0.33787188241E+02  0.41809523298E+02  0.00000000000E+00 0. -1.
         11    1    1    2    0    0 -0.17436042722E+03 -0.18245922875E+03  0.51115573877E+03  0.57006413500E+03  0.00000000000E+00 0.  1.
<mgrwt>
<rscale>  0 0.28752611E+03</rscale>
<asrwt>0</asrwt>
<pdfrwt beam="1">  1        2 0.29985670E+00 0.29068417E+03</pdfrwt>
<pdfrwt beam="2">  1       -2 0.75195624E-02 0.29068417E+03</pdfrwt>
<totfact> 0.82197510E+02</totfact>
</mgrwt>
</event>
<event>
 6    1  0.8353100E-006  0.1430072E+03  0.7546771E-02  0.1220046E+00
          4   -1    0    0  501    0  0.00000000000E+00  0.00000000000E+00  0.35914989927E+03  0.35914989927E+03  0.00000000000E+00 0. -1.
         -4   -1    0    0    0  501 -0.00000000000E+00 -0.00000000000E+00 -0.92393118551E+02  0.92393118551E+02  0.00000000000E+00 0.  1.
          5    1    1    2  502    0  0.33459019663E+02 -0.31375830813E+02  0.28636109572E+03  0.29004950595E+03  0.47000000000E+01 0. -1.
         -5    1    1    2    0  502 -0.16996052948E+02 -0.36208872587E+02  0.14035138268E+02  0.42650010270E+02  0.47000000000E+01 0. -1.
        -11    1    1    2    0    0  0.36962850120E+02  0.30970831089E+02 -0.66585875219E+01  0.48680401140E+02  0.00000000000E+00 0. -1.
         11    1    1    2    0    0 -0.53425816835E+02  0.36613872311E+02 -0.26980865750E+02  0.70163100464E+02  0.00000000000E+00 0.  1.
<mgrwt>
<rscale>  0 0.13512282E+03</rscale>
<asrwt>0</asrwt>
<pdfrwt beam="1">  1        4 0.55253830E-01 0.14300724E+03</pdfrwt>
<pdfrwt beam="2">  1       -4 0.14214326E-01 0.14300724E+03</pdfrwt>
<totfact> 0.22004243E+02</totfact>
</mgrwt>
</event>
<event>
 6    1  0.8353100E-006  0.2413557E+03  0.7546771E-02  0.1118893E+00
          1   -1    0    0  501    0  0.00000000000E+00  0.00000000000E+00  0.11813119378E+04  0.11813119378E+04  0.00000000000E+00 0. -1.
         -1   -1    0    0    0  501 -0.00000000000E+00 -0.00000000000E+00 -0.12327937516E+02  0.12327937516E+02  0.00000000000E+00 0.  1.
          5    1    1    2  502    0  0.19379346001E+02  0.33613961246E+01  0.53121142210E+03  0.53159620296E+03  0.47000000000E+01 0. -1.
         -5    1    1    2    0  502 -0.60573390893E+02  0.22676967687E+02  0.16235848301E+03  0.17483062533E+03  0.47000000000E+01 0. -1.
        -11    1    1    2    0    0  0.65023367089E+02  0.74672453634E+01  0.28909173393E+03  0.29640821285E+03  0.00000000000E+00 0. -1.
         11    1    1    2    0    0 -0.23829322197E+02 -0.33505609175E+02  0.18632236123E+03  0.19080483416E+03  0.00000000000E+00 0.  1.
<mgrwt>
<rscale>  0 0.24135567E+03</rscale>
<asrwt>0</asrwt>
<pdfrwt beam="1">  1        1 0.18174021E+00 0.24135567E+03</pdfrwt>
<pdfrwt beam="2">  1       -1 0.18966067E-02 0.24135567E+03</pdfrwt>
<totfact> 0.87043934E+03</totfact>
</mgrwt>
</event>
<event>
 6    1  0.8353100E-006  0.1311821E+03  0.7546771E-02  0.1238860E+00
         -2   -1    0    0    0  501 -0.00000000000E+00  0.00000000000E+00  0.26422393023E+02  0.26422393023E+02  0.00000000000E+00 0. -1.
          2   -1    0    0  501    0  0.00000000000E+00 -0.00000000000E+00 -0.56447837083E+03  0.56447837083E+03  0.00000000000E+00 0.  1.
          5    1    1    2  502    0  0.59253065668E+02 -0.16554224807E+02 -0.19535803400E+03  0.20487025065E+03  0.47000000000E+01 0. -1.
         -5    1    1    2    0  502 -0.65329683071E+02 -0.22810026166E+02 -0.20033500276E+03  0.21200110404E+03  0.47000000000E+01 0. -1.
        -11    1    1    2    0    0  0.13501174649E+02  0.21104365230E+02 -0.15059728303E+03  0.15266701544E+03  0.00000000000E+00 0.  1.
         11    1    1    2    0    0 -0.74245572463E+01  0.18259885744E+02  0.82343419846E+01  0.21362393723E+02  0.00000000000E+00 0. -1.
<mgrwt>
<rscale>  0 0.12260528E+03</rscale>
<asrwt>0</asrwt>
<pdfrwt beam="2">  1        2 0.86842826E-01 0.13118211E+03</pdfrwt>
<pdfrwt beam="1">  1       -2 0.40649835E-02 0.13118211E+03</pdfrwt>
<totfact> 0.13752219E+04</totfact>
</mgrwt>
</event>
<event>
 6    1  0.8353100E-006  0.3791864E+03  0.7546771E-02  0.1051235E+00
         -2   -1    0    0    0  501 -0.00000000000E+00  0.00000000000E+00  0.85866564795E+02  0.85866564795E+02  0.00000000000E+00 0.  1.
          2   -1    0    0  501    0  0.00000000000E+00 -0.00000000000E+00 -0.41862145964E+03  0.41862145964E+03  0.00000000000E+00 0. -1.
          5    1    1    2  502    0  0.81762291146E+02  0.72433998223E+02 -0.11938248056E+03  0.16188274465E+03  0.47000000000E+01 0. -1.
         -5    1    1    2    0  502  0.18805800167E+02 -0.11665651911E+02 -0.19445538027E+03  0.19576703111E+03  0.47000000000E+01 0. -1.
        -11    1    1    2    0    0 -0.49581872703E+02  0.79018156495E+01 -0.33106731787E+02  0.60140306624E+02  0.00000000000E+00 0. -1.
         11    1    1    2    0    0 -0.50986218610E+02 -0.68670161962E+02  0.14189697771E+02  0.86697942045E+02  0.00000000000E+00 0.  1.
<mgrwt>
<rscale>  0 0.37918643E+03</rscale>
<asrwt>0</asrwt>
<pdfrwt beam="2">  1        2 0.64403299E-01 0.37918643E+03</pdfrwt>
<pdfrwt beam="1">  1       -2 0.13210241E-01 0.37918643E+03</pdfrwt>
<totfact> 0.32245362E+03</totfact>
</mgrwt>
</event>
<event>
 6    1  0.8353100E-006  0.1215129E+03  0.7546771E-02  0.1306886E+00
         -2   -1    0    0    0  501 -0.00000000000E+00  0.00000000000E+00  0.69474463225E+02  0.69474463225E+02  0.00000000000E+00 0.  1.
          2   -1    0    0  501    0  0.00000000000E+00 -0.00000000000E+00 -0.15208207130E+03  0.15208207130E+03  0.00000000000E+00 0. -1.
          5    1    1    2  502    0  0.49905105470E+02  0.46842964735E+02 -0.10743269806E+03  0.12747022205E+03  0.47000000000E+01 0. -1.
         -5    1    1    2    0  502 -0.28931630860E+02 -0.29411133896E+02 -0.12748197664E+02  0.43435706566E+02  0.47000000000E+01 0.  1.
        -11    1    1    2    0    0 -0.81377657095E+01 -0.18756448354E+02  0.18196902473E+02  0.27370693181E+02  0.00000000000E+00 0.  1.
         11    1    1    2    0    0 -0.12835708901E+02  0.13246175148E+01  0.19376385171E+02  0.23279912733E+02  0.00000000000E+00 0. -1.
<mgrwt>
<rscale>  0 0.88354759E+02</rscale>
<asrwt>0</asrwt>
<pdfrwt beam="2">  1        2 0.23397241E-01 0.12151292E+03</pdfrwt>
<pdfrwt beam="1">  1       -2 0.10688379E-01 0.12151292E+03</pdfrwt>
<totfact> 0.12827690E+04</totfact>
</mgrwt>
</event>
<event>
 6    1  0.8353100E-006  0.2712521E+03  0.7546771E-02  0.1100565E+00
          1   -1    0    0  501    0  0.00000000000E+00  0.00000000000E+00  0.62646914470E+03  0.62646914470E+03  0.00000000000E+00 0. -1.
         -1   -1    0    0    0  501 -0.00000000000E+00 -0.00000000000E+00 -0.29362059711E+02  0.29362059711E+02  0.00000000000E+00 0.  1.
          5    1    1    2  502    0 -0.17192865748E+01 -0.90796747961E+02  0.38945918455E+03  0.39993443439E+03  0.47000000000E+01 0. -1.
         -5    1    1    2    0  502 -0.23036730423E+02  0.18671914399E+02  0.36717319189E+02  0.47429767702E+02  0.47000000000E+01 0.  1.
        -11    1    1    2    0    0  0.57379177042E+02  0.26495849462E+02  0.87740057750E+02  0.10813287072E+03  0.00000000000E+00 0. -1.
         11    1    1    2    0    0 -0.32623160044E+02  0.45628984100E+02  0.83190523502E+02  0.10033413159E+03  0.00000000000E+00 0.  1.
<mgrwt>
<rscale>  0 0.27125209E+03</rscale>
<asrwt>0</asrwt>
<pdfrwt beam="1">  1        1 0.96379858E-01 0.27125209E+03</pdfrwt>
<pdfrwt beam="2">  1       -1 0.45172404E-02 0.27125209E+03</pdfrwt>
<totfact> 0.67571069E+03</totfact>
</mgrwt>
</event>
<event>
 6    1  0.8353100E-006  0.1454174E+03  0.7546771E-02  0.1216265E+00
          2   -1    0    0  501    0  0.00000000000E+00  0.00000000000E+00  0.32454280151E+03  0.32454280151E+03  0.00000000000E+00 0. -1.
         -2   -1    0    0    0  501 -0.00000000000E+00 -0.00000000000E+00 -0.62097272659E+02  0.62097272659E+02  0.00000000000E+00 0.  1.
          5    1    1    2  502    0  0.56648600539E+02  0.22388109232E+02  0.50164431003E+02  0.79049677519E+02  0.47000000000E+01 0.  1.
         -5    1    1    2    0  502 -0.51794659158E+02  0.51744634437E+02  0.16583846525E+03  0.18134133690E+03  0.47000000000E+01 0.  1.
        -11    1    1    2    0    0  0.41468720857E+02 -0.46182020663E+02  0.15701252856E+02  0.64023145684E+02  0.00000000000E+00 0.  1.
         11    1    1    2    0    0 -0.46322662238E+02 -0.27950723006E+02  0.30741379736E+02  0.62225914067E+02  0.00000000000E+00 0. -1.
<mgrwt>
<rscale>  0 0.13784024E+03</rscale>
<asrwt>0</asrwt>
<pdfrwt beam="1">  1        2 0.49929661E-01 0.14541743E+03</pdfrwt>
<pdfrwt beam="2">  1       -2 0.95534267E-02 0.14541743E+03</pdfrwt>
<totfact> 0.68626743E+03</totfact>
</mgrwt>
</event>
<event>
 6    1  0.8353100E-006  0.1468957E+03  0.7546771E-02  0.1214208E+00
          3   -1    0    0  501    0  0.00000000000E+00  0.00000000000E+00  0.94172284437E+02  0.94172284437E+02  0.00000000000E+00 0. -1.
         -3   -1    0    0    0  501 -0.00000000000E+00 -0.00000000000E+00 -0.19465015290E+03  0.19465015290E+03  0.00000000000E+00 0.  1.
          5    1    1    2  502    0  0.30956468099E+02 -0.26034610049E+02 -0.41453867088E+02  0.58108664880E+02  0.47000000000E+01 0. -1.
         -5    1    1    2    0  502 -0.85802935834E+02 -0.28234674292E+02  0.13410376408E+02  0.91439973893E+02  0.47000000000E+01 0. -1.
        -11    1    1    2    0    0  0.58525161152E+02  0.51755543155E+01 -0.97328800053E+01  0.59554259323E+02  0.00000000000E+00 0.  1.
         11    1    1    2    0    0 -0.36786934168E+01  0.49093730026E+02 -0.62701497775E+02  0.79719539238E+02  0.00000000000E+00 0. -1.
<mgrwt>
<rscale>  0 0.13934878E+03</rscale>
<asrwt>0</asrwt>
<pdfrwt beam="1">  1        3 0.14488044E-01 0.14689574E+03</pdfrwt>
<pdfrwt beam="2">  1       -3 0.29946177E-01 0.14689574E+03</pdfrwt>
<totfact> 0.99097066E+02</totfact>
</mgrwt>
</event>
<event>
 6    1  0.8353100E-006  0.1292805E+03  0.7546771E-02  0.1242509E+00
         -1   -1    0    0    0  501 -0.00000000000E+00  0.00000000000E+00  0.16307893410E+03  0.16307893410E+03  0.00000000000E+00 0.  1.
          1   -1    0    0  501    0  0.00000000000E+00 -0.00000000000E+00 -0.82234773890E+02  0.82234773890E+02  0.00000000000E+00 0. -1.
          5    1    1    2  502    0 -0.48451101533E+01  0.43918471970E+02 -0.30669210873E+02  0.53990719278E+02  0.47000000000E+01 0. -1.
         -5    1    1    2    0  502  0.37848096738E+02 -0.43110904985E+02  0.50951512579E+02  0.76871159673E+02  0.47000000000E+01 0. -1.
        -11    1    1    2    0    0 -0.40101752920E+02  0.30659531759E+02  0.56879364100E+01  0.50798721396E+02  0.00000000000E+00 0. -1.
         11    1    1    2    0    0  0.70987663348E+01 -0.31467098744E+02  0.54873922097E+02  0.63653107647E+02  0.00000000000E+00 0.  1.
<mgrwt>
<rscale>  0 0.12035728E+03</rscale>
<asrwt>0</asrwt>
<pdfrwt beam="2">  1        1 0.12651504E-01 0.12928055E+03</pdfrwt>
<pdfrwt beam="1">  1       -1 0.25089067E-01 0.12928055E+03</pdfrwt>
<totfact> 0.61233303E+03</totfact>
</mgrwt>
</event>
<event>
 6    1  0.8353100E-006  0.1341045E+03  0.7546771E-02  0.1232203E+00
          1   -1    0    0  501    0  0.00000000000E+00  0.00000000000E+00  0.67359474692E+03  0.67359474692E+03  0.00000000000E+00 0. -1.
         -1   -1    0    0    0  501 -0.00000000000E+00 -0.00000000000E+00 -0.32982808432E+02  0.32982808432E+02  0.00000000000E+00 0.  1.
          5    1    1    2  502    0  0.19822520215E+02 -0.38809930090E+02  0.20291202656E+03  0.20759220483E+03  0.47000000000E+01 0. -1.
         -5    1    1    2    0  502 -0.69442550697E+02  0.56768046085E+02  0.34700947404E+03  0.35844461772E+03  0.47000000000E+01 0.  1.
        -11    1    1    2    0    0  0.74035017789E+02  0.40406785572E+01  0.57456142836E+02  0.93801488751E+02  0.00000000000E+00 0. -1.
         11    1    1    2    0    0 -0.24414987307E+02 -0.21998794552E+02  0.33234295054E+02  0.46739244053E+02  0.00000000000E+00 0.  1.
<mgrwt>
<rscale>  0 0.12685187E+03</rscale>
<asrwt>0</asrwt>
<pdfrwt beam="1">  1        1 0.10362995E+00 0.13410454E+03</pdfrwt>
<pdfrwt beam="2">  1       -1 0.50742787E-02 0.13410454E+03</pdfrwt>
<totfact> 0.49705159E+03</totfact>
</mgrwt>
</event>
<event>
 6    1  0.8353100E-006  0.1373445E+03  0.7546771E-02  0.1228596E+00
          1   -1    0    0  501    0  0.00000000000E+00  0.00000000000E+00  0.24082071232E+03  0.24082071232E+03  0.00000000000E+00 0. -1.
         -1   -1    0    0    0  501 -0.00000000000E+00 -0.00000000000E+00 -0.64074772611E+02  0.64074772611E+02  0.00000000000E+00 0.  1.
          5    1    1    2  502    0  0.33081234849E+02  0.32543698243E+02  0.71797793159E+02  0.85618184383E+02  0.47000000000E+01 0. -1.
         -5    1    1    2    0  502 -0.87680029388E+01 -0.83999448106E+02  0.52043029548E+02  0.99314410245E+02  0.47000000000E+01 0. -1.
        -11    1    1    2    0    0 -0.45741357318E+02  0.63144468626E+02  0.55070604694E+02  0.95458196027E+02  0.00000000000E+00 0.  1.
         11    1    1    2    0    0  0.21428125407E+02 -0.11688718763E+02 -0.21654876896E+01  0.24504694280E+02  0.00000000000E+00 0. -1.
<mgrwt>
<rscale>  0 0.12923464E+03</rscale>
<asrwt>0</asrwt>
<pdfrwt beam="1">  1        1 0.37049340E-01 0.13734451E+03</pdfrwt>
<pdfrwt beam="2">  1       -1 0.98576575E-02 0.13734451E+03</pdfrwt>
<totfact> 0.68705278E+03</totfact>
</mgrwt>
</event>
<event>
 6    1  0.8353100E-006  0.1647569E+03  0.7546771E-02  0.1190326E+00
          4   -1    0    0  501    0  0.00000000000E+00  0.00000000000E+00  0.14115898748E+04  0.14115898748E+04  0.00000000000E+00 0. -1.
         -4   -1    0    0    0  501 -0.00000000000E+00 -0.00000000000E+00 -0.17360384893E+02  0.17360384893E+02  0.00000000000E+00 0.  1.
          5    1    1    2  502    0  0.38342129625E+02 -0.51797972441E+02  0.39219541945E+03  0.39748268628E+03  0.47000000000E+01 0.  1.
         -5    1    1    2    0  502 -0.89981454352E+02 -0.42293676970E+02  0.50542658203E+03  0.51513448444E+03  0.47000000000E+01 0.  1.
        -11    1    1    2    0    0  0.65915555346E+02  0.26453435134E+02  0.28516766252E+03  0.29387963593E+03  0.00000000000E+00 0. -1.
         11    1    1    2    0    0 -0.14276230619E+02  0.67638214276E+02  0.21143982591E+03  0.22245345304E+03  0.00000000000E+00 0.  1.
<mgrwt>
<rscale>  0 0.15856580E+03</rscale>
<asrwt>0</asrwt>
<pdfrwt beam="1">  1        4 0.21716758E+00 0.16475692E+03</pdfrwt>
<pdfrwt beam="2">  1       -4 0.26708296E-02 0.16475692E+03</pdfrwt>
<totfact> 0.12811458E+02</totfact>
</mgrwt>
</event>
<event>
 6    1  0.8353100E-006  0.1358175E+03  0.7546771E-02  0.1226100E+00
          1   -1    0    0  501    0  0.00000000000E+00  0.00000000000E+00  0.24727865300E+03  0.24727865300E+03  0.00000000000E+00 0. -1.
         -1   -1    0    0    0  501 -0.00000000000E+00 -0.00000000000E+00 -0.86528084313E+02  0.86528084313E+02  0.00000000000E+00 0.  1.
          5    1    1    2  502    0 -0.17537389367E+02 -0.35101981934E+02  0.17294827391E+03  0.17740604445E+03  0.47000000000E+01 0. -1.
         -5    1    1    2    0  502 -0.59304045819E+01 -0.37879405710E+02 -0.45971576972E+01  0.38900423319E+02  0.47000000000E+01 0.  1.
        -11    1    1    2    0    0 -0.31262844463E+02  0.23131493492E+02 -0.17801600226E+02  0.42770648881E+02  0.00000000000E+00 0. -1.
         11    1    1    2    0    0  0.54730638412E+02  0.49849894153E+02  0.10201052708E+02  0.74729620662E+02  0.00000000000E+00 0.  1.
<mgrwt>
<rscale>  0 0.13091785E+03</rscale>
<asrwt>0</asrwt>
<pdfrwt beam="1">  1        1 0.38042869E-01 0.13581749E+03</pdfrwt>
<pdfrwt beam="2">  1       -1 0.13312013E-01 0.13581749E+03</pdfrwt>
<totfact> 0.41850310E+03</totfact>
</mgrwt>
</event>
<event>
 6    1  0.8353100E-006  0.3067153E+03  0.7546771E-02  0.1081931E+00
         -1   -1    0    0    0  501 -0.00000000000E+00  0.00000000000E+00  0.40047908760E+02  0.40047908760E+02  0.00000000000E+00 0.  1.
          1   -1    0    0  501    0  0.00000000000E+00 -0.00000000000E+00 -0.58726065803E+03  0.58726065803E+03  0.00000000000E+00 0. -1.
          5    1    1    2  502    0 -0.69215878157E+02 -0.48673927148E+01 -0.45604945895E+03  0.46132171888E+03  0.47000000000E+01 0.  1.
         -5    1    1    2    0  502  0.32541835428E+01 -0.14552546846E+02  0.90287094417E+00  0.15661146388E+02  0.47000000000E+01 0.  1.
        -11    1    1    2    0    0  0.25846813177E+02 -0.29260253747E+02 -0.38829249728E+00  0.39043193668E+02  0.00000000000E+00 0.  1.
         11    1    1    2    0    0  0.40114881438E+02  0.48680193308E+02 -0.91677868771E+02  0.11128250786E+03  0.00000000000E+00 0. -1.
<mgrwt>
<rscale>  0 0.30671525E+03</rscale>
<asrwt>0</asrwt>
<pdfrwt beam="2">  1        1 0.90347793E-01 0.30671525E+03</pdfrwt>
<pdfrwt beam="1">  1       -1 0.61612168E-02 0.30671525E+03</pdfrwt>
<totfact> 0.46519384E+03</totfact>
</mgrwt>
</event>
<event>
 6    1  0.8353100E-006  0.1477719E+03  0.7546771E-02  0.1212712E+00
          2   -1    0    0  501    0  0.00000000000E+00  0.00000000000E+00  0.86473421936E+02  0.86473421936E+02  0.00000000000E+00 0. -1.
         -2   -1    0    0    0  501 -0.00000000000E+00 -0.00000000000E+00 -0.23475391826E+03  0.23475391826E+03  0.00000000000E+00 0.  1.
          5    1    1    2  502    0  0.46049528086E+01 -0.57581731472E+02  0.43198834370E+02  0.72284788722E+02  0.47000000000E+01 0.  1.
         -5    1    1    2    0  502 -0.28397918046E+02 -0.17551187434E+02 -0.70280474964E+02  0.77948194917E+02  0.47000000000E+01 0.  1.
        -11    1    1    2    0    0  0.39719629788E+02  0.22735789031E+02 -0.10394848755E+03  0.11357752048E+03  0.00000000000E+00 0.  1.
         11    1    1    2    0    0 -0.15926664551E+02  0.52397129876E+02 -0.17250368177E+02  0.57416836078E+02  0.00000000000E+00 0. -1.
<mgrwt>
<rscale>  0 0.14045960E+03</rscale>
<asrwt>0</asrwt>
<pdfrwt beam="1">  1        2 0.13303603E-01 0.14777190E+03</pdfrwt>
<pdfrwt beam="2">  1       -2 0.36115988E-01 0.14777190E+03</pdfrwt>
<totfact> 0.31478105E+03</totfact>
</mgrwt>
</event>
<event>
 6    1  0.8353100E-006  0.2551033E+03  0.7546771E-02  0.1112084E+00
          2   -1    0    0  501    0  0.00000000000E+00  0.00000000000E+00  0.10040638786E+03  0.10040638786E+03  0.00000000000E+00 0. -1.
         -2   -1    0    0    0  501 -0.00000000000E+00 -0.00000000000E+00 -0.62447645437E+03  0.62447645437E+03  0.00000000000E+00 0.  1.
          5    1    1    2  502    0  0.53392330762E+02  0.15328508529E+03 -0.19541859417E+03  0.25408182797E+03  0.47000000000E+01 0. -1.
         -5    1    1    2    0  502 -0.44325416035E+02  0.68911309705E+02 -0.33399284739E+02  0.88606508412E+02  0.47000000000E+01 0. -1.
        -11    1    1    2    0    0  0.40523983858E+02 -0.56139594931E+02 -0.90422864777E+02  0.11388653064E+03  0.00000000000E+00 0. -1.
         11    1    1    2    0    0 -0.49590898585E+02 -0.16605680006E+03 -0.20482932283E+03  0.26830797521E+03  0.00000000000E+00 0.  1.
<mgrwt>
<rscale>  0 0.25194184E+03</rscale>
<asrwt>0</asrwt>
<pdfrwt beam="1">  1        2 0.15447137E-01 0.25510326E+03</pdfrwt>
<pdfrwt beam="2">  1       -2 0.96073300E-01 0.25510326E+03</pdfrwt>
<totfact> 0.35474260E+02</totfact>
</mgrwt>
</event>
<event>
 6    1  0.8353100E-006  0.3310818E+03  0.7546771E-02  0.1070659E+00
          1   -1    0    0  501    0  0.00000000000E+00  0.00000000000E+00  0.35564374574E+03  0.35564374574E+03  0.00000000000E+00 0. -1.
         -1   -1    0    0    0  501 -0.00000000000E+00 -0.00000000000E+00 -0.77054063652E+02  0.77054063652E+02  0.00000000000E+00 0.  1.
          5    1    1    2  502    0  0.10360676042E+03  0.91180816546E+02  0.17237101731E+03  0.22086683707E+03  0.47000000000E+01 0. -1.
         -5    1    1    2    0  502 -0.15418421603E+02 -0.22688472245E+02  0.51437181153E+02  0.58483913194E+02  0.47000000000E+01 0.  1.
        -11    1    1    2    0    0 -0.31219107424E+02 -0.52355473022E+02 -0.14047360502E+02  0.62554428786E+02  0.00000000000E+00 0.  1.
         11    1    1    2    0    0 -0.56969231392E+02 -0.16136871279E+02  0.68828844130E+02  0.90792630342E+02  0.00000000000E+00 0. -1.
<mgrwt>
<rscale>  0 0.33108184E+03</rscale>
<asrwt>0</asrwt>
<pdfrwt beam="1">  1        1 0.54714421E-01 0.33108184E+03</pdfrwt>
<pdfrwt beam="2">  1       -1 0.11854472E-01 0.33108184E+03</pdfrwt>
<totfact> 0.32975350E+03</totfact>
</mgrwt>
</event>
<event>
 6    1  0.8353100E-006  0.1630875E+03  0.7546771E-02  0.1192329E+00
          3   -1    0    0  501    0  0.00000000000E+00  0.00000000000E+00  0.10089417220E+03  0.10089417220E+03  0.00000000000E+00 0. -1.
         -3   -1    0    0    0  501 -0.00000000000E+00 -0.00000000000E+00 -0.29297087208E+03  0.29297087208E+03  0.00000000000E+00 0.  1.
          5    1    1    2  502    0  0.28613833634E+02  0.83291517476E+02  0.43121229074E+02  0.98172087456E+02  0.47000000000E+01 0. -1.
         -5    1    1    2    0  502 -0.33207188195E+02  0.21362954553E+02 -0.51588708855E+02  0.65135075469E+02  0.47000000000E+01 0. -1.
        -11    1    1    2    0    0  0.42238850580E+02 -0.23871990847E+02 -0.83091477846E+02  0.96219468591E+02  0.00000000000E+00 0.  1.
         11    1    1    2    0    0 -0.37645496018E+02 -0.80782481181E+02 -0.10051774226E+03  0.13433841277E+03  0.00000000000E+00 0. -1.
<mgrwt>
<rscale>  0 0.15682502E+03</rscale>
<asrwt>0</asrwt>
<pdfrwt beam="1">  1        3 0.15522180E-01 0.16308750E+03</pdfrwt>
<pdfrwt beam="2">  1       -3 0.45072442E-01 0.16308750E+03</pdfrwt>
<totfact> 0.40944211E+02</totfact>
</mgrwt>
</event>
<event>
 6    1  0.8353100E-006  0.1379736E+03  0.7546771E-02  0.1227301E+00
          3   -1    0    0  501    0  0.00000000000E+00  0.00000000000E+00  0.25880622570E+02  0.25880622570E+02  0.00000000000E+00 0. -1.
         -3   -1    0    0    0  501 -0.00000000000E+00 -0.00000000000E+00 -0.63810691388E+03  0.63810691388E+03  0.00000000000E+00 0.  1.
          5    1    1    2  502    0  0.11300662389E+02 -0.53714521505E+02 -0.36220236298E+02  0.65931406086E+02  0.47000000000E+01 0.  1.
         -5    1    1    2    0  502  0.41667103553E+02  0.29077799287E+02 -0.21203613958E+03  0.21808961557E+03  0.47000000000E+01 0.  1.
        -11    1    1    2    0    0 -0.55301457960E+01  0.45853407309E+02 -0.25610644321E+03  0.26023763703E+03  0.00000000000E+00 0.  1.
         11    1    1    2    0    0 -0.47437620145E+02 -0.21216685091E+02 -0.10786347223E+03  0.11972887777E+03  0.00000000000E+00 0. -1.
<mgrwt>
<rscale>  0 0.13010453E+03</rscale>
<asrwt>0</asrwt>
<pdfrwt beam="1">  1        3 0.39816343E-02 0.13797359E+03</pdfrwt>
<pdfrwt beam="2">  1       -3 0.98170292E-01 0.13797359E+03</pdfrwt>
<totfact> 0.71631810E+02</totfact>
</mgrwt>
</event>
<event>
 6    1  0.8353100E-006  0.1396504E+03  0.7546771E-02  0.1224514E+00
         -2   -1    0    0    0  501 -0.00000000000E+00  0.00000000000E+00  0.10704479030E+03  0.10704479030E+03  0.00000000000E+00 0.  1.
          2   -1    0    0  501    0  0.00000000000E+00 -0.00000000000E+00 -0.43723829038E+03  0.43723829038E+03  0.00000000000E+00 0. -1.
          5    1    1    2  502    0 -0.18482732653E+02  0.56963588848E+02 -0.19025584713E+03  0.19951400760E+03  0.47000000000E+01 0. -1.
         -5    1    1    2    0  502 -0.43126566505E+02 -0.65901940784E+02 -0.20222156644E+03  0.21706823460E+03  0.47000000000E+01 0. -1.
        -11    1    1    2    0    0  0.61894819615E+02  0.42075792352E+02  0.57149200641E+02  0.94166725180E+02  0.00000000000E+00 0.  1.
         11    1    1    2    0    0 -0.28552045682E+00 -0.33137440416E+02  0.51347128463E+01  0.33534113307E+02  0.00000000000E+00 0. -1.
<mgrwt>
<rscale>  0 0.13200271E+03</rscale>
<asrwt>0</asrwt>
<pdfrwt beam="2">  1        2 0.67267428E-01 0.13965044E+03</pdfrwt>
<pdfrwt beam="1">  1       -2 0.16468430E-01 0.13965044E+03</pdfrwt>
<totfact> 0.20764395E+03</totfact>
</mgrwt>
</event>
