<event>
 8    1  0.7048627E-009  0.8868867E+02  0.7561462E-02  0.1306059E+00
          4   -1    0    0  501    0  0.00000000000E+00  0.00000000000E+00  0.18055947539E+03  0.18055947539E+03  0.00000000000E+00 0. -1.
         -4   -1    0    0    0  501 -0.00000000000E+00 -0.00000000000E+00 -0.10675003027E+03  0.10675003027E+03  0.00000000000E+00 0.  1.
         25    2    1    2    0    0  0.18219023055E+02 -0.80948285319E+02  0.65258130686E+02  0.16367988001E+03  0.12509165361E+03 0.  0.
         23    2    1    2    0    0 -0.18219023055E+02  0.80948285319E+02  0.85513144308E+01  0.12362962565E+03  0.91250214592E+02 0.  0.
          5    1    3    3  502    0  0.20795213888E+02 -0.77275452228E+02  0.10014444034E+03  0.12825879217E+03  0.41800000000E+01 0. -1.
         -5    1    3    3    0  502 -0.25761908331E+01 -0.36728330907E+01 -0.34886309657E+02  0.35421087837E+02  0.41800000000E+01 0. -1.
        -11    1    4    4    0    0  0.10493566738E+02  0.96774828029E+01  0.38577705184E+02  0.41134024281E+02  0.00000000000E+00 0. -1.
         11    1    4    4    0    0 -0.28712589793E+02  0.71270802516E+02 -0.30026390753E+02  0.82495601371E+02  0.00000000000E+00 0.  1.
</event>
<event>
 8    1  0.7048627E-009  0.1042525E+03  0.7561462E-02  0.1271599E+00
         -1   -1    0    0    0  501 -0.00000000000E+00  0.00000000000E+00  0.60639627807E+02  0.60639627807E+02  0.00000000000E+00 0.  1.
          1   -1    0    0  501    0  0.00000000000E+00 -0.00000000000E+00 -0.22617435105E+03  0.22617435105E+03  0.00000000000E+00 0. -1.
         25    2    1    2    0    0  0.75225534587E+01  0.26289212239E+02 -0.53972690211E+02  0.13895271028E+03  0.12508834045E+03 0.  0.
         23    2    1    2    0    0 -0.75225534587E+01 -0.26289212239E+02 -0.11156203303E+03  0.14786126858E+03  0.93108302744E+02 0.  0.
          5    1    3    3  502    0  0.12057400153E+01  0.69353258196E+02 -0.63577105341E+02  0.94185184370E+02  0.41800000000E+01 0. -1.
         -5    1    3    3    0  502  0.63168134434E+01 -0.43064045957E+02  0.96044151297E+01  0.44767525912E+02  0.41800000000E+01 0. -1.
        -11    1    4    4    0    0 -0.41050897430E+02  0.13541419613E+02 -0.36873335344E+02  0.56817154842E+02  0.00000000000E+00 0.  1.
         11    1    4    4    0    0  0.33528343972E+02 -0.39830631851E+02 -0.74688697690E+02  0.91044113735E+02  0.00000000000E+00 0. -1.
</event>
<event>
 8    1  0.7048627E-009  0.1059946E+03  0.7561462E-02  0.1268172E+00
         -4   -1    0    0    0  501 -0.00000000000E+00  0.00000000000E+00  0.14323257182E+03  0.14323257182E+03  0.00000000000E+00 0.  1.
          4   -1    0    0  501    0  0.00000000000E+00 -0.00000000000E+00 -0.12027969979E+03  0.12027969979E+03  0.00000000000E+00 0. -1.
         25    2    1    2    0    0 -0.53652390692E+02 -0.82256581717E+01 -0.36875860816E+02  0.14126204494E+03  0.12509554649E+03 0.  0.
         23    2    1    2    0    0  0.53652390692E+02  0.82256581717E+01  0.59828732840E+02  0.12225022667E+03  0.91757289450E+02 0.  0.
          5    1    3    3  502    0 -0.23517958179E+02 -0.57144143965E+02 -0.52917243594E+02  0.81463210199E+02  0.41800000000E+01 0.  1.
         -5    1    3    3    0  502 -0.30134432513E+02  0.48918485793E+02  0.16041382778E+02  0.59798834743E+02  0.41800000000E+01 0.  1.
        -11    1    4    4    0    0  0.32448050268E+02  0.41690265251E+02  0.29205385920E+01  0.52910147690E+02  0.00000000000E+00 0. -1.
         11    1    4    4    0    0  0.21204340423E+02 -0.33464607079E+02  0.56908194249E+02  0.69340078976E+02  0.00000000000E+00 0.  1.
</event>
<event>
 8    1  0.7048627E-009  0.2272189E+03  0.7561462E-02  0.1128613E+00
          1   -1    0    0  501    0  0.00000000000E+00  0.00000000000E+00  0.27177735365E+03  0.27177735365E+03  0.00000000000E+00 0. -1.
         -1   -1    0    0    0  501 -0.00000000000E+00 -0.00000000000E+00 -0.22051509736E+03  0.22051509736E+03  0.00000000000E+00 0.  1.
         25    2    1    2    0    0  0.17107818213E+03 -0.11657369454E+03  0.91658178607E+02  0.25866154048E+03  0.12508956855E+03 0.  0.
         23    2    1    2    0    0 -0.17107818213E+03  0.11657369454E+03 -0.40395922318E+02  0.23363091054E+03  0.10047089708E+03 0.  0.
          5    1    3    3  502    0  0.11863122412E+01 -0.38729557796E+02  0.56221716648E+02  0.68408623774E+02  0.41800000000E+01 0. -1.
         -5    1    3    3    0  502  0.16989186989E+03 -0.77844136744E+02  0.35436461959E+02  0.19025291671E+03  0.41800000000E+01 0. -1.
        -11    1    4    4    0    0 -0.61288913317E+02  0.10031358692E+03 -0.71519757492E+01  0.11777222666E+03  0.00000000000E+00 0. -1.
         11    1    4    4    0    0 -0.10978926881E+03  0.16260107621E+02 -0.33243946568E+02  0.11585868387E+03  0.00000000000E+00 0.  1.
</event>
<event>
 8    1  0.7048627E-009  0.8638473E+02  0.7561462E-02  0.1311851E+00
         -1   -1    0    0    0  501 -0.00000000000E+00  0.00000000000E+00  0.39539748201E+03  0.39539748201E+03  0.00000000000E+00 0.  1.
          1   -1    0    0  501    0  0.00000000000E+00 -0.00000000000E+00 -0.41897503587E+02  0.41897503587E+02  0.00000000000E+00 0. -1.
         25    2    1    2    0    0 -0.30406131694E+02  0.12767377825E+02  0.30199767389E+03  0.32853910024E+03  0.12509119301E+03 0.  0.
         23    2    1    2    0    0  0.30406131694E+02 -0.12767377825E+02  0.51502304531E+02  0.10875588536E+03  0.89932288120E+02 0.  0.
          5    1    3    3  502    0  0.48915692888E+02  0.76429106981E+01  0.12182539318E+03  0.13156769329E+03  0.41800000000E+01 0.  1.
         -5    1    3    3    0  502 -0.79321824582E+02  0.51244671272E+01  0.18017228071E+03  0.19697140695E+03  0.41800000000E+01 0.  1.
        -11    1    4    4    0    0  0.11904390762E+02  0.89966741767E+01  0.72042934348E+02  0.73571999124E+02  0.00000000000E+00 0.  1.
         11    1    4    4    0    0  0.18501740932E+02 -0.21764052002E+02 -0.20540629817E+02  0.35183886232E+02  0.00000000000E+00 0. -1.
</event>
<event>
 8    1  0.7048627E-009  0.3211511E+03  0.7561462E-02  0.1075121E+00
         -1   -1    0    0    0  501 -0.00000000000E+00  0.00000000000E+00  0.19864208163E+03  0.19864208163E+03  0.00000000000E+00 0.  1.
          1   -1    0    0  501    0  0.00000000000E+00 -0.00000000000E+00 -0.58217351904E+03  0.58217351904E+03  0.00000000000E+00 0. -1.
         25    2    1    2    0    0  0.23424979944E+03 -0.21352475314E+03 -0.25850688244E+03  0.42771273851E+03  0.12508632886E+03 0.  0.
         23    2    1    2    0    0 -0.23424979944E+03  0.21352475314E+03 -0.12502455496E+03  0.35310286216E+03  0.92653673313E+02 0.  0.
          5    1    3    3  502    0  0.10820463805E+03 -0.10687067421E+03 -0.46755856475E+02  0.15916396331E+03  0.41800000000E+01 0. -1.
         -5    1    3    3    0  502  0.12604516140E+03 -0.10665407893E+03 -0.21175102597E+03  0.26854877520E+03  0.41800000000E+01 0. -1.
        -11    1    4    4    0    0 -0.26134488987E+02 -0.93978591174E+00 -0.29367998317E+02  0.39323962635E+02  0.00000000000E+00 0. -1.
         11    1    4    4    0    0 -0.20811531046E+03  0.21446453905E+03 -0.95656556647E+02  0.31377889953E+03  0.00000000000E+00 0.  1.
</event>
<event>
 8    1  0.7048627E-009  0.2120352E+03  0.7561462E-02  0.1139964E+00
         -2   -1    0    0    0  501 -0.00000000000E+00  0.00000000000E+00  0.11588418374E+03  0.11588418374E+03  0.00000000000E+00 0.  1.
          2   -1    0    0  501    0  0.00000000000E+00 -0.00000000000E+00 -0.43438340023E+03  0.43438340023E+03  0.00000000000E+00 0. -1.
         25    2    1    2    0    0  0.18322962739E+03 -0.62967491989E+02 -0.20055860453E+03  0.30563383496E+03  0.12510110238E+03 0.  0.
         23    2    1    2    0    0 -0.18322962739E+03  0.62967491989E+02 -0.11794061196E+03  0.24463374902E+03  0.91638866245E+02 0.  0.
          5    1    3    3  502    0  0.17010265507E+03 -0.18643028349E+02 -0.19406043416E+03  0.25876514501E+03  0.41800000000E+01 0. -1.
         -5    1    3    3    0  502  0.13126972324E+02 -0.44324463640E+02 -0.64981703794E+01  0.46868689950E+02  0.41800000000E+01 0. -1.
        -11    1    4    4    0    0 -0.88422557120E+01  0.27017612914E+02  0.41674898965E+01  0.28731600472E+02  0.00000000000E+00 0.  1.
         11    1    4    4    0    0 -0.17438737168E+03  0.35949879074E+02 -0.12210810185E+03  0.21590214854E+03  0.00000000000E+00 0. -1.
</event>
<event>
 8    1  0.7048627E-009  0.1152594E+03  0.7561462E-02  0.1251129E+00
          2   -1    0    0  501    0  0.00000000000E+00  0.00000000000E+00  0.12007673990E+04  0.12007673990E+04  0.00000000000E+00 0. -1.
         -2   -1    0    0    0  501 -0.00000000000E+00 -0.00000000000E+00 -0.29960588093E+02  0.29960588093E+02  0.00000000000E+00 0.  1.
         25    2    1    2    0    0 -0.81035838710E+02 -0.54329764392E+02  0.10102681702E+04  0.10226478837E+04  0.12509351695E+03 0.  0.
         23    2    1    2    0    0  0.81035838710E+02  0.54329764392E+02  0.16053864070E+03  0.20808010333E+03  0.89477057331E+02 0.  0.
          5    1    3    3  502    0 -0.33656886636E+02 -0.26690536905E+02  0.81238435578E+02  0.91990904949E+02  0.41800000000E+01 0.  1.
         -5    1    3    3    0  502 -0.47378952074E+02 -0.27639227487E+02  0.92902973458E+03  0.93065697877E+03  0.41800000000E+01 0.  1.
        -11    1    4    4    0    0  0.31440542388E+02 -0.24058813768E+02  0.50097844975E+02  0.63852394604E+02  0.00000000000E+00 0. -1.
         11    1    4    4    0    0  0.49595296322E+02  0.78388578160E+02  0.11044079573E+03  0.14422770873E+03  0.00000000000E+00 0.  1.
</event>
<event>
 8    1  0.7048627E-009  0.1308300E+03  0.7561462E-02  0.1226229E+00
          1   -1    0    0  501    0  0.00000000000E+00  0.00000000000E+00  0.47551342788E+03  0.47551342788E+03  0.00000000000E+00 0.  1.
         -1   -1    0    0    0  501 -0.00000000000E+00 -0.00000000000E+00 -0.55235346011E+02  0.55235346011E+02  0.00000000000E+00 0. -1.
         25    2    1    2    0    0  0.12987731100E+02  0.11227057341E+03  0.29255359606E+03  0.33765149551E+03  0.12509021961E+03 0.  0.
         23    2    1    2    0    0 -0.12987731100E+02 -0.11227057341E+03  0.12772448581E+03  0.19309727837E+03  0.90551928900E+02 0.  0.
          5    1    3    3  502    0  0.17303826116E+02  0.12583876592E+03  0.16030353176E+03  0.20457153297E+03  0.41800000000E+01 0. -1.
         -5    1    3    3    0  502 -0.43160950162E+01 -0.13568192509E+02  0.13225006430E+03  0.13307996255E+03  0.41800000000E+01 0. -1.
        -11    1    4    4    0    0  0.13650652695E+02 -0.53315761729E+02  0.11453674762E+03  0.12707311802E+03  0.00000000000E+00 0.  1.
         11    1    4    4    0    0 -0.26638383794E+02 -0.58954811682E+02  0.13187738183E+02  0.66024160351E+02  0.00000000000E+00 0. -1.
</event>
<event>
 8    1  0.7048627E-009  0.9635834E+02  0.7561462E-02  0.1288146E+00
          2   -1    0    0  501    0  0.00000000000E+00  0.00000000000E+00  0.18058154584E+03  0.18058154584E+03  0.00000000000E+00 0. -1.
         -2   -1    0    0    0  501 -0.00000000000E+00 -0.00000000000E+00 -0.82520615784E+02  0.82520615784E+02  0.00000000000E+00 0.  1.
         25    2    1    2    0    0 -0.28850957238E+02  0.21932569639E+01  0.11385330495E+00  0.12839005501E+03  0.12508719020E+03 0.  0.
         23    2    1    2    0    0  0.28850957238E+02 -0.21932569639E+01  0.97947076755E+02  0.13471210662E+03  0.87843802944E+02 0.  0.
          5    1    3    3  502    0  0.37741551449E+02 -0.28779150982E+02 -0.20688291712E+02  0.51943643028E+02  0.41800000000E+01 0. -1.
         -5    1    3    3    0  502 -0.66592508687E+02  0.30972407946E+02  0.20802145017E+02  0.76446411980E+02  0.41800000000E+01 0. -1.
        -11    1    4    4    0    0  0.45174198044E+02  0.15193318571E+02  0.17446976051E+02  0.50753739482E+02  0.00000000000E+00 0.  1.
         11    1    4    4    0    0 -0.16323240806E+02 -0.17386575535E+02  0.80500100704E+02  0.83958367139E+02  0.00000000000E+00 0. -1.
</event>
<event>
 8    1  0.7048627E-009  0.1206547E+03  0.7561462E-02  0.1242021E+00
         -2   -1    0    0    0  501 -0.00000000000E+00  0.00000000000E+00  0.20246990732E+03  0.20246990732E+03  0.00000000000E+00 0.  1.
          2   -1    0    0  501    0  0.00000000000E+00 -0.00000000000E+00 -0.12002422024E+03  0.12002422024E+03  0.00000000000E+00 0. -1.
         25    2    1    2    0    0  0.85997019236E+02 -0.47395825443E+02  0.10371829535E+03  0.18986054188E+03  0.12509072303E+03 0.  0.
         23    2    1    2    0    0 -0.85997019236E+02  0.47395825443E+02 -0.21272608276E+02  0.13263358568E+03  0.86586907787E+02 0.  0.
          5    1    3    3  502    0  0.58679796869E+02 -0.17190592330E+01  0.12032836218E+03  0.13395021788E+03  0.41800000000E+01 0.  1.
         -5    1    3    3    0  502  0.27317222367E+02 -0.45676766210E+02 -0.16610066837E+02  0.55910323998E+02  0.41800000000E+01 0.  1.
        -11    1    4    4    0    0 -0.78187167575E+02  0.70130518614E+02 -0.84030787891E+01  0.10536666716E+03  0.00000000000E+00 0. -1.
         11    1    4    4    0    0 -0.78098516614E+01 -0.22734693170E+02 -0.12869529487E+02  0.27266918523E+02  0.00000000000E+00 0.  1.
</event>
<event>
 8    1  0.7048627E-009  0.9859570E+02  0.7561462E-02  0.1283277E+00
         -1   -1    0    0    0  501 -0.00000000000E+00  0.00000000000E+00  0.12480758192E+03  0.12480758192E+03  0.00000000000E+00 0.  1.
          1   -1    0    0  501    0  0.00000000000E+00 -0.00000000000E+00 -0.10112010497E+03  0.10112010497E+03  0.00000000000E+00 0. -1.
         25    2    1    2    0    0 -0.15619525580E+02  0.13864354834E+02  0.38415309273E+02  0.13251377311E+03  0.12509186290E+03 0.  0.
         23    2    1    2    0    0  0.15619525580E+02 -0.13864354834E+02 -0.14727832319E+02  0.93413913771E+02  0.89850210499E+02 0.  0.
          5    1    3    3  502    0 -0.33648934496E+02  0.55329284079E+02 -0.10538650950E+02  0.65742802141E+02  0.41800000000E+01 0.  1.
         -5    1    3    3    0  502  0.18029408916E+02 -0.41464929245E+02  0.48953960223E+02  0.66770970973E+02  0.41800000000E+01 0.  1.
        -11    1    4    4    0    0 -0.91481694643E+01  0.32804955554E+02  0.94014769458E+01  0.35330466770E+02  0.00000000000E+00 0.  1.
         11    1    4    4    0    0  0.24767695044E+02 -0.46669310388E+02 -0.24129309265E+02  0.58083447001E+02  0.00000000000E+00 0. -1.
</event>
<event>
 8    1  0.7048627E-009  0.1169600E+03  0.7561462E-02  0.1248198E+00
          1   -1    0    0  501    0  0.00000000000E+00  0.00000000000E+00  0.24399598025E+02  0.24399598025E+02  0.00000000000E+00 0. -1.
         -1   -1    0    0    0  501 -0.00000000000E+00 -0.00000000000E+00 -0.73814568167E+03  0.73814568167E+03  0.00000000000E+00 0.  1.
         25    2    1    2    0    0 -0.65196526597E+00 -0.60690269451E+02 -0.25070080790E+03  0.28667464803E+03  0.12509086647E+03 0.  0.
         23    2    1    2    0    0  0.65196526597E+00  0.60690269451E+02 -0.46304527574E+03  0.47587063167E+03  0.91423174471E+02 0.  0.
          5    1    3    3  502    0  0.56646668338E+02 -0.27243155593E+02 -0.17465278720E+03  0.18566664492E+03  0.41800000000E+01 0.  1.
         -5    1    3    3    0  502 -0.57298633604E+02 -0.33447113858E+02 -0.76048020703E+02  0.10100800310E+03  0.41800000000E+01 0.  1.
        -11    1    4    4    0    0 -0.41814227709E+02  0.36913321916E+02 -0.17296545926E+03  0.18173627340E+03  0.00000000000E+00 0.  1.
         11    1    4    4    0    0  0.42466192975E+02  0.23776947535E+02 -0.29007981649E+03  0.29413435827E+03  0.00000000000E+00 0. -1.
</event>
<event>
 8    1  0.7048627E-009  0.1101823E+03  0.7561462E-02  0.1260233E+00
         -2   -1    0    0    0  501 -0.00000000000E+00  0.00000000000E+00  0.56373302112E+02  0.56373302112E+02  0.00000000000E+00 0.  1.
          2   -1    0    0  501    0  0.00000000000E+00 -0.00000000000E+00 -0.32810735750E+03  0.32810735750E+03  0.00000000000E+00 0. -1.
         25    2    1    2    0    0 -0.14933673483E+02 -0.37881886701E+02 -0.53666996091E+02  0.14207771728E+03  0.12509148386E+03 0.  0.
         23    2    1    2    0    0  0.14933673483E+02  0.37881886701E+02 -0.21806705929E+03  0.24240294233E+03  0.97713316168E+02 0.  0.
          5    1    3    3  502    0  0.45417455846E+02 -0.50854799918E+02 -0.38345667807E+02  0.78337849153E+02  0.41800000000E+01 0.  1.
         -5    1    3    3    0  502 -0.60351129329E+02  0.12972913217E+02 -0.15321328284E+02  0.63739868128E+02  0.41800000000E+01 0.  1.
        -11    1    4    4    0    0  0.14488270566E+02  0.63210556942E+02 -0.84826479180E+02  0.10677554057E+03  0.00000000000E+00 0.  1.
         11    1    4    4    0    0  0.44540291657E+00 -0.25328670241E+02 -0.13324058011E+03  0.13562740176E+03  0.00000000000E+00 0. -1.
</event>
<event>
 8    1  0.7048627E-009  0.1194871E+03  0.7561462E-02  0.1243946E+00
          2   -1    0    0  501    0  0.00000000000E+00  0.00000000000E+00  0.12486689633E+03  0.12486689633E+03  0.00000000000E+00 0. -1.
         -2   -1    0    0    0  501 -0.00000000000E+00 -0.00000000000E+00 -0.15352135985E+03  0.15352135985E+03  0.00000000000E+00 0.  1.
         25    2    1    2    0    0 -0.64342286064E+02 -0.40117937386E+02  0.23301245376E+02  0.14812040301E+03  0.12508927642E+03 0.  0.
         23    2    1    2    0    0  0.64342286064E+02  0.40117937386E+02 -0.51955708899E+02  0.13026785317E+03  0.92308933514E+02 0.  0.
          5    1    3    3  502    0  0.23890764164E+02 -0.41134207849E+02  0.34730361516E+02  0.59046270659E+02  0.41800000000E+01 0. -1.
         -5    1    3    3    0  502 -0.88233050228E+02  0.10162704631E+01 -0.11429116139E+02  0.89074132350E+02  0.41800000000E+01 0. -1.
        -11    1    4    4    0    0  0.29487312773E+02  0.56985325117E+02  0.15971608829E+01  0.64182394908E+02  0.00000000000E+00 0.  1.
         11    1    4    4    0    0  0.34854973291E+02 -0.16867387730E+02 -0.53552869782E+02  0.66085458263E+02  0.00000000000E+00 0. -1.
</event>
<event>
 8    1  0.7048627E-009  0.1022103E+03  0.7561462E-02  0.1275716E+00
          2   -1    0    0  501    0  0.00000000000E+00  0.00000000000E+00  0.64376152096E+03  0.64376152096E+03  0.00000000000E+00 0.  1.
         -2   -1    0    0    0  501 -0.00000000000E+00 -0.00000000000E+00 -0.28583036316E+02  0.28583036316E+02  0.00000000000E+00 0. -1.
         25    2    1    2    0    0 -0.56713653056E+02  0.54437757500E+02  0.39215061857E+03  0.41905838298E+03  0.12509161769E+03 0.  0.
         23    2    1    2    0    0  0.56713653056E+02 -0.54437757500E+02  0.22302786608E+03  0.25328617430E+03  0.90733396055E+02 0.  0.
          5    1    3    3  502    0 -0.40818774266E+02  0.60737583778E+02  0.39454406476E+03  0.40129505087E+03  0.41800000000E+01 0.  1.
         -5    1    3    3    0  502 -0.15894878790E+02 -0.62998262782E+01 -0.23934461938E+01  0.17763332107E+02  0.41800000000E+01 0.  1.
        -11    1    4    4    0    0 -0.52711536280E+01 -0.51179413995E+02  0.61144585359E+02  0.79911061788E+02  0.00000000000E+00 0.  1.
         11    1    4    4    0    0  0.61984806684E+02 -0.32583435052E+01  0.16188328072E+03  0.17337511252E+03  0.00000000000E+00 0. -1.
</event>
<event>
 8    1  0.7048627E-009  0.1102273E+03  0.7561462E-02  0.1260149E+00
         -2   -1    0    0    0  501 -0.00000000000E+00  0.00000000000E+00  0.28611576222E+02  0.28611576222E+02  0.00000000000E+00 0.  1.
          2   -1    0    0  501    0  0.00000000000E+00 -0.00000000000E+00 -0.54919144649E+03  0.54919144649E+03  0.00000000000E+00 0. -1.
         25    2    1    2    0    0 -0.61352302491E+02  0.51496939305E+01 -0.32660926995E+03  0.35512191946E+03  0.12508932049E+03 0.  0.
         23    2    1    2    0    0  0.61352302491E+02 -0.51496939305E+01 -0.19397060032E+03  0.22268110324E+03  0.90397210052E+02 0.  0.
          5    1    3    3  502    0  0.37007622530E+02 -0.28846661264E+01 -0.58636032519E+02  0.69523680380E+02  0.41800000000E+01 0. -1.
         -5    1    3    3    0  502 -0.98359925021E+02  0.80343600569E+01 -0.26797323743E+03  0.28559823908E+03  0.41800000000E+01 0. -1.
        -11    1    4    4    0    0  0.55277629218E+02  0.19745629590E+02 -0.52007713314E+02  0.78423902122E+02  0.00000000000E+00 0.  1.
         11    1    4    4    0    0  0.60746732722E+01 -0.24895323520E+02 -0.14196288701E+03  0.14425720112E+03  0.00000000000E+00 0. -1.
</event>
<event>
 8    1  0.7048627E-009  0.8857401E+02  0.7561462E-02  0.1306342E+00
          2   -1    0    0  501    0  0.00000000000E+00  0.00000000000E+00  0.23000821182E+03  0.23000821182E+03  0.00000000000E+00 0. -1.
         -2   -1    0    0    0  501 -0.00000000000E+00 -0.00000000000E+00 -0.76484603427E+02  0.76484603427E+02  0.00000000000E+00 0.  1.
         25    2    1    2    0    0 -0.59198105809E+02 -0.48913263063E+02  0.89855790019E+02  0.17210036157E+03  0.12509016115E+03 0.  0.
         23    2    1    2    0    0  0.59198105809E+02  0.48913263063E+02  0.63667818375E+02  0.13439245368E+03  0.90060077032E+02 0.  0.
          5    1    3    3  502    0 -0.14202376424E+02 -0.38486083764E+02  0.11298597238E+03  0.12027546922E+03  0.41800000000E+01 0.  1.
         -5    1    3    3    0  502 -0.44995729385E+02 -0.10427179299E+02 -0.23130182365E+02  0.51824892351E+02  0.41800000000E+01 0.  1.
        -11    1    4    4    0    0  0.92018561400E+01 -0.91067226124E+01 -0.18167131877E+02  0.22308097942E+02  0.00000000000E+00 0.  1.
         11    1    4    4    0    0  0.49996249669E+02  0.58019985676E+02  0.81834950252E+02  0.11208435574E+03  0.00000000000E+00 0. -1.
</event>
<event>
 8    1  0.7048627E-009  0.1221232E+03  0.7561462E-02  0.1239635E+00
         -2   -1    0    0    0  501 -0.00000000000E+00  0.00000000000E+00  0.92334953409E+02  0.92334953409E+02  0.00000000000E+00 0. -1.
          2   -1    0    0  501    0  0.00000000000E+00 -0.00000000000E+00 -0.24212654387E+03  0.24212654387E+03  0.00000000000E+00 0.  1.
         25    2    1    2    0    0  0.29273413677E+02  0.88290504638E+02 -0.31741276687E+02  0.15908201772E+03  0.12508970285E+03 0.  0.
         23    2    1    2    0    0 -0.29273413677E+02 -0.88290504638E+02 -0.11805031377E+03  0.17537947956E+03  0.90387716593E+02 0.  0.
          5    1    3    3  502    0  0.52050854011E+02  0.70887452056E+02 -0.69018819563E+02  0.11187221333E+03  0.41800000000E+01 0. -1.
         -5    1    3    3    0  502 -0.22777440334E+02  0.17403052582E+02  0.37277542876E+02  0.47209804387E+02  0.41800000000E+01 0. -1.
        -11    1    4    4    0    0  0.30296204271E+02 -0.18585647644E+02 -0.18617756678E+02  0.40123648329E+02  0.00000000000E+00 0. -1.
         11    1    4    4    0    0 -0.59569617948E+02 -0.69704856994E+02 -0.99432557097E+02  0.13525583123E+03  0.00000000000E+00 0.  1.
</event>
<event>
 8    1  0.7048627E-009  0.2579274E+03  0.7561462E-02  0.1108395E+00
         -2   -1    0    0    0  501 -0.00000000000E+00  0.00000000000E+00  0.53447798666E+02  0.53447798666E+02  0.00000000000E+00 0.  1.
          2   -1    0    0  501    0  0.00000000000E+00 -0.00000000000E+00 -0.15753762155E+04  0.15753762155E+04  0.00000000000E+00 0. -1.
         25    2    1    2    0    0 -0.95189675166E+02  0.23245617655E+03 -0.50969149161E+03  0.58183318653E+03  0.12508993586E+03 0.  0.
         23    2    1    2    0    0  0.95189675166E+02 -0.23245617655E+03 -0.10122369252E+04  0.10469908277E+04  0.92028539609E+02 0.  0.
          5    1    3    3  502    0  0.60204001658E+01  0.44329446674E+02 -0.23371935700E+02  0.50646469166E+02  0.41800000000E+01 0. -1.
         -5    1    3    3    0  502 -0.10121007533E+03  0.18812672987E+03 -0.48631955591E+03  0.53118671737E+03  0.41800000000E+01 0. -1.
        -11    1    4    4    0    0  0.61244469098E+02 -0.78287501166E+02 -0.25963553201E+03  0.27801155968E+03  0.00000000000E+00 0.  1.
         11    1    4    4    0    0  0.33945206067E+02 -0.15416867538E+03 -0.75260139322E+03  0.76897926797E+03  0.00000000000E+00 0. -1.
</event>
<event>
 8    1  0.7048627E-009  0.8644269E+02  0.7561462E-02  0.1311702E+00
          1   -1    0    0  501    0  0.00000000000E+00  0.00000000000E+00  0.13690464935E+04  0.13690464935E+04  0.00000000000E+00 0. -1.
         -1   -1    0    0    0  501 -0.00000000000E+00 -0.00000000000E+00 -0.10731613476E+02  0.10731613476E+02  0.00000000000E+00 0.  1.
         25    2    1    2    0    0  0.47996493646E+02 -0.99856324692E+01  0.89357568416E+03  0.90361954424E+03  0.12508957251E+03 0.  0.
         23    2    1    2    0    0 -0.47996493646E+02  0.99856324692E+01  0.46473919585E+03  0.47615856273E+03  0.91329515692E+02 0.  0.
          5    1    3    3  502    0  0.56682387151E+01  0.19087976175E+02  0.76265107726E+03  0.76292241926E+03  0.41800000000E+01 0.  1.
         -5    1    3    3    0  502  0.42328254931E+02 -0.29073608644E+02  0.13092460690E+03  0.14069712497E+03  0.41800000000E+01 0.  1.
        -11    1    4    4    0    0 -0.44966959161E+02 -0.34346026997E+02  0.20591744670E+03  0.21355016235E+03  0.00000000000E+00 0.  1.
         11    1    4    4    0    0 -0.30295344856E+01  0.44331659466E+02  0.25882174916E+03  0.26260840037E+03  0.00000000000E+00 0. -1.
</event>
<event>
 8    1  0.7048627E-009  0.1351359E+03  0.7561462E-02  0.1220028E+00
          1   -1    0    0  501    0  0.00000000000E+00  0.00000000000E+00  0.64135473333E+03  0.64135473333E+03  0.00000000000E+00 0. -1.
         -1   -1    0    0    0  501 -0.00000000000E+00 -0.00000000000E+00 -0.83126886672E+02  0.83126886672E+02  0.00000000000E+00 0.  1.
         25    2    1    2    0    0 -0.52889845628E+02  0.99976354493E+02  0.55322945282E+03  0.57836362977E+03  0.12509617718E+03 0.  0.
         23    2    1    2    0    0  0.52889845628E+02 -0.99976354493E+02  0.49983938337E+01  0.14611799023E+03  0.92373567102E+02 0.  0.
          5    1    3    3  502    0 -0.10255579948E+02 -0.19855784021E+02  0.22787682156E+03  0.22900818170E+03  0.41800000000E+01 0.  1.
         -5    1    3    3    0  502 -0.42634265680E+02  0.11983213851E+03  0.32535263126E+03  0.34935544807E+03  0.41800000000E+01 0.  1.
        -11    1    4    4    0    0  0.56675995658E+02 -0.70023278944E+02  0.41131671565E+02  0.99031522676E+02  0.00000000000E+00 0.  1.
         11    1    4    4    0    0 -0.37861500302E+01 -0.29953075550E+02 -0.36133277731E+02  0.47086467552E+02  0.00000000000E+00 0. -1.
</event>
<event>
 8    1  0.7048627E-009  0.8862997E+02  0.7561462E-02  0.1306204E+00
          3   -1    0    0  501    0  0.00000000000E+00  0.00000000000E+00  0.38110143006E+03  0.38110143006E+03  0.00000000000E+00 0. -1.
         -3   -1    0    0    0  501 -0.00000000000E+00 -0.00000000000E+00 -0.69821142587E+02  0.69821142587E+02  0.00000000000E+00 0.  1.
         25    2    1    2    0    0  0.19228285787E+02 -0.30763581354E+02  0.32608645835E+03  0.35113600565E+03  0.12509193111E+03 0.  0.
         23    2    1    2    0    0 -0.19228285787E+02  0.30763581354E+02 -0.14806170876E+02  0.99786567003E+02  0.91771517075E+02 0.  0.
          5    1    3    3  502    0  0.39341285100E+01 -0.55843567037E+02  0.55546588476E+02  0.78973902258E+02  0.41800000000E+01 0. -1.
         -5    1    3    3    0  502  0.15294157277E+02  0.25079985683E+02  0.27053986987E+03  0.27216210339E+03  0.41800000000E+01 0. -1.
        -11    1    4    4    0    0  0.95813444995E+01 -0.26046675397E+02 -0.22363525217E+02  0.35642091996E+02  0.00000000000E+00 0.  1.
         11    1    4    4    0    0 -0.28809630286E+02  0.56810256751E+02  0.75573543411E+01  0.64144475008E+02  0.00000000000E+00 0. -1.
</event>
<event>
 8    1  0.7048627E-009  0.1001625E+03  0.7561462E-02  0.1279955E+00
         -1   -1    0    0    0  501 -0.00000000000E+00  0.00000000000E+00  0.28171970487E+02  0.28171970487E+02  0.00000000000E+00 0.  1.
          1   -1    0    0  501    0  0.00000000000E+00 -0.00000000000E+00 -0.14169291319E+04  0.14169291319E+04  0.00000000000E+00 0. -1.
         25    2    1    2    0    0 -0.45795555442E+02  0.68978961539E+02 -0.12513328184E+04  0.12602925888E+04  0.12509299250E+03 0.  0.
         23    2    1    2    0    0  0.45795555442E+02 -0.68978961539E+02 -0.13742434296E+03  0.18480851360E+03  0.91724623897E+02 0.  0.
          5    1    3    3  502    0 -0.33445595090E+02  0.67251249150E+02 -0.31464433658E+03  0.32351177611E+03  0.41800000000E+01 0.  1.
         -5    1    3    3    0  502 -0.12349960353E+02  0.17277123882E+01 -0.93668848185E+03  0.93678081264E+03  0.41800000000E+01 0.  1.
        -11    1    4    4    0    0  0.66772505373E+02 -0.47642643040E+02 -0.13043273841E+03  0.15408143353E+03  0.00000000000E+00 0. -1.
         11    1    4    4    0    0 -0.20976949931E+02 -0.21336318498E+02 -0.69916045465E+01  0.30727080070E+02  0.00000000000E+00 0.  1.
</event>
<event>
 8    1  0.7048627E-009  0.1304590E+03  0.7561462E-02  0.1226776E+00
          2   -1    0    0  501    0  0.00000000000E+00  0.00000000000E+00  0.44863252594E+03  0.44863252594E+03  0.00000000000E+00 0. -1.
         -2   -1    0    0    0  501 -0.00000000000E+00 -0.00000000000E+00 -0.53934475553E+02  0.53934475553E+02  0.00000000000E+00 0.  1.
         25    2    1    2    0    0  0.49585746559E+02  0.61328588909E+02  0.83071468311E+02  0.16960486771E+03  0.12507997531E+03 0.  0.
         23    2    1    2    0    0 -0.49585746559E+02 -0.61328588909E+02  0.31162658208E+03  0.33296213378E+03  0.86791208058E+02 0.  0.
          5    1    3    3  502    0  0.90216731088E+02  0.40310407498E+02  0.40160545746E+02  0.10674422399E+03  0.41800000000E+01 0.  1.
         -5    1    3    3    0  502 -0.40630984529E+02  0.21018181412E+02  0.42910922565E+02  0.62860643721E+02  0.41800000000E+01 0.  1.
        -11    1    4    4    0    0 -0.53622191331E+02  0.99025091708E+00  0.12061703015E+03  0.13200298467E+03  0.00000000000E+00 0.  1.
         11    1    4    4    0    0  0.40364447726E+01 -0.62318839826E+02  0.19100955193E+03  0.20095914911E+03  0.00000000000E+00 0. -1.
</event>
<event>
 8    1  0.7048627E-009  0.1382381E+03  0.7561462E-02  0.1215720E+00
          1   -1    0    0  501    0  0.00000000000E+00  0.00000000000E+00  0.64684333411E+03  0.64684333411E+03  0.00000000000E+00 0. -1.
         -1   -1    0    0    0  501 -0.00000000000E+00 -0.00000000000E+00 -0.91543197026E+02  0.91543197026E+02  0.00000000000E+00 0.  1.
         25    2    1    2    0    0 -0.73187257998E+01 -0.11716764590E+03  0.56348287414E+03  0.58901817567E+03  0.12509053052E+03 0.  0.
         23    2    1    2    0    0  0.73187257998E+01  0.11716764590E+03 -0.81827370524E+01  0.14936835547E+03  0.91989822465E+02 0.  0.
          5    1    3    3  502    0  0.39511243413E+02 -0.83366995671E+02  0.47050988130E+03  0.47948745044E+03  0.41800000000E+01 0. -1.
         -5    1    3    3    0  502 -0.46829969213E+02 -0.33800650230E+02  0.92972992835E+02  0.10953072523E+03  0.41800000000E+01 0. -1.
        -11    1    4    4    0    0  0.22261384812E+02  0.27813120915E+02 -0.39799276875E+02  0.53414617742E+02  0.00000000000E+00 0.  1.
         11    1    4    4    0    0 -0.14942659012E+02  0.89354524986E+02  0.31616539823E+02  0.95953737729E+02  0.00000000000E+00 0. -1.
</event>
<event>
 8    1  0.7048627E-009  0.1020201E+03  0.7561462E-02  0.1276104E+00
          1   -1    0    0  501    0  0.00000000000E+00  0.00000000000E+00  0.15146490111E+03  0.15146490111E+03  0.00000000000E+00 0. -1.
         -1   -1    0    0    0  501 -0.00000000000E+00 -0.00000000000E+00 -0.10735898367E+03  0.10735898367E+03  0.00000000000E+00 0.  1.
         25    2    1    2    0    0 -0.27283646943E+02 -0.58099607938E+02  0.24741530777E+02  0.14275756874E+03  0.12509044030E+03 0.  0.
         23    2    1    2    0    0  0.27283646943E+02  0.58099607938E+02  0.19364386665E+02  0.11606631604E+03  0.94744120739E+02 0.  0.
          5    1    3    3  502    0  0.40005586860E+02  0.35355805903E+00  0.34502218012E+02  0.52994786829E+02  0.41800000000E+01 0.  1.
         -5    1    3    3    0  502 -0.67289233803E+02 -0.58453165997E+02 -0.97606872351E+01  0.89762781910E+02  0.41800000000E+01 0.  1.
        -11    1    4    4    0    0  0.30596404094E+02  0.20476754897E+02  0.53643043082E+02  0.65061613150E+02  0.00000000000E+00 0. -1.
         11    1    4    4    0    0 -0.33127571514E+01  0.37622853040E+02 -0.34278656417E+02  0.51004702887E+02  0.00000000000E+00 0.  1.
</event>
<event>
 8    1  0.7048627E-009  0.1382165E+03  0.7561462E-02  0.1215749E+00
         -4   -1    0    0    0  501 -0.00000000000E+00  0.00000000000E+00  0.53164734084E+03  0.53164734084E+03  0.00000000000E+00 0. -1.
          4   -1    0    0  501    0  0.00000000000E+00 -0.00000000000E+00 -0.38899055981E+02  0.38899055981E+02  0.00000000000E+00 0.  1.
         25    2    1    2    0    0  0.90768536149E+02  0.20237134841E+02  0.30383434712E+03  0.34148181556E+03  0.12508417600E+03 0.  0.
         23    2    1    2    0    0 -0.90768536149E+02 -0.20237134841E+02  0.18891393774E+03  0.22906458127E+03  0.90186682702E+02 0.  0.
          5    1    3    3  502    0  0.14293319184E+02 -0.44298636389E+02  0.15650402192E+03  0.16333294045E+03  0.41800000000E+01 0.  1.
         -5    1    3    3    0  502  0.76475216965E+02  0.64535771230E+02  0.14733032520E+03  0.17814887511E+03  0.41800000000E+01 0.  1.
        -11    1    4    4    0    0 -0.22345145547E+02  0.35056176303E+02  0.61128760104E+02  0.73925410640E+02  0.00000000000E+00 0. -1.
         11    1    4    4    0    0 -0.68423390602E+02 -0.55293311144E+02  0.12778517764E+03  0.15513917063E+03  0.00000000000E+00 0.  1.
</event>
<event>
 8    1  0.7048627E-009  0.1474432E+03  0.7561462E-02  0.1203650E+00
         -2   -1    0    0    0  501 -0.00000000000E+00  0.00000000000E+00  0.54895553457E+02  0.54895553457E+02  0.00000000000E+00 0. -1.
          2   -1    0    0  501    0  0.00000000000E+00 -0.00000000000E+00 -0.50274439768E+03  0.50274439768E+03  0.00000000000E+00 0.  1.
         25    2    1    2    0    0 -0.10766267640E+03  0.60694821887E+02 -0.28424398295E+03  0.33424067849E+03  0.12508827291E+03 0.  0.
         23    2    1    2    0    0  0.10766267640E+03 -0.60694821887E+02 -0.16360486128E+03  0.22339927265E+03  0.88688054973E+02 0.  0.
          5    1    3    3  502    0  0.10322111938E+02 -0.14283015237E+02 -0.10671230613E+03  0.10823834440E+03  0.41800000000E+01 0.  1.
         -5    1    3    3    0  502 -0.11798478834E+03  0.74977837124E+02 -0.17753167682E+03  0.22600233408E+03  0.41800000000E+01 0.  1.
        -11    1    4    4    0    0  0.69156227903E+02 -0.68821019003E+02 -0.15494459355E+03  0.18310309551E+03  0.00000000000E+00 0.  1.
         11    1    4    4    0    0  0.38506448494E+02  0.81261971156E+01 -0.86602677267E+01  0.40296177143E+02  0.00000000000E+00 0. -1.
</event>
<event>
 8    1  0.7048627E-009  0.1247046E+03  0.7561462E-02  0.1235532E+00
         -2   -1    0    0    0  501 -0.00000000000E+00  0.00000000000E+00  0.28082271216E+02  0.28082271216E+02  0.00000000000E+00 0. -1.
          2   -1    0    0  501    0  0.00000000000E+00 -0.00000000000E+00 -0.69423732088E+03  0.69423732088E+03  0.00000000000E+00 0.  1.
         25    2    1    2    0    0  0.77234624316E+02  0.24961478224E+02 -0.44393102468E+03  0.46830624957E+03  0.12509087150E+03 0.  0.
         23    2    1    2    0    0 -0.77234624316E+02 -0.24961478224E+02 -0.22222402498E+03  0.25401334252E+03  0.92471608124E+02 0.  0.
          5    1    3    3  502    0 -0.22108546830E+02  0.18406837881E+02 -0.23542094645E+03  0.23720896684E+03  0.41800000000E+01 0.  1.
         -5    1    3    3    0  502  0.99343171146E+02  0.65546403423E+01 -0.20851007823E+03  0.23109728273E+03  0.41800000000E+01 0.  1.
        -11    1    4    4    0    0  0.18539655933E+02  0.68626160572E+01 -0.57792394796E+02  0.61080072344E+02  0.00000000000E+00 0.  1.
         11    1    4    4    0    0 -0.95774280249E+02 -0.31824094281E+02 -0.16443163019E+03  0.19293327017E+03  0.00000000000E+00 0. -1.
</event>
<event>
 8    1  0.7048627E-009  0.4080704E+03  0.7561462E-02  0.1041020E+00
          1   -1    0    0  501    0  0.00000000000E+00  0.00000000000E+00  0.12650296584E+04  0.12650296584E+04  0.00000000000E+00 0. -1.
         -1   -1    0    0    0  501 -0.00000000000E+00 -0.00000000000E+00 -0.14178324022E+03  0.14178324022E+03  0.00000000000E+00 0.  1.
         25    2    1    2    0    0 -0.18178811580E+03  0.35176565004E+03  0.73978722375E+03  0.84836164168E+03  0.12508535902E+03 0.  0.
         23    2    1    2    0    0  0.18178811580E+03 -0.35176565004E+03  0.38345919442E+03  0.55845125693E+03  0.89670848027E+02 0.  0.
          5    1    3    3  502    0 -0.19690322945E+03  0.29333806669E+03  0.65480156655E+03  0.74404345780E+03  0.41800000000E+01 0. -1.
         -5    1    3    3    0  502  0.15115113647E+02  0.58427583353E+02  0.84985657203E+02  0.10431818388E+03  0.41800000000E+01 0. -1.
        -11    1    4    4    0    0  0.81283834791E+02 -0.86699509599E+02  0.14889641621E+03  0.19050986726E+03  0.00000000000E+00 0. -1.
         11    1    4    4    0    0  0.10050428101E+03 -0.26506614045E+03  0.23456277820E+03  0.36794138967E+03  0.00000000000E+00 0.  1.
</event>
<event>
 8    1  0.7048627E-009  0.1182248E+03  0.7561462E-02  0.1246055E+00
         -2   -1    0    0    0  501 -0.00000000000E+00  0.00000000000E+00  0.12752923551E+03  0.12752923551E+03  0.00000000000E+00 0.  1.
          2   -1    0    0  501    0  0.00000000000E+00 -0.00000000000E+00 -0.16184233501E+03  0.16184233501E+03  0.00000000000E+00 0. -1.
         25    2    1    2    0    0  0.30784704513E+02  0.79605663111E+02  0.18224187758E+02  0.15252629094E+03  0.12508952305E+03 0.  0.
         23    2    1    2    0    0 -0.30784704513E+02 -0.79605663111E+02 -0.52537287256E+02  0.13684527959E+03  0.93175664000E+02 0.  0.
          5    1    3    3  502    0 -0.12268804045E+02 -0.16056048733E+02 -0.30467555764E+02  0.36797616878E+02  0.41800000000E+01 0.  1.
         -5    1    3    3    0  502  0.43053508558E+02  0.95661711844E+02  0.48691743523E+02  0.11572867406E+03  0.41800000000E+01 0.  1.
        -11    1    4    4    0    0  0.22378797387E+02 -0.14045775634E+02  0.13504495642E+02  0.29672643768E+02  0.00000000000E+00 0.  1.
         11    1    4    4    0    0 -0.53163501900E+02 -0.65559887477E+02 -0.66041782897E+02  0.10717263582E+03  0.00000000000E+00 0. -1.
</event>
<event>
 8    1  0.7048627E-009  0.1119026E+03  0.7561462E-02  0.1257087E+00
          2   -1    0    0  501    0  0.00000000000E+00  0.00000000000E+00  0.48080059579E+03  0.48080059579E+03  0.00000000000E+00 0. -1.
         -2   -1    0    0    0  501 -0.00000000000E+00 -0.00000000000E+00 -0.47719877027E+02  0.47719877027E+02  0.00000000000E+00 0.  1.
         25    2    1    2    0    0 -0.61072338035E+02  0.70517789115E+02  0.15031667957E+03  0.21666357407E+03  0.12508161783E+03 0.  0.
         23    2    1    2    0    0  0.61072338035E+02 -0.70517789115E+02  0.28276403919E+03  0.31185689874E+03  0.92718036960E+02 0.  0.
          5    1    3    3  502    0 -0.74959708531E+02  0.55128628354E+02  0.35122984454E+02  0.99545065192E+02  0.41800000000E+01 0.  1.
         -5    1    3    3    0  502  0.13887370495E+02  0.15389160761E+02  0.11519369512E+03  0.11711850888E+03  0.41800000000E+01 0.  1.
        -11    1    4    4    0    0  0.76217550698E+00 -0.43371344613E+02  0.35961347743E+02  0.56346011186E+02  0.00000000000E+00 0.  1.
         11    1    4    4    0    0  0.60310162529E+02 -0.27146444503E+02  0.24680269145E+03  0.25551088755E+03  0.00000000000E+00 0. -1.
</event>
<event>
 8    1  0.7048627E-009  0.8929966E+02  0.7561462E-02  0.1304557E+00
          2   -1    0    0  501    0  0.00000000000E+00  0.00000000000E+00  0.61214513451E+03  0.61214513451E+03  0.00000000000E+00 0.  1.
         -2   -1    0    0    0  501 -0.00000000000E+00 -0.00000000000E+00 -0.40699861080E+02  0.40699861080E+02  0.00000000000E+00 0. -1.
         25    2    1    2    0    0  0.30014855583E+02 -0.48129399350E+01  0.53716575819E+03  0.55237506146E+03  0.12508837201E+03 0.  0.
         23    2    1    2    0    0 -0.30014855583E+02  0.48129399350E+01  0.34279515247E+02  0.10046993413E+03  0.89415136037E+02 0.  0.
          5    1    3    3  502    0 -0.35995684720E+02 -0.14791408825E+02  0.67959901475E+02  0.78425096123E+02  0.41800000000E+01 0.  1.
         -5    1    3    3    0  502  0.66010540303E+02  0.99784688899E+01  0.46920585671E+03  0.47394996534E+03  0.41800000000E+01 0.  1.
        -11    1    4    4    0    0  0.19750542573E+02 -0.77904746746E+01 -0.17530521408E+02  0.27533517908E+02  0.00000000000E+00 0. -1.
         11    1    4    4    0    0 -0.49765398156E+02  0.12603414610E+02  0.51810036655E+02  0.72936416224E+02  0.00000000000E+00 0.  1.
</event>
<event>
 8    1  0.7048627E-009  0.1497001E+03  0.7561462E-02  0.1200842E+00
          1   -1    0    0  501    0  0.00000000000E+00  0.00000000000E+00  0.65310340123E+02  0.65310340123E+02  0.00000000000E+00 0. -1.
         -1   -1    0    0    0  501 -0.00000000000E+00 -0.00000000000E+00 -0.34913535451E+03  0.34913535451E+03  0.00000000000E+00 0.  1.
         25    2    1    2    0    0  0.73574655100E+02  0.74889613141E+02 -0.14898557004E+03  0.22105617148E+03  0.12508975512E+03 0.  0.
         23    2    1    2    0    0 -0.73574655100E+02 -0.74889613141E+02 -0.13483944435E+03  0.19338952316E+03  0.90532579142E+02 0.  0.
          5    1    3    3  502    0  0.63614367381E+02 -0.20486272771E+02 -0.68490549735E+02  0.95785713509E+02  0.41800000000E+01 0.  1.
         -5    1    3    3    0  502  0.99602877191E+01  0.95375885913E+02 -0.80495020309E+02  0.12527045797E+03  0.41800000000E+01 0.  1.
        -11    1    4    4    0    0  0.14553814129E+01 -0.59927212200E+02 -0.76434678197E+02  0.97137268483E+02  0.00000000000E+00 0.  1.
         11    1    4    4    0    0 -0.75030036513E+02 -0.14962400941E+02 -0.58404766148E+02  0.96252254675E+02  0.00000000000E+00 0. -1.
</event>
<event>
 8    1  0.7048627E-009  0.1342730E+03  0.7561462E-02  0.1221250E+00
          4   -1    0    0  501    0  0.00000000000E+00  0.00000000000E+00  0.92507902941E+02  0.92507902941E+02  0.00000000000E+00 0. -1.
         -4   -1    0    0    0  501 -0.00000000000E+00 -0.00000000000E+00 -0.20630469010E+03  0.20630469010E+03  0.00000000000E+00 0.  1.
         25    2    1    2    0    0  0.72826688648E+02 -0.41847458833E+02 -0.42762133787E+02  0.15662305140E+03  0.12508894337E+03 0.  0.
         23    2    1    2    0    0 -0.72826688648E+02  0.41847458833E+02 -0.71034653374E+02  0.14218954164E+03  0.90094435912E+02 0.  0.
          5    1    3    3  502    0  0.10718709741E+03 -0.24704969153E+02 -0.42499287586E+02  0.11799606433E+03  0.41800000000E+01 0.  1.
         -5    1    3    3    0  502 -0.34360408758E+02 -0.17142489680E+02 -0.26284620193E+00  0.38626987076E+02  0.41800000000E+01 0.  1.
        -11    1    4    4    0    0 -0.46261765384E+02 -0.21602256658E+02 -0.46794646880E+02  0.69257110868E+02  0.00000000000E+00 0. -1.
         11    1    4    4    0    0 -0.26564923264E+02  0.63449715491E+02 -0.24240006494E+02  0.72932430775E+02  0.00000000000E+00 0.  1.
</event>
<event>
 8    1  0.7048627E-009  0.9273576E+02  0.7561462E-02  0.1296359E+00
         -2   -1    0    0    0  501 -0.00000000000E+00  0.00000000000E+00  0.57376602387E+03  0.57376602387E+03  0.00000000000E+00 0.  1.
          2   -1    0    0  501    0  0.00000000000E+00 -0.00000000000E+00 -0.38028519057E+02  0.38028519057E+02  0.00000000000E+00 0. -1.
         25    2    1    2    0    0 -0.14063329086E+02  0.47592341263E+02  0.46605104102E+03  0.48509152728E+03  0.12508960318E+03 0.  0.
         23    2    1    2    0    0  0.14063329086E+02 -0.47592341263E+02  0.69686463789E+02  0.12670301565E+03  0.93459310761E+02 0.  0.
          5    1    3    3  502    0  0.22919047727E+02 -0.21332415643E+02  0.35696063189E+02  0.47665879128E+02  0.41800000000E+01 0. -1.
         -5    1    3    3    0  502 -0.36982376813E+02  0.68924756906E+02  0.43035497784E+03  0.43742564815E+03  0.41800000000E+01 0. -1.
        -11    1    4    4    0    0  0.23693445428E+01 -0.59098693782E+02  0.43138444649E+01  0.59303276927E+02  0.00000000000E+00 0. -1.
         11    1    4    4    0    0  0.11693984543E+02  0.11506352519E+02  0.65372619324E+02  0.67399738724E+02  0.00000000000E+00 0.  1.
</event>
<event>
 8    1  0.7048627E-009  0.1757660E+03  0.7561462E-02  0.1171965E+00
          1   -1    0    0  501    0  0.00000000000E+00  0.00000000000E+00  0.15289340359E+04  0.15289340359E+04  0.00000000000E+00 0. -1.
         -1   -1    0    0    0  501 -0.00000000000E+00 -0.00000000000E+00 -0.33071293172E+02  0.33071293172E+02  0.00000000000E+00 0.  1.
         25    2    1    2    0    0 -0.15426354210E+03  0.29392374452E+00  0.11995808859E+04  0.12159109899E+04  0.12509159296E+03 0.  0.
         23    2    1    2    0    0  0.15426354210E+03 -0.29392374452E+00  0.29628185688E+03  0.34609433927E+03  0.90559517133E+02 0.  0.
          5    1    3    3  502    0 -0.12318692346E+03 -0.52686873032E+02  0.91334664866E+03  0.92313081289E+03  0.41800000000E+01 0. -1.
         -5    1    3    3    0  502 -0.31076618641E+02  0.52980796776E+02  0.28623423724E+03  0.29278017696E+03  0.41800000000E+01 0. -1.
        -11    1    4    4    0    0  0.87912763527E+02  0.11060594982E+02  0.79296548579E+02  0.11890724691E+03  0.00000000000E+00 0.  1.
         11    1    4    4    0    0  0.66350778574E+02 -0.11354518727E+02  0.21698530830E+03  0.22718709235E+03  0.00000000000E+00 0. -1.
</event>
<event>
 8    1  0.7048627E-009  0.1114983E+03  0.7561462E-02  0.1257820E+00
          2   -1    0    0  501    0  0.00000000000E+00  0.00000000000E+00  0.53751650543E+03  0.53751650543E+03  0.00000000000E+00 0. -1.
         -2   -1    0    0    0  501 -0.00000000000E+00 -0.00000000000E+00 -0.24450459356E+02  0.24450459356E+02  0.00000000000E+00 0.  1.
         25    2    1    2    0    0  0.37597044385E+02 -0.12419721508E+01  0.30185681297E+03  0.32890681292E+03  0.12508827208E+03 0.  0.
         23    2    1    2    0    0 -0.37597044385E+02  0.12419721508E+01  0.21120923310E+03  0.23306015186E+03  0.91063790801E+02 0.  0.
          5    1    3    3  502    0 -0.23657183398E+02 -0.45875581250E+02  0.89636243216E+02  0.10351985210E+03  0.41800000000E+01 0. -1.
         -5    1    3    3    0  502  0.61254227783E+02  0.44633609100E+02  0.21222056975E+03  0.22538696082E+03  0.41800000000E+01 0. -1.
        -11    1    4    4    0    0  0.22373418562E+02  0.22450532540E+02  0.10047948486E+03  0.10535996938E+03  0.00000000000E+00 0. -1.
         11    1    4    4    0    0 -0.59970462947E+02 -0.21208560389E+02  0.11072974824E+03  0.12770018248E+03  0.00000000000E+00 0.  1.
</event>
<event>
 8    1  0.7048627E-009  0.1639418E+03  0.7561462E-02  0.1184317E+00
         -2   -1    0    0    0  501 -0.00000000000E+00  0.00000000000E+00  0.54763865309E+02  0.54763865309E+02  0.00000000000E+00 0.  1.
          2   -1    0    0  501    0  0.00000000000E+00 -0.00000000000E+00 -0.69111956927E+03  0.69111956927E+03  0.00000000000E+00 0. -1.
         25    2    1    2    0    0 -0.12820530349E+03  0.14701461152E+02 -0.51834577954E+03  0.54861862518E+03  0.12508923182E+03 0.  0.
         23    2    1    2    0    0  0.12820530349E+03 -0.14701461152E+02 -0.11800992441E+03  0.19726480940E+03  0.91292551528E+02 0.  0.
          5    1    3    3  502    0 -0.10808731116E+02 -0.41827678747E+02 -0.76643817992E+02  0.88080250988E+02  0.41800000000E+01 0. -1.
         -5    1    3    3    0  502 -0.11739657237E+03  0.56529139900E+02 -0.44170196155E+03  0.46053837419E+03  0.41800000000E+01 0. -1.
        -11    1    4    4    0    0  0.24313514125E+02  0.32017160271E+02 -0.51581365302E+02  0.65397880449E+02  0.00000000000E+00 0. -1.
         11    1    4    4    0    0  0.10389178936E+03 -0.46718621423E+02 -0.66428559113E+02  0.13186692895E+03  0.00000000000E+00 0.  1.
</event>
<event>
 8    1  0.7048627E-009  0.1372602E+03  0.7561462E-02  0.1217064E+00
          2   -1    0    0  501    0  0.00000000000E+00  0.00000000000E+00  0.11668548104E+03  0.11668548104E+03  0.00000000000E+00 0. -1.
         -2   -1    0    0    0  501 -0.00000000000E+00 -0.00000000000E+00 -0.20158725352E+03  0.20158725352E+03  0.00000000000E+00 0.  1.
         25    2    1    2    0    0  0.90151844145E+02 -0.51577210129E+02 -0.16295053661E+02  0.16340268663E+03  0.12508935054E+03 0.  0.
         23    2    1    2    0    0 -0.90151844145E+02  0.51577210129E+02 -0.68606718817E+02  0.15487004793E+03  0.92142749422E+02 0.  0.
          5    1    3    3  502    0 -0.48444102571E+01 -0.65221976909E+02 -0.15473363588E+02  0.67337002928E+02  0.41800000000E+01 0. -1.
         -5    1    3    3    0  502  0.94996254402E+02  0.13644766780E+02 -0.82169007255E+00  0.96065683703E+02  0.41800000000E+01 0. -1.
        -11    1    4    4    0    0 -0.36562573988E+02 -0.26825135290E+01 -0.69529092553E+02  0.78602241741E+02  0.00000000000E+00 0.  1.
         11    1    4    4    0    0 -0.53589270156E+02  0.54259723658E+02  0.92237373561E+00  0.76267806187E+02  0.00000000000E+00 0. -1.
</event>
<event>
 8    1  0.7048627E-009  0.1607257E+03  0.7561462E-02  0.1187880E+00
          1   -1    0    0  501    0  0.00000000000E+00  0.00000000000E+00  0.67007348045E+03  0.67007348045E+03  0.00000000000E+00 0. -1.
         -1   -1    0    0    0  501 -0.00000000000E+00 -0.00000000000E+00 -0.45455762089E+02  0.45455762089E+02  0.00000000000E+00 0.  1.
         25    2    1    2    0    0  0.10796501536E+03 -0.55361704472E+02  0.44697068575E+03  0.47974248144E+03  0.12509473100E+03 0.  0.
         23    2    1    2    0    0 -0.10796501536E+03  0.55361704472E+02  0.17764703261E+03  0.23578676109E+03  0.96517177992E+02 0.  0.
          5    1    3    3  502    0 -0.23985563032E+02 -0.17199217928E+02  0.37975232013E+02  0.48277437564E+02  0.41800000000E+01 0.  1.
         -5    1    3    3    0  502  0.13195057839E+03 -0.38162486544E+02  0.40899545373E+03  0.43146504388E+03  0.41800000000E+01 0.  1.
        -11    1    4    4    0    0 -0.75200604441E+02  0.82533117581E+02  0.11736797888E+03  0.16199410135E+03  0.00000000000E+00 0. -1.
         11    1    4    4    0    0 -0.32764410916E+02 -0.27171413109E+02  0.60279053732E+02  0.73792659742E+02  0.00000000000E+00 0.  1.
</event>
<event>
 8    1  0.7048627E-009  0.1270190E+03  0.7561462E-02  0.1231947E+00
         -1   -1    0    0    0  501 -0.00000000000E+00  0.00000000000E+00  0.90178364403E+02  0.90178364403E+02  0.00000000000E+00 0.  1.
          1   -1    0    0  501    0  0.00000000000E+00 -0.00000000000E+00 -0.30043433726E+03  0.30043433726E+03  0.00000000000E+00 0. -1.
         25    2    1    2    0    0  0.10878154330E+03 -0.26618998725E+02 -0.17498077062E+03  0.24250448313E+03  0.12509260167E+03 0.  0.
         23    2    1    2    0    0 -0.10878154330E+03  0.26618998725E+02 -0.35275202229E+02  0.14810821853E+03  0.90275740090E+02 0.  0.
          5    1    3    3  502    0  0.42941110280E+02  0.16034789030E+02 -0.15465228421E+03  0.16135629775E+03  0.41800000000E+01 0. -1.
         -5    1    3    3    0  502  0.65840433020E+02 -0.42653787754E+02 -0.20328486410E+02  0.81148185376E+02  0.41800000000E+01 0. -1.
        -11    1    4    4    0    0 -0.59444821800E+02 -0.18844274410E+02  0.15158631782E+02  0.64176145368E+02  0.00000000000E+00 0.  1.
         11    1    4    4    0    0 -0.49336721500E+02  0.45463273135E+02 -0.50433834011E+02  0.83932073164E+02  0.00000000000E+00 0. -1.
</event>
<event>
 8    1  0.7048627E-009  0.2640936E+03  0.7561462E-02  0.1104708E+00
          2   -1    0    0  501    0  0.00000000000E+00  0.00000000000E+00  0.77876893043E+03  0.77876893043E+03  0.00000000000E+00 0.  1.
         -2   -1    0    0    0  501 -0.00000000000E+00 -0.00000000000E+00 -0.97103222071E+02  0.97103222071E+02  0.00000000000E+00 0. -1.
         25    2    1    2    0    0  0.68950372052E+01  0.25225865987E+03  0.34180249233E+03  0.44289915056E+03  0.12509492710E+03 0.  0.
         23    2    1    2    0    0 -0.68950372052E+01 -0.25225865987E+03  0.33986321603E+03  0.43297300194E+03  0.90976050599E+02 0.  0.
          5    1    3    3  502    0  0.53261824986E+02  0.73536646046E+02  0.72081423522E+02  0.11600717361E+03  0.41800000000E+01 0.  1.
         -5    1    3    3    0  502 -0.46366787781E+02  0.17872201382E+03  0.26972106880E+03  0.32689197695E+03  0.41800000000E+01 0.  1.
        -11    1    4    4    0    0  0.64238689170E+00 -0.17035719373E+03  0.29130192687E+03  0.33745932897E+03  0.00000000000E+00 0.  1.
         11    1    4    4    0    0 -0.75374240969E+01 -0.81901466144E+02  0.48561289162E+02  0.95513672967E+02  0.00000000000E+00 0. -1.
</event>
<event>
 8    1  0.7048627E-009  0.8147344E+02  0.7561462E-02  0.1324921E+00
          2   -1    0    0  501    0  0.00000000000E+00  0.00000000000E+00  0.10365741098E+03  0.10365741098E+03  0.00000000000E+00 0. -1.
         -2   -1    0    0    0  501 -0.00000000000E+00 -0.00000000000E+00 -0.12625964284E+03  0.12625964284E+03  0.00000000000E+00 0.  1.
         25    2    1    2    0    0 -0.13632151296E+02 -0.17179340197E+02 -0.42829703346E+02  0.13402322675E+03  0.12508747555E+03 0.  0.
         23    2    1    2    0    0  0.13632151296E+02  0.17179340197E+02  0.20227471494E+02  0.95893827076E+02  0.91134571869E+02 0.  0.
          5    1    3    3  502    0  0.35687727571E+02 -0.25095273934E+02  0.24401386134E+02  0.50162602786E+02  0.41800000000E+01 0.  1.
         -5    1    3    3    0  502 -0.49319878866E+02  0.79159337375E+01 -0.67231089480E+02  0.83860623960E+02  0.41800000000E+01 0.  1.
        -11    1    4    4    0    0  0.40193676152E+02  0.88472537916E+01  0.43299224088E+02  0.59737997195E+02  0.00000000000E+00 0. -1.
         11    1    4    4    0    0 -0.26561524856E+02  0.83320864050E+01 -0.23071752594E+02  0.36155829880E+02  0.00000000000E+00 0.  1.
</event>
<event>
 8    1  0.7048627E-009  0.8734605E+02  0.7561462E-02  0.1309409E+00
         -1   -1    0    0    0  501 -0.00000000000E+00  0.00000000000E+00  0.97714399306E+02  0.97714399306E+02  0.00000000000E+00 0. -1.
          1   -1    0    0  501    0  0.00000000000E+00 -0.00000000000E+00 -0.15582651514E+03  0.15582651514E+03  0.00000000000E+00 0.  1.
         25    2    1    2    0    0  0.20014335555E+02 -0.51235534105E+02 -0.12463970185E+02  0.13722636434E+03  0.12510024354E+03 0.  0.
         23    2    1    2    0    0 -0.20014335555E+02  0.51235534105E+02 -0.45648145647E+02  0.11631455011E+03  0.91758747718E+02 0.  0.
          5    1    3    3  502    0 -0.59286658990E+01  0.27777114521E+01 -0.60077684177E+02  0.60577762391E+02  0.41800000000E+01 0. -1.
         -5    1    3    3    0  502  0.25943001454E+02 -0.54013245557E+02  0.47613713992E+02  0.76648601945E+02  0.41800000000E+01 0. -1.
        -11    1    4    4    0    0  0.11280270486E+02  0.69643521004E+02 -0.32779172628E+02  0.77794207228E+02  0.00000000000E+00 0.  1.
         11    1    4    4    0    0 -0.31294606041E+02 -0.18407986899E+02 -0.12868973019E+02  0.38520342878E+02  0.00000000000E+00 0. -1.
</event>
<event>
 8    1  0.7048627E-009  0.1215326E+03  0.7561462E-02  0.1240590E+00
          1   -1    0    0  501    0  0.00000000000E+00  0.00000000000E+00  0.37039844928E+03  0.37039844928E+03  0.00000000000E+00 0. -1.
         -1   -1    0    0    0  501 -0.00000000000E+00 -0.00000000000E+00 -0.74770225629E+02  0.74770225629E+02  0.00000000000E+00 0.  1.
         25    2    1    2    0    0  0.74956206631E+02 -0.94311426482E+02  0.10719730942E+03  0.20408763667E+03  0.12508965672E+03 0.  0.
         23    2    1    2    0    0 -0.74956206631E+02  0.94311426482E+02  0.18843091424E+03  0.24108103824E+03  0.90004330339E+02 0.  0.
          5    1    3    3  502    0  0.66172805600E+02 -0.76115347733E+02  0.13555882385E+03  0.16901495048E+03  0.41800000000E+01 0.  1.
         -5    1    3    3    0  502  0.87834010307E+01 -0.18196078749E+02 -0.28361514438E+02  0.35072686192E+02  0.41800000000E+01 0.  1.
        -11    1    4    4    0    0 -0.52321837480E+02  0.76519315835E+02  0.62255193819E+02  0.11166239085E+03  0.00000000000E+00 0.  1.
         11    1    4    4    0    0 -0.22634369151E+02  0.17792110647E+02  0.12617572042E+03  0.12941864739E+03  0.00000000000E+00 0. -1.
</event>
<event>
 8    1  0.7048627E-009  0.2538588E+03  0.7561462E-02  0.1110890E+00
         -1   -1    0    0    0  501 -0.00000000000E+00  0.00000000000E+00  0.11342650642E+03  0.11342650642E+03  0.00000000000E+00 0.  1.
          1   -1    0    0  501    0  0.00000000000E+00 -0.00000000000E+00 -0.58328506443E+03  0.58328506443E+03  0.00000000000E+00 0. -1.
         25    2    1    2    0    0 -0.22329626166E+03 -0.64405398810E+02 -0.23500747023E+03  0.35339127238E+03  0.12509038516E+03 0.  0.
         23    2    1    2    0    0  0.22329626166E+03  0.64405398810E+02 -0.23485108777E+03  0.34332029848E+03  0.93298006674E+02 0.  0.
          5    1    3    3  502    0 -0.20821358329E+03 -0.13314989058E+02 -0.20285929279E+03  0.29103187157E+03  0.41800000000E+01 0. -1.
         -5    1    3    3    0  502 -0.15082678369E+02 -0.51090409752E+02 -0.32148177446E+02  0.62359400803E+02  0.41800000000E+01 0. -1.
        -11    1    4    4    0    0  0.12688819629E+03 -0.47166836245E+01 -0.15477835515E+03  0.20019790380E+03  0.00000000000E+00 0. -1.
         11    1    4    4    0    0  0.96408065372E+02  0.69122082434E+02 -0.80072732627E+02  0.14312239468E+03  0.00000000000E+00 0.  1.
</event>
<event>
 8    1  0.7048627E-009  0.1849248E+03  0.7561462E-02  0.1163120E+00
          2   -1    0    0  501    0  0.00000000000E+00  0.00000000000E+00  0.20487927084E+03  0.20487927084E+03  0.00000000000E+00 0. -1.
         -2   -1    0    0    0  501 -0.00000000000E+00 -0.00000000000E+00 -0.23961385318E+03  0.23961385318E+03  0.00000000000E+00 0.  1.
         25    2    1    2    0    0  0.84114929799E+02 -0.14252881868E+03 -0.11686494641E+03  0.23810484526E+03  0.12508683410E+03 0.  0.
         23    2    1    2    0    0 -0.84114929799E+02  0.14252881868E+03  0.82130364069E+02  0.20638827876E+03  0.91983364468E+02 0.  0.
          5    1    3    3  502    0  0.81363680155E+02 -0.24232480116E+02 -0.26098328911E+02  0.88914884653E+02  0.41800000000E+01 0. -1.
         -5    1    3    3    0  502  0.27512496435E+01 -0.11829633857E+03 -0.90766617495E+02  0.14918996060E+03  0.41800000000E+01 0. -1.
        -11    1    4    4    0    0 -0.22219994738E+02  0.23831530431E+02 -0.19804872099E+02  0.38130079566E+02  0.00000000000E+00 0.  1.
         11    1    4    4    0    0 -0.61894935061E+02  0.11869728825E+03  0.10193523617E+03  0.16825819920E+03  0.00000000000E+00 0. -1.
</event>
<event>
 8    1  0.7048627E-009  0.1073195E+03  0.7561462E-02  0.1265616E+00
         -2   -1    0    0    0  501 -0.00000000000E+00  0.00000000000E+00  0.26128722408E+02  0.26128722408E+02  0.00000000000E+00 0.  1.
          2   -1    0    0  501    0  0.00000000000E+00 -0.00000000000E+00 -0.59373971049E+03  0.59373971049E+03  0.00000000000E+00 0. -1.
         25    2    1    2    0    0 -0.58709360113E+01 -0.61037216957E+02 -0.30811449673E+03  0.33814587368E+03  0.12509228213E+03 0.  0.
         23    2    1    2    0    0  0.58709360113E+01  0.61037216957E+02 -0.25949649135E+03  0.28172255922E+03  0.90934930609E+02 0.  0.
          5    1    3    3  502    0  0.40118930897E+02 -0.23593040842E+02 -0.25232745874E+03  0.25661796318E+03  0.41800000000E+01 0.  1.
         -5    1    3    3    0  502 -0.45989866908E+02 -0.37444176115E+02 -0.55787037994E+02  0.81527910505E+02  0.41800000000E+01 0.  1.
        -11    1    4    4    0    0 -0.41380075871E+02  0.36684047020E+02 -0.11130215176E+03  0.12428273802E+03  0.00000000000E+00 0. -1.
         11    1    4    4    0    0  0.47251011882E+02  0.24353169938E+02 -0.14819433959E+03  0.15743982119E+03  0.00000000000E+00 0.  1.
</event>
<event>
 8    1  0.7048627E-009  0.1480333E+03  0.7561462E-02  0.1202911E+00
         -1   -1    0    0    0  501 -0.00000000000E+00  0.00000000000E+00  0.10494750851E+03  0.10494750851E+03  0.00000000000E+00 0.  1.
          1   -1    0    0  501    0  0.00000000000E+00 -0.00000000000E+00 -0.43275975016E+03  0.43275975016E+03  0.00000000000E+00 0. -1.
         25    2    1    2    0    0  0.14071504934E+03  0.22227632848E+02 -0.31531637356E+03  0.36792209506E+03  0.12508980704E+03 0.  0.
         23    2    1    2    0    0 -0.14071504934E+03 -0.22227632848E+02 -0.12495868088E+02  0.16978516360E+03  0.91520829806E+02 0.  0.
          5    1    3    3  502    0  0.86336670325E+02  0.37781308209E+02 -0.73620605624E+02  0.11966166414E+03  0.41800000000E+01 0. -1.
         -5    1    3    3    0  502  0.54378379013E+02 -0.15553675361E+02 -0.24169576794E+03  0.24826043092E+03  0.41800000000E+01 0. -1.
        -11    1    4    4    0    0 -0.27961321112E+02 -0.15721087320E+02  0.34810522776E+02  0.47336672473E+02  0.00000000000E+00 0.  1.
         11    1    4    4    0    0 -0.11275372823E+03 -0.65065455277E+01 -0.47306390864E+02  0.12244849113E+03  0.00000000000E+00 0. -1.
</event>
<event>
 8    1  0.7048627E-009  0.1105153E+03  0.7561462E-02  0.1259619E+00
          1   -1    0    0  501    0  0.00000000000E+00  0.00000000000E+00  0.10181163824E+03  0.10181163824E+03  0.00000000000E+00 0. -1.
         -1   -1    0    0    0  501 -0.00000000000E+00 -0.00000000000E+00 -0.19448553381E+03  0.19448553381E+03  0.00000000000E+00 0.  1.
         25    2    1    2    0    0  0.82604461751E+02  0.18702854861E+02 -0.57393396352E+02  0.16160268723E+03  0.12509249656E+03 0.  0.
         23    2    1    2    0    0 -0.82604461751E+02 -0.18702854861E+02 -0.35280499215E+02  0.13469448481E+03  0.98613369948E+02 0.  0.
          5    1    3    3  502    0  0.21209038545E+01 -0.52937611073E+01  0.35561177382E+02  0.36257301011E+02  0.41800000000E+01 0.  1.
         -5    1    3    3    0  502  0.80483557896E+02  0.23996615968E+02 -0.92954573734E+02  0.12534538622E+03  0.41800000000E+01 0.  1.
        -11    1    4    4    0    0 -0.30052998563E+02 -0.57276693455E+02 -0.20472279466E+02  0.67844797607E+02  0.00000000000E+00 0.  1.
         11    1    4    4    0    0 -0.52551463188E+02  0.38573838595E+02 -0.14808219749E+02  0.66849687204E+02  0.00000000000E+00 0. -1.
</event>
<event>
 8    1  0.7048627E-009  0.1002316E+03  0.7561462E-02  0.1279810E+00
         -1   -1    0    0    0  501 -0.00000000000E+00  0.00000000000E+00  0.21668452968E+03  0.21668452968E+03  0.00000000000E+00 0.  1.
          1   -1    0    0  501    0  0.00000000000E+00 -0.00000000000E+00 -0.70734872091E+02  0.70734872091E+02  0.00000000000E+00 0. -1.
         25    2    1    2    0    0  0.23304992942E+02  0.48912932263E+02  0.56851796160E+02  0.14770119326E+03  0.12509163891E+03 0.  0.
         23    2    1    2    0    0 -0.23304992942E+02 -0.48912932263E+02  0.89097861427E+02  0.13971820851E+03  0.92990059899E+02 0.  0.
          5    1    3    3  502    0  0.45562526035E+01  0.84155251449E+02  0.65283516578E+02  0.10668774869E+03  0.41800000000E+01 0. -1.
         -5    1    3    3    0  502  0.18748740338E+02 -0.35242319186E+02 -0.84317204187E+01  0.41013444565E+02  0.41800000000E+01 0. -1.
        -11    1    4    4    0    0  0.22088521310E+01 -0.50341526375E+02  0.36396708240E+01  0.50521238200E+02  0.00000000000E+00 0. -1.
         11    1    4    4    0    0 -0.25513845073E+02  0.14285941120E+01  0.85458190603E+02  0.89196970311E+02  0.00000000000E+00 0.  1.
</event>
<event>
 8    1  0.7048627E-009  0.1054559E+03  0.7561462E-02  0.1269224E+00
         -2   -1    0    0    0  501 -0.00000000000E+00  0.00000000000E+00  0.43480054855E+03  0.43480054855E+03  0.00000000000E+00 0.  1.
          2   -1    0    0  501    0  0.00000000000E+00 -0.00000000000E+00 -0.29468674693E+02  0.29468674693E+02  0.00000000000E+00 0. -1.
         25    2    1    2    0    0 -0.24369524577E+02  0.22060753288E+02  0.22576193100E+03  0.26018712892E+03  0.12509333318E+03 0.  0.
         23    2    1    2    0    0  0.24369524577E+02 -0.22060753288E+02  0.17956994286E+03  0.20408209432E+03  0.91233690485E+02 0.  0.
          5    1    3    3  502    0  0.25101780497E+02 -0.32404590276E+02  0.14550447288E+03  0.15122559599E+03  0.41800000000E+01 0. -1.
         -5    1    3    3    0  502 -0.49471305074E+02  0.54465343564E+02  0.80257458117E+02  0.10896153293E+03  0.41800000000E+01 0. -1.
        -11    1    4    4    0    0  0.14024044132E+02 -0.57452331396E+02  0.96233826147E+02  0.11295305880E+03  0.00000000000E+00 0. -1.
         11    1    4    4    0    0  0.10345480445E+02  0.35391578108E+02  0.83336116716E+02  0.91129035526E+02  0.00000000000E+00 0.  1.
</event>
<event>
 8    1  0.7048627E-009  0.1396597E+03  0.7561462E-02  0.1213788E+00
          2   -1    0    0  501    0  0.00000000000E+00  0.00000000000E+00  0.51364299250E+02  0.51364299250E+02  0.00000000000E+00 0.  1.
         -2   -1    0    0    0  501 -0.00000000000E+00 -0.00000000000E+00 -0.40968274364E+03  0.40968274364E+03  0.00000000000E+00 0. -1.
         25    2    1    2    0    0 -0.29006149732E+01  0.95189096405E+02 -0.17475581589E+03  0.23506521607E+03  0.12508670185E+03 0.  0.
         23    2    1    2    0    0  0.29006149732E+01 -0.95189096405E+02 -0.18356262850E+03  0.22598182681E+03  0.91121730807E+02 0.  0.
          5    1    3    3  502    0 -0.25773044290E+02  0.11542517269E+03 -0.16436835656E+03  0.20253801949E+03  0.41800000000E+01 0.  1.
         -5    1    3    3    0  502  0.22872429317E+02 -0.20236076284E+02 -0.10387459327E+02  0.32527196582E+02  0.41800000000E+01 0.  1.
        -11    1    4    4    0    0  0.41003218966E+02 -0.78485775255E+02 -0.14072214368E+03  0.16626485679E+03  0.00000000000E+00 0.  1.
         11    1    4    4    0    0 -0.38102603992E+02 -0.16703321150E+02 -0.42840484826E+02  0.59716970021E+02  0.00000000000E+00 0. -1.
</event>
<event>
 8    1  0.7048627E-009  0.2162614E+03  0.7561462E-02  0.1136701E+00
          1   -1    0    0  501    0  0.00000000000E+00  0.00000000000E+00  0.19293328095E+03  0.19293328095E+03  0.00000000000E+00 0. -1.
         -1   -1    0    0    0  501 -0.00000000000E+00 -0.00000000000E+00 -0.25137627174E+03  0.25137627174E+03  0.00000000000E+00 0.  1.
         25    2    1    2    0    0  0.18024825686E+03  0.62961320343E+02 -0.23019982476E+02  0.22941610181E+03  0.12509303024E+03 0.  0.
         23    2    1    2    0    0 -0.18024825686E+03 -0.62961320343E+02 -0.35423008310E+02  0.21489345088E+03  0.92037186786E+02 0.  0.
          5    1    3    3  502    0 -0.18195829566E+02 -0.13601560166E+01 -0.75799655610E+01  0.20195705382E+02  0.41800000000E+01 0. -1.
         -5    1    3    3    0  502  0.19844408643E+03  0.64321476360E+02 -0.15440016915E+02  0.20922039643E+03  0.41800000000E+01 0. -1.
        -11    1    4    4    0    0 -0.89919461731E+02 -0.70854142533E+02 -0.46464506670E+02  0.12355067581E+03  0.00000000000E+00 0.  1.
         11    1    4    4    0    0 -0.90328795130E+02  0.78928221892E+01  0.11041498359E+02  0.91342775071E+02  0.00000000000E+00 0. -1.
</event>
<event>
 8    1  0.7048627E-009  0.9043784E+02  0.7561462E-02  0.1301795E+00
         -2   -1    0    0    0  501 -0.00000000000E+00  0.00000000000E+00  0.26230112044E+03  0.26230112044E+03  0.00000000000E+00 0. -1.
          2   -1    0    0  501    0  0.00000000000E+00 -0.00000000000E+00 -0.47422863644E+02  0.47422863644E+02  0.00000000000E+00 0.  1.
         25    2    1    2    0    0  0.22697908118E+02  0.91381020753E+01  0.13394207431E+03  0.18488907620E+03  0.12507914009E+03 0.  0.
         23    2    1    2    0    0 -0.22697908118E+02 -0.91381020753E+01  0.80936182481E+02  0.12483490788E+03  0.91838927740E+02 0.  0.
          5    1    3    3  502    0  0.58267750117E+02 -0.21102220147E+02  0.26237075411E+02  0.67426188717E+02  0.41800000000E+01 0. -1.
         -5    1    3    3    0  502 -0.35569841998E+02  0.30240322223E+02  0.10770499890E+03  0.11746288748E+03  0.41800000000E+01 0. -1.
        -11    1    4    4    0    0 -0.46968837621E+02 -0.74966608658E+01  0.87541041399E+02  0.99627835272E+02  0.00000000000E+00 0. -1.
         11    1    4    4    0    0  0.24270929503E+02 -0.16414412095E+01 -0.66048589180E+01  0.25207072609E+02  0.00000000000E+00 0.  1.
</event>
<event>
 8    1  0.7048627E-009  0.1075417E+03  0.7561462E-02  0.1265191E+00
         -2   -1    0    0    0  501 -0.00000000000E+00  0.00000000000E+00  0.11157360450E+03  0.11157360450E+03  0.00000000000E+00 0. -1.
          2   -1    0    0  501    0  0.00000000000E+00 -0.00000000000E+00 -0.15562918232E+03  0.15562918232E+03  0.00000000000E+00 0.  1.
         25    2    1    2    0    0  0.26612720107E+02 -0.56805069211E+02 -0.68070077498E+02  0.15561425454E+03  0.12508880048E+03 0.  0.
         23    2    1    2    0    0 -0.26612720107E+02  0.56805069211E+02  0.24014499687E+02  0.11158853228E+03  0.89108089321E+02 0.  0.
          5    1    3    3  502    0  0.70144010912E+02 -0.59147109721E+02 -0.27399014501E+02  0.95847489539E+02  0.41800000000E+01 0. -1.
         -5    1    3    3    0  502 -0.43531290805E+02  0.23420405106E+01 -0.40671062997E+02  0.59766764997E+02  0.41800000000E+01 0. -1.
        -11    1    4    4    0    0  0.14134765596E+02  0.96232697664E+01 -0.26372077844E+02  0.31430644430E+02  0.00000000000E+00 0.  1.
         11    1    4    4    0    0 -0.40747485703E+02  0.47181799444E+02  0.50386577531E+02  0.80157887854E+02  0.00000000000E+00 0. -1.
</event>
<event>
 8    1  0.7048627E-009  0.6562888E+02  0.7561462E-02  0.1375621E+00
         -1   -1    0    0    0  501 -0.00000000000E+00  0.00000000000E+00  0.25732164137E+03  0.25732164137E+03  0.00000000000E+00 0. -1.
          1   -1    0    0  501    0  0.00000000000E+00 -0.00000000000E+00 -0.44432550417E+02  0.44432550417E+02  0.00000000000E+00 0.  1.
         25    2    1    2    0    0 -0.97516249538E+01  0.12809075265E+02  0.12062610018E+03  0.17452107376E+03  0.12509109697E+03 0.  0.
         23    2    1    2    0    0  0.97516249538E+01 -0.12809075265E+02  0.92262990771E+02  0.12723311803E+03  0.86119917905E+02 0.  0.
          5    1    3    3  502    0 -0.46386446720E+02 -0.16469863264E+02  0.11734965909E+03  0.12732389298E+03  0.41800000000E+01 0.  1.
         -5    1    3    3    0  502  0.36634821766E+02  0.29278938529E+02  0.32764410973E+01  0.47197180779E+02  0.41800000000E+01 0.  1.
        -11    1    4    4    0    0  0.86915741603E+01  0.92479388355E+01 -0.13885756965E+02  0.18811753788E+02  0.00000000000E+00 0.  1.
         11    1    4    4    0    0  0.10600507935E+01 -0.22057014101E+02  0.10614874774E+03  0.10842136424E+03  0.00000000000E+00 0. -1.
</event>
<event>
 8    1  0.7048627E-009  0.1276076E+03  0.7561462E-02  0.1231049E+00
          2   -1    0    0  501    0  0.00000000000E+00  0.00000000000E+00  0.84258838353E+03  0.84258838353E+03  0.00000000000E+00 0. -1.
         -2   -1    0    0    0  501 -0.00000000000E+00 -0.00000000000E+00 -0.21034099231E+02  0.21034099231E+02  0.00000000000E+00 0.  1.
         25    2    1    2    0    0  0.39915498581E+02  0.64386936213E+02  0.50130515477E+03  0.52220042169E+03  0.12508995815E+03 0.  0.
         23    2    1    2    0    0 -0.39915498581E+02 -0.64386936213E+02  0.32024912953E+03  0.34142206108E+03  0.90942807527E+02 0.  0.
          5    1    3    3  502    0  0.52997546912E+02 -0.17693302736E+02  0.28464408616E+03  0.29010605152E+03  0.41800000000E+01 0.  1.
         -5    1    3    3    0  502 -0.13082048331E+02  0.82080238949E+02  0.21666106861E+03  0.23209437017E+03  0.41800000000E+01 0.  1.
        -11    1    4    4    0    0 -0.24318031925E+02 -0.85965703332E+02  0.27223763588E+03  0.28652190006E+03  0.00000000000E+00 0. -1.
         11    1    4    4    0    0 -0.15597466656E+02  0.21578767120E+02  0.48011493655E+02  0.54900161015E+02  0.00000000000E+00 0.  1.
</event>
<event>
 8    1  0.7048627E-009  0.1287495E+03  0.7561462E-02  0.1229323E+00
         -2   -1    0    0    0  501 -0.00000000000E+00  0.00000000000E+00  0.26876034260E+02  0.26876034260E+02  0.00000000000E+00 0.  1.
          2   -1    0    0  501    0  0.00000000000E+00 -0.00000000000E+00 -0.92892981836E+03  0.92892981836E+03  0.00000000000E+00 0. -1.
         25    2    1    2    0    0 -0.10431140066E+03 -0.33237735834E+02 -0.58498494659E+03  0.60814511744E+03  0.12508989062E+03 0.  0.
         23    2    1    2    0    0  0.10431140066E+03  0.33237735834E+02 -0.31706883751E+03  0.34766073518E+03  0.91376822415E+02 0.  0.
          5    1    3    3  502    0 -0.62475026206E+02 -0.21293107072E+01 -0.52430765993E+03  0.52803755314E+03  0.41800000000E+01 0.  1.
         -5    1    3    3    0  502 -0.41836374458E+02 -0.31108425127E+02 -0.60677286661E+02  0.80107564301E+02  0.41800000000E+01 0.  1.
        -11    1    4    4    0    0  0.10380000093E+03 -0.53663748592E+01 -0.23546247746E+03  0.25738262658E+03  0.00000000000E+00 0.  1.
         11    1    4    4    0    0  0.51139972988E+00  0.38604110694E+02 -0.81606360042E+02  0.90278108595E+02  0.00000000000E+00 0. -1.
</event>
<event>
 8    1  0.7048627E-009  0.9900674E+02  0.7561462E-02  0.1282399E+00
         -1   -1    0    0    0  501 -0.00000000000E+00  0.00000000000E+00  0.77098229779E+02  0.77098229779E+02  0.00000000000E+00 0.  1.
          1   -1    0    0  501    0  0.00000000000E+00 -0.00000000000E+00 -0.28428796313E+03  0.28428796313E+03  0.00000000000E+00 0. -1.
         25    2    1    2    0    0  0.63211838693E+02 -0.31588065359E+02 -0.19900205401E+03  0.24544477904E+03  0.12509108535E+03 0.  0.
         23    2    1    2    0    0 -0.63211838693E+02  0.31588065359E+02 -0.81876793356E+01  0.11594141386E+03  0.91552339847E+02 0.  0.
          5    1    3    3  502    0  0.82115809497E+02  0.39815521576E+01 -0.63338627304E+02  0.10386584152E+03  0.41800000000E+01 0.  1.
         -5    1    3    3    0  502 -0.18903970804E+02 -0.35569617516E+02 -0.13566342671E+03  0.14157893752E+03  0.41800000000E+01 0.  1.
        -11    1    4    4    0    0 -0.18247502092E+02 -0.29698181761E+01 -0.44782827621E+02  0.48448867916E+02  0.00000000000E+00 0. -1.
         11    1    4    4    0    0 -0.44964336601E+02  0.34557883535E+02  0.36595148285E+02  0.67492545947E+02  0.00000000000E+00 0.  1.
</event>
<event>
 8    1  0.7048627E-009  0.1047489E+03  0.7561462E-02  0.1270615E+00
          2   -1    0    0  501    0  0.00000000000E+00  0.00000000000E+00  0.42142754559E+03  0.42142754559E+03  0.00000000000E+00 0. -1.
         -2   -1    0    0    0  501 -0.00000000000E+00 -0.00000000000E+00 -0.43423096317E+02  0.43423096317E+02  0.00000000000E+00 0.  1.
         25    2    1    2    0    0  0.25034970041E+02 -0.65866277025E+02  0.13884793412E+03  0.19972466670E+03  0.12508428161E+03 0.  0.
         23    2    1    2    0    0 -0.25034970041E+02  0.65866277025E+02  0.23915651516E+03  0.26512597521E+03  0.90171102992E+02 0.  0.
          5    1    3    3  502    0  0.36160772992E+02  0.22434441909E+02  0.11456400216E+02  0.44267676617E+02  0.41800000000E+01 0.  1.
         -5    1    3    3    0  502 -0.11125802951E+02 -0.88300718934E+02  0.12739153390E+03  0.15545699008E+03  0.41800000000E+01 0.  1.
        -11    1    4    4    0    0 -0.25864573915E+02  0.22542497563E+02  0.16099390673E+02  0.37898954606E+02  0.00000000000E+00 0.  1.
         11    1    4    4    0    0  0.82960387337E+00  0.43323779462E+02  0.22305712449E+03  0.22722702061E+03  0.00000000000E+00 0. -1.
</event>
<event>
 8    1  0.7048627E-009  0.1329830E+03  0.7561462E-02  0.1223096E+00
         -2   -1    0    0    0  501 -0.00000000000E+00  0.00000000000E+00  0.28034717003E+02  0.28034717003E+02  0.00000000000E+00 0. -1.
          2   -1    0    0  501    0  0.00000000000E+00 -0.00000000000E+00 -0.11483821012E+04  0.11483821012E+04  0.00000000000E+00 0.  1.
         25    2    1    2    0    0  0.63970580104E+02  0.95483828033E+02 -0.86612325949E+03  0.88262474478E+03  0.12509013922E+03 0.  0.
         23    2    1    2    0    0 -0.63970580104E+02 -0.95483828033E+02 -0.25422412466E+03  0.29379207338E+03  0.92056940451E+02 0.  0.
          5    1    3    3  502    0  0.86118226424E+02  0.60603636851E+02 -0.77915417245E+03  0.78624922675E+03  0.41800000000E+01 0. -1.
         -5    1    3    3    0  502 -0.22147646319E+02  0.34880191182E+02 -0.86969087044E+02  0.96375518030E+02  0.41800000000E+01 0. -1.
        -11    1    4    4    0    0 -0.30140549699E+01 -0.27798979821E+02 -0.49495086193E+01  0.28396574477E+02  0.00000000000E+00 0.  1.
         11    1    4    4    0    0 -0.60956525135E+02 -0.67684848212E+02 -0.24927461605E+03  0.26539549890E+03  0.00000000000E+00 0. -1.
</event>
<event>
 8    1  0.7048627E-009  0.1461491E+03  0.7561462E-02  0.1205286E+00
          2   -1    0    0  501    0  0.00000000000E+00  0.00000000000E+00  0.94151956633E+02  0.94151956633E+02  0.00000000000E+00 0. -1.
         -2   -1    0    0    0  501 -0.00000000000E+00 -0.00000000000E+00 -0.34765582234E+03  0.34765582234E+03  0.00000000000E+00 0.  1.
         25    2    1    2    0    0  0.11652012256E+03  0.64656928623E+02 -0.65678404921E+02  0.19421465271E+03  0.12509284981E+03 0.  0.
         23    2    1    2    0    0 -0.11652012256E+03 -0.64656928623E+02 -0.18782546079E+03  0.24759312627E+03  0.90920267666E+02 0.  0.
          5    1    3    3  502    0  0.36001084618E+02  0.50070897908E+02 -0.89605109081E+02  0.10885642326E+03  0.41800000000E+01 0. -1.
         -5    1    3    3    0  502  0.80519037944E+02  0.14586030715E+02  0.23926704160E+02  0.85358229453E+02  0.41800000000E+01 0. -1.
        -11    1    4    4    0    0 -0.46743967637E+02  0.84366849947E+01 -0.19671064123E+02  0.51411350185E+02  0.00000000000E+00 0.  1.
         11    1    4    4    0    0 -0.69776154925E+02 -0.73093613618E+02 -0.16815439667E+03  0.19618177608E+03  0.00000000000E+00 0. -1.
</event>
<event>
 8    1  0.7048627E-009  0.9687342E+02  0.7561462E-02  0.1287012E+00
         -3   -1    0    0    0  501 -0.00000000000E+00  0.00000000000E+00  0.18141196768E+04  0.18141196768E+04  0.00000000000E+00 0.  1.
          3   -1    0    0  501    0  0.00000000000E+00 -0.00000000000E+00 -0.92437081471E+01  0.92437081471E+01  0.00000000000E+00 0. -1.
         25    2    1    2    0    0  0.23324836658E+01  0.44121331729E+02  0.13671853135E+04  0.13736067241E+04  0.12509044155E+03 0.  0.
         23    2    1    2    0    0 -0.23324836658E+01 -0.44121331729E+02  0.43769065517E+03  0.44975666089E+03  0.93572495967E+02 0.  0.
          5    1    3    3  502    0 -0.40251472003E+02  0.32530321672E+02  0.24009956478E+03  0.24564949874E+03  0.41800000000E+01 0.  1.
         -5    1    3    3    0  502  0.42583955669E+02  0.11591010057E+02  0.11270857487E+04  0.11279572254E+04  0.41800000000E+01 0.  1.
        -11    1    4    4    0    0  0.30949894074E+02 -0.54462505092E+02  0.34681962038E+03  0.35243142522E+03  0.00000000000E+00 0. -1.
         11    1    4    4    0    0 -0.33282377740E+02  0.10341173363E+02  0.90871034789E+02  0.97325235670E+02  0.00000000000E+00 0.  1.
</event>
<event>
 8    1  0.7048627E-009  0.1619604E+03  0.7561462E-02  0.1186501E+00
         -2   -1    0    0    0  501 -0.00000000000E+00  0.00000000000E+00  0.44203343359E+02  0.44203343359E+02  0.00000000000E+00 0.  1.
          2   -1    0    0  501    0  0.00000000000E+00 -0.00000000000E+00 -0.76028786604E+03  0.76028786604E+03  0.00000000000E+00 0. -1.
         25    2    1    2    0    0 -0.42761959586E+02 -0.13127001484E+03 -0.26427376719E+03  0.32333874609E+03  0.12508764414E+03 0.  0.
         23    2    1    2    0    0  0.42761959586E+02  0.13127001484E+03 -0.45181075550E+03  0.48115246331E+03  0.91182959932E+02 0.  0.
          5    1    3    3  502    0  0.20304986397E+02 -0.70865031040E+02 -0.43057543467E+02  0.85472624543E+02  0.41800000000E+01 0. -1.
         -5    1    3    3    0  502 -0.63066945983E+02 -0.60404983801E+02 -0.22121622372E+03  0.23786612155E+03  0.41800000000E+01 0. -1.
        -11    1    4    4    0    0  0.68745802918E+02  0.82418895709E+02 -0.33750368652E+03  0.35415758950E+03  0.00000000000E+00 0. -1.
         11    1    4    4    0    0 -0.25983843332E+02  0.48851119132E+02 -0.11430706898E+03  0.12699487381E+03  0.00000000000E+00 0.  1.
</event>
<event>
 8    1  0.7048627E-009  0.2783753E+03  0.7561462E-02  0.1096580E+00
          2   -1    0    0  501    0  0.00000000000E+00  0.00000000000E+00  0.15690722351E+04  0.15690722351E+04  0.00000000000E+00 0. -1.
         -2   -1    0    0    0  501 -0.00000000000E+00 -0.00000000000E+00 -0.50643627159E+02  0.50643627159E+02  0.00000000000E+00 0.  1.
         25    2    1    2    0    0  0.18230532934E+03 -0.18213775335E+03  0.89643321542E+03  0.94108989495E+03  0.12509311075E+03 0.  0.
         23    2    1    2    0    0 -0.18230532934E+03  0.18213775335E+03  0.62199539253E+03  0.67862596732E+03  0.85120743049E+02 0.  0.
          5    1    3    3  502    0  0.18873315718E+03 -0.12160625998E+03  0.73366420812E+03  0.76726066611E+03  0.41800000000E+01 0.  1.
         -5    1    3    3    0  502 -0.64278278335E+01 -0.60531493365E+02  0.16276900730E+03  0.17382922884E+03  0.41800000000E+01 0.  1.
        -11    1    4    4    0    0 -0.11644931223E+03  0.56734366248E+02  0.28361867674E+03  0.31179926945E+03  0.00000000000E+00 0. -1.
         11    1    4    4    0    0 -0.65856017110E+02  0.12540338710E+03  0.33837671579E+03  0.36682669787E+03  0.00000000000E+00 0.  1.
</event>
<event>
 8    1  0.7048627E-009  0.7467530E+02  0.7561462E-02  0.1344879E+00
         -2   -1    0    0    0  501 -0.00000000000E+00  0.00000000000E+00  0.12266245647E+03  0.12266245647E+03  0.00000000000E+00 0.  1.
          2   -1    0    0  501    0  0.00000000000E+00 -0.00000000000E+00 -0.11860992227E+03  0.11860992227E+03  0.00000000000E+00 0. -1.
         25    2    1    2    0    0 -0.53311262943E+01 -0.54784773543E+02 -0.28171627616E+02  0.13953941154E+03  0.12509122451E+03 0.  0.
         23    2    1    2    0    0  0.53311262943E+01  0.54784773543E+02  0.32224161813E+02  0.10173296720E+03  0.79255332256E+02 0.  0.
          5    1    3    3  502    0  0.26391989782E+02  0.17069862151E+01  0.38228852821E+02  0.46672995561E+02  0.41800000000E+01 0. -1.
         -5    1    3    3    0  502 -0.31723116077E+02 -0.56491759758E+02 -0.66400480437E+02  0.92866415977E+02  0.41800000000E+01 0. -1.
        -11    1    4    4    0    0 -0.53393860792E+01  0.32589464465E+02  0.57585030972E+02  0.66382362341E+02  0.00000000000E+00 0.  1.
         11    1    4    4    0    0  0.10670512373E+02  0.22195309078E+02 -0.25360869160E+02  0.35350604859E+02  0.00000000000E+00 0. -1.
</event>
<event>
 8    1  0.7048627E-009  0.3075802E+03  0.7561462E-02  0.1081512E+00
          3   -1    0    0  501    0  0.00000000000E+00  0.00000000000E+00  0.30261317347E+03  0.30261317347E+03  0.00000000000E+00 0. -1.
         -3   -1    0    0    0  501 -0.00000000000E+00 -0.00000000000E+00 -0.32529871661E+03  0.32529871661E+03  0.00000000000E+00 0.  1.
         25    2    1    2    0    0  0.28046433497E+03 -0.87409874887E+02 -0.21191218308E+02  0.31999617009E+03  0.12509097379E+03 0.  0.
         23    2    1    2    0    0 -0.28046433497E+03  0.87409874887E+02 -0.14943248345E+01  0.30791571999E+03  0.92244935893E+02 0.  0.
          5    1    3    3  502    0  0.60107391966E+02  0.19128440833E+02 -0.39457665883E+02  0.74519632411E+02  0.41800000000E+01 0. -1.
         -5    1    3    3    0  502  0.22035694300E+03 -0.10653831572E+03  0.18266447575E+02  0.24547653768E+03  0.41800000000E+01 0. -1.
        -11    1    4    4    0    0 -0.21007023585E+03  0.22283755463E+02 -0.11073384485E+02  0.21153886071E+03  0.00000000000E+00 0.  1.
         11    1    4    4    0    0 -0.70394099118E+02  0.65126119424E+02  0.95790596508E+01  0.96376859285E+02  0.00000000000E+00 0. -1.
</event>
<event>
 8    1  0.7048627E-009  0.9061735E+02  0.7561462E-02  0.1301364E+00
         -1   -1    0    0    0  501 -0.00000000000E+00  0.00000000000E+00  0.10111171246E+03  0.10111171246E+03  0.00000000000E+00 0.  1.
          1   -1    0    0  501    0  0.00000000000E+00 -0.00000000000E+00 -0.14664916223E+03  0.14664916223E+03  0.00000000000E+00 0. -1.
         25    2    1    2    0    0 -0.37543501730E+02 -0.37627091602E+02 -0.19678067369E+02  0.13732896639E+03  0.12508679439E+03 0.  0.
         23    2    1    2    0    0  0.37543501730E+02  0.37627091602E+02 -0.25859382393E+02  0.11043190830E+03  0.93280148841E+02 0.  0.
          5    1    3    3  502    0  0.95335367088E+01  0.37451278896E+02  0.15561884858E+02  0.41870410476E+02  0.41800000000E+01 0. -1.
         -5    1    3    3    0  502 -0.47077038438E+02 -0.75078370498E+02 -0.35239952228E+02  0.95458555917E+02  0.41800000000E+01 0. -1.
        -11    1    4    4    0    0  0.10477192253E+02  0.15392431335E+02 -0.59208563983E+02  0.62067322714E+02  0.00000000000E+00 0. -1.
         11    1    4    4    0    0  0.27066309476E+02  0.22234660268E+02  0.33349181590E+02  0.48364585583E+02  0.00000000000E+00 0.  1.
</event>
<event>
 8    1  0.7048627E-009  0.9173156E+02  0.7561462E-02  0.1298712E+00
         -2   -1    0    0    0  501 -0.00000000000E+00  0.00000000000E+00  0.25595171619E+03  0.25595171619E+03  0.00000000000E+00 0.  1.
          2   -1    0    0  501    0  0.00000000000E+00 -0.00000000000E+00 -0.57313991115E+02  0.57313991115E+02  0.00000000000E+00 0. -1.
         25    2    1    2    0    0  0.26658290611E+02 -0.45701444347E+02  0.13042867017E+03  0.18830339986E+03  0.12508895203E+03 0.  0.
         23    2    1    2    0    0 -0.26658290611E+02  0.45701444347E+02  0.68209054903E+02  0.12496230745E+03  0.90353841305E+02 0.  0.
          5    1    3    3  502    0 -0.21634149006E+02 -0.45221392920E+01 -0.16700227953E+02  0.28015284412E+02  0.41800000000E+01 0.  1.
         -5    1    3    3    0  502  0.48292439618E+02 -0.41179305055E+02  0.14712889813E+03  0.16028811544E+03  0.41800000000E+01 0.  1.
        -11    1    4    4    0    0  0.25796887354E+02  0.35573195701E+02  0.83477431092E+01  0.44728251303E+02  0.00000000000E+00 0.  1.
         11    1    4    4    0    0 -0.52455177965E+02  0.10128248646E+02  0.59861311794E+02  0.80234056147E+02  0.00000000000E+00 0. -1.
</event>
<event>
 8    1  0.7048627E-009  0.1225334E+03  0.7561462E-02  0.1238975E+00
         -1   -1    0    0    0  501 -0.00000000000E+00  0.00000000000E+00  0.74593807919E+02  0.74593807919E+02  0.00000000000E+00 0.  1.
          1   -1    0    0  501    0  0.00000000000E+00 -0.00000000000E+00 -0.26068649775E+03  0.26068649775E+03  0.00000000000E+00 0. -1.
         25    2    1    2    0    0  0.79975536393E+02  0.34919089459E+02 -0.82701585972E+02  0.17349700019E+03  0.12508488127E+03 0.  0.
         23    2    1    2    0    0 -0.79975536393E+02 -0.34919089459E+02 -0.10339110386E+03  0.16178330547E+03  0.88705627464E+02 0.  0.
          5    1    3    3  502    0  0.10498890104E+03  0.48050138946E+02 -0.86982406082E+02  0.14461983461E+03  0.41800000000E+01 0.  1.
         -5    1    3    3    0  502 -0.25013364643E+02 -0.13131049487E+02  0.42808201102E+01  0.28877165585E+02  0.41800000000E+01 0.  1.
        -11    1    4    4    0    0 -0.41244138590E+02  0.92055041034E+01  0.71236130853E+00  0.42264970513E+02  0.00000000000E+00 0.  1.
         11    1    4    4    0    0 -0.38731397803E+02 -0.44124593562E+02 -0.10410346516E+03  0.11951833496E+03  0.00000000000E+00 0. -1.
</event>
<event>
 8    1  0.7048627E-009  0.1185049E+03  0.7561462E-02  0.1245584E+00
         -1   -1    0    0    0  501 -0.00000000000E+00  0.00000000000E+00  0.42125490244E+03  0.42125490244E+03  0.00000000000E+00 0.  1.
          1   -1    0    0  501    0  0.00000000000E+00 -0.00000000000E+00 -0.54941090305E+02  0.54941090305E+02  0.00000000000E+00 0. -1.
         25    2    1    2    0    0 -0.50142711485E+02  0.68426875209E+01  0.33635009112E+03  0.36240928784E+03  0.12509194308E+03 0.  0.
         23    2    1    2    0    0  0.50142711485E+02 -0.68426875209E+01  0.29963721016E+02  0.11378670491E+03  0.97408807355E+02 0.  0.
          5    1    3    3  502    0 -0.19963102390E+02 -0.56801277088E+02  0.11201405718E+03  0.12723809155E+03  0.41800000000E+01 0.  1.
         -5    1    3    3    0  502 -0.30179609095E+02  0.63643964609E+02  0.22433603394E+03  0.23517119628E+03  0.41800000000E+01 0.  1.
        -11    1    4    4    0    0  0.77414676788E+02  0.19597272678E+01  0.34492299233E+02  0.84773766105E+02  0.00000000000E+00 0.  1.
         11    1    4    4    0    0 -0.27271965303E+02 -0.88024147888E+01 -0.45285782168E+01  0.29012938808E+02  0.00000000000E+00 0. -1.
</event>
<event>
 8    1  0.7048627E-009  0.1073386E+03  0.7561462E-02  0.1265579E+00
          1   -1    0    0  501    0  0.00000000000E+00  0.00000000000E+00  0.75279967733E+02  0.75279967733E+02  0.00000000000E+00 0.  1.
         -1   -1    0    0    0  501 -0.00000000000E+00 -0.00000000000E+00 -0.16491803959E+03  0.16491803959E+03  0.00000000000E+00 0. -1.
         25    2    1    2    0    0  0.25842043221E+02 -0.10721496061E+02 -0.46627221950E+02  0.13640049130E+03  0.12509290358E+03 0.  0.
         23    2    1    2    0    0 -0.25842043221E+02  0.10721496061E+02 -0.43010849908E+02  0.10379751602E+03  0.90228761750E+02 0.  0.
          5    1    3    3  502    0 -0.25487776165E+02 -0.53567755291E+02 -0.33083808839E+02  0.68052494062E+02  0.41800000000E+01 0.  1.
         -5    1    3    3    0  502  0.51329819386E+02  0.42846259229E+02 -0.13543413111E+02  0.68347997241E+02  0.41800000000E+01 0.  1.
        -11    1    4    4    0    0 -0.17922485614E+02 -0.36325504409E+02 -0.14620318899E+01  0.40532644849E+02  0.00000000000E+00 0.  1.
         11    1    4    4    0    0 -0.79195576070E+01  0.47047000470E+02 -0.41548818018E+02  0.63264871174E+02  0.00000000000E+00 0. -1.
</event>
<event>
 8    1  0.7048627E-009  0.1023478E+03  0.7561462E-02  0.1275435E+00
         -2   -1    0    0    0  501 -0.00000000000E+00  0.00000000000E+00  0.13668793321E+02  0.13668793321E+02  0.00000000000E+00 0.  1.
          2   -1    0    0  501    0  0.00000000000E+00 -0.00000000000E+00 -0.10369574519E+04  0.10369574519E+04  0.00000000000E+00 0. -1.
         25    2    1    2    0    0 -0.74139176956E+01  0.86036754247E+01 -0.78896508581E+03  0.79890124896E+03  0.12509320348E+03 0.  0.
         23    2    1    2    0    0  0.74139176956E+01 -0.86036754247E+01 -0.23432357274E+03  0.25172499623E+03  0.91263067991E+02 0.  0.
          5    1    3    3  502    0  0.50269729505E+02  0.19656445105E+02 -0.55525075847E+03  0.55788376811E+03  0.41800000000E+01 0.  1.
         -5    1    3    3    0  502 -0.57683647201E+02 -0.11052769681E+02 -0.23371432734E+03  0.24101748085E+03  0.41800000000E+01 0.  1.
        -11    1    4    4    0    0  0.47602291211E+02 -0.17135079194E+02 -0.11929064325E+03  0.12957564059E+03  0.00000000000E+00 0. -1.
         11    1    4    4    0    0 -0.40188373516E+02  0.85314037689E+01 -0.11503292949E+03  0.12214935564E+03  0.00000000000E+00 0.  1.
</event>
<event>
 8    1  0.7048627E-009  0.1109004E+03  0.7561462E-02  0.1258912E+00
         -2   -1    0    0    0  501 -0.00000000000E+00  0.00000000000E+00  0.54672738626E+02  0.54672738626E+02  0.00000000000E+00 0. -1.
          2   -1    0    0  501    0  0.00000000000E+00 -0.00000000000E+00 -0.28730300868E+03  0.28730300868E+03  0.00000000000E+00 0.  1.
         25    2    1    2    0    0 -0.20647302087E+02 -0.43021458393E+02 -0.92930602731E+02  0.16298417331E+03  0.12510230557E+03 0.  0.
         23    2    1    2    0    0  0.20647302087E+02  0.43021458393E+02 -0.13969966732E+03  0.17899157399E+03  0.10121674538E+03 0.  0.
          5    1    3    3  502    0 -0.71069830046E+02 -0.10729656095E+02 -0.64100658587E+02  0.96397163309E+02  0.41800000000E+01 0. -1.
         -5    1    3    3    0  502  0.50422527959E+02 -0.32291802299E+02 -0.28829944144E+02  0.66587010000E+02  0.41800000000E+01 0. -1.
        -11    1    4    4    0    0  0.44424229891E+02  0.48092072512E+02 -0.14013679774E+03  0.15467605413E+03  0.00000000000E+00 0.  1.
         11    1    4    4    0    0 -0.23776927804E+02 -0.50706141181E+01  0.43713042002E+00  0.24315519865E+02  0.00000000000E+00 0. -1.
</event>
<event>
 8    1  0.7048627E-009  0.1481742E+03  0.7561462E-02  0.1202735E+00
         -3   -1    0    0    0  501 -0.00000000000E+00  0.00000000000E+00  0.87386021142E+02  0.87386021142E+02  0.00000000000E+00 0.  1.
          3   -1    0    0  501    0  0.00000000000E+00 -0.00000000000E+00 -0.57712045768E+03  0.57712045768E+03  0.00000000000E+00 0. -1.
         25    2    1    2    0    0 -0.53413884094E+02  0.12810078832E+03 -0.48356306644E+02  0.19299990896E+03  0.12509107676E+03 0.  0.
         23    2    1    2    0    0  0.53413884094E+02 -0.12810078832E+03 -0.44137812990E+03  0.47150656987E+03  0.90779606160E+02 0.  0.
          5    1    3    3  502    0 -0.11553814663E+02  0.71625187384E+02  0.37646467640E+02  0.81843674324E+02  0.41800000000E+01 0.  1.
         -5    1    3    3    0  502 -0.41860069431E+02  0.56475600932E+02 -0.86002774284E+02  0.11115623463E+03  0.41800000000E+01 0.  1.
        -11    1    4    4    0    0  0.68626423534E+02 -0.99682150716E+02 -0.25377735228E+03  0.28115664977E+03  0.00000000000E+00 0.  1.
         11    1    4    4    0    0 -0.15212539440E+02 -0.28418637601E+02 -0.18760077761E+03  0.19034992009E+03  0.00000000000E+00 0. -1.
</event>
<event>
 8    1  0.7048627E-009  0.1854018E+03  0.7561462E-02  0.1162675E+00
         -1   -1    0    0    0  501 -0.00000000000E+00  0.00000000000E+00  0.36691865187E+02  0.36691865187E+02  0.00000000000E+00 0.  1.
          1   -1    0    0  501    0  0.00000000000E+00 -0.00000000000E+00 -0.17288031463E+04  0.17288031463E+04  0.00000000000E+00 0. -1.
         25    2    1    2    0    0  0.70712958646E+02 -0.13403743305E+03 -0.14602923560E+04  0.14734543581E+04  0.12509046487E+03 0.  0.
         23    2    1    2    0    0 -0.70712958646E+02  0.13403743305E+03 -0.23181892507E+03  0.29204065335E+03  0.92635701602E+02 0.  0.
          5    1    3    3  502    0  0.82938947191E+02 -0.28224812590E+02 -0.77007477609E+03  0.77505363826E+03  0.41800000000E+01 0. -1.
         -5    1    3    3    0  502 -0.12225988545E+02 -0.10581262046E+03 -0.69021757993E+03  0.69840071986E+03  0.41800000000E+01 0. -1.
        -11    1    4    4    0    0 -0.44606025697E+02  0.50484035858E+01 -0.45380817925E+02  0.63832613473E+02  0.00000000000E+00 0.  1.
         11    1    4    4    0    0 -0.26106932949E+02  0.12898902947E+03 -0.18643810714E+03  0.22820803988E+03  0.00000000000E+00 0. -1.
</event>
<event>
 8    1  0.7048627E-009  0.1049655E+03  0.7561462E-02  0.1270188E+00
          1   -1    0    0  501    0  0.00000000000E+00  0.00000000000E+00  0.57902031704E+03  0.57902031704E+03  0.00000000000E+00 0. -1.
         -1   -1    0    0    0  501 -0.00000000000E+00 -0.00000000000E+00 -0.21827016833E+02  0.21827016833E+02  0.00000000000E+00 0.  1.
         25    2    1    2    0    0  0.20387344394E+01  0.30720475490E+02  0.30424895322E+03  0.33039789123E+03  0.12508971557E+03 0.  0.
         23    2    1    2    0    0 -0.20387344394E+01 -0.30720475490E+02  0.25294434699E+03  0.27044944264E+03  0.90631971738E+02 0.  0.
          5    1    3    3  502    0  0.52029172693E+02  0.51950224955E+02  0.15754229909E+03  0.17390488518E+03  0.41800000000E+01 0. -1.
         -5    1    3    3    0  502 -0.49990438254E+02 -0.21229749465E+02  0.14670665413E+03  0.15649300606E+03  0.41800000000E+01 0. -1.
        -11    1    4    4    0    0 -0.26426377124E+01 -0.56233397418E+02  0.22768936036E+03  0.23454556773E+03  0.00000000000E+00 0. -1.
         11    1    4    4    0    0  0.60390327301E+00  0.25512921928E+02  0.25254986625E+02  0.35903874915E+02  0.00000000000E+00 0.  1.
</event>
<event>
 8    1  0.7048627E-009  0.1254911E+03  0.7561462E-02  0.1234304E+00
         -2   -1    0    0    0  501 -0.00000000000E+00  0.00000000000E+00  0.31634535217E+02  0.31634535217E+02  0.00000000000E+00 0.  1.
          2   -1    0    0  501    0  0.00000000000E+00 -0.00000000000E+00 -0.65299089485E+03  0.65299089485E+03  0.00000000000E+00 0. -1.
         25    2    1    2    0    0 -0.83212870905E+02 -0.81808715584E+00 -0.23258989398E+03  0.27689344983E+03  0.12508745991E+03 0.  0.
         23    2    1    2    0    0  0.83212870905E+02  0.81808715584E+00 -0.38876646565E+03  0.40773198023E+03  0.90448613811E+02 0.  0.
          5    1    3    3  502    0 -0.48783390957E+02  0.54062323779E+02 -0.67033953928E+02  0.99063502183E+02  0.41800000000E+01 0. -1.
         -5    1    3    3    0  502 -0.34429479948E+02 -0.54880410935E+02 -0.16555594006E+03  0.17782994765E+03  0.41800000000E+01 0. -1.
        -11    1    4    4    0    0  0.37784020243E+02 -0.37838276257E+02 -0.10578445080E+03  0.11853150369E+03  0.00000000000E+00 0.  1.
         11    1    4    4    0    0  0.45428850662E+02  0.38656363412E+02 -0.28298201485E+03  0.28920047654E+03  0.00000000000E+00 0. -1.
</event>
<event>
 8    1  0.7048627E-009  0.2515561E+03  0.7561462E-02  0.1112325E+00
          2   -1    0    0  501    0  0.00000000000E+00  0.00000000000E+00  0.16449212953E+03  0.16449212953E+03  0.00000000000E+00 0. -1.
         -2   -1    0    0    0  501 -0.00000000000E+00 -0.00000000000E+00 -0.43133392827E+03  0.43133392827E+03  0.00000000000E+00 0.  1.
         25    2    1    2    0    0 -0.22915874110E+02  0.23852545933E+03 -0.18279593247E+03  0.32631459887E+03  0.12508929800E+03 0.  0.
         23    2    1    2    0    0  0.22915874110E+02 -0.23852545933E+03 -0.84045866278E+02  0.26951145893E+03  0.90294998881E+02 0.  0.
          5    1    3    3  502    0 -0.17848820618E+02  0.15330298041E+02 -0.74321450545E+02  0.78068872456E+02  0.41800000000E+01 0.  1.
         -5    1    3    3    0  502 -0.50670534919E+01  0.22319516129E+03 -0.10847448192E+03  0.24824572641E+03  0.41800000000E+01 0.  1.
        -11    1    4    4    0    0  0.47914777307E+02 -0.65793163465E+02 -0.31018994336E+02  0.87101918766E+02  0.00000000000E+00 0. -1.
         11    1    4    4    0    0 -0.24998903198E+02 -0.17273229587E+03 -0.53026871943E+02  0.18240954017E+03  0.00000000000E+00 0.  1.
</event>
<event>
 8    1  0.7048627E-009  0.1254219E+03  0.7561462E-02  0.1234411E+00
         -1   -1    0    0    0  501 -0.00000000000E+00  0.00000000000E+00  0.11836918573E+03  0.11836918573E+03  0.00000000000E+00 0.  1.
          1   -1    0    0  501    0  0.00000000000E+00 -0.00000000000E+00 -0.17894627708E+03  0.17894627708E+03  0.00000000000E+00 0. -1.
         25    2    1    2    0    0  0.56204453432E+02  0.63033933891E+02 -0.80121742186E+02  0.17088089755E+03  0.12509424514E+03 0.  0.
         23    2    1    2    0    0 -0.56204453432E+02 -0.63033933891E+02  0.19544650832E+02  0.12643456527E+03  0.92040689432E+02 0.  0.
          5    1    3    3  502    0 -0.12927026731E+02  0.76483935248E+02 -0.57990470582E+02  0.96939504071E+02  0.41800000000E+01 0.  1.
         -5    1    3    3    0  502  0.69131480163E+02 -0.13450001357E+02 -0.22131271603E+02  0.73941393474E+02  0.41800000000E+01 0.  1.
        -11    1    4    4    0    0 -0.40507000805E+01 -0.48225946531E+02  0.45410984979E+02  0.66364957973E+02  0.00000000000E+00 0.  1.
         11    1    4    4    0    0 -0.52153753352E+02 -0.14807987359E+02 -0.25866334148E+02  0.60069607295E+02  0.00000000000E+00 0. -1.
</event>
<event>
 8    1  0.7048627E-009  0.1100266E+03  0.7561462E-02  0.1260521E+00
         -1   -1    0    0    0  501 -0.00000000000E+00  0.00000000000E+00  0.18261975595E+03  0.18261975595E+03  0.00000000000E+00 0.  1.
          1   -1    0    0  501    0  0.00000000000E+00 -0.00000000000E+00 -0.12813511426E+03  0.12813511426E+03  0.00000000000E+00 0. -1.
         25    2    1    2    0    0 -0.60860095573E+02 -0.46891131240E+02  0.10662653567E+03  0.18142700360E+03  0.12507521778E+03 0.  0.
         23    2    1    2    0    0  0.60860095573E+02  0.46891131240E+02 -0.52141893981E+02  0.12932786661E+03  0.90023277828E+02 0.  0.
          5    1    3    3  502    0 -0.19430498693E+02 -0.83543306618E+02  0.40010941763E+02  0.94738462205E+02  0.41800000000E+01 0. -1.
         -5    1    3    3    0  502 -0.41429596880E+02  0.36652175378E+02  0.66615593906E+02  0.86688541394E+02  0.41800000000E+01 0. -1.
        -11    1    4    4    0    0  0.40919685487E+02  0.20905928500E+02  0.19987611146E+02  0.50109710697E+02  0.00000000000E+00 0.  1.
         11    1    4    4    0    0  0.19940410086E+02  0.25985202740E+02 -0.72129505127E+02  0.79218155909E+02  0.00000000000E+00 0. -1.
</event>
<event>
 8    1  0.7048627E-009  0.8645500E+02  0.7561462E-02  0.1311671E+00
          2   -1    0    0  501    0  0.00000000000E+00  0.00000000000E+00  0.51136363432E+03  0.51136363432E+03  0.00000000000E+00 0. -1.
         -2   -1    0    0    0  501 -0.00000000000E+00 -0.00000000000E+00 -0.29179235144E+02  0.29179235144E+02  0.00000000000E+00 0.  1.
         25    2    1    2    0    0 -0.17776731587E+02  0.30478751038E+02  0.37353664520E+03  0.39550065674E+03  0.12508468222E+03 0.  0.
         23    2    1    2    0    0  0.17776731587E+02 -0.30478751038E+02  0.10864775398E+03  0.14504221273E+03  0.89375290638E+02 0.  0.
          5    1    3    3  502    0 -0.11370349695E+02  0.52729595653E+02  0.58868892350E+02  0.79954449510E+02  0.41800000000E+01 0.  1.
         -5    1    3    3    0  502 -0.64063818912E+01 -0.22250844616E+02  0.31466775285E+03  0.31554620723E+03  0.41800000000E+01 0.  1.
        -11    1    4    4    0    0  0.44519714701E+02 -0.46278557808E+02  0.64088548550E+02  0.90725145165E+02  0.00000000000E+00 0. -1.
         11    1    4    4    0    0 -0.26742983115E+02  0.15799806770E+02  0.44559205432E+02  0.54317067562E+02  0.00000000000E+00 0.  1.
</event>
<event>
 8    1  0.7048627E-009  0.1317574E+03  0.7561462E-02  0.1224871E+00
          2   -1    0    0  501    0  0.00000000000E+00  0.00000000000E+00  0.56068805091E+03  0.56068805091E+03  0.00000000000E+00 0. -1.
         -2   -1    0    0    0  501 -0.00000000000E+00 -0.00000000000E+00 -0.48367411277E+02  0.48367411277E+02  0.00000000000E+00 0.  1.
         25    2    1    2    0    0  0.56403275603E+02 -0.64207050703E+02  0.10845112327E+03  0.18631958961E+03  0.12509783562E+03 0.  0.
         23    2    1    2    0    0 -0.56403275603E+02  0.64207050703E+02  0.40386951636E+03  0.42273587257E+03  0.91055789780E+02 0.  0.
          5    1    3    3  502    0  0.78259528199E+02 -0.81031638894E+02  0.11112638454E+03  0.15829474406E+03  0.41800000000E+01 0.  1.
         -5    1    3    3    0  502 -0.21856252596E+02  0.16824588191E+02 -0.26752612740E+01  0.28024845552E+02  0.41800000000E+01 0.  1.
        -11    1    4    4    0    0 -0.76296053940E+02  0.27433624588E+02  0.22872096335E+03  0.24266637732E+03  0.00000000000E+00 0.  1.
         11    1    4    4    0    0  0.19892778337E+02  0.36773426116E+02  0.17514855301E+03  0.18006949525E+03  0.00000000000E+00 0. -1.
</event>
<event>
 8    1  0.7048627E-009  0.1249476E+03  0.7561462E-02  0.1235151E+00
          1   -1    0    0  501    0  0.00000000000E+00  0.00000000000E+00  0.18366972803E+04  0.18366972803E+04  0.00000000000E+00 0. -1.
         -1   -1    0    0    0  501 -0.00000000000E+00 -0.00000000000E+00 -0.12722757970E+02  0.12722757970E+02  0.00000000000E+00 0.  1.
         25    2    1    2    0    0 -0.90800465015E+02  0.55998606930E+02  0.10219364494E+04  0.10350759981E+04  0.12509055431E+03 0.  0.
         23    2    1    2    0    0  0.90800465015E+02 -0.55998606930E+02  0.80203807296E+03  0.81434404021E+03  0.92252788176E+02 0.  0.
          5    1    3    3  502    0 -0.86788369576E+02  0.56480409471E+02  0.40297446100E+03  0.41608670534E+03  0.41800000000E+01 0.  1.
         -5    1    3    3    0  502 -0.40120954393E+01 -0.48180254117E+00  0.61896198840E+03  0.61898929274E+03  0.41800000000E+01 0.  1.
        -11    1    4    4    0    0  0.73352595354E+01  0.23842397038E+02  0.11614186555E+03  0.11879056722E+03  0.00000000000E+00 0.  1.
         11    1    4    4    0    0  0.83465205480E+02 -0.79841003968E+02  0.68589620741E+03  0.69555347299E+03  0.00000000000E+00 0. -1.
</event>
<event>
 8    1  0.7048627E-009  0.1344331E+03  0.7561462E-02  0.1221022E+00
         -1   -1    0    0    0  501 -0.00000000000E+00  0.00000000000E+00  0.15518270187E+02  0.15518270187E+02  0.00000000000E+00 0. -1.
          1   -1    0    0  501    0  0.00000000000E+00 -0.00000000000E+00 -0.16822987424E+04  0.16822987424E+04  0.00000000000E+00 0.  1.
         25    2    1    2    0    0  0.18114166630E+02 -0.10174103009E+03 -0.12323001270E+04  0.12429362776E+04  0.12509047540E+03 0.  0.
         23    2    1    2    0    0 -0.18114166630E+02  0.10174103009E+03 -0.43448034527E+03  0.45488073500E+03  0.86394168857E+02 0.  0.
          5    1    3    3  502    0  0.61637071032E+02 -0.51552010210E+02 -0.92588580857E+03  0.92937545760E+03  0.41800000000E+01 0. -1.
         -5    1    3    3    0  502 -0.43522904402E+02 -0.50189019885E+02 -0.30641431841E+03  0.31356082002E+03  0.41800000000E+01 0. -1.
        -11    1    4    4    0    0  0.19656571280E+02  0.69353822230E+02 -0.34544769304E+03  0.35288871061E+03  0.00000000000E+00 0.  1.
         11    1    4    4    0    0 -0.37770737910E+02  0.32387207865E+02 -0.89032652229E+02  0.10199202439E+03  0.00000000000E+00 0. -1.
</event>
<event>
 8    1  0.7048627E-009  0.1764936E+03  0.7561462E-02  0.1171240E+00
          2   -1    0    0  501    0  0.00000000000E+00  0.00000000000E+00  0.15614594676E+03  0.15614594676E+03  0.00000000000E+00 0. -1.
         -2   -1    0    0    0  501 -0.00000000000E+00 -0.00000000000E+00 -0.26184669132E+03  0.26184669132E+03  0.00000000000E+00 0.  1.
         25    2    1    2    0    0  0.62224558883E+02  0.15675276266E+03 -0.34712368624E+02  0.21283845180E+03  0.12510768842E+03 0.  0.
         23    2    1    2    0    0 -0.62224558883E+02 -0.15675276266E+03 -0.70988375939E+02  0.20515418628E+03  0.92766191586E+02 0.  0.
          5    1    3    3  502    0  0.38121886641E+01  0.50326086591E+02 -0.69948083103E+02  0.86356554492E+02  0.41800000000E+01 0. -1.
         -5    1    3    3    0  502  0.58412370219E+02  0.10642667607E+03  0.35235714478E+02  0.12648189731E+03  0.41800000000E+01 0. -1.
        -11    1    4    4    0    0 -0.60851617755E+02 -0.64750736802E+02  0.13643859350E+00  0.88857165807E+02  0.00000000000E+00 0.  1.
         11    1    4    4    0    0 -0.13729411277E+01 -0.92002025854E+02 -0.71124814532E+02  0.11629702047E+03  0.00000000000E+00 0. -1.
</event>
<event>
 8    1  0.7048627E-009  0.1310576E+03  0.7561462E-02  0.1225895E+00
          1   -1    0    0  501    0  0.00000000000E+00  0.00000000000E+00  0.13105859940E+04  0.13105859940E+04  0.00000000000E+00 0. -1.
         -1   -1    0    0    0  501 -0.00000000000E+00 -0.00000000000E+00 -0.25364979966E+02  0.25364979966E+02  0.00000000000E+00 0.  1.
         25    2    1    2    0    0 -0.70271294452E+02  0.24984162849E+02  0.11370323324E+04  0.11463211759E+04  0.12508976864E+03 0.  0.
         23    2    1    2    0    0  0.70271294452E+02 -0.24984162849E+02  0.14818868165E+03  0.18962979807E+03  0.91854840523E+02 0.  0.
          5    1    3    3  502    0 -0.72569712700E+01  0.68072813007E+02  0.48614526136E+03  0.49095952893E+03  0.41800000000E+01 0.  1.
         -5    1    3    3    0  502 -0.63014323182E+02 -0.43088650159E+02  0.65088707105E+03  0.65536164700E+03  0.41800000000E+01 0.  1.
        -11    1    4    4    0    0  0.42314185112E+02 -0.59278329193E+02  0.10510658806E+03  0.12787417811E+03  0.00000000000E+00 0. -1.
         11    1    4    4    0    0  0.27957109340E+02  0.34294166344E+02  0.43082093594E+02  0.61755619958E+02  0.00000000000E+00 0.  1.
</event>
<event>
 8    1  0.7048627E-009  0.1060095E+03  0.7561462E-02  0.1268143E+00
         -1   -1    0    0    0  501 -0.00000000000E+00  0.00000000000E+00  0.77825668863E+02  0.77825668863E+02  0.00000000000E+00 0.  1.
          1   -1    0    0  501    0  0.00000000000E+00 -0.00000000000E+00 -0.23230749257E+03  0.23230749257E+03  0.00000000000E+00 0. -1.
         25    2    1    2    0    0  0.74513196895E+02  0.23868504160E+02 -0.58239179090E+02  0.15862702661E+03  0.12509520210E+03 0.  0.
         23    2    1    2    0    0 -0.74513196895E+02 -0.23868504160E+02 -0.96242644618E+02  0.15150613482E+03  0.87003104787E+02 0.  0.
          5    1    3    3  502    0  0.20265368298E+02 -0.17149347300E+02  0.34384059028E+02  0.43640820115E+02  0.41800000000E+01 0.  1.
         -5    1    3    3    0  502  0.54247828597E+02  0.41017851461E+02 -0.92623238118E+02  0.11498620650E+03  0.41800000000E+01 0.  1.
        -11    1    4    4    0    0 -0.12440307092E+02  0.31474855019E+02 -0.28427073177E+02  0.44198712972E+02  0.00000000000E+00 0.  1.
         11    1    4    4    0    0 -0.62072889802E+02 -0.55343359179E+02 -0.67815571442E+02  0.10730742185E+03  0.00000000000E+00 0. -1.
</event>
<event>
 8    1  0.7048627E-009  0.7959169E+02  0.7561462E-02  0.1330214E+00
          1   -1    0    0  501    0  0.00000000000E+00  0.00000000000E+00  0.81516595700E+02  0.81516595700E+02  0.00000000000E+00 0. -1.
         -1   -1    0    0    0  501 -0.00000000000E+00 -0.00000000000E+00 -0.17168902820E+03  0.17168902820E+03  0.00000000000E+00 0.  1.
         25    2    1    2    0    0 -0.20408531791E+02 -0.42272077240E+02 -0.61317924578E+02  0.14700536035E+03  0.12508897399E+03 0.  0.
         23    2    1    2    0    0  0.20408531791E+02  0.42272077240E+02 -0.28854507918E+02  0.10620026355E+03  0.90788086586E+02 0.  0.
          5    1    3    3  502    0  0.79090617102E+01 -0.40855743664E+02  0.29886217938E+02  0.51404313731E+02  0.41800000000E+01 0.  1.
         -5    1    3    3    0  502 -0.28317593501E+02 -0.14163335754E+01 -0.91204142516E+02  0.95601046619E+02  0.41800000000E+01 0.  1.
        -11    1    4    4    0    0  0.16022340925E+02 -0.20363587607E+02 -0.34512575361E+02  0.43156795143E+02  0.00000000000E+00 0.  1.
         11    1    4    4    0    0  0.43861908663E+01  0.62635664846E+02  0.56580674435E+01  0.63043468403E+02  0.00000000000E+00 0. -1.
</event>
<event>
 8    1  0.7048627E-009  0.1283906E+03  0.7561462E-02  0.1229863E+00
         -2   -1    0    0    0  501 -0.00000000000E+00  0.00000000000E+00  0.13189284799E+03  0.13189284799E+03  0.00000000000E+00 0.  1.
          2   -1    0    0  501    0  0.00000000000E+00 -0.00000000000E+00 -0.15648554351E+03  0.15648554351E+03  0.00000000000E+00 0. -1.
         25    2    1    2    0    0  0.25989923655E+02 -0.90350582763E+02 -0.24287891858E+02  0.15835543981E+03  0.12509132539E+03 0.  0.
         23    2    1    2    0    0 -0.25989923655E+02  0.90350582763E+02 -0.30480366789E+00  0.13002295169E+03  0.89817432183E+02 0.  0.
          5    1    3    3  502    0  0.55888982139E+02 -0.10283732650E+02 -0.42231814046E+02  0.70924833446E+02  0.41800000000E+01 0. -1.
         -5    1    3    3    0  502 -0.29899058484E+02 -0.80066850114E+02  0.17943922188E+02  0.87430606362E+02  0.41800000000E+01 0. -1.
        -11    1    4    4    0    0 -0.44122683743E+02  0.84241202790E+02 -0.25433011002E+02  0.98438963408E+02  0.00000000000E+00 0. -1.
         11    1    4    4    0    0  0.18132760088E+02  0.61093799734E+01  0.25128207334E+02  0.31583988283E+02  0.00000000000E+00 0.  1.
</event>
<event>
 8    1  0.7048627E-009  0.1332243E+03  0.7561462E-02  0.1222748E+00
         -2   -1    0    0    0  501 -0.00000000000E+00  0.00000000000E+00  0.34300878755E+02  0.34300878755E+02  0.00000000000E+00 0.  1.
          2   -1    0    0  501    0  0.00000000000E+00 -0.00000000000E+00 -0.65265958586E+03  0.65265958586E+03  0.00000000000E+00 0. -1.
         25    2    1    2    0    0 -0.82754517982E+02  0.26116290032E+02 -0.46040169913E+03  0.48492064625E+03  0.12509171735E+03 0.  0.
         23    2    1    2    0    0  0.82754517982E+02 -0.26116290032E+02 -0.15795700798E+03  0.20203981837E+03  0.91319773240E+02 0.  0.
          5    1    3    3  502    0 -0.84394889909E+02 -0.32890772839E+02 -0.31896607065E+03  0.33160387062E+03  0.41800000000E+01 0.  1.
         -5    1    3    3    0  502  0.16403719271E+01  0.59007062871E+02 -0.14143562848E+03  0.15331677563E+03  0.41800000000E+01 0.  1.
        -11    1    4    4    0    0  0.71977226901E+02  0.15483428773E+02 -0.59666282803E+02  0.94765621733E+02  0.00000000000E+00 0.  1.
         11    1    4    4    0    0  0.10777291081E+02 -0.41599718806E+02 -0.98290725178E+02  0.10727419664E+03  0.00000000000E+00 0. -1.
</event>
<event>
 8    1  0.7048627E-009  0.1567608E+03  0.7561462E-02  0.1192403E+00
          2   -1    0    0  501    0  0.00000000000E+00  0.00000000000E+00  0.77114892051E+02  0.77114892051E+02  0.00000000000E+00 0. -1.
         -2   -1    0    0    0  501 -0.00000000000E+00 -0.00000000000E+00 -0.52410499160E+03  0.52410499160E+03  0.00000000000E+00 0.  1.
         25    2    1    2    0    0 -0.15379262898E+03 -0.66369672863E+01 -0.33338719049E+03  0.38792856717E+03  0.12508130309E+03 0.  0.
         23    2    1    2    0    0  0.15379262898E+03  0.66369672863E+01 -0.11360290906E+03  0.21329131648E+03  0.94293916428E+02 0.  0.
          5    1    3    3  502    0 -0.12067145640E+03  0.98768877611E+01 -0.11721189790E+03  0.16856824942E+03  0.41800000000E+01 0.  1.
         -5    1    3    3    0  502 -0.33121172581E+02 -0.16513855047E+02 -0.21617529258E+03  0.21936031775E+03  0.41800000000E+01 0.  1.
        -11    1    4    4    0    0  0.94968125493E+02 -0.52613346272E+01 -0.12794732135E+02  0.95970472918E+02  0.00000000000E+00 0. -1.
         11    1    4    4    0    0  0.58824503487E+02  0.11898301914E+02 -0.10080817693E+03  0.11732084356E+03  0.00000000000E+00 0.  1.
</event>
<event>
 8    1  0.7048627E-009  0.1339485E+03  0.7561462E-02  0.1221712E+00
          2   -1    0    0  501    0  0.00000000000E+00  0.00000000000E+00  0.17081347000E+03  0.17081347000E+03  0.00000000000E+00 0.  1.
         -2   -1    0    0    0  501 -0.00000000000E+00 -0.00000000000E+00 -0.13481403087E+03  0.13481403087E+03  0.00000000000E+00 0. -1.
         25    2    1    2    0    0 -0.26879053424E+02  0.10070104543E+03 -0.41020775167E+01  0.16287424084E+03  0.12509199505E+03 0.  0.
         23    2    1    2    0    0  0.26879053424E+02 -0.10070104543E+03  0.40101516644E+02  0.14275326004E+03  0.88922311878E+02 0.  0.
          5    1    3    3  502    0 -0.38805617078E+01 -0.20026105489E+02 -0.30667200759E+02  0.37068224433E+02  0.41800000000E+01 0.  1.
         -5    1    3    3    0  502 -0.22998491716E+02  0.12072715092E+03  0.26565123242E+02  0.12580601641E+03  0.41800000000E+01 0.  1.
        -11    1    4    4    0    0 -0.20176099536E+02 -0.54691087621E+02  0.49244630752E+02  0.76310049899E+02  0.00000000000E+00 0.  1.
         11    1    4    4    0    0  0.47055152959E+02 -0.46009957811E+02 -0.91431141080E+01  0.66443210138E+02  0.00000000000E+00 0. -1.
</event>
<event>
 8    1  0.7048627E-009  0.1433771E+03  0.7561462E-02  0.1208856E+00
          2   -1    0    0  501    0  0.00000000000E+00  0.00000000000E+00  0.23946769182E+04  0.23946769182E+04  0.00000000000E+00 0. -1.
         -2   -1    0    0    0  501 -0.00000000000E+00 -0.00000000000E+00 -0.11583699103E+02  0.11583699103E+02  0.00000000000E+00 0.  1.
         25    2    1    2    0    0  0.11471093370E+03  0.31333465577E+02  0.15239853854E+04  0.15337275352E+04  0.12509321659E+03 0.  0.
         23    2    1    2    0    0 -0.11471093370E+03 -0.31333465577E+02  0.85910783371E+03  0.87253308215E+03  0.95432306542E+02 0.  0.
          5    1    3    3  502    0  0.84189509157E+02  0.50449265369E+02  0.52667474114E+03  0.53575811443E+03  0.41800000000E+01 0.  1.
         -5    1    3    3    0  502  0.30521424543E+02 -0.19115799792E+02  0.99731064428E+03  0.99796942075E+03  0.41800000000E+01 0.  1.
        -11    1    4    4    0    0 -0.14904976843E+02  0.31134826180E+02  0.17623484454E+03  0.17958356318E+03  0.00000000000E+00 0.  1.
         11    1    4    4    0    0 -0.99805956857E+02 -0.62468291757E+02  0.68287298917E+03  0.69294951897E+03  0.00000000000E+00 0. -1.
</event>
<event>
 8    1  0.7048627E-009  0.9981126E+02  0.7561462E-02  0.1280693E+00
          2   -1    0    0  501    0  0.00000000000E+00  0.00000000000E+00  0.72566036781E+03  0.72566036781E+03  0.00000000000E+00 0.  1.
         -2   -1    0    0    0  501 -0.00000000000E+00 -0.00000000000E+00 -0.23636750474E+02  0.23636750474E+02  0.00000000000E+00 0. -1.
         25    2    1    2    0    0 -0.58009344158E+02 -0.10318262240E+02  0.50874816730E+03  0.52720326940E+03  0.12508812489E+03 0.  0.
         23    2    1    2    0    0  0.58009344158E+02  0.10318262240E+02  0.19327545004E+03  0.22209384889E+03  0.92188543653E+02 0.  0.
          5    1    3    3  502    0 -0.71571823467E+02  0.16482296392E+01  0.50253714244E+03  0.50762810650E+03  0.41800000000E+01 0. -1.
         -5    1    3    3    0  502  0.13562479309E+02 -0.11966491879E+02  0.62110248668E+01  0.19575162906E+02  0.41800000000E+01 0. -1.
        -11    1    4    4    0    0  0.83396369401E+02  0.61917556396E+01  0.14456684764E+03  0.16701157356E+03  0.00000000000E+00 0. -1.
         11    1    4    4    0    0 -0.25387025243E+02  0.41265066005E+01  0.48708602402E+02  0.55082275328E+02  0.00000000000E+00 0.  1.
</event>
<event>
 8    1  0.7048627E-009  0.8117123E+02  0.7561462E-02  0.1325760E+00
         -1   -1    0    0    0  501 -0.00000000000E+00  0.00000000000E+00  0.43155617524E+03  0.43155617524E+03  0.00000000000E+00 0.  1.
          1   -1    0    0  501    0  0.00000000000E+00 -0.00000000000E+00 -0.32400883549E+02  0.32400883549E+02  0.00000000000E+00 0. -1.
         25    2    1    2    0    0  0.15599561659E+01 -0.99742372889E+01  0.13034292473E+03  0.18094306058E+03  0.12509673966E+03 0.  0.
         23    2    1    2    0    0 -0.15599561659E+01  0.99742372889E+01  0.26881236697E+03  0.28301399821E+03  0.87948369368E+02 0.  0.
          5    1    3    3  502    0 -0.10345327801E+02  0.38811898374E+02  0.12368845001E+03  0.13011415884E+03  0.41800000000E+01 0. -1.
         -5    1    3    3    0  502  0.11905283967E+02 -0.48786135663E+02  0.66544747137E+01  0.50828901749E+02  0.41800000000E+01 0. -1.
        -11    1    4    4    0    0 -0.29079149379E+02  0.26604569569E+02  0.22632552947E+03  0.22973168118E+03  0.00000000000E+00 0.  1.
         11    1    4    4    0    0  0.27519193213E+02 -0.16630332280E+02  0.42486837500E+02  0.53282317026E+02  0.00000000000E+00 0. -1.
</event>
<event>
 8    1  0.7048627E-009  0.1241144E+03  0.7561462E-02  0.1236460E+00
         -2   -1    0    0    0  501 -0.00000000000E+00  0.00000000000E+00  0.19003589086E+03  0.19003589086E+03  0.00000000000E+00 0. -1.
          2   -1    0    0  501    0  0.00000000000E+00 -0.00000000000E+00 -0.13067309060E+03  0.13067309060E+03  0.00000000000E+00 0.  1.
         25    2    1    2    0    0  0.53127781889E+02  0.62396906975E+02 -0.48880519974E+02  0.15733214778E+03  0.12509262281E+03 0.  0.
         23    2    1    2    0    0 -0.53127781889E+02 -0.62396906975E+02  0.10824332023E+03  0.16337683368E+03  0.90881451359E+02 0.  0.
          5    1    3    3  502    0  0.79708014032E+02  0.34055156913E+02 -0.71268865114E+02  0.11229356503E+03  0.41800000000E+01 0.  1.
         -5    1    3    3    0  502 -0.26580232144E+02  0.28341750062E+02  0.22388345140E+02  0.45038582743E+02  0.41800000000E+01 0.  1.
        -11    1    4    4    0    0 -0.59600697246E+02 -0.82201251185E+02  0.90302338775E+02  0.13588157048E+03  0.00000000000E+00 0.  1.
         11    1    4    4    0    0  0.64729153578E+01  0.19804344210E+02  0.17940981457E+02  0.27495263201E+02  0.00000000000E+00 0. -1.
</event>
<event>
 8    1  0.7048627E-009  0.5147440E+02  0.7561462E-02  0.1437547E+00
          4   -1    0    0  501    0  0.00000000000E+00  0.00000000000E+00  0.47328551529E+02  0.47328551529E+02  0.00000000000E+00 0. -1.
         -4   -1    0    0    0  501 -0.00000000000E+00 -0.00000000000E+00 -0.45490738518E+03  0.45490738518E+03  0.00000000000E+00 0.  1.
         25    2    1    2    0    0 -0.39168132355E+02  0.10975243073E+02 -0.37129577598E+03  0.39390666203E+03  0.12508919451E+03 0.  0.
         23    2    1    2    0    0  0.39168132355E+02 -0.10975243073E+02 -0.36283057676E+02  0.10832927468E+03  0.93617161488E+02 0.  0.
          5    1    3    3  502    0 -0.80854085953E+01 -0.12575634878E+02 -0.34788346469E+03  0.34822966248E+03  0.41800000000E+01 0.  1.
         -5    1    3    3    0  502 -0.31082723760E+02  0.23550877951E+02 -0.23412311287E+02  0.45676999555E+02  0.41800000000E+01 0.  1.
        -11    1    4    4    0    0  0.28437582247E+02  0.50854831127E+01 -0.66478642598E+02  0.72484261356E+02  0.00000000000E+00 0.  1.
         11    1    4    4    0    0  0.10730550108E+02 -0.16060726186E+02  0.30195584922E+02  0.35845013322E+02  0.00000000000E+00 0. -1.
</event>
<event>
 8    1  0.7048627E-009  0.8542339E+02  0.7561462E-02  0.1314329E+00
          1   -1    0    0  501    0  0.00000000000E+00  0.00000000000E+00  0.42686522058E+02  0.42686522058E+02  0.00000000000E+00 0.  1.
         -1   -1    0    0    0  501 -0.00000000000E+00 -0.00000000000E+00 -0.41049264417E+03  0.41049264417E+03  0.00000000000E+00 0. -1.
         25    2    1    2    0    0 -0.14388523035E+02  0.47980727332E+02 -0.30549301125E+03  0.33389025268E+03  0.12509013201E+03 0.  0.
         23    2    1    2    0    0  0.14388523035E+02 -0.47980727332E+02 -0.62313110866E+02  0.11928891354E+03  0.88531018962E+02 0.  0.
          5    1    3    3  502    0  0.70953076491E+01 -0.17443797544E+02 -0.23307335210E+03  0.23387024035E+03  0.41800000000E+01 0. -1.
         -5    1    3    3    0  502 -0.21483830684E+02  0.65424524876E+02 -0.72419659151E+02  0.10002001234E+03  0.41800000000E+01 0. -1.
        -11    1    4    4    0    0  0.12801957984E+02  0.14913302571E+02 -0.51928539055E+02  0.55523597598E+02  0.00000000000E+00 0. -1.
         11    1    4    4    0    0  0.15865650512E+01 -0.62894029903E+02 -0.10384571811E+02  0.63765315947E+02  0.00000000000E+00 0.  1.
</event>
<event>
 8    1  0.7048627E-009  0.1943146E+03  0.7561462E-02  0.1154626E+00
         -3   -1    0    0    0  501 -0.00000000000E+00  0.00000000000E+00  0.77059522972E+02  0.77059522972E+02  0.00000000000E+00 0.  1.
          3   -1    0    0  501    0  0.00000000000E+00 -0.00000000000E+00 -0.59362818560E+03  0.59362818560E+03  0.00000000000E+00 0. -1.
         25    2    1    2    0    0 -0.16782576692E+03 -0.18760645803E+02 -0.15502205561E+03  0.26114700651E+03  0.12509385040E+03 0.  0.
         23    2    1    2    0    0  0.16782576692E+03  0.18760645803E+02 -0.36154660701E+03  0.40954070207E+03  0.92142214710E+02 0.  0.
          5    1    3    3  502    0 -0.39431426812E+02 -0.50771632761E+02 -0.97361481987E+02  0.11674470733E+03  0.41800000000E+01 0.  1.
         -5    1    3    3    0  502 -0.12839434011E+03  0.32010986958E+02 -0.57660573627E+02  0.14440229918E+03  0.41800000000E+01 0.  1.
        -11    1    4    4    0    0  0.93238955527E+02  0.55674168445E+02 -0.18912509276E+03  0.21808580094E+03  0.00000000000E+00 0. -1.
         11    1    4    4    0    0  0.74586811394E+02 -0.36913522642E+02 -0.17242151425E+03  0.19145490113E+03  0.00000000000E+00 0.  1.
</event>
<event>
 8    1  0.7048627E-009  0.1266781E+03  0.7561462E-02  0.1232470E+00
          1   -1    0    0  501    0  0.00000000000E+00  0.00000000000E+00  0.29072551223E+02  0.29072551223E+02  0.00000000000E+00 0. -1.
         -1   -1    0    0    0  501 -0.00000000000E+00 -0.00000000000E+00 -0.87246390741E+03  0.87246390741E+03  0.00000000000E+00 0.  1.
         25    2    1    2    0    0  0.23197897378E+02 -0.65758374527E+02 -0.71840057115E+03  0.73253528423E+03  0.12508499407E+03 0.  0.
         23    2    1    2    0    0 -0.23197897378E+02  0.65758374527E+02 -0.12499078503E+03  0.16900117440E+03  0.89868761778E+02 0.  0.
          5    1    3    3  502    0  0.96826891720E+01 -0.10201622921E+03 -0.46607757310E+03  0.47722829133E+03  0.41800000000E+01 0. -1.
         -5    1    3    3    0  502  0.13515208206E+02  0.36257854685E+02 -0.25232299805E+03  0.25530699290E+03  0.41800000000E+01 0. -1.
        -11    1    4    4    0    0  0.26467053638E+02  0.55032595046E+02 -0.52831862756E+02  0.80748357061E+02  0.00000000000E+00 0. -1.
         11    1    4    4    0    0 -0.49664951016E+02  0.10725779481E+02 -0.72158922272E+02  0.88252817340E+02  0.00000000000E+00 0.  1.
</event>
<event>
 8    1  0.7048627E-009  0.1914897E+03  0.7561462E-02  0.1157125E+00
          2   -1    0    0  501    0  0.00000000000E+00  0.00000000000E+00  0.22029431116E+04  0.22029431116E+04  0.00000000000E+00 0. -1.
         -2   -1    0    0    0  501 -0.00000000000E+00 -0.00000000000E+00 -0.29838751972E+02  0.29838751972E+02  0.00000000000E+00 0.  1.
         25    2    1    2    0    0 -0.17830510661E+03  0.28242893317E+02  0.17539527025E+04  0.17676503701E+04  0.12508947239E+03 0.  0.
         23    2    1    2    0    0  0.17830510661E+03 -0.28242893317E+02  0.41915165715E+03  0.46513149353E+03  0.89826624758E+02 0.  0.
          5    1    3    3  502    0 -0.10478727543E+03 -0.17314463734E+02  0.52503709124E+03  0.53568795331E+03  0.41800000000E+01 0.  1.
         -5    1    3    3    0  502 -0.73517831186E+02  0.45557357051E+02  0.12289156113E+04  0.12319624168E+04  0.41800000000E+01 0.  1.
        -11    1    4    4    0    0  0.16251451572E+03 -0.57490314592E+01  0.39954882253E+03  0.43137371358E+03  0.00000000000E+00 0. -1.
         11    1    4    4    0    0  0.15790590890E+02 -0.22493861857E+02  0.19602834615E+02  0.33757779946E+02  0.00000000000E+00 0.  1.
</event>
<event>
 8    1  0.7048627E-009  0.9576476E+02  0.7561462E-02  0.1289463E+00
          2   -1    0    0  501    0  0.00000000000E+00  0.00000000000E+00  0.17370315408E+03  0.17370315408E+03  0.00000000000E+00 0. -1.
         -2   -1    0    0    0  501 -0.00000000000E+00 -0.00000000000E+00 -0.75659121898E+02  0.75659121898E+02  0.00000000000E+00 0.  1.
         25    2    1    2    0    0  0.42605612384E+01 -0.22935583364E+02  0.86102666019E+02  0.15364102727E+03  0.12509077823E+03 0.  0.
         23    2    1    2    0    0 -0.42605612384E+01  0.22935583364E+02  0.11941366163E+02  0.95721248712E+02  0.92063933562E+02 0.  0.
          5    1    3    3  502    0 -0.16129568978E+02  0.32948276163E+02  0.86451552523E+02  0.94005825517E+02  0.41800000000E+01 0. -1.
         -5    1    3    3    0  502  0.20390130216E+02 -0.55883859527E+02 -0.34888650423E+00  0.59635201749E+02  0.41800000000E+01 0. -1.
        -11    1    4    4    0    0  0.43588948428E+02  0.16875992109E+02  0.58961883205E+01  0.47112212550E+02  0.00000000000E+00 0.  1.
         11    1    4    4    0    0 -0.47849509666E+02  0.60595912548E+01  0.60451778422E+01  0.48609036162E+02  0.00000000000E+00 0. -1.
</event>
<event>
 8    1  0.7048627E-009  0.9646868E+02  0.7561462E-02  0.1287902E+00
          1   -1    0    0  501    0  0.00000000000E+00  0.00000000000E+00  0.10590499952E+03  0.10590499952E+03  0.00000000000E+00 0. -1.
         -1   -1    0    0    0  501 -0.00000000000E+00 -0.00000000000E+00 -0.11470193536E+03  0.11470193536E+03  0.00000000000E+00 0.  1.
         25    2    1    2    0    0  0.12487272367E+02  0.38739533104E+00 -0.11351325788E+02  0.12622384176E+03  0.12509006190E+03 0.  0.
         23    2    1    2    0    0 -0.12487272367E+02 -0.38739533104E+00  0.25543899544E+01  0.94383093120E+02  0.93517705877E+02 0.  0.
          5    1    3    3  502    0  0.54952577596E+02 -0.15781077381E+02  0.29948857742E+02  0.64677930300E+02  0.41800000000E+01 0. -1.
         -5    1    3    3    0  502 -0.42465305230E+02  0.16168472712E+02 -0.41300183530E+02  0.61545911462E+02  0.41800000000E+01 0. -1.
        -11    1    4    4    0    0 -0.10749403320E+02  0.44134256169E+02 -0.12904547578E+02  0.47221918508E+02  0.00000000000E+00 0.  1.
         11    1    4    4    0    0 -0.17378690469E+01 -0.44521651500E+02  0.15458937533E+02  0.47161174612E+02  0.00000000000E+00 0. -1.
</event>
<event>
 8    1  0.7048627E-009  0.9750192E+02  0.7561462E-02  0.1285639E+00
          2   -1    0    0  501    0  0.00000000000E+00  0.00000000000E+00  0.44774607101E+02  0.44774607101E+02  0.00000000000E+00 0. -1.
         -2   -1    0    0    0  501 -0.00000000000E+00 -0.00000000000E+00 -0.32848820674E+03  0.32848820674E+03  0.00000000000E+00 0.  1.
         25    2    1    2    0    0  0.52375954655E+00  0.15602741539E+02 -0.78922983604E+02  0.14872845611E+03  0.12509035314E+03 0.  0.
         23    2    1    2    0    0 -0.52375954655E+00 -0.15602741539E+02 -0.20479061603E+03  0.22453435773E+03  0.90734566281E+02 0.  0.
          5    1    3    3  502    0  0.21525219633E+02 -0.41438128670E+02 -0.74001519363E+02  0.87602230885E+02  0.41800000000E+01 0.  1.
         -5    1    3    3    0  502 -0.21001460087E+02  0.57040870209E+02 -0.49214642411E+01  0.61126225225E+02  0.41800000000E+01 0.  1.
        -11    1    4    4    0    0 -0.39184781480E+02 -0.26163400947E+02 -0.14574721345E+03  0.15317382569E+03  0.00000000000E+00 0.  1.
         11    1    4    4    0    0  0.38661021934E+02  0.10560659408E+02 -0.59043402584E+02  0.71360532039E+02  0.00000000000E+00 0. -1.
</event>
<event>
 8    1  0.7048627E-009  0.1322879E+03  0.7561462E-02  0.1224100E+00
         -1   -1    0    0    0  501 -0.00000000000E+00  0.00000000000E+00  0.63560644269E+03  0.63560644269E+03  0.00000000000E+00 0.  1.
          1   -1    0    0  501    0  0.00000000000E+00 -0.00000000000E+00 -0.49331737035E+02  0.49331737035E+02  0.00000000000E+00 0. -1.
         25    2    1    2    0    0 -0.47723672237E+02 -0.61926275497E+02  0.53434216817E+03  0.55432831948E+03  0.12508365445E+03 0.  0.
         23    2    1    2    0    0  0.47723672237E+02  0.61926275497E+02  0.51932537492E+02  0.13060986025E+03  0.90826948944E+02 0.  0.
          5    1    3    3  502    0  0.26847057468E+02  0.21990110034E+02  0.11453364530E+03  0.11974872751E+03  0.41800000000E+01 0.  1.
         -5    1    3    3    0  502 -0.74570729705E+02 -0.83916385531E+02  0.41980852287E+03  0.43457959197E+03  0.41800000000E+01 0.  1.
        -11    1    4    4    0    0  0.33475176419E+02  0.84329935271E+02  0.50912599524E+02  0.10403950312E+03  0.00000000000E+00 0. -1.
         11    1    4    4    0    0  0.14248495818E+02 -0.22403659774E+02  0.10199379679E+01  0.26570357126E+02  0.00000000000E+00 0.  1.
</event>
<event>
 8    1  0.7048627E-009  0.9559051E+02  0.7561462E-02  0.1289852E+00
          2   -1    0    0  501    0  0.00000000000E+00  0.00000000000E+00  0.26830907062E+03  0.26830907062E+03  0.00000000000E+00 0. -1.
         -2   -1    0    0    0  501 -0.00000000000E+00 -0.00000000000E+00 -0.51239733074E+02  0.51239733074E+02  0.00000000000E+00 0.  1.
         25    2    1    2    0    0  0.23539657846E-01 -0.24751064815E+02  0.16541553782E+03  0.20885943469E+03  0.12508935822E+03 0.  0.
         23    2    1    2    0    0 -0.23539657846E-01  0.24751064815E+02  0.51653799724E+02  0.11068936901E+03  0.94717504304E+02 0.  0.
          5    1    3    3  502    0  0.13481007652E+02  0.48829844206E+02  0.50283664251E+02  0.71498325456E+02  0.41800000000E+01 0.  1.
         -5    1    3    3    0  502 -0.13457467994E+02 -0.73580909021E+02  0.11513187357E+03  0.13736110923E+03  0.41800000000E+01 0.  1.
        -11    1    4    4    0    0  0.12427598353E+02  0.42203602182E+02 -0.10254019250E+02  0.45174485595E+02  0.00000000000E+00 0.  1.
         11    1    4    4    0    0 -0.12451138011E+02 -0.17452537367E+02  0.61907818975E+02  0.65514883412E+02  0.00000000000E+00 0. -1.
</event>
<event>
 8    1  0.7048627E-009  0.7945206E+02  0.7561462E-02  0.1330614E+00
          2   -1    0    0  501    0  0.00000000000E+00  0.00000000000E+00  0.38556226595E+02  0.38556226595E+02  0.00000000000E+00 0.  1.
         -2   -1    0    0    0  501 -0.00000000000E+00 -0.00000000000E+00 -0.32190939379E+03  0.32190939379E+03  0.00000000000E+00 0. -1.
         25    2    1    2    0    0  0.38099886783E+01  0.14127962439E+02 -0.19952377049E+03  0.23595187542E+03  0.12509771056E+03 0.  0.
         23    2    1    2    0    0 -0.38099886783E+01 -0.14127962439E+02 -0.83829396703E+02  0.12451374496E+03  0.90896587375E+02 0.  0.
          5    1    3    3  502    0 -0.25771533872E+02  0.50419554553E+02 -0.17277998523E+03  0.18187000614E+03  0.41800000000E+01 0.  1.
         -5    1    3    3    0  502  0.29581522550E+02 -0.36291592114E+02 -0.26743785265E+02  0.54081869281E+02  0.41800000000E+01 0.  1.
        -11    1    4    4    0    0  0.22172035866E+02  0.51550088462E+01  0.10295105860E+02  0.24983244291E+02  0.00000000000E+00 0.  1.
         11    1    4    4    0    0 -0.25982024544E+02 -0.19282971285E+02 -0.94124502563E+02  0.99530500671E+02  0.00000000000E+00 0. -1.
</event>
<event>
 8    1  0.7048627E-009  0.2605143E+03  0.7561462E-02  0.1106835E+00
         -2   -1    0    0    0  501 -0.00000000000E+00  0.00000000000E+00  0.35013720061E+03  0.35013720061E+03  0.00000000000E+00 0.  1.
          2   -1    0    0  501    0  0.00000000000E+00 -0.00000000000E+00 -0.25037165437E+03  0.25037165437E+03  0.00000000000E+00 0. -1.
         25    2    1    2    0    0 -0.10142971876E+03 -0.22012152362E+03 -0.81745549389E+02  0.28473100267E+03  0.12509171048E+03 0.  0.
         23    2    1    2    0    0  0.10142971876E+03  0.22012152362E+03  0.18151109563E+03  0.31577785231E+03  0.89598555606E+02 0.  0.
          5    1    3    3  502    0 -0.20496087262E+02 -0.18197322853E+03 -0.55322825274E+02  0.19134375582E+03  0.41800000000E+01 0.  1.
         -5    1    3    3    0  502 -0.80933631497E+02 -0.38148295088E+02 -0.26422724115E+02  0.93387246854E+02  0.41800000000E+01 0.  1.
        -11    1    4    4    0    0  0.83586208801E+02  0.11792927966E+03  0.14771576291E+03  0.20667345238E+03  0.00000000000E+00 0.  1.
         11    1    4    4    0    0  0.17843509958E+02  0.10219224395E+03  0.33795332715E+02  0.10910439993E+03  0.00000000000E+00 0. -1.
</event>
<event>
 8    1  0.7048627E-009  0.8102532E+02  0.7561462E-02  0.1326167E+00
         -2   -1    0    0    0  501 -0.00000000000E+00  0.00000000000E+00  0.52725687540E+02  0.52725687540E+02  0.00000000000E+00 0.  1.
          2   -1    0    0  501    0  0.00000000000E+00 -0.00000000000E+00 -0.28644395318E+03  0.28644395318E+03  0.00000000000E+00 0. -1.
         25    2    1    2    0    0  0.24080753487E+02  0.52939333750E+02 -0.14420024829E+03  0.19955813693E+03  0.12508909889E+03 0.  0.
         23    2    1    2    0    0 -0.24080753487E+02 -0.52939333750E+02 -0.89518017350E+02  0.13961150379E+03  0.89974667625E+02 0.  0.
          5    1    3    3  502    0 -0.26151758351E+02  0.45879219305E+02 -0.72659413731E+01  0.53470398660E+02  0.41800000000E+01 0.  1.
         -5    1    3    3    0  502  0.50232511838E+02  0.70601144450E+01 -0.13693430692E+03  0.14608773827E+03  0.41800000000E+01 0.  1.
        -11    1    4    4    0    0 -0.12369795015E+02 -0.25390945898E+02 -0.10298477160E+03  0.10678752336E+03  0.00000000000E+00 0. -1.
         11    1    4    4    0    0 -0.11710958471E+02 -0.27548387852E+02  0.13466754253E+02  0.32823980436E+02  0.00000000000E+00 0.  1.
</event>
<event>
 8    1  0.7048627E-009  0.9423834E+02  0.7561462E-02  0.1292901E+00
         -1   -1    0    0    0  501 -0.00000000000E+00  0.00000000000E+00  0.10139704540E+03  0.10139704540E+03  0.00000000000E+00 0.  1.
          1   -1    0    0  501    0  0.00000000000E+00 -0.00000000000E+00 -0.24931139057E+03  0.24931139057E+03  0.00000000000E+00 0. -1.
         25    2    1    2    0    0 -0.30408994103E+02  0.43386506787E+02 -0.19282712549E+03  0.23587431284E+03  0.12508914916E+03 0.  0.
         23    2    1    2    0    0  0.30408994103E+02 -0.43386506787E+02  0.44912780323E+02  0.11483412314E+03  0.91447373429E+02 0.  0.
          5    1    3    3  502    0 -0.76624305020E+02  0.45174645610E+02 -0.11841798865E+03  0.14816317073E+03  0.41800000000E+01 0.  1.
         -5    1    3    3    0  502  0.46215310917E+02 -0.17881388227E+01 -0.74409136841E+02  0.87711142103E+02  0.41800000000E+01 0.  1.
        -11    1    4    4    0    0  0.18686802753E+02 -0.27460211539E+02  0.73163331473E+02  0.80350064637E+02  0.00000000000E+00 0.  1.
         11    1    4    4    0    0  0.11722191350E+02 -0.15926295248E+02 -0.28250551151E+02  0.34484058501E+02  0.00000000000E+00 0. -1.
</event>
<event>
 8    1  0.7048627E-009  0.6164511E+02  0.7561462E-02  0.1391055E+00
          1   -1    0    0  501    0  0.00000000000E+00  0.00000000000E+00  0.50421900426E+02  0.50421900426E+02  0.00000000000E+00 0. -1.
         -1   -1    0    0    0  501 -0.00000000000E+00 -0.00000000000E+00 -0.25195909023E+03  0.25195909023E+03  0.00000000000E+00 0.  1.
         25    2    1    2    0    0 -0.70309278923E+01 -0.86470760328E+01 -0.15397575664E+03  0.19869702571E+03  0.12509104094E+03 0.  0.
         23    2    1    2    0    0  0.70309278923E+01  0.86470760328E+01 -0.47561433162E+02  0.10368396494E+03  0.91455283013E+02 0.  0.
          5    1    3    3  502    0 -0.13279446009E+02  0.57215522051E+01 -0.17302592969E+03  0.17367937296E+03  0.41800000000E+01 0. -1.
         -5    1    3    3    0  502  0.62485181164E+01 -0.14368628238E+02  0.19050173049E+02  0.25017652753E+02  0.41800000000E+01 0. -1.
        -11    1    4    4    0    0  0.35566955752E+02  0.37330737233E+02 -0.29153654245E+02  0.59232827382E+02  0.00000000000E+00 0.  1.
         11    1    4    4    0    0 -0.28536027859E+02 -0.28683661201E+02 -0.18407778917E+02  0.44451137562E+02  0.00000000000E+00 0. -1.
</event>
<event>
 8    1  0.7048627E-009  0.1220802E+03  0.7561462E-02  0.1239704E+00
          1   -1    0    0  501    0  0.00000000000E+00  0.00000000000E+00  0.29779398872E+03  0.29779398872E+03  0.00000000000E+00 0. -1.
         -1   -1    0    0    0  501 -0.00000000000E+00 -0.00000000000E+00 -0.77891727923E+02  0.77891727923E+02  0.00000000000E+00 0.  1.
         25    2    1    2    0    0 -0.62464013744E+02  0.82148880403E+02  0.79670117564E+02  0.18067885610E+03  0.12508928749E+03 0.  0.
         23    2    1    2    0    0  0.62464013744E+02 -0.82148880403E+02  0.14023214324E+03  0.19500686054E+03  0.87820442366E+02 0.  0.
          5    1    3    3  502    0 -0.83051626135E+02  0.37065074902E+02  0.52844209744E+01  0.91196435710E+02  0.41800000000E+01 0. -1.
         -5    1    3    3    0  502  0.20587612391E+02  0.45083805501E+02  0.74385696589E+02  0.89482420393E+02  0.41800000000E+01 0. -1.
        -11    1    4    4    0    0  0.33337259694E+02 -0.48819798152E+02  0.13863754888E+03  0.15071534605E+03  0.00000000000E+00 0. -1.
         11    1    4    4    0    0  0.29126754050E+02 -0.33329082251E+02  0.15945943606E+01  0.44291514496E+02  0.00000000000E+00 0.  1.
</event>
<event>
 8    1  0.7048627E-009  0.1360074E+03  0.7561462E-02  0.1218805E+00
          1   -1    0    0  501    0  0.00000000000E+00  0.00000000000E+00  0.11824522424E+03  0.11824522424E+03  0.00000000000E+00 0. -1.
         -1   -1    0    0    0  501 -0.00000000000E+00 -0.00000000000E+00 -0.34006987331E+03  0.34006987331E+03  0.00000000000E+00 0.  1.
         25    2    1    2    0    0  0.47063264007E+02  0.98015565462E+02 -0.26157133631E+03  0.30966080745E+03  0.12509296463E+03 0.  0.
         23    2    1    2    0    0 -0.47063264007E+02 -0.98015565462E+02  0.39746687239E+02  0.14865429011E+03  0.93253937872E+02 0.  0.
          5    1    3    3  502    0 -0.29397878267E+02  0.78983409324E+02 -0.16158288600E+03  0.18228855050E+03  0.41800000000E+01 0. -1.
         -5    1    3    3    0  502  0.76461142274E+02  0.19032156138E+02 -0.99988450302E+02  0.12737225694E+03  0.41800000000E+01 0. -1.
        -11    1    4    4    0    0 -0.65667816331E+01 -0.13574296991E+02 -0.28860727935E+02  0.32562643884E+02  0.00000000000E+00 0.  1.
         11    1    4    4    0    0 -0.40496482373E+02 -0.84441268471E+02  0.68607415174E+02  0.11609164622E+03  0.00000000000E+00 0. -1.
</event>
<event>
 8    1  0.7048627E-009  0.1170987E+03  0.7561462E-02  0.1247962E+00
          1   -1    0    0  501    0  0.00000000000E+00  0.00000000000E+00  0.35049885982E+02  0.35049885982E+02  0.00000000000E+00 0. -1.
         -1   -1    0    0    0  501 -0.00000000000E+00 -0.00000000000E+00 -0.54505293915E+03  0.54505293915E+03  0.00000000000E+00 0.  1.
         25    2    1    2    0    0 -0.50344883145E+02  0.68518562826E+02 -0.29688169132E+03  0.33319076002E+03  0.12509173917E+03 0.  0.
         23    2    1    2    0    0  0.50344883145E+02 -0.68518562826E+02 -0.21312136185E+03  0.24691206512E+03  0.91189101945E+02 0.  0.
          5    1    3    3  502    0 -0.84474490449E+02  0.19047734568E+02 -0.21253577836E+03  0.22953798207E+03  0.41800000000E+01 0. -1.
         -5    1    3    3    0  502  0.34129607304E+02  0.49470828258E+02 -0.84345912963E+02  0.10365277795E+03  0.41800000000E+01 0. -1.
        -11    1    4    4    0    0  0.47557760588E+02 -0.51861707980E+02 -0.21820900251E+03  0.22927395430E+03  0.00000000000E+00 0.  1.
         11    1    4    4    0    0  0.27871225572E+01 -0.16656854846E+02  0.50876406609E+01  0.17638110812E+02  0.00000000000E+00 0. -1.
</event>
<event>
 8    1  0.7048627E-009  0.1713492E+03  0.7561462E-02  0.1176448E+00
          1   -1    0    0  501    0  0.00000000000E+00  0.00000000000E+00  0.57251122425E+02  0.57251122425E+02  0.00000000000E+00 0. -1.
         -1   -1    0    0    0  501 -0.00000000000E+00 -0.00000000000E+00 -0.59176899918E+03  0.59176899918E+03  0.00000000000E+00 0.  1.
         25    2    1    2    0    0  0.85429478952E+02 -0.11755507971E+03 -0.22616727565E+03  0.29650767897E+03  0.12509106472E+03 0.  0.
         23    2    1    2    0    0 -0.85429478952E+02  0.11755507971E+03 -0.30835060110E+03  0.35251244263E+03  0.89819465434E+02 0.  0.
          5    1    3    3  502    0  0.39038052755E+02  0.13242325376E+02 -0.10256282165E+03  0.11061615401E+03  0.41800000000E+01 0. -1.
         -5    1    3    3    0  502  0.46391426197E+02 -0.13079740509E+03 -0.12360445401E+03  0.18589152496E+03  0.41800000000E+01 0. -1.
        -11    1    4    4    0    0 -0.59501310462E+02  0.22045615320E+02 -0.17714997577E+03  0.18817154146E+03  0.00000000000E+00 0.  1.
         11    1    4    4    0    0 -0.25928168490E+02  0.95509464391E+02 -0.13120062533E+03  0.16434090117E+03  0.00000000000E+00 0. -1.
</event>
<event>
 8    1  0.7048627E-009  0.8350370E+02  0.7561462E-02  0.1319393E+00
          1   -1    0    0  501    0  0.00000000000E+00  0.00000000000E+00  0.46553738908E+02  0.46553738908E+02  0.00000000000E+00 0. -1.
         -1   -1    0    0    0  501 -0.00000000000E+00 -0.00000000000E+00 -0.33218173524E+03  0.33218173524E+03  0.00000000000E+00 0.  1.
         25    2    1    2    0    0  0.53513445599E+01 -0.23343603706E+02 -0.80126037241E+02  0.15047058490E+03  0.12509058459E+03 0.  0.
         23    2    1    2    0    0 -0.53513445599E+01  0.23343603706E+02 -0.20550195909E+03  0.22826488924E+03  0.96437771385E+02 0.  0.
          5    1    3    3  502    0 -0.10237325169E+02  0.42534021163E+02 -0.68898751660E+02  0.81721821830E+02  0.41800000000E+01 0. -1.
         -5    1    3    3    0  502  0.15588669729E+02 -0.65877624869E+02 -0.11227285580E+02  0.68748763071E+02  0.41800000000E+01 0. -1.
        -11    1    4    4    0    0  0.21020687470E+02  0.16496512198E+01 -0.11900409520E+01  0.21118874220E+02  0.00000000000E+00 0. -1.
         11    1    4    4    0    0 -0.26372032029E+02  0.21693952486E+02 -0.20431191814E+03  0.20714601502E+03  0.00000000000E+00 0.  1.
</event>
<event>
 8    1  0.7048627E-009  0.9159326E+02  0.7561462E-02  0.1299039E+00
         -2   -1    0    0    0  501 -0.00000000000E+00  0.00000000000E+00  0.13618486998E+03  0.13618486998E+03  0.00000000000E+00 0.  1.
          2   -1    0    0  501    0  0.00000000000E+00 -0.00000000000E+00 -0.10505507762E+03  0.10505507762E+03  0.00000000000E+00 0. -1.
         25    2    1    2    0    0  0.34828175465E+02 -0.36612000188E+02  0.28856072376E+02  0.13796307104E+03  0.12509074983E+03 0.  0.
         23    2    1    2    0    0 -0.34828175465E+02  0.36612000188E+02  0.22737199870E+01  0.10327687656E+03  0.90041674053E+02 0.  0.
          5    1    3    3  502    0  0.22249483466E+02  0.25094343125E+02  0.59019757050E+02  0.68011540885E+02  0.41800000000E+01 0.  1.
         -5    1    3    3    0  502  0.12578691999E+02 -0.61706343313E+02 -0.30163684673E+02  0.69951530152E+02  0.41800000000E+01 0.  1.
        -11    1    4    4    0    0 -0.39798386464E+02  0.54627220333E+02  0.26571942339E+02  0.72623087831E+02  0.00000000000E+00 0.  1.
         11    1    4    4    0    0  0.49702109989E+01 -0.18015220145E+02 -0.24298222352E+02  0.30653788733E+02  0.00000000000E+00 0. -1.
</event>
<event>
 8    1  0.7048627E-009  0.1742210E+03  0.7561462E-02  0.1173516E+00
         -2   -1    0    0    0  501 -0.00000000000E+00  0.00000000000E+00  0.61884427509E+02  0.61884427509E+02  0.00000000000E+00 0. -1.
          2   -1    0    0  501    0  0.00000000000E+00 -0.00000000000E+00 -0.64766940987E+03  0.64766940987E+03  0.00000000000E+00 0.  1.
         25    2    1    2    0    0  0.16275672916E+03 -0.32980385381E+02 -0.35161401722E+03  0.40848206215E+03  0.12509084412E+03 0.  0.
         23    2    1    2    0    0 -0.16275672916E+03  0.32980385381E+02 -0.23417096514E+03  0.30107177523E+03  0.90723283788E+02 0.  0.
          5    1    3    3  502    0  0.49390135152E+02 -0.46504072708E+01 -0.14782660830E+02  0.51932756516E+02  0.41800000000E+01 0.  1.
         -5    1    3    3    0  502  0.11336659400E+03 -0.28329978110E+02 -0.33683135639E+03  0.35654930563E+03  0.41800000000E+01 0.  1.
        -11    1    4    4    0    0 -0.16582668961E+03  0.42950036108E+02 -0.19057886145E+03  0.25624890052E+03  0.00000000000E+00 0. -1.
         11    1    4    4    0    0  0.30699604546E+01 -0.99696507272E+01 -0.43592103690E+02  0.44822874706E+02  0.00000000000E+00 0.  1.
</event>
<event>
 8    1  0.7048627E-009  0.1067428E+03  0.7561462E-02  0.1266723E+00
          1   -1    0    0  501    0  0.00000000000E+00  0.00000000000E+00  0.42095413280E+03  0.42095413280E+03  0.00000000000E+00 0. -1.
         -1   -1    0    0    0  501 -0.00000000000E+00 -0.00000000000E+00 -0.35529818963E+02  0.35529818963E+02  0.00000000000E+00 0.  1.
         25    2    1    2    0    0  0.19555604315E+02 -0.51765765455E+02  0.18059966786E+03  0.22655224392E+03  0.12509021968E+03 0.  0.
         23    2    1    2    0    0 -0.19555604315E+02  0.51765765455E+02  0.20482464597E+03  0.22993170784E+03  0.88619064209E+02 0.  0.
          5    1    3    3  502    0 -0.52181016856E+02 -0.29525999206E+02  0.64012136257E+02  0.87804721612E+02  0.41800000000E+01 0. -1.
         -5    1    3    3    0  502  0.71736621171E+02 -0.22239766249E+02  0.11658753161E+03  0.13874752231E+03  0.41800000000E+01 0. -1.
        -11    1    4    4    0    0 -0.37486063430E+02  0.22144833321E+02  0.32942737519E+02  0.54596909706E+02  0.00000000000E+00 0.  1.
         11    1    4    4    0    0  0.17930459114E+02  0.29620932135E+02  0.17188190845E+03  0.17533479814E+03  0.00000000000E+00 0. -1.
</event>
<event>
 8    1  0.7048627E-009  0.1042449E+03  0.7561462E-02  0.1271614E+00
          2   -1    0    0  501    0  0.00000000000E+00  0.00000000000E+00  0.10031109605E+04  0.10031109605E+04  0.00000000000E+00 0. -1.
         -2   -1    0    0    0  501 -0.00000000000E+00 -0.00000000000E+00 -0.34153555430E+02  0.34153555430E+02  0.00000000000E+00 0.  1.
         25    2    1    2    0    0  0.62026390916E+02 -0.19605220511E+02  0.88693206740E+03  0.89806871490E+03  0.12508911484E+03 0.  0.
         23    2    1    2    0    0 -0.62026390916E+02  0.19605220511E+02  0.82025337668E+02  0.13919580103E+03  0.91736999974E+02 0.  0.
          5    1    3    3  502    0  0.84885929405E+02 -0.17930334178E+01  0.82709543769E+03  0.83145244688E+03  0.41800000000E+01 0.  1.
         -5    1    3    3    0  502 -0.22859538489E+02 -0.17812187093E+02  0.59836629713E+02  0.66616268015E+02  0.41800000000E+01 0.  1.
        -11    1    4    4    0    0 -0.88644870206E+01  0.37171200896E+02 -0.19542724572E+01  0.38263513783E+02  0.00000000000E+00 0.  1.
         11    1    4    4    0    0 -0.53161903895E+02 -0.17565980385E+02  0.83979610125E+02  0.10093228725E+03  0.00000000000E+00 0. -1.
</event>
<event>
 8    1  0.7048627E-009  0.1259608E+03  0.7561462E-02  0.1233575E+00
          2   -1    0    0  501    0  0.00000000000E+00  0.00000000000E+00  0.78289807901E+03  0.78289807901E+03  0.00000000000E+00 0. -1.
         -2   -1    0    0    0  501 -0.00000000000E+00 -0.00000000000E+00 -0.37920998275E+02  0.37920998275E+02  0.00000000000E+00 0.  1.
         25    2    1    2    0    0  0.10602554734E+03  0.17519282450E+00  0.57650637464E+03  0.59937352391E+03  0.12509026258E+03 0.  0.
         23    2    1    2    0    0 -0.10602554734E+03 -0.17519282450E+00  0.16847070610E+03  0.22144555337E+03  0.97027351369E+02 0.  0.
          5    1    3    3  502    0  0.74243285669E+02  0.46360286714E+02  0.19548627942E+03  0.21422814823E+03  0.41800000000E+01 0. -1.
         -5    1    3    3    0  502  0.31782261669E+02 -0.46185093889E+02  0.38102009522E+03  0.38514537569E+03  0.41800000000E+01 0. -1.
        -11    1    4    4    0    0 -0.19840584890E+02  0.82287787599E+01 -0.95305512408E+01  0.23498787535E+02  0.00000000000E+00 0.  1.
         11    1    4    4    0    0 -0.86184962447E+02 -0.84039715844E+01  0.17800125734E+03  0.19794676584E+03  0.00000000000E+00 0. -1.
</event>
<event>
 8    1  0.7048627E-009  0.1020218E+03  0.7561462E-02  0.1276101E+00
         -2   -1    0    0    0  501 -0.00000000000E+00  0.00000000000E+00  0.27488041745E+02  0.27488041745E+02  0.00000000000E+00 0.  1.
          2   -1    0    0  501    0  0.00000000000E+00 -0.00000000000E+00 -0.43305751771E+03  0.43305751771E+03  0.00000000000E+00 0. -1.
         25    2    1    2    0    0 -0.48010260028E+00  0.11843763045E+01 -0.26850424319E+03  0.29621556334E+03  0.12508996007E+03 0.  0.
         23    2    1    2    0    0  0.48010260028E+00 -0.11843763045E+01 -0.13706523277E+03  0.16432999611E+03  0.90641250765E+02 0.  0.
          5    1    3    3  502    0 -0.48813500903E+02  0.39461897408E+02 -0.12372756664E+03  0.13880195374E+03  0.41800000000E+01 0.  1.
         -5    1    3    3    0  502  0.48333398302E+02 -0.38277521104E+02 -0.14477667655E+03  0.15741360960E+03  0.41800000000E+01 0.  1.
        -11    1    4    4    0    0  0.51672784312E+01 -0.39954170430E+02 -0.29608266454E+02  0.49996859337E+02  0.00000000000E+00 0.  1.
         11    1    4    4    0    0 -0.46871758309E+01  0.38769794125E+02 -0.10745696632E+03  0.11433313677E+03  0.00000000000E+00 0. -1.
</event>
<event>
 8    1  0.7048627E-009  0.2239247E+03  0.7561462E-02  0.1130990E+00
          2   -1    0    0  501    0  0.00000000000E+00  0.00000000000E+00  0.29411171617E+03  0.29411171617E+03  0.00000000000E+00 0. -1.
         -2   -1    0    0    0  501 -0.00000000000E+00 -0.00000000000E+00 -0.20006927527E+03  0.20006927527E+03  0.00000000000E+00 0.  1.
         25    2    1    2    0    0  0.10187075598E+03  0.17992540323E+03 -0.18104477989E+02  0.24233944743E+03  0.12509929658E+03 0.  0.
         23    2    1    2    0    0 -0.10187075598E+03 -0.17992540323E+03  0.11214691889E+03  0.25184154401E+03  0.89980165714E+02 0.  0.
          5    1    3    3  502    0  0.51239924287E+02  0.16282297977E+02  0.33382783707E+02  0.63423384618E+02  0.41800000000E+01 0.  1.
         -5    1    3    3    0  502  0.50630831693E+02  0.16364310526E+03 -0.51487261696E+02  0.17891606282E+03  0.41800000000E+01 0.  1.
        -11    1    4    4    0    0 -0.76655930770E+02 -0.53060853117E+02  0.27275148798E+02  0.97136602770E+02  0.00000000000E+00 0.  1.
         11    1    4    4    0    0 -0.25214825210E+02 -0.12686455012E+03  0.84871770089E+02  0.15470494124E+03  0.00000000000E+00 0. -1.
</event>
<event>
 8    1  0.7048627E-009  0.1009099E+03  0.7561462E-02  0.1278394E+00
         -2   -1    0    0    0  501 -0.00000000000E+00  0.00000000000E+00  0.80003699805E+02  0.80003699805E+02  0.00000000000E+00 0.  1.
          2   -1    0    0  501    0  0.00000000000E+00 -0.00000000000E+00 -0.21239606979E+03  0.21239606979E+03  0.00000000000E+00 0. -1.
         25    2    1    2    0    0 -0.32723335767E+02  0.41052664468E+02 -0.14969913520E+02  0.13648396108E+03  0.12509050866E+03 0.  0.
         23    2    1    2    0    0  0.32723335767E+02 -0.41052664468E+02 -0.11742245646E+03  0.15591580852E+03  0.88122460813E+02 0.  0.
          5    1    3    3  502    0 -0.56421872412E+02  0.52189516933E+02  0.31349976183E+02  0.83111171155E+02  0.41800000000E+01 0. -1.
         -5    1    3    3    0  502  0.23698536645E+02 -0.11136852465E+02 -0.46319889703E+02  0.53372789921E+02  0.41800000000E+01 0. -1.
        -11    1    4    4    0    0  0.59322021658E+02 -0.15198210816E+02 -0.50390967286E+02  0.79305343134E+02  0.00000000000E+00 0.  1.
         11    1    4    4    0    0 -0.26598685891E+02 -0.25854453653E+02 -0.67031489178E+02  0.76610465383E+02  0.00000000000E+00 0. -1.
</event>
<event>
 8    1  0.7048627E-009  0.9775631E+02  0.7561462E-02  0.1285086E+00
         -2   -1    0    0    0  501 -0.00000000000E+00  0.00000000000E+00  0.41308777891E+02  0.41308777891E+02  0.00000000000E+00 0. -1.
          2   -1    0    0  501    0  0.00000000000E+00 -0.00000000000E+00 -0.36649319398E+03  0.36649319398E+03  0.00000000000E+00 0.  1.
         25    2    1    2    0    0 -0.18730406014E+02  0.38069992938E+02 -0.11783725557E+03  0.17701147721E+03  0.12508913539E+03 0.  0.
         23    2    1    2    0    0  0.18730406014E+02 -0.38069992938E+02 -0.20734716052E+03  0.23079049466E+03  0.92039420787E+02 0.  0.
          5    1    3    3  502    0  0.29224306450E+02 -0.26195159265E+02 -0.77913192382E+02  0.87339477921E+02  0.41800000000E+01 0.  1.
         -5    1    3    3    0  502 -0.47954712464E+02  0.64265152203E+02 -0.39924063192E+02  0.89671999292E+02  0.41800000000E+01 0.  1.
        -11    1    4    4    0    0  0.24910483798E+02 -0.53562051535E+02 -0.20571886932E+03  0.21403195734E+03  0.00000000000E+00 0.  1.
         11    1    4    4    0    0 -0.61800777835E+01  0.15492058597E+02 -0.16282911992E+01  0.16758537323E+02  0.00000000000E+00 0. -1.
</event>
<event>
 8    1  0.7048627E-009  0.1933419E+03  0.7561462E-02  0.1155481E+00
          3   -1    0    0  501    0  0.00000000000E+00  0.00000000000E+00  0.14538965732E+03  0.14538965732E+03  0.00000000000E+00 0. -1.
         -3   -1    0    0    0  501 -0.00000000000E+00 -0.00000000000E+00 -0.30533696333E+03  0.30533696333E+03  0.00000000000E+00 0.  1.
         25    2    1    2    0    0 -0.17639945736E+03  0.31429284102E+02 -0.66982635087E+02  0.22855736490E+03  0.12508887716E+03 0.  0.
         23    2    1    2    0    0  0.17639945736E+03 -0.31429284102E+02 -0.92964670924E+02  0.22216925576E+03  0.92801830301E+02 0.  0.
          5    1    3    3  502    0 -0.66415884226E+02  0.54065511831E+02  0.18077507774E+02  0.87626582350E+02  0.41800000000E+01 0. -1.
         -5    1    3    3    0  502 -0.10998357314E+03 -0.22636227730E+02 -0.85060142861E+02  0.14093078255E+03  0.41800000000E+01 0. -1.
        -11    1    4    4    0    0  0.55413824939E+02  0.17439300579E+02 -0.67796872531E+02  0.89281784951E+02  0.00000000000E+00 0.  1.
         11    1    4    4    0    0  0.12098563242E+03 -0.48868584681E+02 -0.25167798393E+02  0.13288747081E+03  0.00000000000E+00 0. -1.
</event>
<event>
 8    1  0.7048627E-009  0.1481548E+03  0.7561462E-02  0.1202759E+00
         -1   -1    0    0    0  501 -0.00000000000E+00  0.00000000000E+00  0.98291269395E+02  0.98291269395E+02  0.00000000000E+00 0.  1.
          1   -1    0    0  501    0  0.00000000000E+00 -0.00000000000E+00 -0.39972579842E+03  0.39972579842E+03  0.00000000000E+00 0. -1.
         25    2    1    2    0    0 -0.90958858417E+02 -0.11168386727E+03 -0.53199509457E+02  0.19805203181E+03  0.12509044474E+03 0.  0.
         23    2    1    2    0    0  0.90958858417E+02  0.11168386727E+03 -0.24823501957E+03  0.29996503600E+03  0.87244471166E+02 0.  0.
          5    1    3    3  502    0 -0.91547878207E+02 -0.10782175786E+03  0.30236069504E+01  0.14153854624E+03  0.41800000000E+01 0. -1.
         -5    1    3    3    0  502  0.58901979008E+00 -0.38621094135E+01 -0.56223116407E+02  0.56513485576E+02  0.41800000000E+01 0. -1.
        -11    1    4    4    0    0  0.65292617825E+01  0.33106580970E+02 -0.98636908765E+01  0.35156355907E+02  0.00000000000E+00 0.  1.
         11    1    4    4    0    0  0.84429596634E+02  0.78577286304E+02 -0.23837132869E+03  0.26480868009E+03  0.00000000000E+00 0. -1.
</event>
<event>
 8    1  0.7048627E-009  0.1841826E+03  0.7561462E-02  0.1163815E+00
         -1   -1    0    0    0  501 -0.00000000000E+00  0.00000000000E+00  0.47502946696E+03  0.47502946696E+03  0.00000000000E+00 0.  1.
          1   -1    0    0  501    0  0.00000000000E+00 -0.00000000000E+00 -0.77565093926E+02  0.77565093926E+02  0.00000000000E+00 0. -1.
         25    2    1    2    0    0  0.48841377454E+02  0.14840947882E+03  0.19737717127E+03  0.28109354711E+03  0.12507989819E+03 0.  0.
         23    2    1    2    0    0 -0.48841377454E+02 -0.14840947882E+03  0.20008720176E+03  0.27150101378E+03  0.96265562985E+02 0.  0.
          5    1    3    3  502    0  0.72496809940E+02  0.15493842910E+03  0.18870537240E+03  0.25473298616E+03  0.41800000000E+01 0. -1.
         -5    1    3    3    0  502 -0.23655432487E+02 -0.65289502809E+01  0.86717988737E+01  0.26360560950E+02  0.41800000000E+01 0. -1.
        -11    1    4    4    0    0 -0.33685221197E+02 -0.15288909113E+03  0.20201733395E+03  0.25557928619E+03  0.00000000000E+00 0.  1.
         11    1    4    4    0    0 -0.15156156257E+02  0.44796123072E+01 -0.19301321933E+01  0.15921727582E+02  0.00000000000E+00 0. -1.
</event>
<event>
 8    1  0.7048627E-009  0.1789000E+03  0.7561462E-02  0.1168872E+00
          1   -1    0    0  501    0  0.00000000000E+00  0.00000000000E+00  0.17134853468E+03  0.17134853468E+03  0.00000000000E+00 0. -1.
         -1   -1    0    0    0  501 -0.00000000000E+00 -0.00000000000E+00 -0.21713916857E+03  0.21713916857E+03  0.00000000000E+00 0.  1.
         25    2    1    2    0    0 -0.15675657401E+03  0.10853279811E+02  0.67613730354E+00  0.20084676242E+03  0.12509415507E+03 0.  0.
         23    2    1    2    0    0  0.15675657401E+03 -0.10853279811E+02 -0.46466771189E+02  0.18764094083E+03  0.91430545610E+02 0.  0.
          5    1    3    3  502    0 -0.70700256609E+02 -0.56604118597E+02 -0.83663053420E+01  0.91049546906E+02  0.41800000000E+01 0. -1.
         -5    1    3    3    0  502 -0.86056317405E+02  0.67457398409E+02  0.90424426455E+01  0.10979721551E+03  0.41800000000E+01 0. -1.
        -11    1    4    4    0    0  0.14564581050E+03 -0.65393886524E+01 -0.69648476007E+02  0.16157467602E+03  0.00000000000E+00 0.  1.
         11    1    4    4    0    0  0.11110763510E+02 -0.43138911587E+01  0.23181704817E+02  0.26066264806E+02  0.00000000000E+00 0. -1.
</event>
<event>
 8    1  0.7048627E-009  0.4222312E+03  0.7561462E-02  0.1036343E+00
          2   -1    0    0  501    0  0.00000000000E+00  0.00000000000E+00  0.66193617193E+03  0.66193617193E+03  0.00000000000E+00 0. -1.
         -2   -1    0    0    0  501 -0.00000000000E+00 -0.00000000000E+00 -0.28742557486E+03  0.28742557486E+03  0.00000000000E+00 0.  1.
         25    2    1    2    0    0  0.26804506677E+03 -0.32496442942E+03  0.15470830707E+03  0.46586536214E+03  0.12508332083E+03 0.  0.
         23    2    1    2    0    0 -0.26804506677E+03  0.32496442942E+03  0.21980229000E+03  0.48349638465E+03  0.89474404560E+02 0.  0.
          5    1    3    3  502    0  0.26470277832E+03 -0.32172031330E+03  0.12425243139E+03  0.43477311318E+03  0.41800000000E+01 0.  1.
         -5    1    3    3    0  502  0.33422884535E+01 -0.32441161284E+01  0.30455875685E+02  0.31092248959E+02  0.41800000000E+01 0.  1.
        -11    1    4    4    0    0 -0.40548630722E+02  0.40387086059E+02 -0.14406086314E+01  0.57248436896E+02  0.00000000000E+00 0. -1.
         11    1    4    4    0    0 -0.22749643605E+03  0.28457734336E+03  0.22124289863E+03  0.42624794776E+03  0.00000000000E+00 0.  1.
</event>
<event>
 8    1  0.7048627E-009  0.1055444E+03  0.7561462E-02  0.1269051E+00
          1   -1    0    0  501    0  0.00000000000E+00  0.00000000000E+00  0.22730663616E+03  0.22730663616E+03  0.00000000000E+00 0. -1.
         -1   -1    0    0    0  501 -0.00000000000E+00 -0.00000000000E+00 -0.58472382173E+02  0.58472382173E+02  0.00000000000E+00 0.  1.
         25    2    1    2    0    0 -0.26932355683E+01 -0.37791537023E+02  0.82780229562E+02  0.15471571046E+03  0.12509568685E+03 0.  0.
         23    2    1    2    0    0  0.26932355683E+01  0.37791537023E+02  0.86054024423E+02  0.13106330787E+03  0.91306307354E+02 0.  0.
          5    1    3    3  502    0 -0.97888279573E+01 -0.75283455605E+02  0.87639064076E+02  0.11602369496E+03  0.41800000000E+01 0.  1.
         -5    1    3    3    0  502  0.70955923890E+01  0.37491918582E+02 -0.48588345139E+01  0.38692015496E+02  0.41800000000E+01 0.  1.
        -11    1    4    4    0    0 -0.38697158639E+02 -0.26698420618E+01  0.21459375106E+02  0.44329481423E+02  0.00000000000E+00 0.  1.
         11    1    4    4    0    0  0.41390394207E+02  0.40461379085E+02  0.64594649317E+02  0.86733826449E+02  0.00000000000E+00 0. -1.
</event>
<event>
 8    1  0.7048627E-009  0.1954081E+03  0.7561462E-02  0.1153672E+00
         -2   -1    0    0    0  501 -0.00000000000E+00  0.00000000000E+00  0.42111212804E+02  0.42111212804E+02  0.00000000000E+00 0. -1.
          2   -1    0    0  501    0  0.00000000000E+00 -0.00000000000E+00 -0.10511605608E+04  0.10511605608E+04  0.00000000000E+00 0.  1.
         25    2    1    2    0    0 -0.13582732651E+03 -0.11887233473E+03 -0.52575921212E+03  0.56978090013E+03  0.12509128838E+03 0.  0.
         23    2    1    2    0    0  0.13582732651E+03  0.11887233473E+03 -0.48329013583E+03  0.52349087343E+03  0.88846184966E+02 0.  0.
          5    1    3    3  502    0 -0.13492195675E+03 -0.86987315303E+02 -0.50853826570E+03  0.53329107204E+03  0.41800000000E+01 0.  1.
         -5    1    3    3    0  502 -0.90536976159E+00 -0.31885019429E+02 -0.17220946427E+02  0.36489828093E+02  0.41800000000E+01 0.  1.
        -11    1    4    4    0    0  0.32725899226E+01  0.47304456371E+02 -0.15900467435E+03  0.16592440418E+03  0.00000000000E+00 0.  1.
         11    1    4    4    0    0  0.13255473659E+03  0.71567878362E+02 -0.32428546148E+03  0.35756646925E+03  0.00000000000E+00 0. -1.
</event>
<event>
 8    1  0.7048627E-009  0.1182287E+03  0.7561462E-02  0.1246048E+00
          2   -1    0    0  501    0  0.00000000000E+00  0.00000000000E+00  0.21090972761E+04  0.21090972761E+04  0.00000000000E+00 0. -1.
         -2   -1    0    0    0  501 -0.00000000000E+00 -0.00000000000E+00 -0.16050295755E+02  0.16050295755E+02  0.00000000000E+00 0.  1.
         25    2    1    2    0    0 -0.90582450010E+02  0.19874726065E+02  0.17618589967E+04  0.17687268507E+04  0.12508942037E+03 0.  0.
         23    2    1    2    0    0  0.90582450010E+02 -0.19874726065E+02  0.33118798366E+03  0.35642072119E+03  0.93541782028E+02 0.  0.
          5    1    3    3  502    0 -0.41008910838E+02  0.37746617669E+02  0.26009388856E+03  0.26603165447E+03  0.41800000000E+01 0. -1.
         -5    1    3    3    0  502 -0.49573539172E+02 -0.17871891604E+02  0.15017651081E+04  0.15026951962E+04  0.41800000000E+01 0. -1.
        -11    1    4    4    0    0  0.60393031005E+02  0.31499720413E+02  0.21957520412E+03  0.22989741374E+03  0.00000000000E+00 0. -1.
         11    1    4    4    0    0  0.30189419005E+02 -0.51374446478E+02  0.11161277954E+03  0.12652330745E+03  0.00000000000E+00 0.  1.
</event>
<event>
 8    1  0.7048627E-009  0.8148591E+02  0.7561462E-02  0.1324887E+00
          2   -1    0    0  501    0  0.00000000000E+00  0.00000000000E+00  0.36383803824E+03  0.36383803824E+03  0.00000000000E+00 0. -1.
         -2   -1    0    0    0  501 -0.00000000000E+00 -0.00000000000E+00 -0.36668581486E+02  0.36668581486E+02  0.00000000000E+00 0.  1.
         25    2    1    2    0    0 -0.47942114688E+01  0.35539915331E+02  0.16177942443E+03  0.20761805269E+03  0.12508638450E+03 0.  0.
         23    2    1    2    0    0  0.47942114688E+01 -0.35539915331E+02  0.16539003233E+03  0.19288856704E+03  0.92553046712E+02 0.  0.
          5    1    3    3  502    0  0.27045583912E+02  0.42196526861E+02  0.16700046524E+03  0.17440939848E+03  0.41800000000E+01 0. -1.
         -5    1    3    3    0  502 -0.31839795381E+02 -0.66566115304E+01 -0.52210408131E+01  0.33208654206E+02  0.41800000000E+01 0. -1.
        -11    1    4    4    0    0 -0.15184494453E+02  0.17520676411E+02  0.63415879033E+01  0.24036611883E+02  0.00000000000E+00 0.  1.
         11    1    4    4    0    0  0.19978705922E+02 -0.53060591741E+02  0.15904844443E+03  0.16885195516E+03  0.00000000000E+00 0. -1.
</event>
<event>
 8    1  0.7048627E-009  0.1128539E+03  0.7561462E-02  0.1255374E+00
         -2   -1    0    0    0  501 -0.00000000000E+00  0.00000000000E+00  0.70309354471E+03  0.70309354471E+03  0.00000000000E+00 0.  1.
          2   -1    0    0  501    0  0.00000000000E+00 -0.00000000000E+00 -0.28130171057E+02  0.28130171057E+02  0.00000000000E+00 0. -1.
         25    2    1    2    0    0  0.43964317540E+02  0.68771650604E+02  0.46915674615E+03  0.49235881999E+03  0.12508698582E+03 0.  0.
         23    2    1    2    0    0 -0.43964317540E+02 -0.68771650604E+02  0.20580662750E+03  0.23886489578E+03  0.89653049954E+02 0.  0.
          5    1    3    3  502    0  0.84543057352E+02  0.45823758321E+02  0.24218927928E+03  0.26061554975E+03  0.41800000000E+01 0.  1.
         -5    1    3    3    0  502 -0.40578739812E+02  0.22947892283E+02  0.22696746687E+03  0.23174327024E+03  0.41800000000E+01 0.  1.
        -11    1    4    4    0    0 -0.45646270717E+01 -0.16929237409E+02 -0.49983730933E+01  0.18232351278E+02  0.00000000000E+00 0. -1.
         11    1    4    4    0    0 -0.39399690468E+02 -0.51842413196E+02  0.21080500060E+03  0.22063254450E+03  0.00000000000E+00 0.  1.
</event>
<event>
 8    1  0.7048627E-009  0.1933374E+03  0.7561462E-02  0.1155485E+00
          2   -1    0    0  501    0  0.00000000000E+00  0.00000000000E+00  0.23266624901E+03  0.23266624901E+03  0.00000000000E+00 0. -1.
         -2   -1    0    0    0  501 -0.00000000000E+00 -0.00000000000E+00 -0.22324080073E+03  0.22324080073E+03  0.00000000000E+00 0.  1.
         25    2    1    2    0    0  0.82788544729E+02 -0.14814573378E+03 -0.10020543452E+03  0.23343580442E+03  0.12510013629E+03 0.  0.
         23    2    1    2    0    0 -0.82788544729E+02  0.14814573378E+03  0.10963088280E+03  0.22247124533E+03  0.93131213670E+02 0.  0.
          5    1    3    3  502    0  0.98443874704E+02 -0.14684346455E+03 -0.54685746854E+02  0.18510052096E+03  0.41800000000E+01 0. -1.
         -5    1    3    3    0  502 -0.15655329975E+02 -0.13022692245E+01 -0.45519687668E+02  0.48335283460E+02  0.41800000000E+01 0. -1.
        -11    1    4    4    0    0 -0.93971042345E+02  0.76794958705E+02  0.69282747759E+02  0.13974305571E+03  0.00000000000E+00 0. -1.
         11    1    4    4    0    0  0.11182497616E+02  0.71350775073E+02  0.40348135040E+02  0.82728189619E+02  0.00000000000E+00 0.  1.
</event>
<event>
 8    1  0.7048627E-009  0.8951169E+02  0.7561462E-02  0.1304039E+00
         -2   -1    0    0    0  501 -0.00000000000E+00  0.00000000000E+00  0.23232427080E+03  0.23232427080E+03  0.00000000000E+00 0.  1.
          2   -1    0    0  501    0  0.00000000000E+00 -0.00000000000E+00 -0.69277569710E+02  0.69277569710E+02  0.00000000000E+00 0. -1.
         25    2    1    2    0    0 -0.59732263239E+02  0.75162685115E+01  0.12392176459E+03  0.18608783887E+03  0.12509053710E+03 0.  0.
         23    2    1    2    0    0  0.59732263239E+02 -0.75162685115E+01  0.39124936499E+02  0.11551400164E+03  0.90489150486E+02 0.  0.
          5    1    3    3  502    0 -0.71660983778E+02 -0.95040215612E+01  0.13509560076E+02  0.73658696943E+02  0.41800000000E+01 0. -1.
         -5    1    3    3    0  502  0.11928720539E+02  0.17020290073E+02  0.11041220452E+03  0.11242914192E+03  0.41800000000E+01 0. -1.
        -11    1    4    4    0    0  0.52332575315E+02 -0.30977204004E+02  0.58360155645E+02  0.84286377155E+02  0.00000000000E+00 0.  1.
         11    1    4    4    0    0  0.73996879235E+01  0.23460935493E+02 -0.19235219146E+02  0.31227624488E+02  0.00000000000E+00 0. -1.
</event>
<event>
 8    1  0.7048627E-009  0.1052920E+03  0.7561462E-02  0.1269545E+00
         -2   -1    0    0    0  501 -0.00000000000E+00  0.00000000000E+00  0.10368646236E+03  0.10368646236E+03  0.00000000000E+00 0.  1.
          2   -1    0    0  501    0  0.00000000000E+00 -0.00000000000E+00 -0.11649147004E+03  0.11649147004E+03  0.00000000000E+00 0. -1.
         25    2    1    2    0    0  0.25221996822E+01 -0.66570590285E+00 -0.25674048175E+02  0.12772397915E+03  0.12508978154E+03 0.  0.
         23    2    1    2    0    0 -0.25221996822E+01  0.66570590285E+00  0.12869040492E+02  0.92453953253E+02  0.91516755916E+02 0.  0.
          5    1    3    3  502    0 -0.41138651310E+02 -0.41983702831E+02 -0.32136811070E+02  0.67121285452E+02  0.41800000000E+01 0. -1.
         -5    1    3    3    0  502  0.43660850992E+02  0.41317996928E+02  0.64627628951E+01  0.60602693700E+02  0.41800000000E+01 0. -1.
        -11    1    4    4    0    0  0.42707123035E+02 -0.12126609512E+02  0.35643181639E+01  0.44538268715E+02  0.00000000000E+00 0. -1.
         11    1    4    4    0    0 -0.45229322717E+02  0.12792315415E+02  0.93047223277E+01  0.47915684538E+02  0.00000000000E+00 0.  1.
</event>
<event>
 8    1  0.7048627E-009  0.1883751E+03  0.7561462E-02  0.1159935E+00
          1   -1    0    0  501    0  0.00000000000E+00  0.00000000000E+00  0.13744377241E+03  0.13744377241E+03  0.00000000000E+00 0. -1.
         -1   -1    0    0    0  501 -0.00000000000E+00 -0.00000000000E+00 -0.29530539345E+03  0.29530539345E+03  0.00000000000E+00 0.  1.
         25    2    1    2    0    0  0.14762563893E+03 -0.80801628214E+02 -0.11390874116E+03  0.23863145911E+03  0.12509012580E+03 0.  0.
         23    2    1    2    0    0 -0.14762563893E+03  0.80801628214E+02 -0.43952879875E+02  0.19411770674E+03  0.86183502063E+02 0.  0.
          5    1    3    3  502    0  0.17082834691E+02 -0.56784462833E+02 -0.83323844529E+02  0.10235542940E+03  0.41800000000E+01 0.  1.
         -5    1    3    3    0  502  0.13054280424E+03 -0.24017165381E+02 -0.30584896636E+02  0.13627602971E+03  0.41800000000E+01 0.  1.
        -11    1    4    4    0    0 -0.14568854215E+02  0.44151277061E+02  0.69663516870E+01  0.47011879723E+02  0.00000000000E+00 0. -1.
         11    1    4    4    0    0 -0.13305678472E+03  0.36650351153E+02 -0.50919231562E+02  0.14710582702E+03  0.00000000000E+00 0.  1.
</event>
<event>
 8    1  0.7048627E-009  0.2019132E+03  0.7561462E-02  0.1148135E+00
         -2   -1    0    0    0  501 -0.00000000000E+00  0.00000000000E+00  0.68424581263E+02  0.68424581263E+02  0.00000000000E+00 0. -1.
          2   -1    0    0  501    0  0.00000000000E+00 -0.00000000000E+00 -0.71775631065E+03  0.71775631065E+03  0.00000000000E+00 0.  1.
         25    2    1    2    0    0  0.15249353733E+03 -0.10278267358E+03 -0.23422761975E+03  0.32299347402E+03  0.12507457571E+03 0.  0.
         23    2    1    2    0    0 -0.15249353733E+03  0.10278267358E+03 -0.41510410964E+03  0.46318741789E+03  0.91720255886E+02 0.  0.
          5    1    3    3  502    0  0.15665822346E+03 -0.46732834262E+02 -0.15172300039E+03  0.22307643987E+03  0.41800000000E+01 0. -1.
         -5    1    3    3    0  502 -0.41646861285E+01 -0.56049839318E+02 -0.82504619356E+02  0.99917034149E+02  0.41800000000E+01 0. -1.
        -11    1    4    4    0    0 -0.13927944990E+03  0.92635655044E+02 -0.41397067489E+03  0.44648835306E+03  0.00000000000E+00 0.  1.
         11    1    4    4    0    0 -0.13214087435E+02  0.10147018536E+02 -0.11334347458E+01  0.16699064832E+02  0.00000000000E+00 0. -1.
</event>
<event>
 8    1  0.7048627E-009  0.1239384E+03  0.7561462E-02  0.1236738E+00
         -3   -1    0    0    0  501 -0.00000000000E+00  0.00000000000E+00  0.15325416686E+03  0.15325416686E+03  0.00000000000E+00 0.  1.
          3   -1    0    0  501    0  0.00000000000E+00 -0.00000000000E+00 -0.10269524430E+03  0.10269524430E+03  0.00000000000E+00 0. -1.
         25    2    1    2    0    0 -0.15384278882E+02 -0.65696683368E+02  0.24946519475E+02  0.14430594471E+03  0.12509654912E+03 0.  0.
         23    2    1    2    0    0  0.15384278882E+02  0.65696683368E+02  0.25612403088E+02  0.11164346645E+03  0.85179446860E+02 0.  0.
          5    1    3    3  502    0 -0.44446889855E+02  0.21871060890E+02  0.10757492129E+02  0.50863202407E+02  0.41800000000E+01 0. -1.
         -5    1    3    3    0  502  0.29062610973E+02 -0.87567744258E+02  0.14189027346E+02  0.93442742298E+02  0.41800000000E+01 0. -1.
        -11    1    4    4    0    0  0.16498367270E+02 -0.16656542202E+02  0.16737525070E+02  0.28805924151E+02  0.00000000000E+00 0.  1.
         11    1    4    4    0    0 -0.11140883876E+01  0.82353225571E+02  0.88748780178E+01  0.82837542302E+02  0.00000000000E+00 0. -1.
</event>
<event>
 8    1  0.7048627E-009  0.9589781E+02  0.7561462E-02  0.1289167E+00
          1   -1    0    0  501    0  0.00000000000E+00  0.00000000000E+00  0.17813978731E+04  0.17813978731E+04  0.00000000000E+00 0. -1.
         -1   -1    0    0    0  501 -0.00000000000E+00 -0.00000000000E+00 -0.19128412313E+02  0.19128412313E+02  0.00000000000E+00 0.  1.
         25    2    1    2    0    0  0.51508814033E+02  0.59764699680E+01  0.16129270343E+04  0.16186010776E+04  0.12508778641E+03 0.  0.
         23    2    1    2    0    0 -0.51508814033E+02 -0.59764699680E+01  0.14934242645E+03  0.18192520778E+03  0.90026355979E+02 0.  0.
          5    1    3    3  502    0  0.44279752748E+02 -0.52640981146E+02  0.59994066609E+03  0.60388578773E+03  0.41800000000E+01 0.  1.
         -5    1    3    3    0  502  0.72290612844E+01  0.58617451114E+02  0.10129863682E+04  0.10147152899E+04  0.41800000000E+01 0.  1.
        -11    1    4    4    0    0 -0.10926465427E+02  0.14548056266E+02 -0.67015983379E+01  0.19389301383E+02  0.00000000000E+00 0.  1.
         11    1    4    4    0    0 -0.40582348605E+02 -0.20524526234E+02  0.15604402479E+03  0.16253590640E+03  0.00000000000E+00 0. -1.
</event>
<event>
 8    1  0.7048627E-009  0.1370793E+03  0.7561462E-02  0.1217314E+00
         -3   -1    0    0    0  501 -0.00000000000E+00  0.00000000000E+00  0.73346814917E+02  0.73346814917E+02  0.00000000000E+00 0.  1.
          3   -1    0    0  501    0  0.00000000000E+00 -0.00000000000E+00 -0.25826239231E+03  0.25826239231E+03  0.00000000000E+00 0. -1.
         25    2    1    2    0    0 -0.60136194376E+02  0.56839778700E+02 -0.89426178072E+02  0.17461541387E+03  0.12508548724E+03 0.  0.
         23    2    1    2    0    0  0.60136194376E+02 -0.56839778700E+02 -0.95489399321E+02  0.15699379336E+03  0.93175659131E+02 0.  0.
          5    1    3    3  502    0  0.16125759634E+02  0.70441520144E+02 -0.41903133087E+02  0.83638465113E+02  0.41800000000E+01 0.  1.
         -5    1    3    3    0  502 -0.76261954009E+02 -0.13601741445E+02 -0.47523044985E+02  0.90976948752E+02  0.41800000000E+01 0.  1.
        -11    1    4    4    0    0 -0.24350027479E+02 -0.43602227950E+01 -0.14066809411E+02  0.28457169713E+02  0.00000000000E+00 0. -1.
         11    1    4    4    0    0  0.84486221855E+02 -0.52479555905E+02 -0.81422589910E+02  0.12853662365E+03  0.00000000000E+00 0.  1.
</event>
<event>
 8    1  0.7048627E-009  0.1365658E+03  0.7561462E-02  0.1218026E+00
         -2   -1    0    0    0  501 -0.00000000000E+00  0.00000000000E+00  0.22075200285E+02  0.22075200285E+02  0.00000000000E+00 0.  1.
          2   -1    0    0  501    0  0.00000000000E+00 -0.00000000000E+00 -0.22297714398E+04  0.22297714398E+04  0.00000000000E+00 0. -1.
         25    2    1    2    0    0  0.92928402211E+02  0.41912326363E+02 -0.19728961563E+04  0.19794846198E+04  0.12509110818E+03 0.  0.
         23    2    1    2    0    0 -0.92928402211E+02 -0.41912326363E+02 -0.23480008316E+03  0.27236202025E+03  0.93046547421E+02 0.  0.
          5    1    3    3  502    0 -0.10773456268E+02  0.53878866542E+02 -0.82802890849E+03  0.82986043725E+03  0.41800000000E+01 0. -1.
         -5    1    3    3    0  502  0.10370185848E+03 -0.11966540179E+02 -0.11448672478E+04  0.11496241826E+04  0.41800000000E+01 0. -1.
        -11    1    4    4    0    0  0.58226302910E+00 -0.16691580341E+02  0.17103740783E+01  0.16789081691E+02  0.00000000000E+00 0.  1.
         11    1    4    4    0    0 -0.93510665240E+02 -0.25220746022E+02 -0.23651045723E+03  0.25557293856E+03  0.00000000000E+00 0. -1.
</event>
<event>
 8    1  0.7048627E-009  0.2380070E+03  0.7561462E-02  0.1121128E+00
          1   -1    0    0  501    0  0.00000000000E+00  0.00000000000E+00  0.81846106176E+03  0.81846106176E+03  0.00000000000E+00 0. -1.
         -1   -1    0    0    0  501 -0.00000000000E+00 -0.00000000000E+00 -0.78293739892E+02  0.78293739892E+02  0.00000000000E+00 0.  1.
         25    2    1    2    0    0  0.20325998961E+03  0.10011114140E+03  0.33589215860E+03  0.42403785194E+03  0.12509074169E+03 0.  0.
         23    2    1    2    0    0 -0.20325998961E+03 -0.10011114140E+03  0.40427516326E+03  0.47271694971E+03  0.93198942604E+02 0.  0.
          5    1    3    3  502    0  0.36414990974E+02 -0.12719261566E+02  0.86424437119E+01  0.39749156164E+02  0.41800000000E+01 0. -1.
         -5    1    3    3    0  502  0.16684499864E+03  0.11283040297E+03  0.32724971489E+03  0.38428869578E+03  0.41800000000E+01 0. -1.
        -11    1    4    4    0    0 -0.13102098762E+03 -0.97772298272E+02  0.21487663523E+03  0.26999609233E+03  0.00000000000E+00 0. -1.
         11    1    4    4    0    0 -0.72239001997E+02 -0.23388431287E+01  0.18939852803E+03  0.20272085738E+03  0.00000000000E+00 0.  1.
</event>
<event>
 8    1  0.7048627E-009  0.1055254E+03  0.7561462E-02  0.1269088E+00
         -2   -1    0    0    0  501 -0.00000000000E+00  0.00000000000E+00  0.14465447874E+03  0.14465447874E+03  0.00000000000E+00 0.  1.
          2   -1    0    0  501    0  0.00000000000E+00 -0.00000000000E+00 -0.90935021973E+02  0.90935021973E+02  0.00000000000E+00 0. -1.
         25    2    1    2    0    0 -0.31276448874E+02 -0.11640229254E+02  0.14880442825E+02  0.13031748130E+03  0.12508999626E+03 0.  0.
         23    2    1    2    0    0  0.31276448874E+02  0.11640229254E+02  0.38839013942E+02  0.10527201941E+03  0.91978355470E+02 0.  0.
          5    1    3    3  502    0  0.12503948017E+02  0.46061789369E+02  0.29558956445E+02  0.56296016396E+02  0.41800000000E+01 0. -1.
         -5    1    3    3    0  502 -0.43780396892E+02 -0.57702018623E+02 -0.14678513621E+02  0.74021464909E+02  0.41800000000E+01 0. -1.
        -11    1    4    4    0    0  0.53548461686E+02 -0.15244388523E+02  0.42675696916E+02  0.70150154936E+02  0.00000000000E+00 0.  1.
         11    1    4    4    0    0 -0.22272012812E+02  0.26884617777E+02 -0.38366829734E+01  0.35121864471E+02  0.00000000000E+00 0. -1.
</event>
<event>
 8    1  0.7048627E-009  0.2422949E+03  0.7561462E-02  0.1118273E+00
          1   -1    0    0  501    0  0.00000000000E+00  0.00000000000E+00  0.15145216403E+04  0.15145216403E+04  0.00000000000E+00 0.  1.
         -1   -1    0    0    0  501 -0.00000000000E+00 -0.00000000000E+00 -0.47519762997E+02  0.47519762997E+02  0.00000000000E+00 0. -1.
         25    2    1    2    0    0  0.16570887110E+03 -0.15502616862E+03  0.48473101664E+03  0.54964016424E+03  0.12509040222E+03 0.  0.
         23    2    1    2    0    0 -0.16570887110E+03  0.15502616862E+03  0.98227086066E+03  0.10124012391E+04  0.92777595528E+02 0.  0.
          5    1    3    3  502    0  0.51471275919E+02 -0.13087712742E+03  0.23436896420E+03  0.27335763846E+03  0.41800000000E+01 0.  1.
         -5    1    3    3    0  502  0.11423759518E+03 -0.24149041197E+02  0.25036205245E+03  0.27628252578E+03  0.41800000000E+01 0.  1.
        -11    1    4    4    0    0 -0.59947437493E+02  0.50954831583E+02  0.17880242026E+03  0.19534685975E+03  0.00000000000E+00 0. -1.
         11    1    4    4    0    0 -0.10576143361E+03  0.10407133703E+03  0.80346844039E+03  0.81705437930E+03  0.00000000000E+00 0.  1.
</event>
<event>
 8    1  0.7048627E-009  0.8032486E+02  0.7561462E-02  0.1328132E+00
         -2   -1    0    0    0  501 -0.00000000000E+00  0.00000000000E+00  0.21916719429E+02  0.21916719429E+02  0.00000000000E+00 0.  1.
          2   -1    0    0  501    0  0.00000000000E+00 -0.00000000000E+00 -0.60490509270E+03  0.60490509270E+03  0.00000000000E+00 0. -1.
         25    2    1    2    0    0 -0.31279237898E+02 -0.34105784254E+02 -0.37210195131E+03  0.39528356675E+03  0.12509053013E+03 0.  0.
         23    2    1    2    0    0  0.31279237898E+02  0.34105784254E+02 -0.21088642196E+03  0.23153824538E+03  0.83637795664E+02 0.  0.
          5    1    3    3  502    0 -0.43987395755E+02 -0.39980955385E+02 -0.37556879760E+03  0.38026669840E+03  0.41800000000E+01 0. -1.
         -5    1    3    3    0  502  0.12708157857E+02  0.58751711311E+01  0.34668462886E+01  0.15016868353E+02  0.41800000000E+01 0. -1.
        -11    1    4    4    0    0  0.48601875130E+02  0.45741540965E+00 -0.67095166996E+02  0.82849942240E+02  0.00000000000E+00 0.  1.
         11    1    4    4    0    0 -0.17322637232E+02  0.33648368844E+02 -0.14379125496E+03  0.14868830314E+03  0.00000000000E+00 0. -1.
</event>
<event>
 8    1  0.7048627E-009  0.8997959E+02  0.7561462E-02  0.1302901E+00
         -2   -1    0    0    0  501 -0.00000000000E+00  0.00000000000E+00  0.31178922448E+03  0.31178922448E+03  0.00000000000E+00 0.  1.
          2   -1    0    0  501    0  0.00000000000E+00 -0.00000000000E+00 -0.82555673885E+02  0.82555673885E+02  0.00000000000E+00 0. -1.
         25    2    1    2    0    0 -0.33583325245E+02  0.48448822376E+02 -0.31212936225E+01  0.13832080832E+03  0.12509106849E+03 0.  0.
         23    2    1    2    0    0  0.33583325245E+02 -0.48448822376E+02  0.23235484422E+03  0.25602409005E+03  0.89913474678E+02 0.  0.
          5    1    3    3  502    0 -0.54296029261E+02  0.40795023539E+02 -0.51262922364E+02  0.85191856115E+02  0.41800000000E+01 0. -1.
         -5    1    3    3    0  502  0.20712704016E+02  0.76537988373E+01  0.48141628742E+02  0.53128952203E+02  0.41800000000E+01 0. -1.
        -11    1    4    4    0    0  0.30934278527E+02  0.87774975976E+01  0.16265271491E+03  0.16580072292E+03  0.00000000000E+00 0.  1.
         11    1    4    4    0    0  0.26490467187E+01 -0.57226319974E+02  0.69702129307E+02  0.90223367130E+02  0.00000000000E+00 0. -1.
</event>
<event>
 8    1  0.7048627E-009  0.1407409E+03  0.7561462E-02  0.1212336E+00
          1   -1    0    0  501    0  0.00000000000E+00  0.00000000000E+00  0.19448370057E+03  0.19448370057E+03  0.00000000000E+00 0. -1.
         -1   -1    0    0    0  501 -0.00000000000E+00 -0.00000000000E+00 -0.11593357563E+03  0.11593357563E+03  0.00000000000E+00 0.  1.
         25    2    1    2    0    0  0.68546468200E+01 -0.95402993975E+02  0.67641902802E+02  0.17138311513E+03  0.12509207686E+03 0.  0.
         23    2    1    2    0    0 -0.68546468200E+01  0.95402993975E+02  0.10908222140E+02  0.13903416107E+03  0.10031346466E+03 0.  0.
          5    1    3    3  502    0 -0.50315386151E+02 -0.60119120165E+02  0.68313876595E+02  0.10406827004E+03  0.41800000000E+01 0.  1.
         -5    1    3    3    0  502  0.57170032971E+02 -0.35283873810E+02 -0.67197379344E+00  0.67314845092E+02  0.41800000000E+01 0.  1.
        -11    1    4    4    0    0 -0.23655976782E+02 -0.12296262928E+02 -0.91791604050E+01  0.28196813743E+02  0.00000000000E+00 0.  1.
         11    1    4    4    0    0  0.16801329962E+02  0.10769925690E+03  0.20087382545E+02  0.11083734733E+03  0.00000000000E+00 0. -1.
</event>
<event>
 8    1  0.7048627E-009  0.1956276E+03  0.7561462E-02  0.1153481E+00
         -2   -1    0    0    0  501 -0.00000000000E+00  0.00000000000E+00  0.20607442244E+02  0.20607442244E+02  0.00000000000E+00 0. -1.
          2   -1    0    0  501    0  0.00000000000E+00 -0.00000000000E+00 -0.26582390075E+04  0.26582390075E+04  0.00000000000E+00 0.  1.
         25    2    1    2    0    0  0.93353921740E+02  0.14252203630E+03 -0.20316549890E+04  0.20426202461E+04  0.12509192657E+03 0.  0.
         23    2    1    2    0    0 -0.93353921740E+02 -0.14252203630E+03 -0.60597657630E+03  0.63622620364E+03  0.92459102543E+02 0.  0.
          5    1    3    3  502    0  0.12360408812E+03  0.12634498568E+03 -0.16931898463E+04  0.17023954752E+04  0.41800000000E+01 0. -1.
         -5    1    3    3    0  502 -0.30250166383E+02  0.16177050624E+02 -0.33846514272E+03  0.34022477095E+03  0.41800000000E+01 0. -1.
        -11    1    4    4    0    0 -0.72062256566E+02 -0.14124620226E+03 -0.58574214730E+03  0.60682561053E+03  0.00000000000E+00 0.  1.
         11    1    4    4    0    0 -0.21291665174E+02 -0.12758340452E+01 -0.20234428999E+02  0.29400593111E+02  0.00000000000E+00 0. -1.
</event>
<event>
 8    1  0.7048627E-009  0.1044765E+03  0.7561462E-02  0.1271155E+00
          2   -1    0    0  501    0  0.00000000000E+00  0.00000000000E+00  0.13413884704E+03  0.13413884704E+03  0.00000000000E+00 0.  1.
         -2   -1    0    0    0  501 -0.00000000000E+00 -0.00000000000E+00 -0.14221470846E+03  0.14221470846E+03  0.00000000000E+00 0. -1.
         25    2    1    2    0    0  0.78499603864E+02  0.26988872962E+02 -0.33620063081E+01  0.15016538582E+03  0.12509097866E+03 0.  0.
         23    2    1    2    0    0 -0.78499603864E+02 -0.26988872962E+02 -0.47138551165E+01  0.12618816967E+03  0.94924426067E+02 0.  0.
          5    1    3    3  502    0  0.14767405171E+02 -0.30162694864E+02 -0.43838509289E+02  0.55381871706E+02  0.41800000000E+01 0. -1.
         -5    1    3    3    0  502  0.63732198693E+02  0.57151567826E+02  0.40476502981E+02  0.94783514119E+02  0.41800000000E+01 0. -1.
        -11    1    4    4    0    0 -0.11495995402E+02 -0.18615397145E+02  0.39725617921E+02  0.45352129391E+02  0.00000000000E+00 0.  1.
         11    1    4    4    0    0 -0.67003608462E+02 -0.83734758168E+01 -0.44439473037E+02  0.80836040279E+02  0.00000000000E+00 0. -1.
</event>
<event>
 8    1  0.7048627E-009  0.8718071E+02  0.7561462E-02  0.1309826E+00
         -2   -1    0    0    0  501 -0.00000000000E+00  0.00000000000E+00  0.32288412809E+02  0.32288412809E+02  0.00000000000E+00 0.  1.
          2   -1    0    0  501    0  0.00000000000E+00 -0.00000000000E+00 -0.37865391841E+03  0.37865391841E+03  0.00000000000E+00 0. -1.
         25    2    1    2    0    0 -0.72414686650E+01  0.17189779551E+02 -0.19538951498E+03  0.23275012076E+03  0.12509048228E+03 0.  0.
         23    2    1    2    0    0  0.72414686650E+01 -0.17189779551E+02 -0.15097599061E+03  0.17819221046E+03  0.92794324914E+02 0.  0.
          5    1    3    3  502    0  0.30475206072E+02 -0.12469182101E+02 -0.17873210847E+03  0.18178794703E+03  0.41800000000E+01 0.  1.
         -5    1    3    3    0  502 -0.37716674737E+02  0.29658961651E+02 -0.16657406517E+02  0.50962173730E+02  0.41800000000E+01 0.  1.
        -11    1    4    4    0    0  0.33383719927E+02 -0.44217577408E+02 -0.73202105160E+02  0.91805310891E+02  0.00000000000E+00 0. -1.
         11    1    4    4    0    0 -0.26142251262E+02  0.27027797857E+02 -0.77773885455E+02  0.86386899567E+02  0.00000000000E+00 0.  1.
</event>
<event>
 8    1  0.7048627E-009  0.5241933E+02  0.7561462E-02  0.1432713E+00
         -1   -1    0    0    0  501 -0.00000000000E+00  0.00000000000E+00  0.56511946709E+02  0.56511946709E+02  0.00000000000E+00 0. -1.
          1   -1    0    0  501    0  0.00000000000E+00 -0.00000000000E+00 -0.22618592433E+03  0.22618592433E+03  0.00000000000E+00 0.  1.
         25    2    1    2    0    0 -0.11257126617E+02  0.93369973942E+01 -0.61769933930E+02  0.14027721916E+03  0.12509304960E+03 0.  0.
         23    2    1    2    0    0  0.11257126617E+02 -0.93369973942E+01 -0.10790404369E+03  0.14242065187E+03  0.91795735280E+02 0.  0.
          5    1    3    3  502    0  0.96513372473E+01 -0.14176687128E+02 -0.93644489042E+02  0.95293701243E+02  0.41800000000E+01 0.  1.
         -5    1    3    3    0  502 -0.20908463864E+02  0.23513684522E+02  0.31874555112E+02  0.44983517921E+02  0.41800000000E+01 0.  1.
        -11    1    4    4    0    0 -0.20528391612E+02  0.41034837074E+01 -0.10579450485E+03  0.10784586546E+03  0.00000000000E+00 0.  1.
         11    1    4    4    0    0  0.31785518229E+02 -0.13440481102E+02 -0.21095388389E+01  0.34574786412E+02  0.00000000000E+00 0. -1.
</event>
<event>
 8    1  0.7048627E-009  0.1057568E+03  0.7561462E-02  0.1268636E+00
          1   -1    0    0  501    0  0.00000000000E+00  0.00000000000E+00  0.34361937797E+03  0.34361937797E+03  0.00000000000E+00 0. -1.
         -1   -1    0    0    0  501 -0.00000000000E+00 -0.00000000000E+00 -0.56123064198E+02  0.56123064198E+02  0.00000000000E+00 0.  1.
         25    2    1    2    0    0 -0.69341800390E+02  0.43176699722E+02  0.19741461594E+03  0.24756662892E+03  0.12507674638E+03 0.  0.
         23    2    1    2    0    0  0.69341800390E+02 -0.43176699722E+02  0.90081697827E+02  0.15217581325E+03  0.91489087732E+02 0.  0.
          5    1    3    3  502    0 -0.62807579597E+02  0.18773247653E+02  0.20927871552E+03  0.21934511632E+03  0.41800000000E+01 0. -1.
         -5    1    3    3    0  502 -0.65342207935E+01  0.24403452069E+02 -0.11864099582E+02  0.28221512596E+02  0.41800000000E+01 0. -1.
        -11    1    4    4    0    0  0.20792115552E+02 -0.64074994238E+02  0.35302839306E+02  0.76053977009E+02  0.00000000000E+00 0. -1.
         11    1    4    4    0    0  0.48549684839E+02  0.20898294516E+02  0.54778858521E+02  0.76121836240E+02  0.00000000000E+00 0.  1.
</event>
<event>
 8    1  0.7048627E-009  0.1456123E+03  0.7561462E-02  0.1205971E+00
         -1   -1    0    0    0  501 -0.00000000000E+00  0.00000000000E+00  0.23996212128E+02  0.23996212128E+02  0.00000000000E+00 0.  1.
          1   -1    0    0  501    0  0.00000000000E+00 -0.00000000000E+00 -0.10610287908E+04  0.10610287908E+04  0.00000000000E+00 0. -1.
         25    2    1    2    0    0  0.11397002560E+03  0.26301310269E+02 -0.57105173319E+03  0.59617889630E+03  0.12509304040E+03 0.  0.
         23    2    1    2    0    0 -0.11397002560E+03 -0.26301310269E+02 -0.46598084552E+03  0.48884610666E+03  0.90285336332E+02 0.  0.
          5    1    3    3  502    0  0.17268290520E+02  0.60769305613E+02 -0.29270658324E+03  0.29947573964E+03  0.41800000000E+01 0.  1.
         -5    1    3    3    0  502  0.96701735075E+02 -0.34467995344E+02 -0.27834514995E+03  0.29670315666E+03  0.41800000000E+01 0.  1.
        -11    1    4    4    0    0 -0.34128519269E+02 -0.29713344293E+02 -0.60418404293E+02  0.75485245140E+02  0.00000000000E+00 0.  1.
         11    1    4    4    0    0 -0.79841506326E+02  0.34120340243E+01 -0.40556244122E+03  0.41336086152E+03  0.00000000000E+00 0. -1.
</event>
<event>
 8    1  0.7048627E-009  0.1283926E+03  0.7561462E-02  0.1229860E+00
         -2   -1    0    0    0  501 -0.00000000000E+00  0.00000000000E+00  0.44892139063E+02  0.44892139063E+02  0.00000000000E+00 0.  1.
          2   -1    0    0  501    0  0.00000000000E+00 -0.00000000000E+00 -0.46113171736E+03  0.46113171736E+03  0.00000000000E+00 0. -1.
         25    2    1    2    0    0  0.67249638741E+02  0.63544490319E+02 -0.20498309870E+03  0.25734381895E+03  0.12508938498E+03 0.  0.
         23    2    1    2    0    0 -0.67249638741E+02 -0.63544490319E+02 -0.21125647959E+03  0.24868003747E+03  0.93016367958E+02 0.  0.
          5    1    3    3  502    0  0.27508117732E+02  0.80072695731E+02 -0.54516088386E+02  0.10078595852E+03  0.41800000000E+01 0.  1.
         -5    1    3    3    0  502  0.39741521009E+02 -0.16528205413E+02 -0.15046701032E+03  0.15655786042E+03  0.41800000000E+01 0.  1.
        -11    1    4    4    0    0  0.35674833064E+01 -0.57595140425E+02 -0.11873807392E+03  0.13201764024E+03  0.00000000000E+00 0.  1.
         11    1    4    4    0    0 -0.70817122047E+02 -0.59493498937E+01 -0.92518405671E+02  0.11666239723E+03  0.00000000000E+00 0. -1.
</event>
<event>
 8    1  0.7048627E-009  0.7380183E+02  0.7561462E-02  0.1347622E+00
         -2   -1    0    0    0  501 -0.00000000000E+00  0.00000000000E+00  0.59294001970E+02  0.59294001970E+02  0.00000000000E+00 0.  1.
          2   -1    0    0  501    0  0.00000000000E+00 -0.00000000000E+00 -0.23121181697E+03  0.23121181697E+03  0.00000000000E+00 0. -1.
         25    2    1    2    0    0 -0.19415930466E+02  0.10676024274E+02 -0.14626483464E+03  0.19373166260E+03  0.12509036489E+03 0.  0.
         23    2    1    2    0    0  0.19415930466E+02 -0.10676024274E+02 -0.25652980356E+02  0.96774156345E+02  0.90643290347E+02 0.  0.
          5    1    3    3  502    0  0.40764107226E+01 -0.17063257729E+02  0.17976621445E+02  0.25463762630E+02  0.41800000000E+01 0. -1.
         -5    1    3    3    0  502 -0.23492341188E+02  0.27739282003E+02 -0.16424145609E+03  0.16826789997E+03  0.41800000000E+01 0. -1.
        -11    1    4    4    0    0  0.15002161885E+02 -0.50617802934E+02 -0.10506355398E+02  0.53829456052E+02  0.00000000000E+00 0.  1.
         11    1    4    4    0    0  0.44137685812E+01  0.39941778660E+02 -0.15146624958E+02  0.42944700293E+02  0.00000000000E+00 0. -1.
</event>
<event>
 8    1  0.7048627E-009  0.1055123E+03  0.7561462E-02  0.1269114E+00
         -1   -1    0    0    0  501 -0.00000000000E+00  0.00000000000E+00  0.35275479642E+03  0.35275479642E+03  0.00000000000E+00 0.  1.
          1   -1    0    0  501    0  0.00000000000E+00 -0.00000000000E+00 -0.44023526669E+02  0.44023526669E+02  0.00000000000E+00 0. -1.
         25    2    1    2    0    0  0.23202584174E+02 -0.24787609583E+02  0.25079137536E+03  0.28230316913E+03  0.12508389124E+03 0.  0.
         23    2    1    2    0    0 -0.23202584174E+02  0.24787609583E+02  0.57939894396E+02  0.11447515396E+03  0.92707842226E+02 0.  0.
          5    1    3    3  502    0 -0.42987532361E+02 -0.13430250752E+02  0.17590815617E+03  0.18162998480E+03  0.41800000000E+01 0.  1.
         -5    1    3    3    0  502  0.66190116535E+02 -0.11357358830E+02  0.74883219193E+02  0.10067318433E+03  0.41800000000E+01 0.  1.
        -11    1    4    4    0    0 -0.58194135401E+02  0.52499645105E+01  0.30569070746E+02  0.65943821611E+02  0.00000000000E+00 0.  1.
         11    1    4    4    0    0  0.34991551227E+02  0.19537645072E+02  0.27370823650E+02  0.48531332348E+02  0.00000000000E+00 0. -1.
</event>
<event>
 8    1  0.7048627E-009  0.1299120E+03  0.7561462E-02  0.1227586E+00
         -4   -1    0    0    0  501 -0.00000000000E+00  0.00000000000E+00  0.63502296297E+02  0.63502296297E+02  0.00000000000E+00 0.  1.
          4   -1    0    0  501    0  0.00000000000E+00 -0.00000000000E+00 -0.30445957763E+03  0.30445957763E+03  0.00000000000E+00 0. -1.
         25    2    1    2    0    0  0.80619304847E+02  0.29959874516E+02 -0.13893708973E+03  0.20579191066E+03  0.12509887767E+03 0.  0.
         23    2    1    2    0    0 -0.80619304847E+02 -0.29959874516E+02 -0.10202019159E+03  0.16216996326E+03  0.92162416938E+02 0.  0.
          5    1    3    3  502    0  0.16986259173E+02  0.65381375960E+02 -0.10597394782E+03  0.12574262340E+03  0.41800000000E+01 0. -1.
         -5    1    3    3    0  502  0.63633045674E+02 -0.35421501444E+02 -0.32963141914E+02  0.80049287262E+02  0.41800000000E+01 0. -1.
        -11    1    4    4    0    0 -0.90097726284E+02 -0.24853680543E+01 -0.51288358477E+02  0.10370281120E+03  0.00000000000E+00 0.  1.
         11    1    4    4    0    0  0.94784214376E+01 -0.27474506462E+02 -0.50731833118E+02  0.58467152058E+02  0.00000000000E+00 0. -1.
</event>
<event>
 8    1  0.7048627E-009  0.1356342E+03  0.7561462E-02  0.1219327E+00
         -1   -1    0    0    0  501 -0.00000000000E+00  0.00000000000E+00  0.48436435511E+02  0.48436435511E+02  0.00000000000E+00 0.  1.
          1   -1    0    0  501    0  0.00000000000E+00 -0.00000000000E+00 -0.71762578632E+03  0.71762578632E+03  0.00000000000E+00 0. -1.
         25    2    1    2    0    0 -0.93091016628E+01  0.10481721911E+03 -0.57948982748E+03  0.60210517046E+03  0.12509543299E+03 0.  0.
         23    2    1    2    0    0  0.93091016628E+01 -0.10481721911E+03 -0.89699523333E+02  0.16395705137E+03  0.88105626442E+02 0.  0.
          5    1    3    3  502    0  0.40973124900E+02  0.45044059556E+01 -0.26394305026E+03  0.26717502282E+03  0.41800000000E+01 0. -1.
         -5    1    3    3    0  502 -0.50282226562E+02  0.10031281316E+03 -0.31554677721E+03  0.33493014764E+03  0.41800000000E+01 0. -1.
        -11    1    4    4    0    0  0.28940275142E+02 -0.37148303622E+02  0.33857926926E+01  0.47212282083E+02  0.00000000000E+00 0.  1.
         11    1    4    4    0    0 -0.19631173479E+02 -0.67668915489E+02 -0.93085316026E+02  0.11674476928E+03  0.00000000000E+00 0. -1.
</event>
<event>
 8    1  0.7048627E-009  0.1124656E+03  0.7561462E-02  0.1256071E+00
          1   -1    0    0  501    0  0.00000000000E+00  0.00000000000E+00  0.60048985656E+03  0.60048985656E+03  0.00000000000E+00 0. -1.
         -1   -1    0    0    0  501 -0.00000000000E+00 -0.00000000000E+00 -0.29943233266E+02  0.29943233266E+02  0.00000000000E+00 0.  1.
         25    2    1    2    0    0  0.63950392199E+01 -0.79347823703E+02  0.30539639251E+03  0.33948531122E+03  0.12508535615E+03 0.  0.
         23    2    1    2    0    0 -0.63950392199E+01  0.79347823703E+02  0.26515023079E+03  0.29094777861E+03  0.89492968089E+02 0.  0.
          5    1    3    3  502    0  0.42199146227E+02 -0.65438913487E+02  0.28563472074E+03  0.29608729360E+03  0.41800000000E+01 0. -1.
         -5    1    3    3    0  502 -0.35804107007E+02 -0.13908910215E+02  0.19761671768E+02  0.43398017616E+02  0.41800000000E+01 0. -1.
        -11    1    4    4    0    0  0.33456324606E+02  0.30477587196E+02  0.53353062297E+02  0.69962548795E+02  0.00000000000E+00 0.  1.
         11    1    4    4    0    0 -0.39851363826E+02  0.48870236507E+02  0.21179716849E+03  0.22098522982E+03  0.00000000000E+00 0. -1.
</event>
<event>
 8    1  0.7048627E-009  0.1095651E+03  0.7561462E-02  0.1261377E+00
         -1   -1    0    0    0  501 -0.00000000000E+00  0.00000000000E+00  0.90605449471E+01  0.90605449471E+01  0.00000000000E+00 0.  1.
          1   -1    0    0  501    0  0.00000000000E+00 -0.00000000000E+00 -0.15866809709E+04  0.15866809709E+04  0.00000000000E+00 0. -1.
         25    2    1    2    0    0  0.20991989194E+01 -0.45466677194E+02 -0.11368847386E+04  0.11446509089E+04  0.12508864474E+03 0.  0.
         23    2    1    2    0    0 -0.20991989194E+01  0.45466677194E+02 -0.44073568730E+03  0.45109060688E+03  0.84635478290E+02 0.  0.
          5    1    3    3  502    0  0.24874869398E+02  0.36299975308E+02 -0.53078452234E+03  0.53262193805E+03  0.41800000000E+01 0.  1.
         -5    1    3    3    0  502 -0.22775670479E+02 -0.81766652502E+02 -0.60610021629E+03  0.61202897089E+03  0.41800000000E+01 0.  1.
        -11    1    4    4    0    0  0.70586158028E+01 -0.21358627139E+02 -0.53694290494E+02  0.58215907121E+02  0.00000000000E+00 0.  1.
         11    1    4    4    0    0 -0.91578147222E+01  0.66825304333E+02 -0.38704139680E+03  0.39287469976E+03  0.00000000000E+00 0. -1.
</event>
<event>
 8    1  0.7048627E-009  0.1072305E+03  0.7561462E-02  0.1265786E+00
          1   -1    0    0  501    0  0.00000000000E+00  0.00000000000E+00  0.32311404975E+03  0.32311404975E+03  0.00000000000E+00 0. -1.
         -1   -1    0    0    0  501 -0.00000000000E+00 -0.00000000000E+00 -0.58250548844E+02  0.58250548844E+02  0.00000000000E+00 0.  1.
         25    2    1    2    0    0  0.23687272407E+02 -0.68940590092E+02  0.87710143222E+02  0.16927499620E+03  0.12508822198E+03 0.  0.
         23    2    1    2    0    0 -0.23687272407E+02  0.68940590092E+02  0.17715335768E+03  0.21208960240E+03  0.91020851836E+02 0.  0.
          5    1    3    3  502    0 -0.16734150720E+00  0.29376209947E+02 -0.71550039673E+01  0.30523043685E+02  0.41800000000E+01 0.  1.
         -5    1    3    3    0  502  0.23854613914E+02 -0.98316800039E+02  0.94865147189E+02  0.13875195251E+03  0.41800000000E+01 0.  1.
        -11    1    4    4    0    0 -0.33834273345E+02  0.37558506154E+02  0.24985817359E+02  0.56388744501E+02  0.00000000000E+00 0.  1.
         11    1    4    4    0    0  0.10147000939E+02  0.31382083938E+02  0.15216754033E+03  0.15570085789E+03  0.00000000000E+00 0. -1.
</event>
<event>
 8    1  0.7048627E-009  0.1091468E+03  0.7561462E-02  0.1262158E+00
          1   -1    0    0  501    0  0.00000000000E+00  0.00000000000E+00  0.13365172771E+03  0.13365172771E+03  0.00000000000E+00 0. -1.
         -1   -1    0    0    0  501 -0.00000000000E+00 -0.00000000000E+00 -0.11005912898E+03  0.11005912898E+03  0.00000000000E+00 0.  1.
         25    2    1    2    0    0 -0.25136709207E+02  0.29381166089E+02  0.49108722731E+02  0.13983762158E+03  0.12509111355E+03 0.  0.
         23    2    1    2    0    0  0.25136709207E+02 -0.29381166089E+02 -0.25516124005E+02  0.10387323511E+03  0.92970260391E+02 0.  0.
          5    1    3    3  502    0  0.49665676077E+02 -0.15748970698E+01  0.18317529038E+02  0.53124043060E+02  0.41800000000E+01 0.  1.
         -5    1    3    3    0  502 -0.74802385284E+02  0.30956063159E+02  0.30791193693E+02  0.86713578519E+02  0.41800000000E+01 0.  1.
        -11    1    4    4    0    0  0.44124151987E+02 -0.44818365495E+02  0.68850025326E+01  0.63269502401E+02  0.00000000000E+00 0. -1.
         11    1    4    4    0    0 -0.18987442780E+02  0.15437199406E+02 -0.32401126538E+02  0.40603732707E+02  0.00000000000E+00 0.  1.
</event>
<event>
 8    1  0.7048627E-009  0.8556278E+02  0.7561462E-02  0.1313967E+00
          2   -1    0    0  501    0  0.00000000000E+00  0.00000000000E+00  0.87833010517E+02  0.87833010517E+02  0.00000000000E+00 0. -1.
         -2   -1    0    0    0  501 -0.00000000000E+00 -0.00000000000E+00 -0.16834319269E+03  0.16834319269E+03  0.00000000000E+00 0.  1.
         25    2    1    2    0    0 -0.38956802178E+02  0.12785068514E+02 -0.85980673540E+01  0.13191784297E+03  0.12508916867E+03 0.  0.
         23    2    1    2    0    0  0.38956802178E+02 -0.12785068514E+02 -0.71912114822E+02  0.12425836025E+03  0.92669830149E+02 0.  0.
          5    1    3    3  502    0 -0.81028089440E+02  0.26317380023E+02 -0.16362752010E+02  0.86852563709E+02  0.41800000000E+01 0. -1.
         -5    1    3    3    0  502  0.42071287262E+02 -0.13532311509E+02  0.77646846558E+01  0.45065279256E+02  0.41800000000E+01 0. -1.
        -11    1    4    4    0    0  0.22678448881E+02 -0.43094279952E+01  0.19993100285E+02  0.30538619358E+02  0.00000000000E+00 0. -1.
         11    1    4    4    0    0  0.16278353297E+02 -0.84756405188E+01 -0.91905215106E+02  0.93719740887E+02  0.00000000000E+00 0.  1.
</event>
<event>
 8    1  0.7048627E-009  0.9007539E+02  0.7561462E-02  0.1302669E+00
         -1   -1    0    0    0  501 -0.00000000000E+00  0.00000000000E+00  0.51145291894E+02  0.51145291894E+02  0.00000000000E+00 0.  1.
          1   -1    0    0  501    0  0.00000000000E+00 -0.00000000000E+00 -0.27952719477E+03  0.27952719477E+03  0.00000000000E+00 0. -1.
         25    2    1    2    0    0 -0.11424984869E+02  0.44731070879E+02 -0.15872680570E+03  0.20730008992E+03  0.12509088477E+03 0.  0.
         23    2    1    2    0    0  0.11424984869E+02 -0.44731070879E+02 -0.69655097179E+02  0.12337239674E+03  0.90760766493E+02 0.  0.
          5    1    3    3  502    0  0.13389067809E+01 -0.34753773058E+02 -0.73429332445E+01  0.35791178826E+02  0.41800000000E+01 0. -1.
         -5    1    3    3    0  502 -0.12763891650E+02  0.79484843937E+02 -0.15138387246E+03  0.17150891110E+03  0.41800000000E+01 0. -1.
        -11    1    4    4    0    0 -0.17356216137E+02 -0.20709499851E+02  0.14916282711E+02  0.30864495988E+02  0.00000000000E+00 0.  1.
         11    1    4    4    0    0  0.28781201006E+02 -0.24021571028E+02 -0.84571379890E+02  0.92507900757E+02  0.00000000000E+00 0. -1.
</event>
<event>
 8    1  0.7048627E-009  0.2094975E+03  0.7561462E-02  0.1141965E+00
         -2   -1    0    0    0  501 -0.00000000000E+00  0.00000000000E+00  0.15902204137E+03  0.15902204137E+03  0.00000000000E+00 0.  1.
          2   -1    0    0  501    0  0.00000000000E+00 -0.00000000000E+00 -0.29964657543E+03  0.29964657543E+03  0.00000000000E+00 0. -1.
         25    2    1    2    0    0 -0.18505761807E+03  0.26236824126E+02 -0.39649891287E+02  0.22837280430E+03  0.12508929179E+03 0.  0.
         23    2    1    2    0    0  0.18505761807E+03 -0.26236824126E+02 -0.10097464277E+03  0.23029581250E+03  0.88913383851E+02 0.  0.
          5    1    3    3  502    0 -0.17139633647E+03 -0.12079015988E+02 -0.60831522664E+02  0.18231992029E+03  0.41800000000E+01 0. -1.
         -5    1    3    3    0  502 -0.13661281598E+02  0.38315840113E+02  0.21181631377E+02  0.46052884017E+02  0.41800000000E+01 0. -1.
        -11    1    4    4    0    0  0.15707972588E+03 -0.54687862658E+02 -0.73465348077E+02  0.18182948048E+03  0.00000000000E+00 0. -1.
         11    1    4    4    0    0  0.27977892192E+02  0.28451038533E+02 -0.27509294693E+02  0.48466332021E+02  0.00000000000E+00 0.  1.
</event>
<event>
 8    1  0.7048627E-009  0.6645822E+02  0.7561462E-02  0.1372569E+00
          1   -1    0    0  501    0  0.00000000000E+00  0.00000000000E+00  0.73748329445E+02  0.73748329445E+02  0.00000000000E+00 0. -1.
         -1   -1    0    0    0  501 -0.00000000000E+00 -0.00000000000E+00 -0.23459566698E+03  0.23459566698E+03  0.00000000000E+00 0.  1.
         25    2    1    2    0    0 -0.12244482608E+02 -0.45082154926E+02 -0.15545249612E+03  0.20492965044E+03  0.12509338525E+03 0.  0.
         23    2    1    2    0    0  0.12244482608E+02  0.45082154926E+02 -0.53948414228E+01  0.10341434599E+03  0.92103716516E+02 0.  0.
          5    1    3    3  502    0 -0.21082974599E+02 -0.25336487692E+02  0.12529319409E+02  0.35508951989E+02  0.41800000000E+01 0. -1.
         -5    1    3    3    0  502  0.88384919910E+01 -0.19745667234E+02 -0.16798181553E+03  0.16942069845E+03  0.41800000000E+01 0. -1.
        -11    1    4    4    0    0  0.10336202163E+02 -0.14631187190E+02 -0.33040390036E+02  0.37584253185E+02  0.00000000000E+00 0.  1.
         11    1    4    4    0    0  0.19082804449E+01  0.59713342116E+02  0.27645548613E+02  0.65830092808E+02  0.00000000000E+00 0. -1.
</event>
<event>
 8    1  0.7048627E-009  0.1207900E+03  0.7561462E-02  0.1241799E+00
         -2   -1    0    0    0  501 -0.00000000000E+00  0.00000000000E+00  0.23257269412E+02  0.23257269412E+02  0.00000000000E+00 0.  1.
          2   -1    0    0  501    0  0.00000000000E+00 -0.00000000000E+00 -0.72379355311E+03  0.72379355311E+03  0.00000000000E+00 0. -1.
         25    2    1    2    0    0  0.55047847805E+02  0.23064411762E+02 -0.49381006187E+03  0.51289385526E+03  0.12509794930E+03 0.  0.
         23    2    1    2    0    0 -0.55047847805E+02 -0.23064411762E+02 -0.20672622182E+03  0.23415696726E+03  0.92366237824E+02 0.  0.
          5    1    3    3  502    0  0.22653945093E+02  0.73195776601E+02 -0.32006001210E+03  0.32913022755E+03  0.41800000000E+01 0. -1.
         -5    1    3    3    0  502  0.32393902713E+02 -0.50131364839E+02 -0.17375004977E+03  0.18376362771E+03  0.41800000000E+01 0. -1.
        -11    1    4    4    0    0 -0.69310017507E+02 -0.42199706697E+02 -0.18444936852E+03  0.20150995837E+03  0.00000000000E+00 0. -1.
         11    1    4    4    0    0  0.14262169702E+02  0.19135294935E+02 -0.22276853300E+02  0.32647008895E+02  0.00000000000E+00 0.  1.
</event>
<event>
 8    1  0.7048627E-009  0.4258376E+03  0.7561462E-02  0.1035183E+00
          1   -1    0    0  501    0  0.00000000000E+00  0.00000000000E+00  0.12489968218E+03  0.12489968218E+03  0.00000000000E+00 0. -1.
         -1   -1    0    0    0  501 -0.00000000000E+00 -0.00000000000E+00 -0.15320539596E+04  0.15320539596E+04  0.00000000000E+00 0.  1.
         25    2    1    2    0    0 -0.77835935103E+02 -0.41563590152E+03 -0.75877414482E+03  0.87760784211E+03  0.12508271768E+03 0.  0.
         23    2    1    2    0    0  0.77835935103E+02  0.41563590152E+03 -0.64838013263E+03  0.77934579969E+03  0.90396037976E+02 0.  0.
          5    1    3    3  502    0 -0.87355329549E+02 -0.35496021261E+03 -0.55373365332E+03  0.66352553632E+03  0.41800000000E+01 0. -1.
         -5    1    3    3    0  502  0.95193944467E+01 -0.60675688905E+02 -0.20504049150E+03  0.21408230579E+03  0.41800000000E+01 0. -1.
        -11    1    4    4    0    0  0.41901342666E+02  0.12837336610E+03 -0.27964207366E+03  0.31054006666E+03  0.00000000000E+00 0.  1.
         11    1    4    4    0    0  0.35934592437E+02  0.28726253542E+03 -0.36873805897E+03  0.46880573303E+03  0.00000000000E+00 0. -1.
</event>
<event>
 8    1  0.7048627E-009  0.1412197E+03  0.7561462E-02  0.1211697E+00
          1   -1    0    0  501    0  0.00000000000E+00  0.00000000000E+00  0.12093905311E+03  0.12093905311E+03  0.00000000000E+00 0. -1.
         -1   -1    0    0    0  501 -0.00000000000E+00 -0.00000000000E+00 -0.29546523639E+03  0.29546523639E+03  0.00000000000E+00 0.  1.
         25    2    1    2    0    0  0.13292270494E+03  0.21286925329E+02 -0.82360643660E+01  0.18394774139E+03  0.12508940853E+03 0.  0.
         23    2    1    2    0    0 -0.13292270494E+03 -0.21286925329E+02 -0.16629011891E+03  0.23245654811E+03  0.90895898887E+02 0.  0.
          5    1    3    3  502    0  0.88730198185E+02 -0.14782605036E+02 -0.58847687950E+02  0.10757367828E+03  0.41800000000E+01 0. -1.
         -5    1    3    3    0  502  0.44192506753E+02  0.36069530365E+02  0.50611623584E+02  0.76374063108E+02  0.41800000000E+01 0. -1.
        -11    1    4    4    0    0 -0.89631278186E+02 -0.20241405493E+02 -0.42367082527E+02  0.10118522722E+03  0.00000000000E+00 0. -1.
         11    1    4    4    0    0 -0.43291426752E+02 -0.10455198358E+01 -0.12392303639E+03  0.13127132089E+03  0.00000000000E+00 0.  1.
</event>
<event>
 8    1  0.7048627E-009  0.1422169E+03  0.7561462E-02  0.1210377E+00
          3   -1    0    0  501    0  0.00000000000E+00  0.00000000000E+00  0.14508698431E+03  0.14508698431E+03  0.00000000000E+00 0. -1.
         -3   -1    0    0    0  501 -0.00000000000E+00 -0.00000000000E+00 -0.18324697764E+03  0.18324697764E+03  0.00000000000E+00 0.  1.
         25    2    1    2    0    0 -0.45782669859E+02  0.11038861862E+03  0.11922148736E+01  0.17300536125E+03  0.12509090161E+03 0.  0.
         23    2    1    2    0    0  0.45782669859E+02 -0.11038861862E+03 -0.39352208207E+02  0.15532860070E+03  0.91086101712E+02 0.  0.
          5    1    3    3  502    0 -0.52866053813E+02  0.12149814333E+03  0.34466171853E+02  0.13697447894E+03  0.41800000000E+01 0.  1.
         -5    1    3    3    0  502  0.70833839538E+01 -0.11109524707E+02 -0.33273956980E+02  0.36030882317E+02  0.41800000000E+01 0.  1.
        -11    1    4    4    0    0  0.63530631446E+02 -0.73804675229E+02  0.19062630860E+01  0.97400744641E+02  0.00000000000E+00 0. -1.
         11    1    4    4    0    0 -0.17747961586E+02 -0.36583943390E+02 -0.41258471293E+02  0.57927856061E+02  0.00000000000E+00 0.  1.
</event>
<event>
 8    1  0.7048627E-009  0.1558815E+03  0.7561462E-02  0.1193427E+00
         -2   -1    0    0    0  501 -0.00000000000E+00  0.00000000000E+00  0.17389461660E+03  0.17389461660E+03  0.00000000000E+00 0.  1.
          2   -1    0    0  501    0  0.00000000000E+00 -0.00000000000E+00 -0.16656022303E+03  0.16656022303E+03  0.00000000000E+00 0. -1.
         25    2    1    2    0    0  0.83376185395E+01 -0.12454627063E+03  0.40870895930E+02  0.18138005143E+03  0.12508798308E+03 0.  0.
         23    2    1    2    0    0 -0.83376185395E+01  0.12454627063E+03 -0.33536502366E+02  0.15907478820E+03  0.92729724677E+02 0.  0.
          5    1    3    3  502    0  0.35943306489E+02 -0.13808437614E+03  0.20377798744E+02  0.14419411672E+03  0.41800000000E+01 0. -1.
         -5    1    3    3    0  502 -0.27605687950E+02  0.13538105506E+02  0.20493097186E+02  0.37185934708E+02  0.41800000000E+01 0. -1.
        -11    1    4    4    0    0 -0.29209729963E+02  0.32908870622E+02  0.22738880588E+02  0.49530382398E+02  0.00000000000E+00 0.  1.
         11    1    4    4    0    0  0.20872111424E+02  0.91637400010E+02 -0.56275382954E+02  0.10954440580E+03  0.00000000000E+00 0. -1.
</event>
<event>
 8    1  0.7048627E-009  0.9888911E+02  0.7561462E-02  0.1282649E+00
         -1   -1    0    0    0  501 -0.00000000000E+00  0.00000000000E+00  0.26475946414E+02  0.26475946414E+02  0.00000000000E+00 0.  1.
          1   -1    0    0  501    0  0.00000000000E+00 -0.00000000000E+00 -0.53894657948E+03  0.53894657948E+03  0.00000000000E+00 0. -1.
         25    2    1    2    0    0  0.36844805558E+02 -0.29900449197E+02 -0.26845822629E+03  0.29994912962E+03  0.12509230407E+03 0.  0.
         23    2    1    2    0    0 -0.36844805558E+02  0.29900449197E+02 -0.24401240678E+03  0.26547339628E+03  0.93179895418E+02 0.  0.
          5    1    3    3  502    0 -0.38734714535E+02 -0.11086450837E+02 -0.34088662258E+02  0.52941446871E+02  0.41800000000E+01 0.  1.
         -5    1    3    3    0  502  0.75579520094E+02 -0.18813998361E+02 -0.23436956403E+03  0.24700768275E+03  0.41800000000E+01 0.  1.
        -11    1    4    4    0    0 -0.38614557725E+02 -0.95546244056E+01 -0.35698680779E+02  0.53448767293E+02  0.00000000000E+00 0.  1.
         11    1    4    4    0    0  0.17697521663E+01  0.39455073603E+02 -0.20831372600E+03  0.21202462899E+03  0.00000000000E+00 0. -1.
</event>
<event>
 8    1  0.7048627E-009  0.1134109E+03  0.7561462E-02  0.1254381E+00
         -1   -1    0    0    0  501 -0.00000000000E+00  0.00000000000E+00  0.49804880053E+03  0.49804880053E+03  0.00000000000E+00 0.  1.
          1   -1    0    0  501    0  0.00000000000E+00 -0.00000000000E+00 -0.27408319111E+02  0.27408319111E+02  0.00000000000E+00 0. -1.
         25    2    1    2    0    0  0.38138242134E+02  0.65811910494E+01  0.21181126802E+03  0.24901676995E+03  0.12508997111E+03 0.  0.
         23    2    1    2    0    0 -0.38138242134E+02 -0.65811910494E+01  0.25882921340E+03  0.27644034969E+03  0.89044189229E+02 0.  0.
          5    1    3    3  502    0 -0.10311145418E+02  0.58560457471E+02  0.10252455933E+03  0.11859344234E+03  0.41800000000E+01 0. -1.
         -5    1    3    3    0  502  0.48449387553E+02 -0.51979266422E+02  0.10928670868E+03  0.13042332762E+03  0.41800000000E+01 0. -1.
        -11    1    4    4    0    0 -0.44919831438E+02  0.33086692429E+02  0.16999667476E+03  0.17891727112E+03  0.00000000000E+00 0.  1.
         11    1    4    4    0    0  0.67815893036E+01 -0.39667883478E+02  0.88832538639E+02  0.97523078572E+02  0.00000000000E+00 0. -1.
</event>
<event>
 8    1  0.7048627E-009  0.1127591E+03  0.7561462E-02  0.1255544E+00
         -1   -1    0    0    0  501 -0.00000000000E+00  0.00000000000E+00  0.24443387674E+03  0.24443387674E+03  0.00000000000E+00 0.  1.
          1   -1    0    0  501    0  0.00000000000E+00 -0.00000000000E+00 -0.66521565467E+02  0.66521565467E+02  0.00000000000E+00 0. -1.
         25    2    1    2    0    0  0.22477079986E+02 -0.28175375336E+02  0.16733717221E+03  0.21200955742E+03  0.12508897766E+03 0.  0.
         23    2    1    2    0    0 -0.22477079986E+02  0.28175375336E+02  0.10575139062E+02  0.98945884789E+02  0.91538973397E+02 0.  0.
          5    1    3    3  502    0  0.74247360682E+02 -0.12322580400E+02  0.88049769327E+02  0.11590837258E+03  0.41800000000E+01 0.  1.
         -5    1    3    3    0  502 -0.51770280696E+02 -0.15852794937E+02  0.79287402887E+02  0.96101184838E+02  0.41800000000E+01 0.  1.
        -11    1    4    4    0    0 -0.43690167138E+02  0.49316660650E+02  0.17574722187E+02  0.68189695572E+02  0.00000000000E+00 0.  1.
         11    1    4    4    0    0  0.21213087153E+02 -0.21141285313E+02 -0.69995831258E+01  0.30756189217E+02  0.00000000000E+00 0. -1.
</event>
<event>
 8    1  0.7048627E-009  0.7953266E+02  0.7561462E-02  0.1330383E+00
          1   -1    0    0  501    0  0.00000000000E+00  0.00000000000E+00  0.39573220796E+02  0.39573220796E+02  0.00000000000E+00 0. -1.
         -1   -1    0    0    0  501 -0.00000000000E+00 -0.00000000000E+00 -0.52428457745E+03  0.52428457745E+03  0.00000000000E+00 0.  1.
         25    2    1    2    0    0  0.23741994659E+02  0.30522100754E+02 -0.43288313766E+03  0.45225013229E+03  0.12508833017E+03 0.  0.
         23    2    1    2    0    0 -0.23741994659E+02 -0.30522100754E+02 -0.51828218992E+02  0.11160766595E+03  0.90966069884E+02 0.  0.
          5    1    3    3  502    0  0.23652570983E+02 -0.54036320529E+01 -0.80819779990E+01  0.25912045883E+02  0.41800000000E+01 0.  1.
         -5    1    3    3    0  502  0.89423675840E-01  0.35925732807E+02 -0.42480115966E+03  0.42633808641E+03  0.41800000000E+01 0.  1.
        -11    1    4    4    0    0  0.34811777353E+02 -0.97934287650E+01 -0.24904197946E+02  0.43908884805E+02  0.00000000000E+00 0. -1.
         11    1    4    4    0    0 -0.58553772013E+02 -0.20728671989E+02 -0.26924021046E+02  0.67698781146E+02  0.00000000000E+00 0.  1.
</event>
<event>
 8    1  0.7048627E-009  0.1026489E+03  0.7561462E-02  0.1274822E+00
          2   -1    0    0  501    0  0.00000000000E+00  0.00000000000E+00  0.19292440311E+04  0.19292440311E+04  0.00000000000E+00 0. -1.
         -2   -1    0    0    0  501 -0.00000000000E+00 -0.00000000000E+00 -0.77445384032E+01  0.77445384032E+01  0.00000000000E+00 0.  1.
         25    2    1    2    0    0 -0.83877569161E+01  0.35951967989E+01  0.15660386733E+04  0.15710532059E+04  0.12509104636E+03 0.  0.
         23    2    1    2    0    0  0.83877569161E+01 -0.35951967989E+01  0.35546081949E+03  0.36593536361E+03  0.86446609174E+02 0.  0.
          5    1    3    3  502    0 -0.27044798349E+02  0.58126119864E+02  0.64105274026E+03  0.64426404146E+03  0.41800000000E+01 0.  1.
         -5    1    3    3    0  502  0.18657041433E+02 -0.54530923065E+02  0.92498593299E+03  0.92678916448E+03  0.41800000000E+01 0.  1.
        -11    1    4    4    0    0  0.29153155029E+02  0.31228384169E+02  0.23451482105E+03  0.23837432689E+03  0.00000000000E+00 0.  1.
         11    1    4    4    0    0 -0.20765398113E+02 -0.34823580967E+02  0.12094599844E+03  0.12756103672E+03  0.00000000000E+00 0. -1.
</event>
<event>
 8    1  0.7048627E-009  0.9340220E+02  0.7561462E-02  0.1294816E+00
          1   -1    0    0  501    0  0.00000000000E+00  0.00000000000E+00  0.87163324806E+03  0.87163324806E+03  0.00000000000E+00 0. -1.
         -1   -1    0    0    0  501 -0.00000000000E+00 -0.00000000000E+00 -0.29081784971E+02  0.29081784971E+02  0.00000000000E+00 0.  1.
         25    2    1    2    0    0 -0.56059571828E+02  0.10602958722E+02  0.74254054259E+03  0.75516177874E+03  0.12509099230E+03 0.  0.
         23    2    1    2    0    0  0.56059571828E+02 -0.10602958722E+02  0.10001092050E+03  0.14555325429E+03  0.89041941177E+02 0.  0.
          5    1    3    3  502    0 -0.45985155133E+02 -0.35692249240E+02  0.15376084639E+03  0.16446410378E+03  0.41800000000E+01 0. -1.
         -5    1    3    3    0  502 -0.10074416696E+02  0.46295207962E+02  0.58877969620E+03  0.59069767496E+03  0.41800000000E+01 0. -1.
        -11    1    4    4    0    0  0.21057632410E+02  0.23816210912E+02 -0.25060088882E+01  0.31889118292E+02  0.00000000000E+00 0.  1.
         11    1    4    4    0    0  0.35001939419E+02 -0.34419169634E+02  0.10251692939E+03  0.11366413600E+03  0.00000000000E+00 0. -1.
</event>
<event>
 8    1  0.7048627E-009  0.2369428E+03  0.7561462E-02  0.1121846E+00
         -1   -1    0    0    0  501 -0.00000000000E+00  0.00000000000E+00  0.44549698406E+02  0.44549698406E+02  0.00000000000E+00 0.  1.
          1   -1    0    0  501    0  0.00000000000E+00 -0.00000000000E+00 -0.14539468232E+04  0.14539468232E+04  0.00000000000E+00 0. -1.
         25    2    1    2    0    0 -0.18692394675E+03  0.13253477470E+03 -0.68550020748E+03  0.73352855271E+03  0.12509026666E+03 0.  0.
         23    2    1    2    0    0  0.18692394675E+03 -0.13253477470E+03 -0.72389691732E+03  0.76496796890E+03  0.92968909674E+02 0.  0.
          5    1    3    3  502    0 -0.12323623744E+03  0.35782930012E+02 -0.48724214954E+03  0.50387495769E+03  0.41800000000E+01 0.  1.
         -5    1    3    3    0  502 -0.63687709310E+02  0.96751844689E+02 -0.19825805794E+03  0.22965359503E+03  0.41800000000E+01 0.  1.
        -11    1    4    4    0    0  0.90480782333E+02 -0.72881690163E+02 -0.22363642176E+03  0.25201540007E+03  0.00000000000E+00 0.  1.
         11    1    4    4    0    0  0.96443164419E+02 -0.59653084538E+02 -0.50026049556E+03  0.51295256883E+03  0.00000000000E+00 0. -1.
</event>
<event>
 8    1  0.7048627E-009  0.4768704E+03  0.7561462E-02  0.1019999E+00
         -1   -1    0    0    0  501 -0.00000000000E+00  0.00000000000E+00  0.50206994095E+03  0.50206994095E+03  0.00000000000E+00 0.  1.
          1   -1    0    0  501    0  0.00000000000E+00 -0.00000000000E+00 -0.48587947362E+03  0.48587947362E+03  0.00000000000E+00 0. -1.
         25    2    1    2    0    0  0.19646645454E+03  0.42687847372E+03 -0.97302359979E+02  0.49592286373E+03  0.12508972150E+03 0.  0.
         23    2    1    2    0    0 -0.19646645454E+03 -0.42687847372E+03  0.11349282731E+03  0.49202655085E+03  0.91570769362E+02 0.  0.
          5    1    3    3  502    0  0.13574980138E+03  0.38165344091E+03 -0.54211422551E+02  0.40870980937E+03  0.41800000000E+01 0.  1.
         -5    1    3    3    0  502  0.60716653153E+02  0.45225032807E+02 -0.43090937428E+02  0.87213054361E+02  0.41800000000E+01 0.  1.
        -11    1    4    4    0    0 -0.47951015583E+02 -0.58579366402E+02  0.47755009343E+02  0.89506329278E+02  0.00000000000E+00 0.  1.
         11    1    4    4    0    0 -0.14851543895E+03 -0.36829910732E+03  0.65737817971E+02  0.40252022157E+03  0.00000000000E+00 0. -1.
</event>
<event>
 8    1  0.7048627E-009  0.1098433E+03  0.7561462E-02  0.1260860E+00
         -2   -1    0    0    0  501 -0.00000000000E+00  0.00000000000E+00  0.15742474758E+02  0.15742474758E+02  0.00000000000E+00 0.  1.
          2   -1    0    0  501    0  0.00000000000E+00 -0.00000000000E+00 -0.96683527806E+03  0.96683527806E+03  0.00000000000E+00 0. -1.
         25    2    1    2    0    0  0.52455727624E+02  0.25042529444E+02 -0.55656347636E+03  0.57340321241E+03  0.12509839784E+03 0.  0.
         23    2    1    2    0    0 -0.52455727624E+02 -0.25042529444E+02 -0.39452932694E+03  0.40917454041E+03  0.91606130033E+02 0.  0.
          5    1    3    3  502    0  0.24030081449E+02 -0.45819679197E+02 -0.33543044752E+03  0.33942295935E+03  0.41800000000E+01 0. -1.
         -5    1    3    3    0  502  0.28425646175E+02  0.70862208641E+02 -0.22113302884E+03  0.23398025306E+03  0.41800000000E+01 0. -1.
        -11    1    4    4    0    0 -0.65784321466E+02 -0.33696049747E+01 -0.36165232003E+03  0.36760213788E+03  0.00000000000E+00 0. -1.
         11    1    4    4    0    0  0.13328593841E+02 -0.21672924469E+02 -0.32877006915E+02  0.41572402535E+02  0.00000000000E+00 0.  1.
</event>
<event>
 8    1  0.7048627E-009  0.1424161E+03  0.7561462E-02  0.1210114E+00
         -2   -1    0    0    0  501 -0.00000000000E+00  0.00000000000E+00  0.21454659866E+02  0.21454659866E+02  0.00000000000E+00 0.  1.
          2   -1    0    0  501    0  0.00000000000E+00 -0.00000000000E+00 -0.10134133954E+04  0.10134133954E+04  0.00000000000E+00 0. -1.
         25    2    1    2    0    0 -0.20242369489E+01  0.10185870131E+03 -0.51446317667E+03  0.53916520470E+03  0.12508982868E+03 0.  0.
         23    2    1    2    0    0  0.20242369489E+01 -0.10185870131E+03 -0.47749555888E+03  0.49570285058E+03  0.85673886098E+02 0.  0.
          5    1    3    3  502    0 -0.62008246951E+02  0.68591345594E+02 -0.30185658785E+03  0.31572878774E+03  0.41800000000E+01 0. -1.
         -5    1    3    3    0  502  0.59984010002E+02  0.33267355718E+02 -0.21260658882E+03  0.22343641696E+03  0.41800000000E+01 0. -1.
        -11    1    4    4    0    0  0.35461290643E+02 -0.62955176961E+02 -0.18255402972E+03  0.19633346940E+03  0.00000000000E+00 0.  1.
         11    1    4    4    0    0 -0.33437053694E+02 -0.38903524351E+02 -0.29494152916E+03  0.29936938118E+03  0.00000000000E+00 0. -1.
</event>
<event>
 8    1  0.7048627E-009  0.1093464E+03  0.7561462E-02  0.1261785E+00
         -1   -1    0    0    0  501 -0.00000000000E+00  0.00000000000E+00  0.77497279547E+02  0.77497279547E+02  0.00000000000E+00 0.  1.
          1   -1    0    0  501    0  0.00000000000E+00 -0.00000000000E+00 -0.18722775306E+03  0.18722775306E+03  0.00000000000E+00 0. -1.
         25    2    1    2    0    0  0.21740904288E+02 -0.44030246592E+02 -0.38821280087E+02  0.13987782590E+03  0.12508950739E+03 0.  0.
         23    2    1    2    0    0 -0.21740904288E+02  0.44030246592E+02 -0.70909193425E+02  0.12484720670E+03  0.90262848252E+02 0.  0.
          5    1    3    3  502    0 -0.40611573025E+02  0.17707626739E+02 -0.17643440174E+01  0.44535886857E+02  0.41800000000E+01 0.  1.
         -5    1    3    3    0  502  0.62352477313E+02 -0.61737873331E+02 -0.37056936069E+02  0.95341939048E+02  0.41800000000E+01 0.  1.
        -11    1    4    4    0    0  0.25049765247E+02  0.26268653125E+02 -0.65003956472E+02  0.74451643588E+02  0.00000000000E+00 0. -1.
         11    1    4    4    0    0 -0.46790669535E+02  0.17761593468E+02 -0.59052369529E+01  0.50395563113E+02  0.00000000000E+00 0.  1.
</event>
<event>
 8    1  0.7048627E-009  0.9195547E+02  0.7561462E-02  0.1298184E+00
          1   -1    0    0  501    0  0.00000000000E+00  0.00000000000E+00  0.62567067346E+02  0.62567067346E+02  0.00000000000E+00 0. -1.
         -1   -1    0    0    0  501 -0.00000000000E+00 -0.00000000000E+00 -0.27181053075E+03  0.27181053075E+03  0.00000000000E+00 0.  1.
         25    2    1    2    0    0  0.62872801613E+02  0.16910781496E+02 -0.15819829331E+03  0.21193008181E+03  0.12509474751E+03 0.  0.
         23    2    1    2    0    0 -0.62872801613E+02 -0.16910781496E+02 -0.51045170091E+02  0.12244751629E+03  0.90270821096E+02 0.  0.
          5    1    3    3  502    0 -0.35021622586E+01  0.48654946344E+01 -0.14231228162E+03  0.14249981080E+03  0.41800000000E+01 0.  1.
         -5    1    3    3    0  502  0.66374963871E+02  0.12045286862E+02 -0.15886011690E+02  0.69430271006E+02  0.41800000000E+01 0.  1.
        -11    1    4    4    0    0 -0.18009533261E+02 -0.50080633431E+02 -0.12602657211E+02  0.54692230727E+02  0.00000000000E+00 0.  1.
         11    1    4    4    0    0 -0.44863268352E+02  0.33169851935E+02 -0.38442512880E+02  0.67755285559E+02  0.00000000000E+00 0. -1.
</event>
<event>
 8    1  0.7048627E-009  0.9033082E+02  0.7561462E-02  0.1302053E+00
          2   -1    0    0  501    0  0.00000000000E+00  0.00000000000E+00  0.16784882651E+03  0.16784882651E+03  0.00000000000E+00 0. -1.
         -2   -1    0    0    0  501 -0.00000000000E+00 -0.00000000000E+00 -0.13704276045E+03  0.13704276045E+03  0.00000000000E+00 0.  1.
         25    2    1    2    0    0 -0.55013170204E+02  0.57120818279E+01 -0.73830231758E+02  0.15542733559E+03  0.12509067412E+03 0.  0.
         23    2    1    2    0    0  0.55013170204E+02 -0.57120818279E+01  0.10463629781E+03  0.14946425137E+03  0.91278315293E+02 0.  0.
          5    1    3    3  502    0 -0.82659199210E+02 -0.13360693979E+02 -0.11662830154E+02  0.84643637474E+02  0.41800000000E+01 0.  1.
         -5    1    3    3    0  502  0.27646029005E+02  0.19072775807E+02 -0.62167401604E+02  0.70783698116E+02  0.41800000000E+01 0.  1.
        -11    1    4    4    0    0  0.31404749589E+02 -0.18173439972E+02 -0.49979992135E+01  0.36626659871E+02  0.00000000000E+00 0.  1.
         11    1    4    4    0    0  0.23608420615E+02  0.12461358144E+02  0.10963429703E+03  0.11283759150E+03  0.00000000000E+00 0. -1.
</event>
<event>
 8    1  0.7048627E-009  0.1144482E+03  0.7561462E-02  0.1252547E+00
          3   -1    0    0  501    0  0.00000000000E+00  0.00000000000E+00  0.26558930932E+04  0.26558930932E+04  0.00000000000E+00 0. -1.
         -3   -1    0    0    0  501 -0.00000000000E+00 -0.00000000000E+00 -0.95815970498E+01  0.95815970498E+01  0.00000000000E+00 0.  1.
         25    2    1    2    0    0 -0.66216464906E+02  0.54666539551E+02  0.20730073804E+04  0.20785522238E+04  0.12508675980E+03 0.  0.
         23    2    1    2    0    0  0.66216464906E+02 -0.54666539551E+02  0.57330411579E+03  0.58692246640E+03  0.91800444500E+02 0.  0.
          5    1    3    3  502    0 -0.11802557623E+02 -0.15138665354E+02  0.51748451234E+02  0.55352092646E+02  0.41800000000E+01 0. -1.
         -5    1    3    3    0  502 -0.54413907283E+02  0.69805204905E+02  0.20212589291E+04  0.20232001312E+04  0.41800000000E+01 0. -1.
        -11    1    4    4    0    0  0.32416984708E+01  0.21541024952E+02  0.52868976102E+02  0.57180879663E+02  0.00000000000E+00 0.  1.
         11    1    4    4    0    0  0.62974766435E+02 -0.76207564503E+02  0.52043513969E+03  0.52974158674E+03  0.00000000000E+00 0. -1.
</event>
<event>
 8    1  0.7048627E-009  0.1022767E+03  0.7561462E-02  0.1275580E+00
          1   -1    0    0  501    0  0.00000000000E+00  0.00000000000E+00  0.14998591030E+03  0.14998591030E+03  0.00000000000E+00 0. -1.
         -1   -1    0    0    0  501 -0.00000000000E+00 -0.00000000000E+00 -0.88177125340E+02  0.88177125340E+02  0.00000000000E+00 0.  1.
         25    2    1    2    0    0 -0.59820414205E+01  0.36768377241E+02  0.35886498816E+02  0.13536359897E+03  0.12509102584E+03 0.  0.
         23    2    1    2    0    0  0.59820414205E+01 -0.36768377241E+02  0.25922286143E+02  0.10279943667E+03  0.92239150448E+02 0.  0.
          5    1    3    3  502    0  0.35615190871E+02  0.50566429094E+02 -0.19153500753E+02  0.64882467302E+02  0.41800000000E+01 0.  1.
         -5    1    3    3    0  502 -0.41597232292E+02 -0.13798051853E+02  0.55039999570E+02  0.70481131673E+02  0.41800000000E+01 0.  1.
        -11    1    4    4    0    0  0.39253041615E+02 -0.49270601736E+02  0.23279127385E+02  0.67158850819E+02  0.00000000000E+00 0. -1.
         11    1    4    4    0    0 -0.33271000194E+02  0.12502224496E+02  0.26431587582E+01  0.35640585847E+02  0.00000000000E+00 0.  1.
</event>
<event>
 8    1  0.7048627E-009  0.1109082E+03  0.7561462E-02  0.1258897E+00
          1   -1    0    0  501    0  0.00000000000E+00  0.00000000000E+00  0.56433764577E+03  0.56433764577E+03  0.00000000000E+00 0. -1.
         -1   -1    0    0    0  501 -0.00000000000E+00 -0.00000000000E+00 -0.46324645784E+02  0.46324645784E+02  0.00000000000E+00 0.  1.
         25    2    1    2    0    0  0.46003585123E+02  0.16846679646E+02  0.48463866791E+03  0.50291227970E+03  0.12508390057E+03 0.  0.
         23    2    1    2    0    0 -0.46003585123E+02 -0.16846679646E+02  0.33374332078E+02  0.10775001185E+03  0.89978211549E+02 0.  0.
          5    1    3    3  502    0 -0.23859241618E+02 -0.38025054281E+02  0.17973925614E+03  0.18530742231E+03  0.41800000000E+01 0.  1.
         -5    1    3    3    0  502  0.69862826740E+02  0.54871733926E+02  0.30489941177E+03  0.31760485740E+03  0.41800000000E+01 0.  1.
        -11    1    4    4    0    0  0.20074198830E+02 -0.46095099285E+01  0.34907797085E+02  0.40531165019E+02  0.00000000000E+00 0.  1.
         11    1    4    4    0    0 -0.66077783953E+02 -0.12237169717E+02 -0.15334650072E+01  0.67218846834E+02  0.00000000000E+00 0. -1.
</event>
<event>
 8    1  0.7048627E-009  0.1542783E+03  0.7561462E-02  0.1195312E+00
         -2   -1    0    0    0  501 -0.00000000000E+00  0.00000000000E+00  0.27952489041E+02  0.27952489041E+02  0.00000000000E+00 0.  1.
          2   -1    0    0  501    0  0.00000000000E+00 -0.00000000000E+00 -0.91580720589E+03  0.91580720589E+03  0.00000000000E+00 0. -1.
         25    2    1    2    0    0 -0.10957609771E+03 -0.42176266495E+02 -0.49260640332E+03  0.52162811789E+03  0.12509622748E+03 0.  0.
         23    2    1    2    0    0  0.10957609771E+03  0.42176266495E+02 -0.39524831352E+03  0.42213157704E+03  0.90488012171E+02 0.  0.
          5    1    3    3  502    0 -0.32096642016E+01 -0.60595539002E+02 -0.13520346048E+03  0.14825508227E+03  0.41800000000E+01 0. -1.
         -5    1    3    3    0  502 -0.10636643351E+03  0.18419272507E+02 -0.35740294284E+03  0.37337303562E+03  0.41800000000E+01 0. -1.
        -11    1    4    4    0    0  0.46300644535E+02  0.58256955042E+02 -0.27953956537E+03  0.28927494033E+03  0.00000000000E+00 0. -1.
         11    1    4    4    0    0  0.63275453179E+02 -0.16080688546E+02 -0.11570874815E+03  0.13285663671E+03  0.00000000000E+00 0.  1.
</event>
<event>
 8    1  0.7048627E-009  0.1118530E+03  0.7561462E-02  0.1257176E+00
         -3   -1    0    0    0  501 -0.00000000000E+00  0.00000000000E+00  0.17821723438E+03  0.17821723438E+03  0.00000000000E+00 0.  1.
          3   -1    0    0  501    0  0.00000000000E+00 -0.00000000000E+00 -0.92766013149E+02  0.92766013149E+02  0.00000000000E+00 0. -1.
         25    2    1    2    0    0 -0.16587857802E+02  0.16820159493E+02 -0.18664559380E+02  0.12866210313E+03  0.12508995249E+03 0.  0.
         23    2    1    2    0    0  0.16587857802E+02 -0.16820159493E+02  0.10411578061E+03  0.14232114439E+03  0.94112366765E+02 0.  0.
          5    1    3    3  502    0 -0.32362485298E+01 -0.54158585208E+02 -0.13887313046E+02  0.56160088318E+02  0.41800000000E+01 0.  1.
         -5    1    3    3    0  502 -0.13351609272E+02  0.70978744701E+02 -0.47772463350E+01  0.72502014813E+02  0.41800000000E+01 0.  1.
        -11    1    4    4    0    0  0.55744660647E+02 -0.15087658219E+02  0.64953262979E+02  0.86913928647E+02  0.00000000000E+00 0. -1.
         11    1    4    4    0    0 -0.39156802846E+02 -0.17325012739E+01  0.39162517631E+02  0.55407215748E+02  0.00000000000E+00 0.  1.
</event>
<event>
 8    1  0.7048627E-009  0.1497365E+03  0.7561462E-02  0.1200797E+00
          1   -1    0    0  501    0  0.00000000000E+00  0.00000000000E+00  0.27035812696E+03  0.27035812696E+03  0.00000000000E+00 0. -1.
         -1   -1    0    0    0  501 -0.00000000000E+00 -0.00000000000E+00 -0.94904740215E+02  0.94904740215E+02  0.00000000000E+00 0.  1.
         25    2    1    2    0    0  0.20471100928E+02 -0.11324075233E+03  0.12221004874E+03  0.20934554208E+03  0.12509087102E+03 0.  0.
         23    2    1    2    0    0 -0.20471100928E+02  0.11324075233E+03  0.53243338007E+02  0.15591732510E+03  0.90734917559E+02 0.  0.
          5    1    3    3  502    0  0.55115732925E+02 -0.11647469664E+03  0.70681196323E+02  0.14702857847E+03  0.41800000000E+01 0. -1.
         -5    1    3    3    0  502 -0.34644631997E+02  0.32339443093E+01  0.51528852419E+02  0.62316963610E+02  0.41800000000E+01 0. -1.
        -11    1    4    4    0    0  0.26242447798E+02  0.54183640138E+02 -0.54436998978E+01  0.60449704662E+02  0.00000000000E+00 0.  1.
         11    1    4    4    0    0 -0.46713548727E+02  0.59057112188E+02  0.58687037905E+02  0.95467620441E+02  0.00000000000E+00 0. -1.
</event>
<event>
 8    1  0.7048627E-009  0.1081852E+03  0.7561462E-02  0.1263968E+00
         -4   -1    0    0    0  501 -0.00000000000E+00  0.00000000000E+00  0.55464602367E+02  0.55464602367E+02  0.00000000000E+00 0.  1.
          4   -1    0    0  501    0  0.00000000000E+00 -0.00000000000E+00 -0.37203241780E+03  0.37203241780E+03  0.00000000000E+00 0. -1.
         25    2    1    2    0    0 -0.69645205396E+02 -0.78487341687E+01 -0.78968059238E+02  0.16369130645E+03  0.12508729818E+03 0.  0.
         23    2    1    2    0    0  0.69645205396E+02  0.78487341687E+01 -0.23759975619E+03  0.26380571371E+03  0.90706963249E+02 0.  0.
          5    1    3    3  502    0 -0.85135965504E+02 -0.17356197712E+02 -0.46968789463E+01  0.87114311644E+02  0.41800000000E+01 0.  1.
         -5    1    3    3    0  502  0.15490760109E+02  0.95074635436E+01 -0.74271180292E+02  0.76576994807E+02  0.41800000000E+01 0.  1.
        -11    1    4    4    0    0  0.60801798789E+02  0.43010077481E+02 -0.12491759713E+03  0.14543428610E+03  0.00000000000E+00 0.  1.
         11    1    4    4    0    0  0.88434066069E+01 -0.35161343312E+02 -0.11268215906E+03  0.11837142761E+03  0.00000000000E+00 0. -1.
</event>
<event>
 8    1  0.7048627E-009  0.9500147E+02  0.7561462E-02  0.1291173E+00
         -2   -1    0    0    0  501 -0.00000000000E+00  0.00000000000E+00  0.97750272268E+02  0.97750272268E+02  0.00000000000E+00 0.  1.
          2   -1    0    0  501    0  0.00000000000E+00 -0.00000000000E+00 -0.17836981617E+03  0.17836981617E+03  0.00000000000E+00 0. -1.
         25    2    1    2    0    0 -0.60229497824E+01  0.36847300714E+02  0.22423762742E+02  0.13244741169E+03  0.12508194208E+03 0.  0.
         23    2    1    2    0    0  0.60229497824E+01 -0.36847300714E+02 -0.10304330665E+03  0.14367267675E+03  0.92897338525E+02 0.  0.
          5    1    3    3  502    0  0.36669961861E+02 -0.18584076042E+02  0.42761715302E+02  0.59465037466E+02  0.41800000000E+01 0. -1.
         -5    1    3    3    0  502 -0.42692911644E+02  0.55431376755E+02 -0.20337952559E+02  0.72982374228E+02  0.41800000000E+01 0. -1.
        -11    1    4    4    0    0  0.18420092860E+02 -0.54210595300E+02 -0.24487699480E+02  0.62271469307E+02  0.00000000000E+00 0.  1.
         11    1    4    4    0    0 -0.12397143078E+02  0.17363294586E+02 -0.78555607169E+02  0.81401207442E+02  0.00000000000E+00 0. -1.
</event>
<event>
 8    1  0.7048627E-009  0.8714905E+02  0.7561462E-02  0.1309906E+00
         -1   -1    0    0    0  501 -0.00000000000E+00  0.00000000000E+00  0.33858787074E+02  0.33858787074E+02  0.00000000000E+00 0.  1.
          1   -1    0    0  501    0  0.00000000000E+00 -0.00000000000E+00 -0.43946278972E+03  0.43946278972E+03  0.00000000000E+00 0. -1.
         25    2    1    2    0    0 -0.54234008374E+02  0.11775960844E+02 -0.25361294440E+03  0.28817794855E+03  0.12508798320E+03 0.  0.
         23    2    1    2    0    0  0.54234008374E+02 -0.11775960844E+02 -0.15199105824E+03  0.18514362825E+03  0.89982667092E+02 0.  0.
          5    1    3    3  502    0 -0.87404319025E+01 -0.16828816803E+02 -0.22742319258E+03  0.22825070679E+03  0.41800000000E+01 0.  1.
         -5    1    3    3    0  502 -0.45493576471E+02  0.28604777648E+02 -0.26189751824E+02  0.59927241760E+02  0.41800000000E+01 0.  1.
        -11    1    4    4    0    0 -0.53339815958E+01 -0.36204778831E+02 -0.83369065069E+02  0.91047451257E+02  0.00000000000E+00 0. -1.
         11    1    4    4    0    0  0.59567989970E+02  0.24428817987E+02 -0.68621993172E+02  0.94096176990E+02  0.00000000000E+00 0.  1.
</event>
<event>
 8    1  0.7048627E-009  0.5977901E+02  0.7561462E-02  0.1398761E+00
          3   -1    0    0  501    0  0.00000000000E+00  0.00000000000E+00  0.14992745888E+03  0.14992745888E+03  0.00000000000E+00 0. -1.
         -3   -1    0    0    0  501 -0.00000000000E+00 -0.00000000000E+00 -0.82880709366E+02  0.82880709366E+02  0.00000000000E+00 0.  1.
         25    2    1    2    0    0  0.34170593101E+01  0.26774243940E+02  0.32567172837E+02  0.13204220896E+03  0.12508392289E+03 0.  0.
         23    2    1    2    0    0 -0.34170593101E+01 -0.26774243940E+02  0.34479576680E+02  0.10076595929E+03  0.90754619228E+02 0.  0.
          5    1    3    3  502    0  0.14963842413E+02 -0.13502524452E+02  0.71676914767E+02  0.74574038759E+02  0.41800000000E+01 0.  1.
         -5    1    3    3    0  502 -0.11546783103E+02  0.40276768392E+02 -0.39109741930E+02  0.57468170198E+02  0.41800000000E+01 0.  1.
        -11    1    4    4    0    0 -0.20582314335E+02  0.46124110645E+01 -0.24162243854E+02  0.32073665635E+02  0.00000000000E+00 0.  1.
         11    1    4    4    0    0  0.17165255025E+02 -0.31386655004E+02  0.58641820534E+02  0.68692293658E+02  0.00000000000E+00 0. -1.
</event>
<event>
 8    1  0.7048627E-009  0.1735947E+03  0.7561462E-02  0.1174150E+00
          1   -1    0    0  501    0  0.00000000000E+00  0.00000000000E+00  0.41610749444E+03  0.41610749444E+03  0.00000000000E+00 0. -1.
         -1   -1    0    0    0  501 -0.00000000000E+00 -0.00000000000E+00 -0.95234373490E+02  0.95234373490E+02  0.00000000000E+00 0.  1.
         25    2    1    2    0    0  0.13367284992E+03  0.97199148626E+02  0.19308608754E+03  0.28327719919E+03  0.12509048355E+03 0.  0.
         23    2    1    2    0    0 -0.13367284992E+03 -0.97199148626E+02  0.12778703341E+03  0.22806466874E+03  0.91476018288E+02 0.  0.
          5    1    3    3  502    0  0.69244376517E+02  0.32062214221E+02  0.81576083421E+01  0.76855632414E+02  0.41800000000E+01 0.  1.
         -5    1    3    3    0  502  0.64428473407E+02  0.65136934405E+02  0.18492847920E+03  0.20642156677E+03  0.41800000000E+01 0.  1.
        -11    1    4    4    0    0  0.77440843692E+01 -0.10949134226E+02  0.36601440609E+02  0.38981018941E+02  0.00000000000E+00 0. -1.
         11    1    4    4    0    0 -0.14141693429E+03 -0.86250014400E+02  0.91185592797E+02  0.18908364980E+03  0.00000000000E+00 0.  1.
</event>
<event>
 8    1  0.7048627E-009  0.8909242E+02  0.7561462E-02  0.1305065E+00
          2   -1    0    0  501    0  0.00000000000E+00  0.00000000000E+00  0.82467066281E+02  0.82467066281E+02  0.00000000000E+00 0. -1.
         -2   -1    0    0    0  501 -0.00000000000E+00 -0.00000000000E+00 -0.17293728992E+03  0.17293728992E+03  0.00000000000E+00 0.  1.
         25    2    1    2    0    0 -0.28887814639E+01  0.35574636320E+02 -0.88297135652E+02  0.15722312607E+03  0.12509527329E+03 0.  0.
         23    2    1    2    0    0  0.28887814639E+01 -0.35574636320E+02 -0.21730879822E+01  0.98181230126E+02  0.91438131160E+02 0.  0.
          5    1    3    3  502    0  0.83254593134E-01 -0.23005123969E+02  0.22079677921E+02  0.32159403559E+02  0.41800000000E+01 0. -1.
         -5    1    3    3    0  502 -0.29720360570E+01  0.58579760289E+02 -0.11037681357E+03  0.12506372251E+03  0.41800000000E+01 0. -1.
        -11    1    4    4    0    0  0.36207525635E+00 -0.65733513845E+02 -0.11016198742E+02  0.66651200856E+02  0.00000000000E+00 0. -1.
         11    1    4    4    0    0  0.25267062075E+01  0.30158877525E+02  0.88431107601E+01  0.31530029269E+02  0.00000000000E+00 0.  1.
</event>
<event>
 8    1  0.7048627E-009  0.1039216E+03  0.7561462E-02  0.1272259E+00
         -1   -1    0    0    0  501 -0.00000000000E+00  0.00000000000E+00  0.32954610508E+02  0.32954610508E+02  0.00000000000E+00 0.  1.
          1   -1    0    0  501    0  0.00000000000E+00 -0.00000000000E+00 -0.10511874950E+04  0.10511874950E+04  0.00000000000E+00 0. -1.
         25    2    1    2    0    0  0.66149462112E+02  0.20903338456E+02 -0.92652556117E+03  0.93750171821E+03  0.12508858966E+03 0.  0.
         23    2    1    2    0    0 -0.66149462112E+02 -0.20903338456E+02 -0.91707323317E+02  0.14664038729E+03  0.90997083124E+02 0.  0.
          5    1    3    3  502    0  0.21012012570E+02 -0.33706796570E+02 -0.67427822596E+03  0.67546002932E+03  0.41800000000E+01 0.  1.
         -5    1    3    3    0  502  0.45137449542E+02  0.54610135026E+02 -0.25224733521E+03  0.26204168889E+03  0.41800000000E+01 0.  1.
        -11    1    4    4    0    0 -0.88106313975E+01  0.23055104985E+02  0.57309158827E+01  0.25337886422E+02  0.00000000000E+00 0.  1.
         11    1    4    4    0    0 -0.57338830715E+02 -0.43958443441E+02 -0.97438239200E+02  0.12130250086E+03  0.00000000000E+00 0. -1.
</event>
<event>
 8    1  0.7048627E-009  0.6335467E+02  0.7561462E-02  0.1384270E+00
         -1   -1    0    0    0  501 -0.00000000000E+00  0.00000000000E+00  0.15822024676E+02  0.15822024676E+02  0.00000000000E+00 0.  1.
          1   -1    0    0  501    0  0.00000000000E+00 -0.00000000000E+00 -0.83944258426E+03  0.83944258426E+03  0.00000000000E+00 0. -1.
         25    2    1    2    0    0  0.49849703723E+01  0.34215276460E+02 -0.56372019947E+03  0.57846281249E+03  0.12507288704E+03 0.  0.
         23    2    1    2    0    0 -0.49849703723E+01 -0.34215276460E+02 -0.25990036012E+03  0.27680179645E+03  0.88744026584E+02 0.  0.
          5    1    3    3  502    0  0.32887090333E+01  0.22328474183E+01 -0.53561998220E+03  0.53565104214E+03  0.41800000000E+01 0. -1.
         -5    1    3    3    0  502  0.16962613390E+01  0.31982429042E+02 -0.28100217268E+02  0.42811770349E+02  0.41800000000E+01 0. -1.
        -11    1    4    4    0    0 -0.42236226079E+02 -0.28506009069E+02 -0.19693075593E+03  0.20341635622E+03  0.00000000000E+00 0. -1.
         11    1    4    4    0    0  0.37251255707E+02 -0.57092673913E+01 -0.62969604186E+02  0.73385440226E+02  0.00000000000E+00 0.  1.
</event>
<event>
 8    1  0.7048627E-009  0.1564598E+03  0.7561462E-02  0.1192753E+00
         -1   -1    0    0    0  501 -0.00000000000E+00  0.00000000000E+00  0.16079720398E+04  0.16079720398E+04  0.00000000000E+00 0.  1.
          1   -1    0    0  501    0  0.00000000000E+00 -0.00000000000E+00 -0.16827782310E+02  0.16827782310E+02  0.00000000000E+00 0. -1.
         25    2    1    2    0    0 -0.57595490314E+02 -0.10365174768E+03  0.10087537552E+04  0.10233737182E+04  0.12509477635E+03 0.  0.
         23    2    1    2    0    0  0.57595490314E+02  0.10365174768E+03  0.58239050224E+03  0.60142610391E+03  0.92052898185E+02 0.  0.
          5    1    3    3  502    0 -0.52027426624E+02 -0.13262585338E+03  0.84239485304E+03  0.85436703526E+03  0.41800000000E+01 0.  1.
         -5    1    3    3    0  502 -0.55680636900E+01  0.28974105704E+02  0.16635890219E+03  0.16900668293E+03  0.41800000000E+01 0.  1.
        -11    1    4    4    0    0  0.24086540158E+02 -0.69160696623E+01  0.42723779948E+02  0.49530947996E+02  0.00000000000E+00 0. -1.
         11    1    4    4    0    0  0.33508950156E+02  0.11056781734E+03  0.53966672230E+03  0.55189515592E+03  0.00000000000E+00 0.  1.
</event>
<event>
 8    1  0.7048627E-009  0.1212222E+03  0.7561462E-02  0.1241094E+00
         -2   -1    0    0    0  501 -0.00000000000E+00  0.00000000000E+00  0.16025832734E+02  0.16025832734E+02  0.00000000000E+00 0. -1.
          2   -1    0    0  501    0  0.00000000000E+00 -0.00000000000E+00 -0.12752554832E+04  0.12752554832E+04  0.00000000000E+00 0.  1.
         25    2    1    2    0    0  0.84752732595E+02 -0.39782410302E+02 -0.69542913410E+03  0.71276603685E+03  0.12509227345E+03 0.  0.
         23    2    1    2    0    0 -0.84752732595E+02  0.39782410302E+02 -0.56380051632E+03  0.57851527904E+03  0.89684112463E+02 0.  0.
          5    1    3    3  502    0  0.55388991852E+01 -0.32429877889E+02 -0.50836010837E+03  0.50944072134E+03  0.41800000000E+01 0. -1.
         -5    1    3    3    0  502  0.79213833409E+02 -0.73525324129E+01 -0.18706902573E+03  0.20332531550E+03  0.41800000000E+01 0. -1.
        -11    1    4    4    0    0 -0.65243972506E+02 -0.18777478361E+02 -0.28880759622E+03  0.29668029472E+03  0.00000000000E+00 0.  1.
         11    1    4    4    0    0 -0.19508760089E+02  0.58559888663E+02 -0.27499292010E+03  0.28183498432E+03  0.00000000000E+00 0. -1.
</event>
<event>
 8    1  0.7048627E-009  0.9473891E+02  0.7561462E-02  0.1291765E+00
          1   -1    0    0  501    0  0.00000000000E+00  0.00000000000E+00  0.25777308892E+03  0.25777308892E+03  0.00000000000E+00 0. -1.
         -1   -1    0    0    0  501 -0.00000000000E+00 -0.00000000000E+00 -0.49974398556E+02  0.49974398556E+02  0.00000000000E+00 0.  1.
         25    2    1    2    0    0 -0.50535398630E+01 -0.24444521394E+01  0.72839419652E+02  0.14486031657E+03  0.12508963446E+03 0.  0.
         23    2    1    2    0    0  0.50535398630E+01  0.24444521394E+01  0.13495927071E+03  0.16288717091E+03  0.91031379664E+02 0.  0.
          5    1    3    3  502    0 -0.24316303475E+02  0.44555425885E+02 -0.56841229709E+01  0.51246953514E+02  0.41800000000E+01 0.  1.
         -5    1    3    3    0  502  0.19262763612E+02 -0.46999878025E+02  0.78523542623E+02  0.93613363054E+02  0.41800000000E+01 0.  1.
        -11    1    4    4    0    0 -0.36546233264E+02 -0.18549384684E+02  0.86175946858E+02  0.95425366935E+02  0.00000000000E+00 0.  1.
         11    1    4    4    0    0  0.41599773127E+02  0.20993836824E+02  0.48783323853E+02  0.67461803971E+02  0.00000000000E+00 0. -1.
</event>
<event>
 8    1  0.7048627E-009  0.1601632E+03  0.7561462E-02  0.1188513E+00
          1   -1    0    0  501    0  0.00000000000E+00  0.00000000000E+00  0.15091698363E+04  0.15091698363E+04  0.00000000000E+00 0.  1.
         -1   -1    0    0    0  501 -0.00000000000E+00 -0.00000000000E+00 -0.19801036600E+02  0.19801036600E+02  0.00000000000E+00 0. -1.
         25    2    1    2    0    0 -0.39608634985E+02 -0.12410471852E+03  0.93461399571E+03  0.95190461571E+03  0.12509297065E+03 0.  0.
         23    2    1    2    0    0  0.39608634985E+02  0.12410471852E+03  0.55475480395E+03  0.57706625715E+03  0.91004107121E+02 0.  0.
          5    1    3    3  502    0 -0.19209313657E+02  0.13591562683E+02  0.35467527427E+03  0.35547960685E+03  0.41800000000E+01 0.  1.
         -5    1    3    3    0  502 -0.20399321328E+02 -0.13769628120E+03  0.57993872143E+03  0.59642500885E+03  0.41800000000E+01 0.  1.
        -11    1    4    4    0    0  0.67794266643E+02  0.94335634680E+02  0.36957188992E+03  0.38739986626E+03  0.00000000000E+00 0. -1.
         11    1    4    4    0    0 -0.28185631658E+02  0.29769083840E+02  0.18518291403E+03  0.18966639089E+03  0.00000000000E+00 0.  1.
</event>
<event>
 8    1  0.7048627E-009  0.1772513E+03  0.7561462E-02  0.1170490E+00
          2   -1    0    0  501    0  0.00000000000E+00  0.00000000000E+00  0.32825060822E+03  0.32825060822E+03  0.00000000000E+00 0. -1.
         -2   -1    0    0    0  501 -0.00000000000E+00 -0.00000000000E+00 -0.10800460376E+03  0.10800460376E+03  0.00000000000E+00 0.  1.
         25    2    1    2    0    0 -0.14664162127E+03  0.16523640018E+02  0.16394676911E+03  0.25358030248E+03  0.12509049099E+03 0.  0.
         23    2    1    2    0    0  0.14664162127E+03 -0.16523640018E+02  0.56299235351E+02  0.18267490950E+03  0.91780841644E+02 0.  0.
          5    1    3    3  502    0 -0.11931289362E+03 -0.36289964280E+02  0.14440326844E+03  0.19084628481E+03  0.41800000000E+01 0.  1.
         -5    1    3    3    0  502 -0.27328727644E+02  0.52813604298E+02  0.19543500677E+02  0.62734017664E+02  0.41800000000E+01 0.  1.
        -11    1    4    4    0    0  0.59646926315E+02 -0.49059504847E+02  0.70663114715E+01  0.77553359647E+02  0.00000000000E+00 0. -1.
         11    1    4    4    0    0  0.86994694951E+02  0.32535864830E+02  0.49232923879E+02  0.10512154985E+03  0.00000000000E+00 0.  1.
</event>
<event>
 8    1  0.7048627E-009  0.9499589E+02  0.7561462E-02  0.1291185E+00
         -1   -1    0    0    0  501 -0.00000000000E+00  0.00000000000E+00  0.36018150858E+02  0.36018150858E+02  0.00000000000E+00 0.  1.
          1   -1    0    0  501    0  0.00000000000E+00 -0.00000000000E+00 -0.38045844118E+03  0.38045844118E+03  0.00000000000E+00 0. -1.
         25    2    1    2    0    0 -0.42780745594E+02 -0.10789226893E+02 -0.18988681165E+03  0.23162912115E+03  0.12509376050E+03 0.  0.
         23    2    1    2    0    0  0.42780745594E+02  0.10789226893E+02 -0.15455347867E+03  0.18484747088E+03  0.91297371883E+02 0.  0.
          5    1    3    3  502    0 -0.16334122761E+02 -0.48535678645E+02 -0.17594861407E+03  0.18329730729E+03  0.41800000000E+01 0.  1.
         -5    1    3    3    0  502 -0.26446622833E+02  0.37746451752E+02 -0.13938197582E+02  0.48331813860E+02  0.41800000000E+01 0.  1.
        -11    1    4    4    0    0  0.55901171441E+02 -0.19595426090E+02 -0.13232640721E+03  0.14497999771E+03  0.00000000000E+00 0. -1.
         11    1    4    4    0    0 -0.13120425847E+02  0.30384652983E+02 -0.22227071461E+02  0.39867473170E+02  0.00000000000E+00 0.  1.
</event>
<event>
 8    1  0.7048627E-009  0.1394643E+03  0.7561462E-02  0.1214052E+00
         -2   -1    0    0    0  501 -0.00000000000E+00  0.00000000000E+00  0.55415493326E+02  0.55415493326E+02  0.00000000000E+00 0.  1.
          2   -1    0    0  501    0  0.00000000000E+00 -0.00000000000E+00 -0.54276462888E+03  0.54276462888E+03  0.00000000000E+00 0. -1.
         25    2    1    2    0    0  0.19017378908E+02 -0.12165188452E+03 -0.34944068209E+03  0.39104682548E+03  0.12509191703E+03 0.  0.
         23    2    1    2    0    0 -0.19017378908E+02  0.12165188452E+03 -0.13790845346E+03  0.20713329673E+03  0.93405670978E+02 0.  0.
          5    1    3    3  502    0  0.55033939902E+02 -0.46607857901E+02 -0.74588604868E+02  0.10383621399E+03  0.41800000000E+01 0. -1.
         -5    1    3    3    0  502 -0.36016560994E+02 -0.75044026615E+02 -0.27485207722E+03  0.28721061149E+03  0.41800000000E+01 0. -1.
        -11    1    4    4    0    0 -0.13545112841E+02  0.63059721411E+02 -0.86061688947E+01  0.65069691019E+02  0.00000000000E+00 0.  1.
         11    1    4    4    0    0 -0.54722660675E+01  0.58592163106E+02 -0.12930228457E+03  0.14206360571E+03  0.00000000000E+00 0. -1.
</event>
<event>
 8    1  0.7048627E-009  0.1136751E+03  0.7561462E-02  0.1253912E+00
         -1   -1    0    0    0  501 -0.00000000000E+00  0.00000000000E+00  0.20028079340E+02  0.20028079340E+02  0.00000000000E+00 0.  1.
          1   -1    0    0  501    0  0.00000000000E+00 -0.00000000000E+00 -0.78670482300E+03  0.78670482300E+03  0.00000000000E+00 0. -1.
         25    2    1    2    0    0  0.63607615740E+02  0.96599957755E+00 -0.43750895092E+03  0.45946961499E+03  0.12510548759E+03 0.  0.
         23    2    1    2    0    0 -0.63607615740E+02 -0.96599957755E+00 -0.32916779274E+03  0.34726328736E+03  0.90517915530E+02 0.  0.
          5    1    3    3  502    0  0.87790038516E+02  0.16520602079E+02 -0.40936219357E+03  0.41901658568E+03  0.41800000000E+01 0.  1.
         -5    1    3    3    0  502 -0.24182422776E+02 -0.15554602502E+02 -0.28146757356E+02  0.40453029305E+02  0.41800000000E+01 0.  1.
        -11    1    4    4    0    0 -0.52225147689E+02 -0.41536722109E+02 -0.17042250156E+03  0.18302074848E+03  0.00000000000E+00 0.  1.
         11    1    4    4    0    0 -0.11382468051E+02  0.40570722531E+02 -0.15874529118E+03  0.16424253888E+03  0.00000000000E+00 0. -1.
</event>
<event>
 8    1  0.7048627E-009  0.1184788E+03  0.7561462E-02  0.1245628E+00
         -1   -1    0    0    0  501 -0.00000000000E+00  0.00000000000E+00  0.24345512522E+02  0.24345512522E+02  0.00000000000E+00 0.  1.
          1   -1    0    0  501    0  0.00000000000E+00 -0.00000000000E+00 -0.72026063298E+03  0.72026063298E+03  0.00000000000E+00 0. -1.
         25    2    1    2    0    0 -0.73680610542E+02  0.15127716117E+02 -0.40639769465E+03  0.43181547547E+03  0.12509132056E+03 0.  0.
         23    2    1    2    0    0  0.73680610542E+02 -0.15127716117E+02 -0.28951742581E+03  0.31279067003E+03  0.91432943976E+02 0.  0.
          5    1    3    3  502    0 -0.40400948238E+02 -0.45383947672E+02 -0.95166080368E+02  0.11298670089E+03  0.41800000000E+01 0.  1.
         -5    1    3    3    0  502 -0.33279662303E+02  0.60511663789E+02 -0.31123161428E+03  0.31882877459E+03  0.41800000000E+01 0.  1.
        -11    1    4    4    0    0  0.75555427726E+02 -0.37546168348E+02 -0.15564842041E+03  0.17704453731E+03  0.00000000000E+00 0.  1.
         11    1    4    4    0    0 -0.18748171848E+01  0.22418452231E+02 -0.13386900541E+03  0.13574613272E+03  0.00000000000E+00 0. -1.
</event>
<event>
 8    1  0.7048627E-009  0.1851320E+03  0.7561462E-02  0.1162927E+00
          4   -1    0    0  501    0  0.00000000000E+00  0.00000000000E+00  0.50461525517E+03  0.50461525517E+03  0.00000000000E+00 0. -1.
         -4   -1    0    0    0  501 -0.00000000000E+00 -0.00000000000E+00 -0.80006537478E+02  0.80006537478E+02  0.00000000000E+00 0.  1.
         25    2    1    2    0    0  0.16183493677E+02 -0.16840478822E+03  0.22420465327E+03  0.30746866028E+03  0.12508865795E+03 0.  0.
         23    2    1    2    0    0 -0.16183493677E+02  0.16840478822E+03  0.20040406443E+03  0.27715313236E+03  0.89610220278E+02 0.  0.
          5    1    3    3  502    0  0.41850644847E+02 -0.15048311106E+03  0.11559797684E+03  0.19436308250E+03  0.41800000000E+01 0.  1.
         -5    1    3    3    0  502 -0.25667151170E+02 -0.17921677157E+02  0.10860667643E+03  0.11310557779E+03  0.41800000000E+01 0.  1.
        -11    1    4    4    0    0  0.25989566615E+02  0.86303380297E+02  0.57098043770E+02  0.10669544332E+03  0.00000000000E+00 0.  1.
         11    1    4    4    0    0 -0.42173060292E+02  0.82101407922E+02  0.14330602066E+03  0.17045768904E+03  0.00000000000E+00 0. -1.
</event>
<event>
 8    1  0.7048627E-009  0.1529701E+03  0.7561462E-02  0.1196870E+00
          1   -1    0    0  501    0  0.00000000000E+00  0.00000000000E+00  0.11524028233E+04  0.11524028233E+04  0.00000000000E+00 0. -1.
         -1   -1    0    0    0  501 -0.00000000000E+00 -0.00000000000E+00 -0.22838732370E+02  0.22838732370E+02  0.00000000000E+00 0.  1.
         25    2    1    2    0    0 -0.25164387561E+02 -0.11770752697E+03  0.61044307049E+03  0.63464690097E+03  0.12509052042E+03 0.  0.
         23    2    1    2    0    0  0.25164387561E+02  0.11770752697E+03  0.51912102046E+03  0.54059465472E+03  0.90926555626E+02 0.  0.
          5    1    3    3  502    0  0.45928263714E+02 -0.81547058834E+02  0.32250560832E+03  0.33583726418E+03  0.41800000000E+01 0. -1.
         -5    1    3    3    0  502 -0.71092651275E+02 -0.36160468137E+02  0.28793746216E+03  0.29880963679E+03  0.41800000000E+01 0. -1.
        -11    1    4    4    0    0 -0.16141564102E+02  0.54810324908E+02  0.10356884030E+03  0.11828451500E+03  0.00000000000E+00 0.  1.
         11    1    4    4    0    0  0.41305951663E+02  0.62897202063E+02  0.41555218016E+03  0.42231013972E+03  0.00000000000E+00 0. -1.
</event>
<event>
 8    1  0.7048627E-009  0.1272586E+03  0.7561462E-02  0.1231581E+00
         -1   -1    0    0    0  501 -0.00000000000E+00  0.00000000000E+00  0.40062799920E+02  0.40062799920E+02  0.00000000000E+00 0.  1.
          1   -1    0    0  501    0  0.00000000000E+00 -0.00000000000E+00 -0.51904622532E+03  0.51904622532E+03  0.00000000000E+00 0. -1.
         25    2    1    2    0    0  0.94131584808E+02 -0.34078537444E+00 -0.27360600048E+03  0.31522655074E+03  0.12508662359E+03 0.  0.
         23    2    1    2    0    0 -0.94131584808E+02  0.34078537444E+00 -0.20537742492E+03  0.24388247450E+03  0.91858060657E+02 0.  0.
          5    1    3    3  502    0  0.96081716626E+02  0.31976098723E+02 -0.26142584797E+03  0.28038386820E+03  0.41800000000E+01 0. -1.
         -5    1    3    3    0  502 -0.19501318183E+01 -0.32316884097E+02 -0.12180152518E+02  0.34842682549E+02  0.41800000000E+01 0. -1.
        -11    1    4    4    0    0 -0.21862293383E+02 -0.34069217083E+02 -0.12094341166E+03  0.12753815213E+03  0.00000000000E+00 0.  1.
         11    1    4    4    0    0 -0.72269291425E+02  0.34410002458E+02 -0.84434013257E+02  0.11634432237E+03  0.00000000000E+00 0. -1.
</event>
<event>
 8    1  0.7048627E-009  0.1267335E+03  0.7561462E-02  0.1232385E+00
          2   -1    0    0  501    0  0.00000000000E+00  0.00000000000E+00  0.64117173553E+03  0.64117173553E+03  0.00000000000E+00 0. -1.
         -2   -1    0    0    0  501 -0.00000000000E+00 -0.00000000000E+00 -0.64065771851E+02  0.64065771851E+02  0.00000000000E+00 0.  1.
         25    2    1    2    0    0  0.14548736483E+02  0.96230781973E+02  0.54563750544E+03  0.56818775656E+03  0.12508001527E+03 0.  0.
         23    2    1    2    0    0 -0.14548736483E+02 -0.96230781973E+02  0.31468458232E+02  0.13704975082E+03  0.91215904343E+02 0.  0.
          5    1    3    3  502    0 -0.26592231954E+02  0.57199760878E+02  0.95850254555E+02  0.11482030806E+03  0.41800000000E+01 0. -1.
         -5    1    3    3    0  502  0.41140968437E+02  0.39031021094E+02  0.44978725089E+03  0.45336744849E+03  0.41800000000E+01 0. -1.
        -11    1    4    4    0    0 -0.48102034437E+02 -0.24031444011E+02  0.13050162722E+02  0.55331932600E+02  0.00000000000E+00 0.  1.
         11    1    4    4    0    0  0.33553297954E+02 -0.72199337962E+02  0.18418295510E+02  0.81717818224E+02  0.00000000000E+00 0. -1.
</event>
<event>
 8    1  0.7048627E-009  0.2156268E+03  0.7561462E-02  0.1137186E+00
          2   -1    0    0  501    0  0.00000000000E+00  0.00000000000E+00  0.11446604203E+04  0.11446604203E+04  0.00000000000E+00 0.  1.
         -2   -1    0    0    0  501 -0.00000000000E+00 -0.00000000000E+00 -0.52593445604E+02  0.52593445604E+02  0.00000000000E+00 0. -1.
         25    2    1    2    0    0  0.20803543800E+03  0.14367627588E+02  0.39697561872E+03  0.46553426763E+03  0.12508932926E+03 0.  0.
         23    2    1    2    0    0 -0.20803543800E+03 -0.14367627588E+02  0.69509135600E+03  0.73171959829E+03  0.93682469838E+02 0.  0.
          5    1    3    3  502    0  0.12040759667E+03 -0.25194738242E+02  0.11833771377E+03  0.17074557409E+03  0.41800000000E+01 0. -1.
         -5    1    3    3    0  502  0.87627841331E+02  0.39562365830E+02  0.27863790495E+03  0.29478869354E+03  0.41800000000E+01 0. -1.
        -11    1    4    4    0    0 -0.70909386590E+02  0.13026820016E+02  0.12106397094E+03  0.14090537323E+03  0.00000000000E+00 0. -1.
         11    1    4    4    0    0 -0.13712605141E+03 -0.27394447604E+02  0.57402738506E+03  0.59081422506E+03  0.00000000000E+00 0.  1.
</event>
<event>
 8    1  0.7048627E-009  0.8715391E+02  0.7561462E-02  0.1309894E+00
         -1   -1    0    0    0  501 -0.00000000000E+00  0.00000000000E+00  0.58120154948E+02  0.58120154948E+02  0.00000000000E+00 0.  1.
          1   -1    0    0  501    0  0.00000000000E+00 -0.00000000000E+00 -0.34545997568E+03  0.34545997568E+03  0.00000000000E+00 0. -1.
         25    2    1    2    0    0 -0.60506623916E+02 -0.18607113943E+02 -0.24688343285E+03  0.28391252441E+03  0.12509043078E+03 0.  0.
         23    2    1    2    0    0  0.60506623916E+02  0.18607113943E+02 -0.40456387873E+02  0.11966760621E+03  0.93146875578E+02 0.  0.
          5    1    3    3  502    0 -0.67942928281E+02 -0.19930121359E+02 -0.25927980863E+03  0.26880651555E+03  0.41800000000E+01 0. -1.
         -5    1    3    3    0  502  0.74363043651E+01  0.13230074157E+01  0.12396375775E+02  0.15106008857E+02  0.41800000000E+01 0. -1.
        -11    1    4    4    0    0  0.73142461179E+02  0.28702668012E+02 -0.27295158574E+01  0.78620054917E+02  0.00000000000E+00 0.  1.
         11    1    4    4    0    0 -0.12635837263E+02 -0.10095554069E+02 -0.37726872016E+02  0.41047551296E+02  0.00000000000E+00 0. -1.
</event>
<event>
 8    1  0.7048627E-009  0.9024360E+02  0.7561462E-02  0.1302263E+00
         -2   -1    0    0    0  501 -0.00000000000E+00  0.00000000000E+00  0.10396792341E+03  0.10396792341E+03  0.00000000000E+00 0. -1.
          2   -1    0    0  501    0  0.00000000000E+00 -0.00000000000E+00 -0.12354590471E+03  0.12354590471E+03  0.00000000000E+00 0.  1.
         25    2    1    2    0    0 -0.16289137461E+02 -0.59541312913E+01 -0.40746692201E+02  0.13269863804E+03  0.12509135835E+03 0.  0.
         23    2    1    2    0    0  0.16289137461E+02  0.59541312913E+01  0.21168710900E+02  0.94815190084E+02  0.90780054367E+02 0.  0.
          5    1    3    3  502    0  0.43911639149E+02 -0.25421607920E+02 -0.46603465443E+02  0.69020617161E+02  0.41800000000E+01 0.  1.
         -5    1    3    3    0  502 -0.60200776610E+02  0.19467476628E+02  0.58567732416E+01  0.63678020882E+02  0.41800000000E+01 0.  1.
        -11    1    4    4    0    0  0.29160598522E+02 -0.21243550907E+02 -0.21953673640E+02  0.42232602898E+02  0.00000000000E+00 0.  1.
         11    1    4    4    0    0 -0.12871461061E+02  0.27197682198E+02  0.43122384540E+02  0.52582587186E+02  0.00000000000E+00 0. -1.
</event>
<event>
 8    1  0.7048627E-009  0.1198323E+03  0.7561462E-02  0.1243374E+00
         -2   -1    0    0    0  501 -0.00000000000E+00  0.00000000000E+00  0.16813633380E+02  0.16813633380E+02  0.00000000000E+00 0.  1.
          2   -1    0    0  501    0  0.00000000000E+00 -0.00000000000E+00 -0.15437110838E+04  0.15437110838E+04  0.00000000000E+00 0. -1.
         25    2    1    2    0    0  0.85178792765E+02  0.51637469022E+02 -0.11400054423E+04  0.11511655913E+04  0.12509178682E+03 0.  0.
         23    2    1    2    0    0 -0.85178792765E+02 -0.51637469022E+02 -0.38689200805E+03  0.40935912583E+03  0.89261487013E+02 0.  0.
          5    1    3    3  502    0 -0.75880063159E+01 -0.20628132685E+01 -0.62708241208E+03  0.62714564256E+03  0.41800000000E+01 0. -1.
         -5    1    3    3    0  502  0.92766799081E+02  0.53700282290E+02 -0.51292303025E+03  0.52401994876E+03  0.41800000000E+01 0. -1.
        -11    1    4    4    0    0 -0.42587572415E+02 -0.65994865922E+02 -0.16220394822E+03  0.18021971166E+03  0.00000000000E+00 0.  1.
         11    1    4    4    0    0 -0.42591220350E+02  0.14357396900E+02 -0.22468805983E+03  0.22913941417E+03  0.00000000000E+00 0. -1.
</event>
<event>
 8    1  0.7048627E-009  0.9021670E+02  0.7561462E-02  0.1302328E+00
          2   -1    0    0  501    0  0.00000000000E+00  0.00000000000E+00  0.96669275943E+03  0.96669275943E+03  0.00000000000E+00 0.  1.
         -2   -1    0    0    0  501 -0.00000000000E+00 -0.00000000000E+00 -0.15021758110E+02  0.15021758110E+02  0.00000000000E+00 0. -1.
         25    2    1    2    0    0 -0.17843934344E+01 -0.48237808185E+02  0.43986524708E+03  0.45984672654E+03  0.12508999212E+03 0.  0.
         23    2    1    2    0    0  0.17843934344E+01  0.48237808185E+02  0.51180575424E+03  0.52186779100E+03  0.89837581260E+02 0.  0.
          5    1    3    3  502    0 -0.25473405754E+02 -0.49090752957E+02  0.70520560008E+02  0.89718549980E+02  0.41800000000E+01 0. -1.
         -5    1    3    3    0  502  0.23689012320E+02  0.85294477270E+00  0.36934468707E+03  0.37012817656E+03  0.41800000000E+01 0. -1.
        -11    1    4    4    0    0  0.43658077995E+02  0.11385198312E+02  0.19167209932E+03  0.19691075179E+03  0.00000000000E+00 0.  1.
         11    1    4    4    0    0 -0.41873684561E+02  0.36852609873E+02  0.32013365493E+03  0.32495703921E+03  0.00000000000E+00 0. -1.
</event>
<event>
 8    1  0.7048627E-009  0.1108919E+03  0.7561462E-02  0.1258927E+00
         -4   -1    0    0    0  501 -0.00000000000E+00  0.00000000000E+00  0.12711565780E+03  0.12711565780E+03  0.00000000000E+00 0.  1.
          4   -1    0    0  501    0  0.00000000000E+00 -0.00000000000E+00 -0.13437551839E+03  0.13437551839E+03  0.00000000000E+00 0. -1.
         25    2    1    2    0    0  0.60863326820E+02 -0.21432128068E+02 -0.31671164805E+02  0.14427256329E+03  0.12509128336E+03 0.  0.
         23    2    1    2    0    0 -0.60863326820E+02  0.21432128068E+02  0.24411304214E+02  0.11721861290E+03  0.94766084501E+02 0.  0.
          5    1    3    3  502    0  0.34466506803E+02 -0.58804947282E+02 -0.59484776352E+02  0.90564192337E+02  0.41800000000E+01 0. -1.
         -5    1    3    3    0  502  0.26396820017E+02  0.37372819214E+02  0.27813611547E+02  0.53708370952E+02  0.41800000000E+01 0. -1.
        -11    1    4    4    0    0 -0.83009456285E+02  0.19827818181E+02  0.35459073864E+02  0.92417845277E+02  0.00000000000E+00 0.  1.
         11    1    4    4    0    0  0.22146129464E+02  0.16043098869E+01 -0.11047769649E+02  0.24800767623E+02  0.00000000000E+00 0. -1.
</event>
<event>
 8    1  0.7048627E-009  0.9964292E+02  0.7561462E-02  0.1281049E+00
          1   -1    0    0  501    0  0.00000000000E+00  0.00000000000E+00  0.66427877475E+03  0.66427877475E+03  0.00000000000E+00 0. -1.
         -1   -1    0    0    0  501 -0.00000000000E+00 -0.00000000000E+00 -0.21078665153E+02  0.21078665153E+02  0.00000000000E+00 0.  1.
         25    2    1    2    0    0  0.36267299231E+02 -0.12415988931E+02  0.46297467494E+03  0.48110566297E+03  0.12509050936E+03 0.  0.
         23    2    1    2    0    0 -0.36267299231E+02  0.12415988931E+02  0.18022543466E+03  0.20425177693E+03  0.88136866905E+02 0.  0.
          5    1    3    3  502    0 -0.16531941376E+02 -0.47072640355E+02  0.91727734956E+02  0.10450161872E+03  0.41800000000E+01 0. -1.
         -5    1    3    3    0  502  0.52799240607E+02  0.34656651424E+02  0.37124693998E+03  0.37660404425E+03  0.41800000000E+01 0. -1.
        -11    1    4    4    0    0 -0.59506045193E+02  0.17719147184E+02  0.80196008111E+02  0.10142158206E+03  0.00000000000E+00 0.  1.
         11    1    4    4    0    0  0.23238745962E+02 -0.53031582527E+01  0.10002942655E+03  0.10283019487E+03  0.00000000000E+00 0. -1.
</event>
<event>
 8    1  0.7048627E-009  0.8072708E+02  0.7561462E-02  0.1327001E+00
         -1   -1    0    0    0  501 -0.00000000000E+00  0.00000000000E+00  0.36216260784E+02  0.36216260784E+02  0.00000000000E+00 0.  1.
          1   -1    0    0  501    0  0.00000000000E+00 -0.00000000000E+00 -0.40197962597E+03  0.40197962597E+03  0.00000000000E+00 0. -1.
         25    2    1    2    0    0 -0.21305076588E+02 -0.18626556767E+02 -0.28916156124E+03  0.31632639466E+03  0.12508846691E+03 0.  0.
         23    2    1    2    0    0  0.21305076588E+02  0.18626556767E+02 -0.76601803946E+02  0.12186949209E+03  0.90462599067E+02 0.  0.
          5    1    3    3  502    0  0.13056426325E+02 -0.31171775286E+02 -0.27464792532E+03  0.27675098035E+03  0.41800000000E+01 0. -1.
         -5    1    3    3    0  502 -0.34361502913E+02  0.12545218520E+02 -0.14513635920E+02  0.39575414309E+02  0.41800000000E+01 0. -1.
        -11    1    4    4    0    0  0.30371779130E+02  0.49682482290E+02 -0.31032049418E+02  0.65983195627E+02  0.00000000000E+00 0.  1.
         11    1    4    4    0    0 -0.90667025422E+01 -0.31055925523E+02 -0.45569754527E+02  0.55886296467E+02  0.00000000000E+00 0. -1.
</event>
<event>
 8    1  0.7048627E-009  0.1212143E+03  0.7561462E-02  0.1241107E+00
          1   -1    0    0  501    0  0.00000000000E+00  0.00000000000E+00  0.16235989789E+03  0.16235989789E+03  0.00000000000E+00 0. -1.
         -1   -1    0    0    0  501 -0.00000000000E+00 -0.00000000000E+00 -0.15499593223E+03  0.15499593223E+03  0.00000000000E+00 0.  1.
         25    2    1    2    0    0  0.21490453330E+02  0.99151307504E+02 -0.51992492148E+02  0.16924504059E+03  0.12509133927E+03 0.  0.
         23    2    1    2    0    0 -0.21490453330E+02 -0.99151307504E+02  0.59356457809E+02  0.14811078954E+03  0.90115456662E+02 0.  0.
          5    1    3    3  502    0  0.46928784692E+02  0.10450129291E+03 -0.42332699153E+01  0.11470930226E+03  0.41800000000E+01 0. -1.
         -5    1    3    3    0  502 -0.25438331362E+02 -0.53499854013E+01 -0.47759222233E+02  0.54535738324E+02  0.41800000000E+01 0. -1.
        -11    1    4    4    0    0 -0.42110955047E+01 -0.22902521982E+02 -0.24266816309E+02  0.33632383387E+02  0.00000000000E+00 0.  1.
         11    1    4    4    0    0 -0.17279357825E+02 -0.76248785522E+02  0.83623274118E+02  0.11447840615E+03  0.00000000000E+00 0. -1.
</event>
<event>
 8    1  0.7048627E-009  0.2099021E+03  0.7561462E-02  0.1141644E+00
          3   -1    0    0  501    0  0.00000000000E+00  0.00000000000E+00  0.21427887503E+03  0.21427887503E+03  0.00000000000E+00 0. -1.
         -3   -1    0    0    0  501 -0.00000000000E+00 -0.00000000000E+00 -0.21035342567E+03  0.21035342567E+03  0.00000000000E+00 0.  1.
         25    2    1    2    0    0  0.18070953903E+03  0.74018761854E+01  0.22529803452E+02  0.22106025628E+03  0.12509724055E+03 0.  0.
         23    2    1    2    0    0 -0.18070953903E+03 -0.74018761854E+01 -0.18604354086E+02  0.20357204443E+03  0.91568171396E+02 0.  0.
          5    1    3    3  502    0  0.18426748501E+03 -0.23432542613E+02  0.31572160200E+02  0.18846183641E+03  0.41800000000E+01 0. -1.
         -5    1    3    3    0  502 -0.35579459754E+01  0.30834418798E+02 -0.90423567478E+01  0.32598419866E+02  0.41800000000E+01 0. -1.
        -11    1    4    4    0    0 -0.86182026884E+02 -0.49303423848E+02 -0.72604827248E+01  0.99553422695E+02  0.00000000000E+00 0. -1.
         11    1    4    4    0    0 -0.94527512147E+02  0.41901547663E+02 -0.11343871361E+02  0.10401862173E+03  0.00000000000E+00 0.  1.
</event>
<event>
 8    1  0.7048627E-009  0.8547613E+02  0.7561462E-02  0.1314192E+00
         -2   -1    0    0    0  501 -0.00000000000E+00  0.00000000000E+00  0.18982569049E+03  0.18982569049E+03  0.00000000000E+00 0.  1.
          2   -1    0    0  501    0  0.00000000000E+00 -0.00000000000E+00 -0.83075427170E+02  0.83075427170E+02  0.00000000000E+00 0. -1.
         25    2    1    2    0    0 -0.15481032480E+02  0.22668099946E+02 -0.38003464173E+01  0.12811834007E+03  0.12508541605E+03 0.  0.
         23    2    1    2    0    0  0.15481032480E+02 -0.22668099946E+02  0.11055060974E+03  0.14478277759E+03  0.89370634165E+02 0.  0.
          5    1    3    3  502    0 -0.38220267203E+02 -0.85011338963E+01  0.48828914937E+02  0.62727931869E+02  0.41800000000E+01 0. -1.
         -5    1    3    3    0  502  0.22739234723E+02  0.31169233842E+02 -0.52629261355E+02  0.65390408202E+02  0.41800000000E+01 0. -1.
        -11    1    4    4    0    0  0.47281423071E+02  0.87275233839E+01  0.48280952473E+02  0.68137750210E+02  0.00000000000E+00 0. -1.
         11    1    4    4    0    0 -0.31800390591E+02 -0.31395623330E+02  0.62269657263E+02  0.76645027377E+02  0.00000000000E+00 0.  1.
</event>
<event>
 8    1  0.7048627E-009  0.9630203E+02  0.7561462E-02  0.1288270E+00
          2   -1    0    0  501    0  0.00000000000E+00  0.00000000000E+00  0.17496929758E+02  0.17496929758E+02  0.00000000000E+00 0. -1.
         -2   -1    0    0    0  501 -0.00000000000E+00 -0.00000000000E+00 -0.73327129967E+03  0.73327129967E+03  0.00000000000E+00 0.  1.
         25    2    1    2    0    0  0.25774302424E+02  0.20739066846E+02 -0.43766657183E+03  0.45639350099E+03  0.12509426881E+03 0.  0.
         23    2    1    2    0    0 -0.25774302424E+02 -0.20739066846E+02 -0.27810779808E+03  0.29437472844E+03  0.90653791035E+02 0.  0.
          5    1    3    3  502    0 -0.18247878755E+02 -0.26546993448E+02 -0.32366840228E+03  0.32529438202E+03  0.41800000000E+01 0. -1.
         -5    1    3    3    0  502  0.44022181179E+02  0.47286060295E+02 -0.11399816955E+03  0.13109911897E+03  0.41800000000E+01 0. -1.
        -11    1    4    4    0    0 -0.74846254500E+01  0.35479492402E+02 -0.12824393858E+03  0.13327160906E+03  0.00000000000E+00 0. -1.
         11    1    4    4    0    0 -0.18289676974E+02 -0.56218559248E+02 -0.14986385950E+03  0.16110311938E+03  0.00000000000E+00 0.  1.
</event>
<event>
 8    1  0.7048627E-009  0.1096337E+03  0.7561462E-02  0.1261250E+00
          1   -1    0    0  501    0  0.00000000000E+00  0.00000000000E+00  0.14016758811E+03  0.14016758811E+03  0.00000000000E+00 0. -1.
         -1   -1    0    0    0  501 -0.00000000000E+00 -0.00000000000E+00 -0.11616249879E+03  0.11616249879E+03  0.00000000000E+00 0.  1.
         25    2    1    2    0    0 -0.31870444715E+00  0.67164369228E+02  0.21431080970E+02  0.14359119671E+03  0.12509191210E+03 0.  0.
         23    2    1    2    0    0  0.31870444715E+00 -0.67164369228E+02  0.25740083464E+01  0.11273889019E+03  0.90511202493E+02 0.  0.
          5    1    3    3  502    0  0.47742349336E+02  0.78884326832E+02  0.12395538534E+02  0.93129966796E+02  0.41800000000E+01 0.  1.
         -5    1    3    3    0  502 -0.48061053783E+02 -0.11719957604E+02  0.90355424352E+01  0.50461229910E+02  0.41800000000E+01 0.  1.
        -11    1    4    4    0    0  0.18982838384E+02 -0.26714566510E+02 -0.39594509484E+02  0.51397873479E+02  0.00000000000E+00 0.  1.
         11    1    4    4    0    0 -0.18664133937E+02 -0.40449802718E+02  0.42168517830E+02  0.61341016714E+02  0.00000000000E+00 0. -1.
</event>
<event>
 8    1  0.7048627E-009  0.9328837E+02  0.7561462E-02  0.1295078E+00
         -2   -1    0    0    0  501 -0.00000000000E+00  0.00000000000E+00  0.28954963802E+02  0.28954963802E+02  0.00000000000E+00 0.  1.
          2   -1    0    0  501    0  0.00000000000E+00 -0.00000000000E+00 -0.46392728007E+03  0.46392728007E+03  0.00000000000E+00 0. -1.
         25    2    1    2    0    0 -0.32118461489E+01 -0.38046660499E+01 -0.31526757958E+03  0.33921297021E+03  0.12508797299E+03 0.  0.
         23    2    1    2    0    0  0.32118461489E+01  0.38046660499E+01 -0.11970473669E+03  0.15366927366E+03  0.96230090107E+02 0.  0.
          5    1    3    3  502    0  0.40891165900E+02  0.17787972155E+02 -0.26521489766E+03  0.26897009824E+03  0.41800000000E+01 0. -1.
         -5    1    3    3    0  502 -0.44103012049E+02 -0.21592638205E+02 -0.50052681910E+02  0.70242871972E+02  0.41800000000E+01 0. -1.
        -11    1    4    4    0    0  0.25219676178E+02  0.41671136251E+02 -0.84262675284E+02  0.97327869127E+02  0.00000000000E+00 0. -1.
         11    1    4    4    0    0 -0.22007830029E+02 -0.37866470201E+02 -0.35442061405E+02  0.56341404533E+02  0.00000000000E+00 0.  1.
</event>
<event>
 8    1  0.7048627E-009  0.2456546E+03  0.7561462E-02  0.1116082E+00
          1   -1    0    0  501    0  0.00000000000E+00  0.00000000000E+00  0.16388922643E+04  0.16388922643E+04  0.00000000000E+00 0. -1.
         -1   -1    0    0    0  501 -0.00000000000E+00 -0.00000000000E+00 -0.42373124999E+02  0.42373124999E+02  0.00000000000E+00 0.  1.
         25    2    1    2    0    0 -0.50073780913E+02  0.23062318478E+03  0.95973758558E+03  0.99621197446E+03  0.12509047919E+03 0.  0.
         23    2    1    2    0    0  0.50073780913E+02 -0.23062318478E+03  0.63678155376E+03  0.68505341488E+03  0.90072177375E+02 0.  0.
          5    1    3    3  502    0 -0.34812607554E+02  0.49816404529E+02  0.46986752724E+03  0.47380012385E+03  0.41800000000E+01 0. -1.
         -5    1    3    3    0  502 -0.15261173359E+02  0.18080678025E+03  0.48987005834E+03  0.52241185060E+03  0.41800000000E+01 0. -1.
        -11    1    4    4    0    0 -0.18610517893E+02 -0.95705972276E+02  0.19432404022E+03  0.21741163058E+03  0.00000000000E+00 0. -1.
         11    1    4    4    0    0  0.68684298806E+02 -0.13491721251E+03  0.44245751355E+03  0.46764178430E+03  0.00000000000E+00 0.  1.
</event>
<event>
 8    1  0.7048627E-009  0.8495825E+02  0.7561462E-02  0.1315542E+00
          2   -1    0    0  501    0  0.00000000000E+00  0.00000000000E+00  0.12911943333E+03  0.12911943333E+03  0.00000000000E+00 0. -1.
         -2   -1    0    0    0  501 -0.00000000000E+00 -0.00000000000E+00 -0.14306450181E+03  0.14306450181E+03  0.00000000000E+00 0.  1.
         25    2    1    2    0    0  0.89644331985E+00  0.22078101051E+02  0.70310258796E+02  0.14518667071E+03  0.12508953075E+03 0.  0.
         23    2    1    2    0    0 -0.89644331985E+00 -0.22078101051E+02 -0.84255327278E+02  0.12699726443E+03  0.92418065555E+02 0.  0.
          5    1    3    3  502    0 -0.46383110668E+02  0.17070463264E+02 -0.11090397884E+02  0.50825810338E+02  0.41800000000E+01 0. -1.
         -5    1    3    3    0  502  0.47279553988E+02  0.50076377866E+01  0.81400656680E+02  0.94360860368E+02  0.41800000000E+01 0. -1.
        -11    1    4    4    0    0 -0.31512947720E+02  0.47640849250E+01  0.16680712090E+01  0.31914649313E+02  0.00000000000E+00 0. -1.
         11    1    4    4    0    0  0.30616504400E+02 -0.26842185976E+02 -0.85923398487E+02  0.95082615115E+02  0.00000000000E+00 0.  1.
</event>
<event>
 8    1  0.7048627E-009  0.9349388E+02  0.7561462E-02  0.1294605E+00
         -1   -1    0    0    0  501 -0.00000000000E+00  0.00000000000E+00  0.11761639740E+03  0.11761639740E+03  0.00000000000E+00 0.  1.
          1   -1    0    0  501    0  0.00000000000E+00 -0.00000000000E+00 -0.13839560813E+03  0.13839560813E+03  0.00000000000E+00 0. -1.
         25    2    1    2    0    0 -0.29059973948E+02 -0.46766215094E+02  0.26820332503E+02  0.13926676307E+03  0.12507733648E+03 0.  0.
         23    2    1    2    0    0  0.29059973948E+02  0.46766215094E+02 -0.47599543237E+02  0.11674524246E+03  0.91280743646E+02 0.  0.
          5    1    3    3  502    0  0.32990101678E+02 -0.34078114382E+02  0.52429224214E+02  0.70823446967E+02  0.41800000000E+01 0.  1.
         -5    1    3    3    0  502 -0.62050075626E+02 -0.12688100712E+02 -0.25608891711E+02  0.68443316106E+02  0.41800000000E+01 0.  1.
        -11    1    4    4    0    0  0.15473434102E+02  0.56890722217E+02  0.71911500696E+01  0.59394394319E+02  0.00000000000E+00 0.  1.
         11    1    4    4    0    0  0.13586539845E+02 -0.10124507123E+02 -0.54790693306E+02  0.57350848140E+02  0.00000000000E+00 0. -1.
</event>
<event>
 8    1  0.7048627E-009  0.1045465E+03  0.7561462E-02  0.1271016E+00
         -2   -1    0    0    0  501 -0.00000000000E+00  0.00000000000E+00  0.12869626238E+03  0.12869626238E+03  0.00000000000E+00 0.  1.
          2   -1    0    0  501    0  0.00000000000E+00 -0.00000000000E+00 -0.15204017366E+03  0.15204017366E+03  0.00000000000E+00 0. -1.
         25    2    1    2    0    0  0.61906995199E+02 -0.12204780204E+02 -0.73101528088E+02  0.15802728950E+03  0.12508940045E+03 0.  0.
         23    2    1    2    0    0 -0.61906995199E+02  0.12204780204E+02  0.49757616805E+02  0.12270914653E+03  0.92737702677E+02 0.  0.
          5    1    3    3  502    0  0.63107851484E+02 -0.39895592182E+02 -0.96102528157E+02  0.12176792481E+03  0.41800000000E+01 0.  1.
         -5    1    3    3    0  502 -0.12008562845E+01  0.27690811978E+02  0.23001000070E+02  0.36259364694E+02  0.41800000000E+01 0.  1.
        -11    1    4    4    0    0 -0.28206346351E+02 -0.37074226025E+02  0.41597390410E+02  0.62453495489E+02  0.00000000000E+00 0.  1.
         11    1    4    4    0    0 -0.33700648848E+02  0.49279006229E+02  0.81602263948E+01  0.60255651042E+02  0.00000000000E+00 0. -1.
</event>
<event>
 8    1  0.7048627E-009  0.3928092E+03  0.7561462E-02  0.1046298E+00
         -1   -1    0    0    0  501 -0.00000000000E+00  0.00000000000E+00  0.94783759478E+03  0.94783759478E+03  0.00000000000E+00 0.  1.
          1   -1    0    0  501    0  0.00000000000E+00 -0.00000000000E+00 -0.17886201155E+03  0.17886201155E+03  0.00000000000E+00 0. -1.
         25    2    1    2    0    0 -0.25411685979E+03 -0.28696316253E+03  0.24650500241E+03  0.47258314015E+03  0.12508746166E+03 0.  0.
         23    2    1    2    0    0  0.25411685979E+03  0.28696316253E+03  0.52247058083E+03  0.65411646618E+03  0.89272663300E+02 0.  0.
          5    1    3    3  502    0 -0.16032062953E+03 -0.10831732754E+03  0.16717822722E+03  0.25573693466E+03  0.41800000000E+01 0. -1.
         -5    1    3    3    0  502 -0.93796230269E+02 -0.17864583499E+03  0.79326775193E+02  0.21684620549E+03  0.41800000000E+01 0. -1.
        -11    1    4    4    0    0  0.16934513738E+03  0.13622820304E+03  0.24853673589E+03  0.33016118479E+03  0.00000000000E+00 0. -1.
         11    1    4    4    0    0  0.84771722416E+02  0.15073495950E+03  0.27393384494E+03  0.32395528139E+03  0.00000000000E+00 0.  1.
</event>
<event>
 8    1  0.7048627E-009  0.1148225E+03  0.7561462E-02  0.1251891E+00
         -2   -1    0    0    0  501 -0.00000000000E+00  0.00000000000E+00  0.73339728283E+02  0.73339728283E+02  0.00000000000E+00 0.  1.
          2   -1    0    0  501    0  0.00000000000E+00 -0.00000000000E+00 -0.24268510433E+03  0.24268510433E+03  0.00000000000E+00 0. -1.
         25    2    1    2    0    0  0.15873547308E+02 -0.44523375221E+02 -0.21214512349E+02  0.13539577317E+03  0.12509060482E+03 0.  0.
         23    2    1    2    0    0 -0.15873547308E+02  0.44523375221E+02 -0.14813086370E+03  0.18062905944E+03  0.91922814842E+02 0.  0.
          5    1    3    3  502    0  0.60388228522E+02 -0.56515846267E+02  0.35622495119E+01  0.82891139725E+02  0.41800000000E+01 0.  1.
         -5    1    3    3    0  502 -0.44514681213E+02  0.11992471046E+02 -0.24776761861E+02  0.52504633449E+02  0.41800000000E+01 0.  1.
        -11    1    4    4    0    0 -0.60211233935E+01  0.71534638064E+02 -0.84995700056E+02  0.11125523537E+03  0.00000000000E+00 0.  1.
         11    1    4    4    0    0 -0.98524239150E+01 -0.27011262843E+02 -0.63135163642E+02  0.69373824066E+02  0.00000000000E+00 0. -1.
</event>
<event>
 8    1  0.7048627E-009  0.7021541E+02  0.7561462E-02  0.1359362E+00
          1   -1    0    0  501    0  0.00000000000E+00  0.00000000000E+00  0.11147969066E+03  0.11147969066E+03  0.00000000000E+00 0. -1.
         -1   -1    0    0    0  501 -0.00000000000E+00 -0.00000000000E+00 -0.15393283246E+03  0.15393283246E+03  0.00000000000E+00 0.  1.
         25    2    1    2    0    0  0.14446740669E+02 -0.44148769220E+02 -0.82785414522E+02  0.15703589297E+03  0.12509606183E+03 0.  0.
         23    2    1    2    0    0 -0.14446740669E+02  0.44148769220E+02  0.40332272724E+02  0.10837663015E+03  0.89224321796E+02 0.  0.
          5    1    3    3  502    0  0.44662801137E+02 -0.12177838263E+02  0.15724331629E+02  0.49069262837E+02  0.41800000000E+01 0.  1.
         -5    1    3    3    0  502 -0.30216060468E+02 -0.31970930957E+02 -0.98509746151E+02  0.10796663014E+03  0.41800000000E+01 0.  1.
        -11    1    4    4    0    0 -0.10083525150E+02  0.68095924252E+01  0.63209270409E+02  0.64369712552E+02  0.00000000000E+00 0. -1.
         11    1    4    4    0    0 -0.43632155189E+01  0.37339176795E+02 -0.22876997684E+02  0.44006917597E+02  0.00000000000E+00 0.  1.
</event>
<event>
 8    1  0.7048627E-009  0.1023338E+03  0.7561462E-02  0.1275464E+00
         -1   -1    0    0    0  501 -0.00000000000E+00  0.00000000000E+00  0.70979075308E+03  0.70979075308E+03  0.00000000000E+00 0.  1.
          1   -1    0    0  501    0  0.00000000000E+00 -0.00000000000E+00 -0.25002773705E+02  0.25002773705E+02  0.00000000000E+00 0. -1.
         25    2    1    2    0    0 -0.54157599951E+01 -0.25685569561E+02  0.58045935955E+03  0.59436486802E+03  0.12508976499E+03 0.  0.
         23    2    1    2    0    0  0.54157599951E+01  0.25685569561E+02  0.10432861982E+03  0.14042865876E+03  0.90258896226E+02 0.  0.
          5    1    3    3  502    0  0.22745377951E+02  0.42671583175E+02  0.31711664275E+03  0.32080937289E+03  0.41800000000E+01 0. -1.
         -5    1    3    3    0  502 -0.28161137946E+02 -0.68357152736E+02  0.26334271681E+03  0.27355549513E+03  0.41800000000E+01 0. -1.
        -11    1    4    4    0    0  0.16407137011E+01  0.53745530815E+02  0.31565089938E+02  0.62350853457E+02  0.00000000000E+00 0. -1.
         11    1    4    4    0    0  0.37750462940E+01 -0.28059961254E+02  0.72763529885E+02  0.78077805306E+02  0.00000000000E+00 0.  1.
</event>
<event>
 8    1  0.7048627E-009  0.1419411E+03  0.7561462E-02  0.1210741E+00
         -1   -1    0    0    0  501 -0.00000000000E+00  0.00000000000E+00  0.21566743835E+02  0.21566743835E+02  0.00000000000E+00 0.  1.
          1   -1    0    0  501    0  0.00000000000E+00 -0.00000000000E+00 -0.12548787034E+04  0.12548787034E+04  0.00000000000E+00 0. -1.
         25    2    1    2    0    0 -0.24348319434E+00 -0.12150926050E+03 -0.57195111063E+03  0.59794612921E+03  0.12508773244E+03 0.  0.
         23    2    1    2    0    0  0.24348319434E+00  0.12150926050E+03 -0.66136084895E+03  0.67849931805E+03  0.90546078845E+02 0.  0.
          5    1    3    3  502    0 -0.33380614612E+02 -0.11464164296E+03 -0.53278366534E+03  0.54601545600E+03  0.41800000000E+01 0.  1.
         -5    1    3    3    0  502  0.33137131418E+02 -0.68676175418E+01 -0.39167445290E+02  0.51930673208E+02  0.41800000000E+01 0.  1.
        -11    1    4    4    0    0 -0.15813316333E+02  0.10848976143E+03 -0.63780386706E+03  0.64715829759E+03  0.00000000000E+00 0. -1.
         11    1    4    4    0    0  0.16056799528E+02  0.13019499079E+02 -0.23556981893E+02  0.31341020457E+02  0.00000000000E+00 0.  1.
</event>
<event>
 8    1  0.7048627E-009  0.1037323E+03  0.7561462E-02  0.1272638E+00
         -2   -1    0    0    0  501 -0.00000000000E+00  0.00000000000E+00  0.21211092772E+03  0.21211092772E+03  0.00000000000E+00 0. -1.
          2   -1    0    0  501    0  0.00000000000E+00 -0.00000000000E+00 -0.64656404818E+02  0.64656404818E+02  0.00000000000E+00 0.  1.
         25    2    1    2    0    0 -0.46739347306E+01 -0.22549494947E+02  0.13369396527E+03  0.18453108209E+03  0.12508924222E+03 0.  0.
         23    2    1    2    0    0  0.46739347306E+01  0.22549494947E+02  0.13760557631E+02  0.92236250448E+02  0.88248782213E+02 0.  0.
          5    1    3    3  502    0 -0.50664108867E+02 -0.49598094204E+02  0.94412859653E+02  0.11814433268E+03  0.41800000000E+01 0.  1.
         -5    1    3    3    0  502  0.45990174136E+02  0.27048599257E+02  0.39281105616E+02  0.66386749410E+02  0.41800000000E+01 0.  1.
        -11    1    4    4    0    0 -0.36630606139E+02  0.19521672542E+02 -0.12314579264E+02  0.43296026000E+02  0.00000000000E+00 0.  1.
         11    1    4    4    0    0  0.41304540869E+02  0.30278224048E+01  0.26075136895E+02  0.48940224448E+02  0.00000000000E+00 0. -1.
</event>
<event>
 8    1  0.7048627E-009  0.7649573E+02  0.7561462E-02  0.1339301E+00
          2   -1    0    0  501    0  0.00000000000E+00  0.00000000000E+00  0.55063060311E+02  0.55063060311E+02  0.00000000000E+00 0. -1.
         -2   -1    0    0    0  501 -0.00000000000E+00 -0.00000000000E+00 -0.23286409543E+03  0.23286409543E+03  0.00000000000E+00 0.  1.
         25    2    1    2    0    0 -0.16801775729E+02 -0.12182791672E+02 -0.69411510084E+02  0.14455249919E+03  0.12508695859E+03 0.  0.
         23    2    1    2    0    0  0.16801775729E+02  0.12182791672E+02 -0.10838952503E+03  0.14337465654E+03  0.91527498174E+02 0.  0.
          5    1    3    3  502    0 -0.32498495719E+01 -0.37609196989E+02  0.25188655037E+02  0.45573610379E+02  0.41800000000E+01 0.  1.
         -5    1    3    3    0  502 -0.13551926157E+02  0.25426405317E+02 -0.94600165121E+02  0.98978888813E+02  0.41800000000E+01 0.  1.
        -11    1    4    4    0    0  0.50832321604E+02  0.46621626818E+01 -0.91201824660E+02  0.10451523096E+03  0.00000000000E+00 0.  1.
         11    1    4    4    0    0 -0.34030545875E+02  0.75206289901E+01 -0.17187700371E+02  0.38859425588E+02  0.00000000000E+00 0. -1.
</event>
<event>
 8    1  0.7048627E-009  0.9626531E+02  0.7561462E-02  0.1288351E+00
         -2   -1    0    0    0  501 -0.00000000000E+00  0.00000000000E+00  0.54822764960E+02  0.54822764960E+02  0.00000000000E+00 0.  1.
          2   -1    0    0  501    0  0.00000000000E+00 -0.00000000000E+00 -0.25576083315E+03  0.25576083315E+03  0.00000000000E+00 0. -1.
         25    2    1    2    0    0 -0.32376200669E+01 -0.47159433709E+02 -0.10945421111E+03  0.17280594412E+03  0.12508867105E+03 0.  0.
         23    2    1    2    0    0  0.32376200669E+01  0.47159433709E+02 -0.91483857088E+02  0.13777765399E+03  0.91536284936E+02 0.  0.
          5    1    3    3  502    0  0.26578073730E+02 -0.53382778133E+02 -0.12484927887E+03  0.13842301051E+03  0.41800000000E+01 0. -1.
         -5    1    3    3    0  502 -0.29815693797E+02  0.62233444243E+01  0.15395067763E+02  0.34382933614E+02  0.41800000000E+01 0. -1.
        -11    1    4    4    0    0  0.43480646573E+02  0.43651349630E+02 -0.45634808179E+02  0.76671654922E+02  0.00000000000E+00 0.  1.
         11    1    4    4    0    0 -0.40243026506E+02  0.35080840787E+01 -0.45849048909E+02  0.61105999068E+02  0.00000000000E+00 0. -1.
</event>
<event>
 8    1  0.7048627E-009  0.2397997E+03  0.7561462E-02  0.1119926E+00
         -2   -1    0    0    0  501 -0.00000000000E+00  0.00000000000E+00  0.73050569931E+02  0.73050569931E+02  0.00000000000E+00 0.  1.
          2   -1    0    0  501    0  0.00000000000E+00 -0.00000000000E+00 -0.83721198341E+03  0.83721198341E+03  0.00000000000E+00 0. -1.
         25    2    1    2    0    0  0.20531868761E+03  0.83752757052E+02 -0.38803608369E+03  0.46410185767E+03  0.12509294243E+03 0.  0.
         23    2    1    2    0    0 -0.20531868761E+03 -0.83752757052E+02 -0.37612532978E+03  0.44616069568E+03  0.91754099993E+02 0.  0.
          5    1    3    3  502    0  0.77015200535E+02 -0.20289129227E+02 -0.19079523856E+03  0.20679285610E+03  0.41800000000E+01 0.  1.
         -5    1    3    3    0  502  0.12830348707E+03  0.10404188628E+03 -0.19724084513E+03  0.25730900156E+03  0.41800000000E+01 0.  1.
        -11    1    4    4    0    0 -0.16542725392E+03 -0.30734322629E+02 -0.22365314063E+03  0.27987765584E+03  0.00000000000E+00 0.  1.
         11    1    4    4    0    0 -0.39891433690E+02 -0.53018434423E+02 -0.15247218916E+03  0.16628303983E+03  0.00000000000E+00 0. -1.
</event>
<event>
 8    1  0.7048627E-009  0.9435813E+02  0.7561462E-02  0.1292628E+00
          1   -1    0    0  501    0  0.00000000000E+00  0.00000000000E+00  0.27001752877E+03  0.27001752877E+03  0.00000000000E+00 0. -1.
         -1   -1    0    0    0  501 -0.00000000000E+00 -0.00000000000E+00 -0.47956122191E+02  0.47956122191E+02  0.00000000000E+00 0.  1.
         25    2    1    2    0    0 -0.12939094679E+02  0.26783723539E+02  0.15378417934E+03  0.20045198165E+03  0.12508651053E+03 0.  0.
         23    2    1    2    0    0  0.12939094679E+02 -0.26783723539E+02  0.68277227243E+02  0.11752166931E+03  0.90910807830E+02 0.  0.
          5    1    3    3  502    0  0.10297789493E+02 -0.43323272880E+02  0.23237349906E+02  0.50402353835E+02  0.41800000000E+01 0.  1.
         -5    1    3    3    0  502 -0.23236884172E+02  0.70106996419E+02  0.13054682943E+03  0.15004962782E+03  0.41800000000E+01 0.  1.
        -11    1    4    4    0    0 -0.25503336935E+02 -0.55600777574E+01 -0.98503918442E+01  0.27899191368E+02  0.00000000000E+00 0.  1.
         11    1    4    4    0    0  0.38442431615E+02 -0.21223645781E+02  0.78127619087E+02  0.89622477944E+02  0.00000000000E+00 0. -1.
</event>
<event>
 8    1  0.7048627E-009  0.8606320E+02  0.7561462E-02  0.1312675E+00
         -1   -1    0    0    0  501 -0.00000000000E+00  0.00000000000E+00  0.26901387690E+03  0.26901387690E+03  0.00000000000E+00 0.  1.
          1   -1    0    0  501    0  0.00000000000E+00 -0.00000000000E+00 -0.85037922490E+02  0.85037922490E+02  0.00000000000E+00 0. -1.
         25    2    1    2    0    0  0.66904358937E+01  0.61018549767E+02  0.16268141426E+01  0.13934926312E+03  0.12509014853E+03 0.  0.
         23    2    1    2    0    0 -0.66904358937E+01 -0.61018549767E+02  0.18234914027E+03  0.21470253628E+03  0.95278249236E+02 0.  0.
          5    1    3    3  502    0 -0.59534233453E+01  0.50053522536E+01 -0.56705602415E+02  0.57388975822E+02  0.41800000000E+01 0.  1.
         -5    1    3    3    0  502  0.12643859239E+02  0.56013197514E+02  0.58332416558E+02  0.81960287296E+02  0.41800000000E+01 0.  1.
        -11    1    4    4    0    0 -0.14143219355E+02  0.19925925407E+02  0.81988213257E+02  0.85551974087E+02  0.00000000000E+00 0.  1.
         11    1    4    4    0    0  0.74527834612E+01 -0.80944475174E+02  0.10036092701E+03  0.12915056219E+03  0.00000000000E+00 0. -1.
</event>
<event>
 8    1  0.7048627E-009  0.9888019E+02  0.7561462E-02  0.1282669E+00
         -1   -1    0    0    0  501 -0.00000000000E+00  0.00000000000E+00  0.10186604269E+03  0.10186604269E+03  0.00000000000E+00 0.  1.
          1   -1    0    0  501    0  0.00000000000E+00 -0.00000000000E+00 -0.17782978043E+03  0.17782978043E+03  0.00000000000E+00 0. -1.
         25    2    1    2    0    0 -0.69479913577E+02  0.23059263986E+02 -0.72796315619E+02  0.16218092141E+03  0.12507661514E+03 0.  0.
         23    2    1    2    0    0  0.69479913577E+02 -0.23059263986E+02 -0.31674221224E+01  0.11751490171E+03  0.91872365351E+02 0.  0.
          5    1    3    3  502    0  0.24447269781E+02  0.39141369175E+01  0.17355623219E+02  0.30523425838E+02  0.41800000000E+01 0. -1.
         -5    1    3    3    0  502 -0.93927183358E+02  0.19145127069E+02 -0.90151938837E+02  0.13165749557E+03  0.41800000000E+01 0. -1.
        -11    1    4    4    0    0  0.97771250988E+01  0.47151160580E+01  0.38226445793E+02  0.39737710712E+02  0.00000000000E+00 0.  1.
         11    1    4    4    0    0  0.59702788478E+02 -0.27774380044E+02 -0.41393867915E+02  0.77777191000E+02  0.00000000000E+00 0. -1.
</event>
<event>
 8    1  0.7048627E-009  0.1147409E+03  0.7561462E-02  0.1252034E+00
         -1   -1    0    0    0  501 -0.00000000000E+00  0.00000000000E+00  0.72137644597E+03  0.72137644597E+03  0.00000000000E+00 0.  1.
          1   -1    0    0  501    0  0.00000000000E+00 -0.00000000000E+00 -0.22976257299E+02  0.22976257299E+02  0.00000000000E+00 0. -1.
         25    2    1    2    0    0  0.49163582019E+02  0.36902218601E+02  0.47637923501E+03  0.49635103882E+03  0.12509335176E+03 0.  0.
         23    2    1    2    0    0 -0.49163582019E+02 -0.36902218601E+02  0.22202095366E+03  0.24800166445E+03  0.91829680221E+02 0.  0.
          5    1    3    3  502    0  0.66195298269E+02  0.67384717430E+02  0.41477790457E+03  0.42541826497E+03  0.41800000000E+01 0. -1.
         -5    1    3    3    0  502 -0.17031716250E+02 -0.30482498829E+02  0.61601330441E+02  0.70932773845E+02  0.41800000000E+01 0. -1.
        -11    1    4    4    0    0 -0.62841691404E+02 -0.26688899316E+01  0.18645086168E+03  0.19677429958E+03  0.00000000000E+00 0.  1.
         11    1    4    4    0    0  0.13678109385E+02 -0.34233328669E+02  0.35570091977E+02  0.51227364869E+02  0.00000000000E+00 0. -1.
</event>
<event>
 8    1  0.7048627E-009  0.1466910E+03  0.7561462E-02  0.1204599E+00
          2   -1    0    0  501    0  0.00000000000E+00  0.00000000000E+00  0.68461226104E+03  0.68461226104E+03  0.00000000000E+00 0. -1.
         -2   -1    0    0    0  501 -0.00000000000E+00 -0.00000000000E+00 -0.35409372110E+02  0.35409372110E+02  0.00000000000E+00 0.  1.
         25    2    1    2    0    0 -0.79075790715E+02  0.74785041600E+02  0.30784123696E+03  0.34965475433E+03  0.12508571834E+03 0.  0.
         23    2    1    2    0    0  0.79075790715E+02 -0.74785041600E+02  0.34136165197E+03  0.37036687881E+03  0.93797997638E+02 0.  0.
          5    1    3    3  502    0 -0.93787216847E+02  0.99338204620E+02  0.24729723530E+03  0.28255533251E+03  0.41800000000E+01 0.  1.
         -5    1    3    3    0  502  0.14711426132E+02 -0.24553163019E+02  0.60544001655E+02  0.67099421827E+02  0.41800000000E+01 0.  1.
        -11    1    4    4    0    0  0.43709198291E+02  0.14522928457E+01  0.20938604285E+03  0.21390446024E+03  0.00000000000E+00 0.  1.
         11    1    4    4    0    0  0.35366592424E+02 -0.76237334446E+02  0.13197560912E+03  0.15646241857E+03  0.00000000000E+00 0. -1.
</event>
<event>
 8    1  0.7048627E-009  0.9392808E+02  0.7561462E-02  0.1293609E+00
          1   -1    0    0  501    0  0.00000000000E+00  0.00000000000E+00  0.60460389278E+02  0.60460389278E+02  0.00000000000E+00 0. -1.
         -1   -1    0    0    0  501 -0.00000000000E+00 -0.00000000000E+00 -0.32784045535E+03  0.32784045535E+03  0.00000000000E+00 0.  1.
         25    2    1    2    0    0 -0.44102259141E+02  0.36260069626E+02 -0.49823387255E+02  0.14625698255E+03  0.12509569583E+03 0.  0.
         23    2    1    2    0    0  0.44102259141E+02 -0.36260069626E+02 -0.21755667881E+03  0.24204386208E+03  0.89412083986E+02 0.  0.
          5    1    3    3  502    0  0.22307522521E+02  0.14114581257E+02  0.29882647202E+02  0.40091045993E+02  0.41800000000E+01 0.  1.
         -5    1    3    3    0  502 -0.66409781662E+02  0.22145488369E+02 -0.79706034457E+02  0.10616593655E+03  0.41800000000E+01 0.  1.
        -11    1    4    4    0    0  0.39999752722E+02  0.12623519268E+02 -0.40458381910E+02  0.58277046282E+02  0.00000000000E+00 0. -1.
         11    1    4    4    0    0  0.41025064195E+01 -0.48883588894E+02 -0.17709829690E+03  0.18376681580E+03  0.00000000000E+00 0.  1.
</event>
<event>
 8    1  0.7048627E-009  0.1032373E+03  0.7561462E-02  0.1273632E+00
          2   -1    0    0  501    0  0.00000000000E+00  0.00000000000E+00  0.54001783784E+03  0.54001783784E+03  0.00000000000E+00 0. -1.
         -2   -1    0    0    0  501 -0.00000000000E+00 -0.00000000000E+00 -0.40383497332E+02  0.40383497332E+02  0.00000000000E+00 0.  1.
         25    2    1    2    0    0  0.49615309558E+02  0.21451634353E+02  0.10605510147E+03  0.17266386861E+03  0.12507308030E+03 0.  0.
         23    2    1    2    0    0 -0.49615309558E+02 -0.21451634353E+02  0.39357923903E+03  0.40773746656E+03  0.91778933743E+02 0.  0.
          5    1    3    3  502    0 -0.18059814985E+02  0.36126699227E+02  0.93805578379E+02  0.10221670240E+03  0.41800000000E+01 0.  1.
         -5    1    3    3    0  502  0.67675124542E+02 -0.14675064873E+02  0.12249523089E+02  0.70447166208E+02  0.41800000000E+01 0.  1.
        -11    1    4    4    0    0 -0.50150359428E+02  0.20762311221E+02  0.30273953892E+03  0.30756683914E+03  0.00000000000E+00 0. -1.
         11    1    4    4    0    0  0.53504987001E+00 -0.42213945575E+02  0.90839700119E+02  0.10017062742E+03  0.00000000000E+00 0.  1.
</event>
<event>
 8    1  0.7048627E-009  0.1160465E+03  0.7561462E-02  0.1249765E+00
          2   -1    0    0  501    0  0.00000000000E+00  0.00000000000E+00  0.94556783550E+03  0.94556783550E+03  0.00000000000E+00 0. -1.
         -2   -1    0    0    0  501 -0.00000000000E+00 -0.00000000000E+00 -0.33360304185E+02  0.33360304185E+02  0.00000000000E+00 0.  1.
         25    2    1    2    0    0 -0.74001302940E+02 -0.33733100372E+02  0.79650672515E+03  0.81036123577E+03  0.12509298274E+03 0.  0.
         23    2    1    2    0    0  0.74001302940E+02  0.33733100372E+02  0.11570080617E+03  0.16856690392E+03  0.91727910972E+02 0.  0.
          5    1    3    3  502    0  0.30126524554E+02  0.11165495105E+02  0.11519191051E+03  0.11966170820E+03  0.41800000000E+01 0.  1.
         -5    1    3    3    0  502 -0.10412782749E+03 -0.44898595477E+02  0.68131481465E+03  0.69069952757E+03  0.41800000000E+01 0.  1.
        -11    1    4    4    0    0  0.14946960370E+02  0.21054900940E+02 -0.11107550242E+02  0.28108684606E+02  0.00000000000E+00 0.  1.
         11    1    4    4    0    0  0.59054342570E+02  0.12678199432E+02  0.12680835641E+03  0.14045821931E+03  0.00000000000E+00 0. -1.
</event>
<event>
 8    1  0.7048627E-009  0.2223124E+03  0.7561462E-02  0.1132171E+00
          4   -1    0    0  501    0  0.00000000000E+00  0.00000000000E+00  0.34731459457E+03  0.34731459457E+03  0.00000000000E+00 0.  1.
         -4   -1    0    0    0  501 -0.00000000000E+00 -0.00000000000E+00 -0.16705265116E+03  0.16705265116E+03  0.00000000000E+00 0. -1.
         25    2    1    2    0    0 -0.20948871952E+03 -0.37514961084E+02  0.12611175043E+03  0.27720779388E+03  0.12508833469E+03 0.  0.
         23    2    1    2    0    0  0.20948871952E+03  0.37514961084E+02  0.54150192982E+02  0.23715945186E+03  0.89551472871E+02 0.  0.
          5    1    3    3  502    0 -0.17537002402E+03 -0.40923704761E+02  0.40128935647E+02  0.18454592602E+03  0.41800000000E+01 0. -1.
         -5    1    3    3    0  502 -0.34118695508E+02  0.34087436777E+01  0.85982814782E+02  0.92661867856E+02  0.41800000000E+01 0. -1.
        -11    1    4    4    0    0  0.11436315525E+03  0.64204912978E+02  0.20256315687E+02  0.13270840386E+03  0.00000000000E+00 0.  1.
         11    1    4    4    0    0  0.95125564276E+02 -0.26689951894E+02  0.33893877295E+02  0.10445104800E+03  0.00000000000E+00 0. -1.
</event>
<event>
 8    1  0.7048627E-009  0.5131212E+02  0.7561462E-02  0.1438390E+00
          1   -1    0    0  501    0  0.00000000000E+00  0.00000000000E+00  0.44006010442E+03  0.44006010442E+03  0.00000000000E+00 0. -1.
         -1   -1    0    0    0  501 -0.00000000000E+00 -0.00000000000E+00 -0.33270558581E+02  0.33270558581E+02  0.00000000000E+00 0.  1.
         25    2    1    2    0    0  0.16670814144E+02  0.11850052420E+01  0.33081957393E+03  0.35407274236E+03  0.12508635460E+03 0.  0.
         23    2    1    2    0    0 -0.16670814144E+02 -0.11850052420E+01  0.75969971905E+02  0.11925792064E+03  0.90397426521E+02 0.  0.
          5    1    3    3  502    0 -0.18776414831E+02 -0.95679090533E+01  0.31121285573E+03  0.31195354238E+03  0.41800000000E+01 0. -1.
         -5    1    3    3    0  502  0.35447228976E+02  0.10752914295E+02  0.19606718205E+02  0.42119199976E+02  0.41800000000E+01 0. -1.
        -11    1    4    4    0    0 -0.35397788237E+00 -0.19402793254E+02 -0.15335345082E+02  0.24733913867E+02  0.00000000000E+00 0.  1.
         11    1    4    4    0    0 -0.16316836262E+02  0.18217788012E+02  0.91305316988E+02  0.94524006770E+02  0.00000000000E+00 0. -1.
</event>
<event>
 8    1  0.7048627E-009  0.1503727E+03  0.7561462E-02  0.1200016E+00
         -2   -1    0    0    0  501 -0.00000000000E+00  0.00000000000E+00  0.45527841500E+02  0.45527841500E+02  0.00000000000E+00 0.  1.
          2   -1    0    0  501    0  0.00000000000E+00 -0.00000000000E+00 -0.80649652751E+03  0.80649652751E+03  0.00000000000E+00 0. -1.
         25    2    1    2    0    0  0.11851860517E+03 -0.53649723711E+02 -0.20288070473E+03  0.27153843713E+03  0.12509032682E+03 0.  0.
         23    2    1    2    0    0 -0.11851860517E+03  0.53649723711E+02 -0.55808798129E+03  0.58048593188E+03  0.92610850505E+02 0.  0.
          5    1    3    3  502    0  0.59336506956E+02  0.56695488731E+01 -0.91867276186E+01  0.60455216537E+02  0.41800000000E+01 0.  1.
         -5    1    3    3    0  502  0.59182098209E+02 -0.59319272584E+02 -0.19369397711E+03  0.21108322059E+03  0.41800000000E+01 0.  1.
        -11    1    4    4    0    0 -0.23383300331E+02  0.57302081986E+02 -0.17078427782E+03  0.18165235172E+03  0.00000000000E+00 0.  1.
         11    1    4    4    0    0 -0.95135304834E+02 -0.36523582754E+01 -0.38730370347E+03  0.39883358016E+03  0.00000000000E+00 0. -1.
</event>
<event>
 8    1  0.7048627E-009  0.1123585E+03  0.7561462E-02  0.1256264E+00
         -4   -1    0    0    0  501 -0.00000000000E+00  0.00000000000E+00  0.12498948603E+03  0.12498948603E+03  0.00000000000E+00 0.  1.
          4   -1    0    0  501    0  0.00000000000E+00 -0.00000000000E+00 -0.13250195490E+03  0.13250195490E+03  0.00000000000E+00 0. -1.
         25    2    1    2    0    0  0.37284816339E+02 -0.53185613039E+02  0.21980822438E+02  0.14266578219E+03  0.12510596265E+03 0.  0.
         23    2    1    2    0    0 -0.37284816339E+02  0.53185613039E+02 -0.29493291300E+02  0.11482565874E+03  0.89978945919E+02 0.  0.
          5    1    3    3  502    0  0.75529641434E+02 -0.50370173613E+01 -0.36886306768E+01  0.75902415477E+02  0.41800000000E+01 0. -1.
         -5    1    3    3    0  502 -0.38244825095E+02 -0.48148595677E+02  0.25669453115E+02  0.66763366717E+02  0.41800000000E+01 0. -1.
        -11    1    4    4    0    0 -0.32346762468E+02  0.66021555192E+02  0.88876594629E+01  0.74055042252E+02  0.00000000000E+00 0.  1.
         11    1    4    4    0    0 -0.49380538712E+01 -0.12835942154E+02 -0.38380950763E+02  0.40770616484E+02  0.00000000000E+00 0. -1.
</event>
<event>
 8    1  0.7048627E-009  0.1278686E+03  0.7561462E-02  0.1230653E+00
         -2   -1    0    0    0  501 -0.00000000000E+00  0.00000000000E+00  0.52020728332E+02  0.52020728332E+02  0.00000000000E+00 0.  1.
          2   -1    0    0  501    0  0.00000000000E+00 -0.00000000000E+00 -0.44726217191E+03  0.44726217191E+03  0.00000000000E+00 0. -1.
         25    2    1    2    0    0  0.73444504001E+02 -0.62566821301E+02 -0.15911146468E+03  0.22422139691E+03  0.12510025718E+03 0.  0.
         23    2    1    2    0    0 -0.73444504001E+02  0.62566821301E+02 -0.23612997890E+03  0.27506150333E+03  0.10292114157E+03 0.  0.
          5    1    3    3  502    0 -0.22723551581E+02 -0.27090625545E+02 -0.84608759543E+00  0.35615306444E+02  0.41800000000E+01 0.  1.
         -5    1    3    3    0  502  0.96168055582E+02 -0.35476195756E+02 -0.15826537708E+03  0.18860609047E+03  0.41800000000E+01 0.  1.
        -11    1    4    4    0    0 -0.35917689544E+02 -0.87393686590E+01 -0.15997509982E+03  0.16419040638E+03  0.00000000000E+00 0. -1.
         11    1    4    4    0    0 -0.37526814457E+02  0.71306189960E+02 -0.76154879087E+02  0.11087109695E+03  0.00000000000E+00 0.  1.
</event>
<event>
 8    1  0.7048627E-009  0.1020456E+03  0.7561462E-02  0.1276052E+00
          2   -1    0    0  501    0  0.00000000000E+00  0.00000000000E+00  0.10375871200E+03  0.10375871200E+03  0.00000000000E+00 0. -1.
         -2   -1    0    0    0  501 -0.00000000000E+00 -0.00000000000E+00 -0.14425483058E+03  0.14425483058E+03  0.00000000000E+00 0.  1.
         25    2    1    2    0    0  0.48138740987E+02 -0.93898542882E+01 -0.17982733315E+02  0.13555927265E+03  0.12508968765E+03 0.  0.
         23    2    1    2    0    0 -0.48138740987E+02  0.93898542882E+01 -0.22513385265E+02  0.11245426993E+03  0.98659021693E+02 0.  0.
          5    1    3    3  502    0  0.55579687019E+02 -0.41629637810E+02  0.31112793849E+02  0.76207655090E+02  0.41800000000E+01 0.  1.
         -5    1    3    3    0  502 -0.74409460323E+01  0.32239783521E+02 -0.49095527164E+02  0.59351617559E+02  0.41800000000E+01 0.  1.
        -11    1    4    4    0    0  0.26298632077E+02  0.22641274052E+01 -0.26718773797E+02  0.37558450384E+02  0.00000000000E+00 0.  1.
         11    1    4    4    0    0 -0.74437373064E+02  0.71257268830E+01  0.42053885312E+01  0.74895819543E+02  0.00000000000E+00 0. -1.
</event>
<event>
 8    1  0.7048627E-009  0.9970935E+02  0.7561462E-02  0.1280908E+00
         -1   -1    0    0    0  501 -0.00000000000E+00  0.00000000000E+00  0.10242949552E+03  0.10242949552E+03  0.00000000000E+00 0.  1.
          1   -1    0    0  501    0  0.00000000000E+00 -0.00000000000E+00 -0.15999549159E+03  0.15999549159E+03  0.00000000000E+00 0. -1.
         25    2    1    2    0    0 -0.17591675477E+02 -0.64486875825E+02 -0.31342860296E+02  0.14525197876E+03  0.12509091991E+03 0.  0.
         23    2    1    2    0    0  0.17591675477E+02  0.64486875825E+02 -0.26223135775E+02  0.11717300835E+03  0.92595015185E+02 0.  0.
          5    1    3    3  502    0 -0.38872866545E+02  0.18150789026E+02 -0.40727101708E+02  0.59301940181E+02  0.41800000000E+01 0.  1.
         -5    1    3    3    0  502  0.21281191069E+02 -0.82637664851E+02  0.93842414124E+01  0.85950038582E+02  0.41800000000E+01 0.  1.
        -11    1    4    4    0    0  0.33711945476E+01  0.51528396950E+02 -0.59470160929E+02  0.78760654428E+02  0.00000000000E+00 0. -1.
         11    1    4    4    0    0  0.14220480929E+02  0.12958478875E+02  0.33247025154E+02  0.38412353927E+02  0.00000000000E+00 0.  1.
</event>
<event>
 8    1  0.7048627E-009  0.9256838E+02  0.7561462E-02  0.1296749E+00
         -2   -1    0    0    0  501 -0.00000000000E+00  0.00000000000E+00  0.50478292507E+02  0.50478292507E+02  0.00000000000E+00 0.  1.
          2   -1    0    0  501    0  0.00000000000E+00 -0.00000000000E+00 -0.47562314134E+03  0.47562314134E+03  0.00000000000E+00 0. -1.
         25    2    1    2    0    0 -0.59102099747E+02  0.50530650254E+02 -0.35818744239E+03  0.38728738292E+03  0.12508744251E+03 0.  0.
         23    2    1    2    0    0  0.59102099747E+02 -0.50530650254E+02 -0.66957406438E+02  0.13881405092E+03  0.93486050548E+02 0.  0.
          5    1    3    3  502    0 -0.17426616012E+02 -0.13771492094E+02 -0.17348437763E+01  0.22667664702E+02  0.41800000000E+01 0.  1.
         -5    1    3    3    0  502 -0.41675483735E+02  0.64302142347E+02 -0.35645259862E+03  0.36461971822E+03  0.41800000000E+01 0.  1.
        -11    1    4    4    0    0  0.50698467870E+02 -0.56176442778E+02 -0.87639031490E+02  0.11578742249E+03  0.00000000000E+00 0. -1.
         11    1    4    4    0    0  0.84036318763E+01  0.56457925243E+01  0.20681625052E+02  0.23026628427E+02  0.00000000000E+00 0.  1.
</event>
<event>
 8    1  0.7048627E-009  0.1150837E+03  0.7561462E-02  0.1251435E+00
          1   -1    0    0  501    0  0.00000000000E+00  0.00000000000E+00  0.17993517914E+02  0.17993517914E+02  0.00000000000E+00 0. -1.
         -1   -1    0    0    0  501 -0.00000000000E+00 -0.00000000000E+00 -0.98800286288E+03  0.98800286288E+03  0.00000000000E+00 0.  1.
         25    2    1    2    0    0 -0.71763786627E+01  0.65852557249E+02 -0.68205881100E+03  0.69659118430E+03  0.12508795576E+03 0.  0.
         23    2    1    2    0    0  0.71763786627E+01 -0.65852557249E+02 -0.28795053397E+03  0.30940519649E+03  0.91804171467E+02 0.  0.
          5    1    3    3  502    0  0.40322516668E+02  0.60626113149E+01 -0.45820377294E+03  0.46003351024E+03  0.41800000000E+01 0. -1.
         -5    1    3    3    0  502 -0.47498895331E+02  0.59789945934E+02 -0.22385503806E+03  0.23655767406E+03  0.41800000000E+01 0. -1.
        -11    1    4    4    0    0 -0.32006284018E+02 -0.66186156629E+02 -0.20135785395E+03  0.21435949920E+03  0.00000000000E+00 0.  1.
         11    1    4    4    0    0  0.39182662681E+02  0.33359938016E+00 -0.86592680011E+02  0.95045697298E+02  0.00000000000E+00 0. -1.
</event>
<event>
 8    1  0.7048627E-009  0.4332969E+02  0.7561462E-02  0.1485047E+00
         -1   -1    0    0    0  501 -0.00000000000E+00  0.00000000000E+00  0.24943201718E+03  0.24943201718E+03  0.00000000000E+00 0.  1.
          1   -1    0    0  501    0  0.00000000000E+00 -0.00000000000E+00 -0.52751014005E+02  0.52751014005E+02  0.00000000000E+00 0. -1.
         25    2    1    2    0    0 -0.66832510031E+01  0.15434168898E+02  0.17263506403E+03  0.21385407620E+03  0.12509125134E+03 0.  0.
         23    2    1    2    0    0  0.66832510031E+01 -0.15434168898E+02  0.24045939143E+02  0.88328954982E+02  0.83312170092E+02 0.  0.
          5    1    3    3  502    0 -0.23773291702E+02  0.17397723130E+02 -0.92116662848E+01  0.31147670285E+02  0.41800000000E+01 0.  1.
         -5    1    3    3    0  502  0.17090040699E+02 -0.19635542323E+01  0.18184673032E+03  0.18270640592E+03  0.41800000000E+01 0.  1.
        -11    1    4    4    0    0 -0.79437946564E+01 -0.21835441970E+02  0.51539770384E+02  0.56535283946E+02  0.00000000000E+00 0.  1.
         11    1    4    4    0    0  0.14627045659E+02  0.64012730727E+01 -0.27493831241E+02  0.31793671036E+02  0.00000000000E+00 0. -1.
</event>
<event>
 8    1  0.7048627E-009  0.1300846E+03  0.7561462E-02  0.1227330E+00
         -2   -1    0    0    0  501 -0.00000000000E+00  0.00000000000E+00  0.43920698970E+02  0.43920698970E+02  0.00000000000E+00 0.  1.
          2   -1    0    0  501    0  0.00000000000E+00 -0.00000000000E+00 -0.49902852265E+03  0.49902852265E+03  0.00000000000E+00 0. -1.
         25    2    1    2    0    0  0.88030361144E+02 -0.19043531610E+02 -0.33037215656E+03  0.36455735939E+03  0.12507719967E+03 0.  0.
         23    2    1    2    0    0 -0.88030361144E+02  0.19043531610E+02 -0.12473566712E+03  0.17839186223E+03  0.90292132983E+02 0.  0.
          5    1    3    3  502    0  0.62032488292E+02 -0.58411037562E+02 -0.11026399293E+03  0.13941126012E+03  0.41800000000E+01 0. -1.
         -5    1    3    3    0  502  0.25997872852E+02  0.39367505952E+02 -0.22010816363E+03  0.22514609927E+03  0.41800000000E+01 0. -1.
        -11    1    4    4    0    0 -0.12699764885E+01  0.38552151212E+02 -0.35877304680E+02  0.52678859084E+02  0.00000000000E+00 0.  1.
         11    1    4    4    0    0 -0.86760384655E+02 -0.19508619602E+02 -0.88858362440E+02  0.12571300315E+03  0.00000000000E+00 0. -1.
</event>
<event>
 8    1  0.7048627E-009  0.8809048E+02  0.7561462E-02  0.1307543E+00
         -2   -1    0    0    0  501 -0.00000000000E+00  0.00000000000E+00  0.19809333415E+02  0.19809333415E+02  0.00000000000E+00 0. -1.
          2   -1    0    0  501    0  0.00000000000E+00 -0.00000000000E+00 -0.13072547491E+04  0.13072547491E+04  0.00000000000E+00 0.  1.
         25    2    1    2    0    0 -0.61932154053E+02  0.12615632305E+02 -0.11012507765E+04  0.11101328707E+04  0.12508785766E+03 0.  0.
         23    2    1    2    0    0  0.61932154053E+02 -0.12615632305E+02 -0.18619463924E+03  0.21693121180E+03  0.91629477177E+02 0.  0.
          5    1    3    3  502    0  0.90728244791E+01  0.36308855568E+02 -0.11440492228E+03  0.12044337997E+03  0.41800000000E+01 0.  1.
         -5    1    3    3    0  502 -0.71004978532E+02 -0.23693223263E+02 -0.98684585420E+03  0.98968949077E+03  0.41800000000E+01 0.  1.
        -11    1    4    4    0    0  0.41931223376E+02 -0.11690454097E+02 -0.19136381027E+03  0.19625239385E+03  0.00000000000E+00 0.  1.
         11    1    4    4    0    0  0.20000930678E+02 -0.92517820832E+00  0.51691710306E+01  0.20678817951E+02  0.00000000000E+00 0. -1.
</event>
<event>
 8    1  0.7048627E-009  0.1978310E+03  0.7561462E-02  0.1151582E+00
         -1   -1    0    0    0  501 -0.00000000000E+00  0.00000000000E+00  0.62851620547E+03  0.62851620547E+03  0.00000000000E+00 0.  1.
          1   -1    0    0  501    0  0.00000000000E+00 -0.00000000000E+00 -0.83549950734E+02  0.83549950734E+02  0.00000000000E+00 0. -1.
         25    2    1    2    0    0  0.42950216827E+02 -0.17886694192E+03  0.15769344605E+03  0.27268292886E+03  0.12510256882E+03 0.  0.
         23    2    1    2    0    0 -0.42950216827E+02  0.17886694192E+03  0.38727280869E+03  0.43938322735E+03  0.96121215578E+02 0.  0.
          5    1    3    3  502    0 -0.43784651046E+01 -0.25181731188E+01 -0.18061510069E+02  0.19214648019E+02  0.41800000000E+01 0.  1.
         -5    1    3    3    0  502  0.47328681931E+02 -0.17634876880E+03  0.17575495611E+03  0.25346828084E+03  0.41800000000E+01 0.  1.
        -11    1    4    4    0    0 -0.55490059759E+02  0.43463606182E+02  0.11158563538E+03  0.13198327855E+03  0.00000000000E+00 0.  1.
         11    1    4    4    0    0  0.12539842932E+02  0.13540333574E+03  0.27568717331E+03  0.30739994880E+03  0.00000000000E+00 0. -1.
</event>
<event>
 8    1  0.7048627E-009  0.1127154E+03  0.7561462E-02  0.1255622E+00
         -1   -1    0    0    0  501 -0.00000000000E+00  0.00000000000E+00  0.11298130220E+03  0.11298130220E+03  0.00000000000E+00 0.  1.
          1   -1    0    0  501    0  0.00000000000E+00 -0.00000000000E+00 -0.11487993354E+03  0.11487993354E+03  0.00000000000E+00 0. -1.
         25    2    1    2    0    0  0.26645287788E+02 -0.20577907184E+02 -0.15322785513E+02  0.13044888480E+03  0.12509477273E+03 0.  0.
         23    2    1    2    0    0 -0.26645287788E+02  0.20577907184E+02  0.13424154172E+02  0.97412350937E+02  0.90418673815E+02 0.  0.
          5    1    3    3  502    0  0.25763805662E+02 -0.72411647327E+02 -0.31637803082E+01  0.77037018742E+02  0.41800000000E+01 0.  1.
         -5    1    3    3    0  502  0.88148212578E+00  0.51833740143E+02 -0.12159005205E+02  0.53411866055E+02  0.41800000000E+01 0.  1.
        -11    1    4    4    0    0 -0.15678730707E+02  0.56633056610E+02  0.94317340142E+01  0.59515403923E+02  0.00000000000E+00 0. -1.
         11    1    4    4    0    0 -0.10966557081E+02 -0.36055149426E+02  0.39924201583E+01  0.37896947015E+02  0.00000000000E+00 0.  1.
</event>
<event>
 8    1  0.7048627E-009  0.2704134E+03  0.7561462E-02  0.1101043E+00
         -1   -1    0    0    0  501 -0.00000000000E+00  0.00000000000E+00  0.48227575054E+02  0.48227575054E+02  0.00000000000E+00 0.  1.
          1   -1    0    0  501    0  0.00000000000E+00 -0.00000000000E+00 -0.16625018375E+04  0.16625018375E+04  0.00000000000E+00 0. -1.
         25    2    1    2    0    0 -0.24992372308E+03 -0.64120225663E+02 -0.70150415293E+03  0.75784526574E+03  0.12509236402E+03 0.  0.
         23    2    1    2    0    0  0.24992372308E+03  0.64120225663E+02 -0.91277010954E+03  0.95288414684E+03  0.90915640676E+02 0.  0.
          5    1    3    3  502    0 -0.21050779839E+03 -0.81255177142E+02 -0.66165636926E+03  0.69908694765E+03  0.41800000000E+01 0. -1.
         -5    1    3    3    0  502 -0.39415924695E+02  0.17134951479E+02 -0.39847783670E+02  0.58758318093E+02  0.41800000000E+01 0. -1.
        -11    1    4    4    0    0  0.13922753687E+03  0.79301517601E+02 -0.48607108232E+03  0.51179892026E+03  0.00000000000E+00 0.  1.
         11    1    4    4    0    0  0.11069618622E+03 -0.15181291939E+02 -0.42669902723E+03  0.44108522657E+03  0.00000000000E+00 0. -1.
</event>
<event>
 8    1  0.7048627E-009  0.8161965E+02  0.7561462E-02  0.1324517E+00
          2   -1    0    0  501    0  0.00000000000E+00  0.00000000000E+00  0.82963659551E+03  0.82963659551E+03  0.00000000000E+00 0.  1.
         -2   -1    0    0    0  501 -0.00000000000E+00 -0.00000000000E+00 -0.18247181187E+02  0.18247181187E+02  0.00000000000E+00 0. -1.
         25    2    1    2    0    0  0.29564916029E+02 -0.34071642413E+02  0.60210441227E+03  0.61661543070E+03  0.12509958043E+03 0.  0.
         23    2    1    2    0    0 -0.29564916029E+02  0.34071642413E+02  0.20928500205E+03  0.23126834600E+03  0.87463562128E+02 0.  0.
          5    1    3    3  502    0  0.28875168028E+02 -0.44724044935E+02  0.91941207239E+02  0.10632343821E+03  0.41800000000E+01 0.  1.
         -5    1    3    3    0  502  0.68974800077E+00  0.10652402522E+02  0.51016320504E+03  0.51029199249E+03  0.41800000000E+01 0.  1.
        -11    1    4    4    0    0 -0.19354611178E+02  0.63942941164E+02  0.13919924177E+03  0.15440119691E+03  0.00000000000E+00 0. -1.
         11    1    4    4    0    0 -0.10210304850E+02 -0.29871298751E+02  0.70085760277E+02  0.76867149081E+02  0.00000000000E+00 0.  1.
</event>
<event>
 8    1  0.7048627E-009  0.9615182E+02  0.7561462E-02  0.1288603E+00
          1   -1    0    0  501    0  0.00000000000E+00  0.00000000000E+00  0.36767507725E+03  0.36767507725E+03  0.00000000000E+00 0.  1.
         -1   -1    0    0    0  501 -0.00000000000E+00 -0.00000000000E+00 -0.33716599776E+02  0.33716599776E+02  0.00000000000E+00 0. -1.
         25    2    1    2    0    0  0.27811079701E+01  0.25444301083E+02  0.17625381745E+03  0.21764610877E+03  0.12509705623E+03 0.  0.
         23    2    1    2    0    0 -0.27811079701E+01 -0.25444301083E+02  0.15770466002E+03  0.18374556826E+03  0.90755314124E+02 0.  0.
          5    1    3    3  502    0  0.54559501868E+02 -0.19014738486E+02  0.96928030818E+02  0.11291950709E+03  0.41800000000E+01 0.  1.
         -5    1    3    3    0  502 -0.51778393897E+02  0.44459039570E+02  0.79325786635E+02  0.10472660168E+03  0.41800000000E+01 0.  1.
        -11    1    4    4    0    0 -0.17122015625E+02  0.15202764302E+02  0.13111899625E+03  0.13310326306E+03  0.00000000000E+00 0.  1.
         11    1    4    4    0    0  0.14340907655E+02 -0.40647065386E+02  0.26585663777E+02  0.50642305194E+02  0.00000000000E+00 0. -1.
</event>
<event>
 8    1  0.7048627E-009  0.1182154E+03  0.7561462E-02  0.1246070E+00
          4   -1    0    0  501    0  0.00000000000E+00  0.00000000000E+00  0.33138813371E+03  0.33138813371E+03  0.00000000000E+00 0. -1.
         -4   -1    0    0    0  501 -0.00000000000E+00 -0.00000000000E+00 -0.59354329787E+02  0.59354329787E+02  0.00000000000E+00 0.  1.
         25    2    1    2    0    0 -0.55926176774E+01  0.60078311225E+02  0.59434959225E+02  0.15107666455E+03  0.12510381026E+03 0.  0.
         23    2    1    2    0    0  0.55926176774E+01 -0.60078311225E+02  0.21259884470E+03  0.23966579895E+03  0.92740204689E+02 0.  0.
          5    1    3    3  502    0  0.48853795863E+02  0.52914298152E+02  0.29704405992E+01  0.72200500251E+02  0.41800000000E+01 0.  1.
         -5    1    3    3    0  502 -0.54446413541E+02  0.71640130733E+01  0.56464518626E+02  0.78876164298E+02  0.41800000000E+01 0.  1.
        -11    1    4    4    0    0 -0.35537446037E+02 -0.58016091799E+02  0.15035885115E+03  0.16503502991E+03  0.00000000000E+00 0.  1.
         11    1    4    4    0    0  0.41130063714E+02 -0.20622194263E+01  0.62239993548E+02  0.74630769036E+02  0.00000000000E+00 0. -1.
</event>
<event>
 8    1  0.7048627E-009  0.1041673E+03  0.7561462E-02  0.1271769E+00
          1   -1    0    0  501    0  0.00000000000E+00  0.00000000000E+00  0.39729726598E+03  0.39729726598E+03  0.00000000000E+00 0. -1.
         -1   -1    0    0    0  501 -0.00000000000E+00 -0.00000000000E+00 -0.29815872640E+02  0.29815872640E+02  0.00000000000E+00 0.  1.
         25    2    1    2    0    0  0.20511647880E+02  0.38566727081E+01  0.22256950291E+03  0.25616078082E+03  0.12508221450E+03 0.  0.
         23    2    1    2    0    0 -0.20511647880E+02 -0.38566727081E+01  0.14491189044E+03  0.17095235780E+03  0.88258999684E+02 0.  0.
          5    1    3    3  502    0  0.49453746173E+02 -0.43082670044E+02  0.15813230945E+03  0.17124569823E+03  0.41800000000E+01 0.  1.
         -5    1    3    3    0  502 -0.28942098293E+02  0.46939342752E+02  0.64437193452E+02  0.84915082592E+02  0.41800000000E+01 0.  1.
        -11    1    4    4    0    0  0.30394241891E+02  0.13866216489E+02  0.34164722214E+02  0.47783994640E+02  0.00000000000E+00 0.  1.
         11    1    4    4    0    0 -0.50905889770E+02 -0.17722889197E+02  0.11074716822E+03  0.12316836316E+03  0.00000000000E+00 0. -1.
</event>
<event>
 8    1  0.7048627E-009  0.1180780E+03  0.7561462E-02  0.1246302E+00
          1   -1    0    0  501    0  0.00000000000E+00  0.00000000000E+00  0.31046284903E+02  0.31046284903E+02  0.00000000000E+00 0. -1.
         -1   -1    0    0    0  501 -0.00000000000E+00 -0.00000000000E+00 -0.81485190281E+03  0.81485190281E+03  0.00000000000E+00 0.  1.
         25    2    1    2    0    0 -0.97773301899E+02 -0.50739465237E+02 -0.52154456741E+03  0.54753073439E+03  0.12508819849E+03 0.  0.
         23    2    1    2    0    0  0.97773301899E+02  0.50739465237E+02 -0.26226105049E+03  0.29836745332E+03  0.90045359134E+02 0.  0.
          5    1    3    3  502    0 -0.19150809176E+02 -0.99112550500E+01 -0.38570842940E+01  0.22301030649E+02  0.41800000000E+01 0.  1.
         -5    1    3    3    0  502 -0.78622492722E+02 -0.40828210187E+02 -0.51768748312E+03  0.52522970374E+03  0.41800000000E+01 0.  1.
        -11    1    4    4    0    0  0.70531305579E+02  0.63966741701E+02 -0.24645098588E+03  0.26420540788E+03  0.00000000000E+00 0.  1.
         11    1    4    4    0    0  0.27241996320E+02 -0.13227276464E+02 -0.15810064614E+02  0.34162045449E+02  0.00000000000E+00 0. -1.
</event>
<event>
 8    1  0.7048627E-009  0.9946108E+02  0.7561462E-02  0.1281433E+00
         -1   -1    0    0    0  501 -0.00000000000E+00  0.00000000000E+00  0.16028235591E+02  0.16028235591E+02  0.00000000000E+00 0.  1.
          1   -1    0    0  501    0  0.00000000000E+00 -0.00000000000E+00 -0.98240511830E+03  0.98240511830E+03  0.00000000000E+00 0. -1.
         25    2    1    2    0    0  0.12807669755E+01 -0.42673756513E+02 -0.72214884886E+03  0.73414465652E+03  0.12508687749E+03 0.  0.
         23    2    1    2    0    0 -0.12807669755E+01  0.42673756513E+02 -0.24422803385E+03  0.26428869738E+03  0.91534109400E+02 0.  0.
          5    1    3    3  502    0 -0.42791073592E+02 -0.64546563579E+02 -0.33503320360E+03  0.34389250466E+03  0.41800000000E+01 0. -1.
         -5    1    3    3    0  502  0.44071840568E+02  0.21872807066E+02 -0.38711564526E+03  0.39025215186E+03  0.41800000000E+01 0. -1.
        -11    1    4    4    0    0 -0.29206882215E+02  0.27918747698E+02 -0.22204841943E+03  0.22569448158E+03  0.00000000000E+00 0. -1.
         11    1    4    4    0    0  0.27926115240E+02  0.14755008815E+02 -0.22179614419E+02  0.38594215801E+02  0.00000000000E+00 0.  1.
</event>
<event>
 8    1  0.7048627E-009  0.1196766E+03  0.7561462E-02  0.1243631E+00
          1   -1    0    0  501    0  0.00000000000E+00  0.00000000000E+00  0.90911083967E+03  0.90911083967E+03  0.00000000000E+00 0. -1.
         -1   -1    0    0    0  501 -0.00000000000E+00 -0.00000000000E+00 -0.16734089416E+02  0.16734089416E+02  0.00000000000E+00 0.  1.
         25    2    1    2    0    0  0.10752392524E+02 -0.52143757295E+02  0.59298067361E+03  0.60836622471E+03  0.12509515870E+03 0.  0.
         23    2    1    2    0    0 -0.10752392524E+02  0.52143757295E+02  0.29939607665E+03  0.31747870438E+03  0.91214755649E+02 0.  0.
          5    1    3    3  502    0 -0.41185432197E+02  0.20269854857E+02  0.17475828434E+03  0.18073471495E+03  0.41800000000E+01 0. -1.
         -5    1    3    3    0  502  0.51937824721E+02 -0.72413612152E+02  0.41822238927E+03  0.42763150977E+03  0.41800000000E+01 0. -1.
        -11    1    4    4    0    0  0.27573575467E+02 -0.11403203033E+02  0.63013660516E+02  0.69721277348E+02  0.00000000000E+00 0.  1.
         11    1    4    4    0    0 -0.38325967991E+02  0.63546960328E+02  0.23638241613E+03  0.24775742703E+03  0.00000000000E+00 0. -1.
</event>
<event>
 8    1  0.7048627E-009  0.9978242E+02  0.7561462E-02  0.1280754E+00
          1   -1    0    0  501    0  0.00000000000E+00  0.00000000000E+00  0.29548590028E+02  0.29548590028E+02  0.00000000000E+00 0.  1.
         -1   -1    0    0    0  501 -0.00000000000E+00 -0.00000000000E+00 -0.39991638586E+03  0.39991638586E+03  0.00000000000E+00 0. -1.
         25    2    1    2    0    0 -0.11623614047E+02  0.35859010215E+00 -0.19068933695E+03  0.22835481361E+03  0.12509300814E+03 0.  0.
         23    2    1    2    0    0  0.11623614047E+02 -0.35859010215E+00 -0.17967845889E+03  0.20111016228E+03  0.89586337086E+02 0.  0.
          5    1    3    3  502    0  0.56353074953E+02 -0.31242849661E+01 -0.73443502170E+02  0.92719203104E+02  0.41800000000E+01 0. -1.
         -5    1    3    3    0  502 -0.67976688999E+02  0.34828750683E+01 -0.11724583478E+03  0.13563561051E+03  0.41800000000E+01 0. -1.
        -11    1    4    4    0    0  0.43198314816E+02  0.10627317540E+00 -0.43451202377E+02  0.61270814299E+02  0.00000000000E+00 0.  1.
         11    1    4    4    0    0 -0.31574700769E+02 -0.46486327754E+00 -0.13622725651E+03  0.13983934798E+03  0.00000000000E+00 0. -1.
</event>
<event>
 8    1  0.7048627E-009  0.1117688E+03  0.7561462E-02  0.1257329E+00
         -1   -1    0    0    0  501 -0.00000000000E+00  0.00000000000E+00  0.20850278060E+02  0.20850278060E+02  0.00000000000E+00 0. -1.
          1   -1    0    0  501    0  0.00000000000E+00 -0.00000000000E+00 -0.11167683400E+04  0.11167683400E+04  0.00000000000E+00 0.  1.
         25    2    1    2    0    0 -0.84303646759E+02 -0.26448487319E+02 -0.81596672491E+03  0.83021446408E+03  0.12509089841E+03 0.  0.
         23    2    1    2    0    0  0.84303646759E+02  0.26448487319E+02 -0.27995133701E+03  0.30740415396E+03  0.91202716196E+02 0.  0.
          5    1    3    3  502    0 -0.72831119506E+02 -0.16773506422E+01 -0.18835937112E+03  0.20199977862E+03  0.41800000000E+01 0.  1.
         -5    1    3    3    0  502 -0.11472527253E+02 -0.24771136677E+02 -0.62760735379E+03  0.62821468545E+03  0.41800000000E+01 0.  1.
        -11    1    4    4    0    0 -0.16842610323E+02  0.12218710865E+02 -0.23657131529E+02  0.31506035769E+02  0.00000000000E+00 0.  1.
         11    1    4    4    0    0  0.10114625708E+03  0.14229776453E+02 -0.25629420548E+03  0.27589811819E+03  0.00000000000E+00 0. -1.
</event>
<event>
 8    1  0.7048627E-009  0.1258857E+03  0.7561462E-02  0.1233692E+00
          1   -1    0    0  501    0  0.00000000000E+00  0.00000000000E+00  0.13755974506E+03  0.13755974506E+03  0.00000000000E+00 0. -1.
         -1   -1    0    0    0  501 -0.00000000000E+00 -0.00000000000E+00 -0.23731844259E+03  0.23731844259E+03  0.00000000000E+00 0.  1.
         25    2    1    2    0    0  0.31651432648E+02  0.80575590883E+02  0.66541796968E+02  0.16603590536E+03  0.12508346050E+03 0.  0.
         23    2    1    2    0    0 -0.31651432648E+02 -0.80575590883E+02 -0.16630049449E+03  0.20884228229E+03  0.92005463792E+02 0.  0.
          5    1    3    3  502    0  0.19087201567E+02  0.10269567628E+03  0.84665011978E+02  0.13452271125E+03  0.41800000000E+01 0. -1.
         -5    1    3    3    0  502  0.12564231081E+02 -0.22120085396E+02 -0.18123215010E+02  0.31513194108E+02  0.41800000000E+01 0. -1.
        -11    1    4    4    0    0  0.44733532099E+01  0.16908753614E+02 -0.74842439984E+01  0.19024477547E+02  0.00000000000E+00 0.  1.
         11    1    4    4    0    0 -0.36124785858E+02 -0.97484344497E+02 -0.15881625049E+03  0.18981780474E+03  0.00000000000E+00 0. -1.
</event>
<event>
 8    1  0.7048627E-009  0.7179839E+02  0.7561462E-02  0.1354082E+00
          4   -1    0    0  501    0  0.00000000000E+00  0.00000000000E+00  0.79469851243E+02  0.79469851243E+02  0.00000000000E+00 0.  1.
         -4   -1    0    0    0  501 -0.00000000000E+00 -0.00000000000E+00 -0.18523542205E+03  0.18523542205E+03  0.00000000000E+00 0. -1.
         25    2    1    2    0    0 -0.97101594173E+01 -0.38765833900E+02 -0.10421950376E+03  0.16765080685E+03  0.12509201014E+03 0.  0.
         23    2    1    2    0    0  0.97101594173E+01  0.38765833900E+02 -0.15460670502E+01  0.97054466444E+02  0.88431340935E+02 0.  0.
          5    1    3    3  502    0 -0.36930779516E+02 -0.36932374870E+02  0.71774868476E+01  0.52885456475E+02  0.41800000000E+01 0. -1.
         -5    1    3    3    0  502  0.27220620098E+02 -0.18334590296E+01 -0.11139699060E+03  0.11476535037E+03  0.41800000000E+01 0. -1.
        -11    1    4    4    0    0 -0.19095772522E+02  0.25574910264E+02 -0.37426521138E+02  0.49188098639E+02  0.00000000000E+00 0. -1.
         11    1    4    4    0    0  0.28805931940E+02  0.13190923635E+02  0.35880454088E+02  0.47866367805E+02  0.00000000000E+00 0.  1.
</event>
<event>
 8    1  0.7048627E-009  0.1000310E+03  0.7561462E-02  0.1280231E+00
          1   -1    0    0  501    0  0.00000000000E+00  0.00000000000E+00  0.70612810459E+03  0.70612810459E+03  0.00000000000E+00 0. -1.
         -1   -1    0    0    0  501 -0.00000000000E+00 -0.00000000000E+00 -0.23996473552E+02  0.23996473552E+02  0.00000000000E+00 0.  1.
         25    2    1    2    0    0  0.27254789947E+02 -0.19998757076E+02  0.55672335809E+03  0.57160342145E+03  0.12508717003E+03 0.  0.
         23    2    1    2    0    0 -0.27254789947E+02  0.19998757076E+02  0.12540827295E+03  0.15852115669E+03  0.90878756244E+02 0.  0.
          5    1    3    3  502    0 -0.23231216156E+02  0.26451289348E+02  0.56647284873E+02  0.66826247805E+02  0.41800000000E+01 0. -1.
         -5    1    3    3    0  502  0.50486006103E+02 -0.46450046424E+02  0.50007607322E+03  0.50477717364E+03  0.41800000000E+01 0. -1.
        -11    1    4    4    0    0 -0.60219913573E+02  0.77698004010E+01  0.67652087893E+02  0.90904415653E+02  0.00000000000E+00 0.  1.
         11    1    4    4    0    0  0.32965123625E+02  0.12228956675E+02  0.57756185054E+02  0.67616741041E+02  0.00000000000E+00 0. -1.
</event>
<event>
 8    1  0.7048627E-009  0.8979200E+02  0.7561462E-02  0.1303356E+00
         -3   -1    0    0    0  501 -0.00000000000E+00  0.00000000000E+00  0.31047112151E+02  0.31047112151E+02  0.00000000000E+00 0.  1.
          3   -1    0    0  501    0  0.00000000000E+00 -0.00000000000E+00 -0.43066265678E+03  0.43066265678E+03  0.00000000000E+00 0. -1.
         25    2    1    2    0    0  0.28538414522E+02 -0.92654385524E+01 -0.25194305043E+03  0.28288468473E+03  0.12509258467E+03 0.  0.
         23    2    1    2    0    0 -0.28538414522E+02  0.92654385524E+01 -0.14767249419E+03  0.17882508420E+03  0.96285802386E+02 0.  0.
          5    1    3    3  502    0  0.56738039387E+02  0.35194606387E+02 -0.19026883325E+03  0.20168680358E+03  0.41800000000E+01 0. -1.
         -5    1    3    3    0  502 -0.28199624865E+02 -0.44460044939E+02 -0.61674217182E+02  0.81197881152E+02  0.41800000000E+01 0. -1.
        -11    1    4    4    0    0 -0.11635024658E+02 -0.21683123448E+02 -0.14075417761E+03  0.14288901342E+03  0.00000000000E+00 0. -1.
         11    1    4    4    0    0 -0.16903389864E+02  0.30948562000E+02 -0.69183165884E+01  0.35936070781E+02  0.00000000000E+00 0.  1.
</event>
<event>
 8    1  0.7048627E-009  0.8904611E+02  0.7561462E-02  0.1305178E+00
          3   -1    0    0  501    0  0.00000000000E+00  0.00000000000E+00  0.53191817997E+02  0.53191817997E+02  0.00000000000E+00 0. -1.
         -3   -1    0    0    0  501 -0.00000000000E+00 -0.00000000000E+00 -0.28564663915E+03  0.28564663915E+03  0.00000000000E+00 0.  1.
         25    2    1    2    0    0  0.41587673755E+02 -0.35886889588E+02 -0.14689742231E+03  0.20060732749E+03  0.12508814377E+03 0.  0.
         23    2    1    2    0    0 -0.41587673755E+02  0.35886889588E+02 -0.85557398843E+02  0.13823112965E+03  0.93650270977E+02 0.  0.
          5    1    3    3  502    0  0.63776357028E+01 -0.59597138601E+02 -0.14919329248E+02  0.61907608190E+02  0.41800000000E+01 0.  1.
         -5    1    3    3    0  502  0.35210038053E+02  0.23710249014E+02 -0.13197809306E+03  0.13869971930E+03  0.41800000000E+01 0.  1.
        -11    1    4    4    0    0 -0.29832198656E+01  0.36622100706E+02  0.74824490823E+01  0.37497531987E+02  0.00000000000E+00 0. -1.
         11    1    4    4    0    0 -0.38604453890E+02 -0.73521111821E+00 -0.93039847925E+02  0.10073359766E+03  0.00000000000E+00 0.  1.
</event>
<event>
 8    1  0.7048627E-009  0.1083692E+03  0.7561462E-02  0.1263620E+00
         -2   -1    0    0    0  501 -0.00000000000E+00  0.00000000000E+00  0.70756542643E+02  0.70756542643E+02  0.00000000000E+00 0.  1.
          2   -1    0    0  501    0  0.00000000000E+00 -0.00000000000E+00 -0.17190227128E+03  0.17190227128E+03  0.00000000000E+00 0. -1.
         25    2    1    2    0    0 -0.21806915872E+02 -0.46309537628E+01 -0.49363675239E+02  0.13631435740E+03  0.12509134378E+03 0.  0.
         23    2    1    2    0    0  0.21806915872E+02  0.46309537628E+01 -0.51782053399E+02  0.10634445652E+03  0.90170810496E+02 0.  0.
          5    1    3    3  502    0  0.38350497208E+02 -0.40926402654E+02 -0.27557897747E+02  0.62630992316E+02  0.41800000000E+01 0.  1.
         -5    1    3    3    0  502 -0.60157413080E+02  0.36295448892E+02 -0.21805777493E+02  0.73683365088E+02  0.41800000000E+01 0.  1.
        -11    1    4    4    0    0 -0.24360382509E+02  0.29028613201E+02 -0.92780662986E+01  0.39015011658E+02  0.00000000000E+00 0.  1.
         11    1    4    4    0    0  0.46167298381E+02 -0.24397659439E+02 -0.42503987100E+02  0.67329444861E+02  0.00000000000E+00 0. -1.
</event>
<event>
 8    1  0.7048627E-009  0.1101979E+03  0.7561462E-02  0.1260204E+00
         -3   -1    0    0    0  501 -0.00000000000E+00  0.00000000000E+00  0.23581193192E+03  0.23581193192E+03  0.00000000000E+00 0.  1.
          3   -1    0    0  501    0  0.00000000000E+00 -0.00000000000E+00 -0.93316407118E+02  0.93316407118E+02  0.00000000000E+00 0. -1.
         25    2    1    2    0    0 -0.41745989383E+02  0.17044655228E+02 -0.21951089302E+02  0.13476928052E+03  0.12509061016E+03 0.  0.
         23    2    1    2    0    0  0.41745989383E+02 -0.17044655228E+02  0.16444661411E+03  0.19435905852E+03  0.93271146854E+02 0.  0.
          5    1    3    3  502    0  0.82263079798E+01 -0.42308918873E+02  0.18592454048E+02  0.47126091570E+02  0.41800000000E+01 0.  1.
         -5    1    3    3    0  502 -0.49972297363E+02  0.59353574101E+02 -0.40543543350E+02  0.87643188952E+02  0.41800000000E+01 0.  1.
        -11    1    4    4    0    0 -0.23384492031E+02  0.13983791190E+02  0.72745633074E+02  0.77680808537E+02  0.00000000000E+00 0.  1.
         11    1    4    4    0    0  0.65130481414E+02 -0.31028446419E+02  0.91700981035E+02  0.11667824998E+03  0.00000000000E+00 0. -1.
</event>
<event>
 8    1  0.7048627E-009  0.2390958E+03  0.7561462E-02  0.1120397E+00
         -4   -1    0    0    0  501 -0.00000000000E+00  0.00000000000E+00  0.23129191660E+03  0.23129191660E+03  0.00000000000E+00 0.  1.
          4   -1    0    0  501    0  0.00000000000E+00 -0.00000000000E+00 -0.31417368262E+03  0.31417368262E+03  0.00000000000E+00 0. -1.
         25    2    1    2    0    0  0.21803348550E+03 -0.30509553069E+02 -0.15238930979E+03  0.29553301317E+03  0.12509127273E+03 0.  0.
         23    2    1    2    0    0 -0.21803348550E+03  0.30509553069E+02  0.69507543763E+02  0.24993258604E+03  0.95736958905E+02 0.  0.
          5    1    3    3  502    0  0.23318034405E+03 -0.22766449290E+02 -0.13315123044E+03  0.26951457592E+03  0.41800000000E+01 0.  1.
         -5    1    3    3    0  502 -0.15146858555E+02 -0.77431037791E+01 -0.19238079344E+02  0.26018437253E+02  0.41800000000E+01 0.  1.
        -11    1    4    4    0    0 -0.82989923184E+02 -0.13991494916E+02 -0.13579162944E+02  0.85249533409E+02  0.00000000000E+00 0. -1.
         11    1    4    4    0    0 -0.13504356231E+03  0.44501047985E+02  0.83086706708E+02  0.16468305263E+03  0.00000000000E+00 0.  1.
</event>
<event>
 8    1  0.7048627E-009  0.1273592E+03  0.7561462E-02  0.1231428E+00
         -1   -1    0    0    0  501 -0.00000000000E+00  0.00000000000E+00  0.25743632332E+03  0.25743632332E+03  0.00000000000E+00 0.  1.
          1   -1    0    0  501    0  0.00000000000E+00 -0.00000000000E+00 -0.73992446816E+02  0.73992446816E+02  0.00000000000E+00 0. -1.
         25    2    1    2    0    0 -0.12081247023E+01  0.81749069640E+02  0.77701740367E+02  0.16843262982E+03  0.12509044879E+03 0.  0.
         23    2    1    2    0    0  0.12081247023E+01 -0.81749069640E+02  0.10574213614E+03  0.16299614032E+03  0.93284363384E+02 0.  0.
          5    1    3    3  502    0 -0.29567364080E+02 -0.14507446997E+02 -0.10444728397E+02  0.34803157735E+02  0.41800000000E+01 0. -1.
         -5    1    3    3    0  502  0.28359239377E+02  0.96256516638E+02  0.88146468764E+02  0.13362947208E+03  0.41800000000E+01 0. -1.
        -11    1    4    4    0    0 -0.43019610196E+02 -0.53311039912E+02  0.41954780721E+02  0.80330302272E+02  0.00000000000E+00 0. -1.
         11    1    4    4    0    0  0.44227734898E+02 -0.28438029728E+02  0.63787355419E+02  0.82665838049E+02  0.00000000000E+00 0.  1.
</event>
<event>
 8    1  0.7048627E-009  0.1467648E+03  0.7561462E-02  0.1204506E+00
         -2   -1    0    0    0  501 -0.00000000000E+00  0.00000000000E+00  0.15538752271E+02  0.15538752271E+02  0.00000000000E+00 0.  1.
          2   -1    0    0  501    0  0.00000000000E+00 -0.00000000000E+00 -0.19817044206E+04  0.19817044206E+04  0.00000000000E+00 0. -1.
         25    2    1    2    0    0  0.89451884677E+02  0.61013440509E+02 -0.15075842122E+04  0.15166350249E+04  0.12508941807E+03 0.  0.
         23    2    1    2    0    0 -0.89451884677E+02 -0.61013440509E+02 -0.45858145612E+03  0.48060814788E+03  0.94672912294E+02 0.  0.
          5    1    3    3  502    0 -0.20823684686E+02  0.44743091913E+02 -0.63915395027E+03  0.64107005442E+03  0.41800000000E+01 0.  1.
         -5    1    3    3    0  502  0.11027556936E+03  0.16270348596E+02 -0.86843026189E+03  0.87556497053E+03  0.41800000000E+01 0.  1.
        -11    1    4    4    0    0 -0.86039916718E+02 -0.77390742172E+02 -0.44257631742E+03  0.45745599896E+03  0.00000000000E+00 0. -1.
         11    1    4    4    0    0 -0.34119679587E+01  0.16377301663E+02 -0.16005138699E+02  0.23152148926E+02  0.00000000000E+00 0.  1.
</event>
<event>
 8    1  0.7048627E-009  0.1190619E+03  0.7561462E-02  0.1244653E+00
          2   -1    0    0  501    0  0.00000000000E+00  0.00000000000E+00  0.11722165700E+03  0.11722165700E+03  0.00000000000E+00 0. -1.
         -2   -1    0    0    0  501 -0.00000000000E+00 -0.00000000000E+00 -0.14200027260E+03  0.14200027260E+03  0.00000000000E+00 0.  1.
         25    2    1    2    0    0  0.57562512991E+02  0.16267741465E+02  0.22059528523E+02  0.14040019985E+03  0.12509001161E+03 0.  0.
         23    2    1    2    0    0 -0.57562512991E+02 -0.16267741465E+02 -0.46838144117E+02  0.11882172975E+03  0.91360327294E+02 0.  0.
          5    1    3    3  502    0 -0.23681769814E+02 -0.29090472462E+02  0.28111190832E+02  0.47061590067E+02  0.41800000000E+01 0.  1.
         -5    1    3    3    0  502  0.81244282805E+02  0.45358213927E+02 -0.60516623096E+01  0.93338609781E+02  0.41800000000E+01 0.  1.
        -11    1    4    4    0    0  0.23752946397E+02 -0.97026438852E+01 -0.21272424923E+02  0.33329563799E+02  0.00000000000E+00 0. -1.
         11    1    4    4    0    0 -0.81315459388E+02 -0.65650975800E+01 -0.25565719194E+02  0.85492165955E+02  0.00000000000E+00 0.  1.
</event>
<event>
 8    1  0.7048627E-009  0.9619933E+02  0.7561462E-02  0.1288498E+00
         -3   -1    0    0    0  501 -0.00000000000E+00  0.00000000000E+00  0.27142912054E+03  0.27142912054E+03  0.00000000000E+00 0.  1.
          3   -1    0    0  501    0  0.00000000000E+00 -0.00000000000E+00 -0.49221800700E+02  0.49221800700E+02  0.00000000000E+00 0. -1.
         25    2    1    2    0    0 -0.36668331693E+01 -0.40944478459E+02  0.13837582219E+03  0.19100793921E+03  0.12508504585E+03 0.  0.
         23    2    1    2    0    0  0.36668331693E+01  0.40944478459E+02  0.83831497654E+02  0.12964298203E+03  0.89942686243E+02 0.  0.
          5    1    3    3  502    0  0.34533477608E+02 -0.44528903575E+02  0.14142217094E+03  0.15229276793E+03  0.41800000000E+01 0.  1.
         -5    1    3    3    0  502 -0.38200310777E+02  0.35844251164E+01 -0.30463487548E+01  0.38715171285E+02  0.41800000000E+01 0.  1.
        -11    1    4    4    0    0  0.28991533728E+02  0.59308989854E+02  0.45548560776E+02  0.80204343362E+02  0.00000000000E+00 0.  1.
         11    1    4    4    0    0 -0.25324700559E+02 -0.18364511395E+02  0.38282936879E+02  0.49438638667E+02  0.00000000000E+00 0. -1.
</event>
<event>
 8    1  0.7048627E-009  0.1247195E+03  0.7561462E-02  0.1235508E+00
          2   -1    0    0  501    0  0.00000000000E+00  0.00000000000E+00  0.10983917828E+03  0.10983917828E+03  0.00000000000E+00 0. -1.
         -2   -1    0    0    0  501 -0.00000000000E+00 -0.00000000000E+00 -0.23233692202E+03  0.23233692202E+03  0.00000000000E+00 0.  1.
         25    2    1    2    0    0  0.44645771913E+02 -0.59650692063E+02  0.30238182604E+02  0.14870666267E+03  0.12509146183E+03 0.  0.
         23    2    1    2    0    0 -0.44645771913E+02  0.59650692063E+02 -0.15273592635E+03  0.19346943762E+03  0.92470049652E+02 0.  0.
          5    1    3    3  502    0 -0.11104112931E+02  0.34139504364E+02  0.11455332442E+02  0.37914431600E+02  0.41800000000E+01 0. -1.
         -5    1    3    3    0  502  0.55749884844E+02 -0.93790196428E+02  0.18782850162E+02  0.11079223107E+03  0.41800000000E+01 0. -1.
        -11    1    4    4    0    0  0.62694937294E+01  0.52288783249E+02 -0.12358892874E+03  0.13434153011E+03  0.00000000000E+00 0.  1.
         11    1    4    4    0    0 -0.50915265642E+02  0.73619088144E+01 -0.29146997603E+02  0.59127907507E+02  0.00000000000E+00 0. -1.
</event>
<event>
 8    1  0.7048627E-009  0.8572455E+02  0.7561462E-02  0.1313549E+00
          1   -1    0    0  501    0  0.00000000000E+00  0.00000000000E+00  0.83435755408E+02  0.83435755408E+02  0.00000000000E+00 0. -1.
         -1   -1    0    0    0  501 -0.00000000000E+00 -0.00000000000E+00 -0.16000304797E+03  0.16000304797E+03  0.00000000000E+00 0.  1.
         25    2    1    2    0    0  0.46341609213E+01  0.31684489787E+02 -0.72340088500E+02  0.14800800631E+03  0.12509156321E+03 0.  0.
         23    2    1    2    0    0 -0.46341609213E+01 -0.31684489787E+02 -0.42272040613E+01  0.95430797071E+02  0.89798582589E+02 0.  0.
          5    1    3    3  502    0  0.13863730533E+02 -0.41119056356E+02 -0.58909943065E+02  0.73285971453E+02  0.41800000000E+01 0. -1.
         -5    1    3    3    0  502 -0.92295696117E+01  0.72803546143E+02 -0.13430145435E+02  0.74722034853E+02  0.41800000000E+01 0. -1.
        -11    1    4    4    0    0  0.19077287036E+02 -0.75521119803E+01 -0.40763630532E+02  0.45636069618E+02  0.00000000000E+00 0.  1.
         11    1    4    4    0    0 -0.23711447957E+02 -0.24132377807E+02  0.36536426471E+02  0.49794727453E+02  0.00000000000E+00 0. -1.
</event>
<event>
 8    1  0.7048627E-009  0.1431757E+03  0.7561462E-02  0.1209119E+00
         -4   -1    0    0    0  501 -0.00000000000E+00  0.00000000000E+00  0.42024343250E+03  0.42024343250E+03  0.00000000000E+00 0. -1.
          4   -1    0    0  501    0  0.00000000000E+00 -0.00000000000E+00 -0.67994097324E+02  0.67994097324E+02  0.00000000000E+00 0.  1.
         25    2    1    2    0    0 -0.11940248626E+03 -0.19402982465E+02  0.22684894287E+03  0.28590474841E+03  0.12509057850E+03 0.  0.
         23    2    1    2    0    0  0.11940248626E+03  0.19402982465E+02  0.12540039231E+03  0.20233278141E+03  0.10285847845E+03 0.  0.
          5    1    3    3  502    0 -0.33165295572E+02 -0.56417139957E+02  0.40113870789E+02  0.76872788039E+02  0.41800000000E+01 0. -1.
         -5    1    3    3    0  502 -0.86237190686E+02  0.37014157492E+02  0.18673507208E+03  0.20903196037E+03  0.41800000000E+01 0. -1.
        -11    1    4    4    0    0  0.34347418002E+02  0.23606925024E+02 -0.95514936315E+01  0.42758192936E+02  0.00000000000E+00 0.  1.
         11    1    4    4    0    0  0.85055068256E+02 -0.42039425598E+01  0.13495188594E+03  0.15957458848E+03  0.00000000000E+00 0. -1.
</event>
<event>
 8    1  0.7048627E-009  0.1031173E+03  0.7561462E-02  0.1273874E+00
          1   -1    0    0  501    0  0.00000000000E+00  0.00000000000E+00  0.18650965877E+03  0.18650965877E+03  0.00000000000E+00 0. -1.
         -1   -1    0    0    0  501 -0.00000000000E+00 -0.00000000000E+00 -0.88633872061E+02  0.88633872061E+02  0.00000000000E+00 0.  1.
         25    2    1    2    0    0 -0.28450786310E+02  0.65028640635E+02  0.50141200593E+02  0.15231586677E+03  0.12509121444E+03 0.  0.
         23    2    1    2    0    0  0.28450786310E+02 -0.65028640635E+02  0.47734586119E+02  0.12282766406E+03  0.88146883109E+02 0.  0.
          5    1    3    3  502    0 -0.55940538023E+02  0.84408375922E+02  0.59016995307E+02  0.11727998915E+03  0.41800000000E+01 0. -1.
         -5    1    3    3    0  502  0.27489751713E+02 -0.19379735287E+02 -0.88757947138E+01  0.35035877624E+02  0.41800000000E+01 0. -1.
        -11    1    4    4    0    0  0.18719490537E+02 -0.44348177493E+02  0.73831124363E+02  0.88137478393E+02  0.00000000000E+00 0. -1.
         11    1    4    4    0    0  0.97312957723E+01 -0.20680463142E+02 -0.26096538244E+02  0.34690185665E+02  0.00000000000E+00 0.  1.
</event>
<event>
 8    1  0.7048627E-009  0.7876507E+02  0.7561462E-02  0.1332593E+00
          1   -1    0    0  501    0  0.00000000000E+00  0.00000000000E+00  0.27008181128E+03  0.27008181128E+03  0.00000000000E+00 0. -1.
         -1   -1    0    0    0  501 -0.00000000000E+00 -0.00000000000E+00 -0.45981167201E+02  0.45981167201E+02  0.00000000000E+00 0.  1.
         25    2    1    2    0    0  0.43687906150E+01 -0.26900283087E+02  0.13225978957E+03  0.18406176855E+03  0.12507346299E+03 0.  0.
         23    2    1    2    0    0 -0.43687906150E+01  0.26900283087E+02  0.91840854515E+02  0.13200120993E+03  0.90812253049E+02 0.  0.
          5    1    3    3  502    0 -0.16701010747E+01  0.32512160026E+02  0.11805788237E+03  0.12253556944E+03  0.41800000000E+01 0. -1.
         -5    1    3    3    0  502  0.60388916896E+01 -0.59412443113E+02  0.14201907195E+02  0.61526199115E+02  0.41800000000E+01 0. -1.
        -11    1    4    4    0    0  0.26557150911E+02  0.19764584681E+02 -0.17742748793E+01  0.33152211441E+02  0.00000000000E+00 0.  1.
         11    1    4    4    0    0 -0.30925941526E+02  0.71356984066E+01  0.93615129395E+02  0.98848998491E+02  0.00000000000E+00 0. -1.
</event>
<event>
 8    1  0.7048627E-009  0.1097420E+03  0.7561462E-02  0.1261048E+00
         -1   -1    0    0    0  501 -0.00000000000E+00  0.00000000000E+00  0.48193969644E+02  0.48193969644E+02  0.00000000000E+00 0. -1.
          1   -1    0    0  501    0  0.00000000000E+00 -0.00000000000E+00 -0.34198694798E+03  0.34198694798E+03  0.00000000000E+00 0.  1.
         25    2    1    2    0    0  0.65982206147E+02  0.15939895829E+02 -0.18106604626E+03  0.23030466146E+03  0.12509033605E+03 0.  0.
         23    2    1    2    0    0 -0.65982206147E+02 -0.15939895829E+02 -0.11272693208E+03  0.15987625617E+03  0.90803767896E+02 0.  0.
          5    1    3    3  502    0  0.94073242574E+02  0.29968691928E+02 -0.89175393932E+02  0.13310755331E+03  0.41800000000E+01 0.  1.
         -5    1    3    3    0  502 -0.28091036426E+02 -0.14028796099E+02 -0.91890652327E+02  0.97197108150E+02  0.41800000000E+01 0.  1.
        -11    1    4    4    0    0 -0.75249276139E+02 -0.21398438328E+02 -0.12249608373E+03  0.14534661073E+03  0.00000000000E+00 0.  1.
         11    1    4    4    0    0  0.92670699919E+01  0.54585424992E+01  0.97691516537E+01  0.14529645435E+02  0.00000000000E+00 0. -1.
</event>
<event>
 8    1  0.7048627E-009  0.1166432E+03  0.7561462E-02  0.1248740E+00
         -2   -1    0    0    0  501 -0.00000000000E+00  0.00000000000E+00  0.52427614572E+02  0.52427614572E+02  0.00000000000E+00 0.  1.
          2   -1    0    0  501    0  0.00000000000E+00 -0.00000000000E+00 -0.29850679102E+03  0.29850679102E+03  0.00000000000E+00 0. -1.
         25    2    1    2    0    0 -0.45830685640E+02 -0.32940735480E+02 -0.11921494926E+03  0.18178127573E+03  0.12508670704E+03 0.  0.
         23    2    1    2    0    0  0.45830685640E+02  0.32940735480E+02 -0.12686422719E+03  0.16915312986E+03  0.96605928398E+02 0.  0.
          5    1    3    3  502    0  0.15071564978E+02 -0.63446133632E+02 -0.37586624154E+02  0.75384286553E+02  0.41800000000E+01 0. -1.
         -5    1    3    3    0  502 -0.60902250618E+02  0.30505398152E+02 -0.81628325104E+02  0.10639698918E+03  0.41800000000E+01 0. -1.
        -11    1    4    4    0    0  0.50744859567E+02  0.56319217791E+02 -0.12366363646E+03  0.14505030178E+03  0.00000000000E+00 0. -1.
         11    1    4    4    0    0 -0.49141739273E+01 -0.23378482311E+02 -0.32005907351E+01  0.24102828083E+02  0.00000000000E+00 0.  1.
</event>
<event>
 8    1  0.7048627E-009  0.1288755E+03  0.7561462E-02  0.1229134E+00
          2   -1    0    0  501    0  0.00000000000E+00  0.00000000000E+00  0.21224410823E+04  0.21224410823E+04  0.00000000000E+00 0. -1.
         -2   -1    0    0    0  501 -0.00000000000E+00 -0.00000000000E+00 -0.91860733263E+01  0.91860733263E+01  0.00000000000E+00 0.  1.
         25    2    1    2    0    0  0.62666967112E+02  0.31419055299E+02  0.15558599441E+04  0.15624527816E+04  0.12507686938E+03 0.  0.
         23    2    1    2    0    0 -0.62666967112E+02 -0.31419055299E+02  0.55739506483E+03  0.56917437398E+03  0.91410633436E+02 0.  0.
          5    1    3    3  502    0  0.50023760481E+02  0.79206330681E+02  0.10201952183E+04  0.10244958640E+04  0.41800000000E+01 0.  1.
         -5    1    3    3    0  502  0.12643206631E+02 -0.47787275381E+02  0.53566472580E+03  0.53795691764E+03  0.41800000000E+01 0.  1.
        -11    1    4    4    0    0 -0.49088235021E+01  0.29801542726E+02  0.11900699553E+03  0.12277985780E+03  0.00000000000E+00 0.  1.
         11    1    4    4    0    0 -0.57758143610E+02 -0.61220598025E+02  0.43838806929E+03  0.44639451618E+03  0.00000000000E+00 0. -1.
</event>
<event>
 8    1  0.7048627E-009  0.6046487E+02  0.7561462E-02  0.1395891E+00
         -2   -1    0    0    0  501 -0.00000000000E+00  0.00000000000E+00  0.32259575937E+02  0.32259575937E+02  0.00000000000E+00 0.  1.
          2   -1    0    0  501    0  0.00000000000E+00 -0.00000000000E+00 -0.42713193203E+03  0.42713193203E+03  0.00000000000E+00 0. -1.
         25    2    1    2    0    0  0.13853147072E+02  0.32676150367E+02 -0.28316219287E+03  0.31158827375E+03  0.12508710716E+03 0.  0.
         23    2    1    2    0    0 -0.13853147072E+02 -0.32676150367E+02 -0.11171016323E+03  0.14780323422E+03  0.90038852683E+02 0.  0.
          5    1    3    3  502    0  0.27114833442E+02  0.33005634203E+02 -0.29198153590E+03  0.29511908747E+03  0.41800000000E+01 0.  1.
         -5    1    3    3    0  502 -0.13261686369E+02 -0.32948383586E+00  0.88193430343E+01  0.16469186274E+02  0.41800000000E+01 0.  1.
        -11    1    4    4    0    0  0.18584411815E+02 -0.24315100949E+02  0.59392683831E+00  0.30609757361E+02  0.00000000000E+00 0.  1.
         11    1    4    4    0    0 -0.32437558887E+02 -0.83610494187E+01 -0.11230409006E+03  0.11719347686E+03  0.00000000000E+00 0. -1.
</event>
<event>
 8    1  0.7048627E-009  0.1427851E+03  0.7561462E-02  0.1209630E+00
          2   -1    0    0  501    0  0.00000000000E+00  0.00000000000E+00  0.27454682722E+03  0.27454682722E+03  0.00000000000E+00 0. -1.
         -2   -1    0    0    0  501 -0.00000000000E+00 -0.00000000000E+00 -0.10735691238E+03  0.10735691238E+03  0.00000000000E+00 0.  1.
         25    2    1    2    0    0 -0.31994360737E+02  0.11924487886E+03  0.29005311057E+02  0.17813382479E+03  0.12508945285E+03 0.  0.
         23    2    1    2    0    0  0.31994360737E+02 -0.11924487886E+03  0.13818460379E+03  0.20376991481E+03  0.84759738112E+02 0.  0.
          5    1    3    3  502    0 -0.13730551972E+02  0.11852941402E+03 -0.24110957706E+02  0.12180542159E+03  0.41800000000E+01 0.  1.
         -5    1    3    3    0  502 -0.18263808765E+02  0.71546483356E+00  0.53116268763E+02  0.56328403207E+02  0.41800000000E+01 0.  1.
        -11    1    4    4    0    0  0.80183758851E+01  0.11766091067E+02  0.25949527496E+02  0.29599209923E+02  0.00000000000E+00 0. -1.
         11    1    4    4    0    0  0.23975984852E+02 -0.13101096992E+03  0.11223507629E+03  0.17417070488E+03  0.00000000000E+00 0.  1.
</event>
<event>
 8    1  0.7048627E-009  0.7755708E+02  0.7561462E-02  0.1336131E+00
          2   -1    0    0  501    0  0.00000000000E+00  0.00000000000E+00  0.23841446617E+03  0.23841446617E+03  0.00000000000E+00 0. -1.
         -2   -1    0    0    0  501 -0.00000000000E+00 -0.00000000000E+00 -0.86092260345E+02  0.86092260345E+02  0.00000000000E+00 0.  1.
         25    2    1    2    0    0  0.32677052535E+02  0.95613848893E+01  0.18005445528E+03  0.22187276676E+03  0.12509479574E+03 0.  0.
         23    2    1    2    0    0 -0.32677052535E+02 -0.95613848893E+01 -0.27732249450E+02  0.10263395976E+03  0.92765522654E+02 0.  0.
          5    1    3    3  502    0  0.43795093979E+01 -0.25896514107E+02  0.17387612413E+03  0.17589823332E+03  0.41800000000E+01 0. -1.
         -5    1    3    3    0  502  0.28297543137E+02  0.35457898996E+02  0.61783311540E+01  0.45974533436E+02  0.41800000000E+01 0. -1.
        -11    1    4    4    0    0 -0.55729634900E+02 -0.17765754350E+02 -0.44048800216E+02  0.73223705412E+02  0.00000000000E+00 0.  1.
         11    1    4    4    0    0  0.23052582366E+02  0.82043694602E+01  0.16316550766E+02  0.29410254349E+02  0.00000000000E+00 0. -1.
</event>
<event>
 8    1  0.7048627E-009  0.1045607E+03  0.7561462E-02  0.1270988E+00
         -2   -1    0    0    0  501 -0.00000000000E+00  0.00000000000E+00  0.32059269981E+02  0.32059269981E+02  0.00000000000E+00 0. -1.
          2   -1    0    0  501    0  0.00000000000E+00 -0.00000000000E+00 -0.45877751900E+03  0.45877751900E+03  0.00000000000E+00 0.  1.
         25    2    1    2    0    0  0.52690853680E+02 -0.95021686332E+01 -0.25100984138E+03  0.28551785979E+03  0.12509152858E+03 0.  0.
         23    2    1    2    0    0 -0.52690853680E+02  0.95021686332E+01 -0.17570840764E+03  0.20531892918E+03  0.91737674359E+02 0.  0.
          5    1    3    3  502    0  0.75676809980E+02 -0.32051206530E+02 -0.23563714763E+03  0.24959286278E+03  0.41800000000E+01 0. -1.
         -5    1    3    3    0  502 -0.22985956300E+02  0.22549037897E+02 -0.15372693750E+02  0.35924997011E+02  0.41800000000E+01 0. -1.
        -11    1    4    4    0    0 -0.12168844562E+02  0.41171182227E+02 -0.12859430673E+03  0.13557154106E+03  0.00000000000E+00 0.  1.
         11    1    4    4    0    0 -0.40522009118E+02 -0.31669013594E+02 -0.47114100908E+02  0.69747388119E+02  0.00000000000E+00 0. -1.
</event>
<event>
 8    1  0.7048627E-009  0.1274858E+03  0.7561462E-02  0.1231235E+00
         -1   -1    0    0    0  501 -0.00000000000E+00  0.00000000000E+00  0.43195112162E+02  0.43195112162E+02  0.00000000000E+00 0.  1.
          1   -1    0    0  501    0  0.00000000000E+00 -0.00000000000E+00 -0.50408628048E+03  0.50408628048E+03  0.00000000000E+00 0. -1.
         25    2    1    2    0    0 -0.17637807036E+02 -0.75248126196E+02 -0.13291597534E+03  0.19821268864E+03  0.12509292828E+03 0.  0.
         23    2    1    2    0    0  0.17637807036E+02  0.75248126196E+02 -0.32797519298E+03  0.34906870400E+03  0.91147463874E+02 0.  0.
          5    1    3    3  502    0  0.21330027976E+02 -0.92313499039E+02 -0.55782897085E+02  0.11002707033E+03  0.41800000000E+01 0. -1.
         -5    1    3    3    0  502 -0.38967835012E+02  0.17065372843E+02 -0.77133078252E+02  0.88185618308E+02  0.41800000000E+01 0. -1.
        -11    1    4    4    0    0  0.16075904539E+02 -0.17996125765E+02 -0.97482395908E+02  0.10042466212E+03  0.00000000000E+00 0. -1.
         11    1    4    4    0    0  0.15619024973E+01  0.93244251961E+02 -0.23049279707E+03  0.24864404188E+03  0.00000000000E+00 0.  1.
</event>
<event>
 8    1  0.7048627E-009  0.1508154E+03  0.7561462E-02  0.1199475E+00
          2   -1    0    0  501    0  0.00000000000E+00  0.00000000000E+00  0.12670220951E+04  0.12670220951E+04  0.00000000000E+00 0. -1.
         -2   -1    0    0    0  501 -0.00000000000E+00 -0.00000000000E+00 -0.25664886407E+02  0.25664886407E+02  0.00000000000E+00 0.  1.
         25    2    1    2    0    0  0.26226027793E+02  0.13210992580E+03  0.84213129023E+03  0.86195936468E+03  0.12509196357E+03 0.  0.
         23    2    1    2    0    0 -0.26226027793E+02 -0.13210992580E+03  0.39922591850E+03  0.43072761686E+03  0.89465685583E+02 0.  0.
          5    1    3    3  502    0  0.12500057974E+02  0.14455669145E+03  0.82020146420E+03  0.83294705880E+03  0.41800000000E+01 0.  1.
         -5    1    3    3    0  502  0.13725969818E+02 -0.12446765654E+02  0.21929826030E+02  0.29012305878E+02  0.41800000000E+01 0.  1.
        -11    1    4    4    0    0 -0.38665135760E+01 -0.87449248266E+02  0.12881029663E+03  0.15573828517E+03  0.00000000000E+00 0. -1.
         11    1    4    4    0    0 -0.22359514217E+02 -0.44660677531E+02  0.27041562186E+03  0.27498933169E+03  0.00000000000E+00 0.  1.
</event>
<event>
 8    1  0.7048627E-009  0.1066537E+03  0.7561462E-02  0.1266895E+00
          2   -1    0    0  501    0  0.00000000000E+00  0.00000000000E+00  0.68091348964E+02  0.68091348964E+02  0.00000000000E+00 0. -1.
         -2   -1    0    0    0  501 -0.00000000000E+00 -0.00000000000E+00 -0.19046590587E+03  0.19046590587E+03  0.00000000000E+00 0.  1.
         25    2    1    2    0    0 -0.11880717077E+02  0.40983336638E+01 -0.30919836969E+02  0.12946102697E+03  0.12508466497E+03 0.  0.
         23    2    1    2    0    0  0.11880717077E+02 -0.40983336638E+01 -0.91454719940E+02  0.12909622786E+03  0.90243683833E+02 0.  0.
          5    1    3    3  502    0  0.54904659498E+02 -0.29643559853E+01 -0.28634088622E+02  0.62134470885E+02  0.41800000000E+01 0.  1.
         -5    1    3    3    0  502 -0.66785376575E+02  0.70626896491E+01 -0.22857483469E+01  0.67326556089E+02  0.41800000000E+01 0.  1.
        -11    1    4    4    0    0  0.24099872815E+02  0.39129037580E+02 -0.50908566043E+02  0.68582560088E+02  0.00000000000E+00 0.  1.
         11    1    4    4    0    0 -0.12219155738E+02 -0.43227371244E+02 -0.40546153896E+02  0.60513667774E+02  0.00000000000E+00 0. -1.
</event>
<event>
 8    1  0.7048627E-009  0.7148663E+02  0.7561462E-02  0.1355109E+00
          2   -1    0    0  501    0  0.00000000000E+00  0.00000000000E+00  0.66841260111E+03  0.66841260111E+03  0.00000000000E+00 0. -1.
         -2   -1    0    0    0  501 -0.00000000000E+00 -0.00000000000E+00 -0.42241280678E+02  0.42241280678E+02  0.00000000000E+00 0.  1.
         25    2    1    2    0    0  0.15160202930E+02 -0.44751707925E+02  0.58616302612E+03  0.60122231500E+03  0.12509449126E+03 0.  0.
         23    2    1    2    0    0 -0.15160202930E+02  0.44751707925E+02  0.40008294313E+02  0.10943156679E+03  0.90233347947E+02 0.  0.
          5    1    3    3  502    0  0.32810330694E+02  0.12436172465E+02  0.46173833681E+03  0.46308847995E+03  0.41800000000E+01 0. -1.
         -5    1    3    3    0  502 -0.17650127764E+02 -0.57187880390E+02  0.12442468931E+03  0.13813383504E+03  0.41800000000E+01 0. -1.
        -11    1    4    4    0    0 -0.73545364252E+01  0.30687658004E+02  0.69225774343E+02  0.76079099582E+02  0.00000000000E+00 0. -1.
         11    1    4    4    0    0 -0.78056665046E+01  0.14064049921E+02 -0.29217480030E+02  0.33352467211E+02  0.00000000000E+00 0.  1.
</event>
<event>
 8    1  0.7048627E-009  0.2536570E+03  0.7561462E-02  0.1111015E+00
         -1   -1    0    0    0  501 -0.00000000000E+00  0.00000000000E+00  0.83326056255E+03  0.83326056255E+03  0.00000000000E+00 0.  1.
          1   -1    0    0  501    0  0.00000000000E+00 -0.00000000000E+00 -0.84423785329E+02  0.84423785329E+02  0.00000000000E+00 0. -1.
         25    2    1    2    0    0  0.20461478244E+03 -0.12912994084E+03  0.37828619043E+03  0.46614495433E+03  0.12509566643E+03 0.  0.
         23    2    1    2    0    0 -0.20461478244E+03  0.12912994084E+03  0.37055058679E+03  0.45153939355E+03  0.89656766304E+02 0.  0.
          5    1    3    3  502    0  0.89697603346E+02 -0.40389998972E+00  0.19328150184E+03  0.21312211180E+03  0.41800000000E+01 0. -1.
         -5    1    3    3    0  502  0.11491717909E+03 -0.12872604085E+03  0.18500468859E+03  0.25302284253E+03  0.41800000000E+01 0. -1.
        -11    1    4    4    0    0 -0.86715479633E+02  0.77120045493E+02  0.10554951967E+03  0.15686866140E+03  0.00000000000E+00 0.  1.
         11    1    4    4    0    0 -0.11789930281E+03  0.52009895344E+02  0.26500106711E+03  0.29467073215E+03  0.00000000000E+00 0. -1.
</event>
<event>
 8    1  0.7048627E-009  0.1016299E+03  0.7561462E-02  0.1276905E+00
         -1   -1    0    0    0  501 -0.00000000000E+00  0.00000000000E+00  0.59755566506E+03  0.59755566506E+03  0.00000000000E+00 0. -1.
          1   -1    0    0  501    0  0.00000000000E+00 -0.00000000000E+00 -0.31812157553E+02  0.31812157553E+02  0.00000000000E+00 0.  1.
         25    2    1    2    0    0  0.16827574442E+02 -0.81904121684E+02  0.27555043441E+03  0.31395267521E+03  0.12508712146E+03 0.  0.
         23    2    1    2    0    0 -0.16827574442E+02  0.81904121684E+02  0.29019307310E+03  0.31541514741E+03  0.91012324055E+02 0.  0.
          5    1    3    3  502    0  0.12037769725E+02 -0.55289910361E+02  0.25153194433E+02  0.62064786134E+02  0.41800000000E+01 0.  1.
         -5    1    3    3    0  502  0.47898047169E+01 -0.26614211323E+02  0.25039723998E+03  0.25188788907E+03  0.41800000000E+01 0.  1.
        -11    1    4    4    0    0  0.19211871711E+02  0.80851365063E+02  0.23705929815E+03  0.25120340381E+03  0.00000000000E+00 0.  1.
         11    1    4    4    0    0 -0.36039446152E+02  0.10527566204E+01  0.53133774950E+02  0.64211743598E+02  0.00000000000E+00 0. -1.
</event>
<event>
 8    1  0.7048627E-009  0.7649075E+02  0.7561462E-02  0.1339316E+00
         -1   -1    0    0    0  501 -0.00000000000E+00  0.00000000000E+00  0.11763546378E+03  0.11763546378E+03  0.00000000000E+00 0. -1.
          1   -1    0    0  501    0  0.00000000000E+00 -0.00000000000E+00 -0.12976682295E+03  0.12976682295E+03  0.00000000000E+00 0.  1.
         25    2    1    2    0    0 -0.24033310253E+01  0.43081585157E+02  0.30176452422E+02  0.13571512284E+03  0.12508468054E+03 0.  0.
         23    2    1    2    0    0  0.24033310253E+01 -0.43081585157E+02 -0.42307811599E+02  0.11168716389E+03  0.93926953941E+02 0.  0.
          5    1    3    3  502    0  0.99118427059E+01  0.73632353960E+02 -0.18606056312E+02  0.76704797157E+02  0.41800000000E+01 0.  1.
         -5    1    3    3    0  502 -0.12315173731E+02 -0.30550768803E+02  0.48782508734E+02  0.59010325680E+02  0.41800000000E+01 0.  1.
        -11    1    4    4    0    0  0.82874937213E+01 -0.26762811870E+02  0.27797890066E+02  0.39467117243E+02  0.00000000000E+00 0. -1.
         11    1    4    4    0    0 -0.58841626960E+01 -0.16318773287E+02 -0.70105701665E+02  0.72220046651E+02  0.00000000000E+00 0.  1.
</event>
<event>
 8    1  0.7048627E-009  0.1074331E+03  0.7561462E-02  0.1265399E+00
          1   -1    0    0  501    0  0.00000000000E+00  0.00000000000E+00  0.12490449793E+04  0.12490449793E+04  0.00000000000E+00 0. -1.
         -1   -1    0    0    0  501 -0.00000000000E+00 -0.00000000000E+00 -0.10217868275E+02  0.10217868275E+02  0.00000000000E+00 0.  1.
         25    2    1    2    0    0  0.86852432386E+01 -0.53822088551E+01  0.89383317314E+03  0.90260129150E+03  0.12508776280E+03 0.  0.
         23    2    1    2    0    0 -0.86852432386E+01  0.53822088551E+01  0.34499393792E+03  0.35666155610E+03  0.89901316885E+02 0.  0.
          5    1    3    3  502    0 -0.47335752760E+02  0.32124788011E+02  0.36697126225E+03  0.37142705235E+03  0.41800000000E+01 0.  1.
         -5    1    3    3    0  502  0.56020995998E+02 -0.37506996866E+02  0.52686191088E+03  0.53117423916E+03  0.41800000000E+01 0.  1.
        -11    1    4    4    0    0  0.32189748682E+02  0.28505634637E+02  0.18406684204E+03  0.18902209782E+03  0.00000000000E+00 0.  1.
         11    1    4    4    0    0 -0.40874991920E+02 -0.23123425782E+02  0.16092709588E+03  0.16763945828E+03  0.00000000000E+00 0. -1.
</event>
<event>
 8    1  0.7048627E-009  0.8117626E+02  0.7561462E-02  0.1325746E+00
          3   -1    0    0  501    0  0.00000000000E+00  0.00000000000E+00  0.29496441163E+02  0.29496441163E+02  0.00000000000E+00 0. -1.
         -3   -1    0    0    0  501 -0.00000000000E+00 -0.00000000000E+00 -0.47814287613E+03  0.47814287613E+03  0.00000000000E+00 0.  1.
         25    2    1    2    0    0  0.35930496198E+02 -0.25216366339E+02 -0.23760722836E+03  0.27208762308E+03  0.12509042320E+03 0.  0.
         23    2    1    2    0    0 -0.35930496198E+02  0.25216366339E+02 -0.21103920661E+03  0.23555169422E+03  0.94974671530E+02 0.  0.
          5    1    3    3  502    0  0.47357435332E+02 -0.97314391626E+01 -0.18245978843E+02  0.51844148496E+02  0.41800000000E+01 0.  1.
         -5    1    3    3    0  502 -0.11426939134E+02 -0.15484927176E+02 -0.21936124951E+03  0.22024347458E+03  0.41800000000E+01 0.  1.
        -11    1    4    4    0    0 -0.12622128088E+02  0.54933098477E+02 -0.17299028150E+03  0.18194120182E+03  0.00000000000E+00 0.  1.
         11    1    4    4    0    0 -0.23308368110E+02 -0.29716732138E+02 -0.38048925112E+02  0.53610492397E+02  0.00000000000E+00 0. -1.
</event>
<event>
 8    1  0.7048627E-009  0.1071460E+03  0.7561462E-02  0.1265948E+00
         -1   -1    0    0    0  501 -0.00000000000E+00  0.00000000000E+00  0.62194288191E+02  0.62194288191E+02  0.00000000000E+00 0.  1.
          1   -1    0    0  501    0  0.00000000000E+00 -0.00000000000E+00 -0.32396389717E+03  0.32396389717E+03  0.00000000000E+00 0. -1.
         25    2    1    2    0    0  0.11279349952E+02 -0.82707574065E+02 -0.19603213394E+03  0.24706886877E+03  0.12508661732E+03 0.  0.
         23    2    1    2    0    0 -0.11279349952E+02  0.82707574065E+02 -0.65737475039E+02  0.13908931659E+03  0.89758876011E+02 0.  0.
          5    1    3    3  502    0 -0.11789724139E+02 -0.12013480127E+02 -0.16577101801E+03  0.16667580542E+03  0.41800000000E+01 0. -1.
         -5    1    3    3    0  502  0.23069074091E+02 -0.70694093938E+02 -0.30261115930E+02  0.80393063348E+02  0.41800000000E+01 0. -1.
        -11    1    4    4    0    0  0.39486407167E+02  0.33816739523E+02 -0.25057522748E+02  0.57711590424E+02  0.00000000000E+00 0.  1.
         11    1    4    4    0    0 -0.50765757120E+02  0.48890834542E+02 -0.40679952291E+02  0.81377726169E+02  0.00000000000E+00 0. -1.
</event>
<event>
 8    1  0.7048627E-009  0.1126526E+03  0.7561462E-02  0.1255735E+00
         -2   -1    0    0    0  501 -0.00000000000E+00  0.00000000000E+00  0.71406996715E+02  0.71406996715E+02  0.00000000000E+00 0.  1.
          2   -1    0    0  501    0  0.00000000000E+00 -0.00000000000E+00 -0.23596528804E+03  0.23596528804E+03  0.00000000000E+00 0. -1.
         25    2    1    2    0    0 -0.48410611307E+02  0.41214150983E+02 -0.12966538769E+03  0.19105364587E+03  0.12508472851E+03 0.  0.
         23    2    1    2    0    0  0.48410611307E+02 -0.41214150983E+02 -0.34892903641E+02  0.11631863889E+03  0.90941286004E+02 0.  0.
          5    1    3    3  502    0 -0.71363030628E+02  0.53529791894E+02 -0.13712114913E+03  0.16363924560E+03  0.41800000000E+01 0. -1.
         -5    1    3    3    0  502  0.22952419321E+02 -0.12315640911E+02  0.74557614400E+01  0.27414400274E+02  0.41800000000E+01 0. -1.
        -11    1    4    4    0    0 -0.11516259011E+02 -0.47950100798E+02 -0.24719063188E+02  0.55162201488E+02  0.00000000000E+00 0. -1.
         11    1    4    4    0    0  0.59926870318E+02  0.67359498141E+01 -0.10173840453E+02  0.61156437401E+02  0.00000000000E+00 0.  1.
</event>
<event>
 8    1  0.7048627E-009  0.1657617E+03  0.7561462E-02  0.1182341E+00
         -2   -1    0    0    0  501 -0.00000000000E+00  0.00000000000E+00  0.44210807061E+02  0.44210807061E+02  0.00000000000E+00 0.  1.
          2   -1    0    0  501    0  0.00000000000E+00 -0.00000000000E+00 -0.67607151768E+03  0.67607151768E+03  0.00000000000E+00 0. -1.
         25    2    1    2    0    0 -0.13129132761E+03 -0.16865553653E+02 -0.28957656972E+03  0.34208854579E+03  0.12509246111E+03 0.  0.
         23    2    1    2    0    0  0.13129132761E+03  0.16865553653E+02 -0.34228414090E+03  0.37819377895E+03  0.91379657028E+02 0.  0.
          5    1    3    3  502    0 -0.77772453195E+02  0.46424425440E+02 -0.99116552967E+02  0.13433296403E+03  0.41800000000E+01 0.  1.
         -5    1    3    3    0  502 -0.53518874414E+02 -0.63289979093E+02 -0.19046001675E+03  0.20775558176E+03  0.41800000000E+01 0.  1.
        -11    1    4    4    0    0  0.59038969456E+02 -0.35262513136E+02 -0.11394036227E+03  0.13308437512E+03  0.00000000000E+00 0. -1.
         11    1    4    4    0    0  0.72252358153E+02  0.52128066789E+02 -0.22834377864E+03  0.24510940383E+03  0.00000000000E+00 0.  1.
</event>
<event>
 8    1  0.7048627E-009  0.1210911E+03  0.7561462E-02  0.1241308E+00
          2   -1    0    0  501    0  0.00000000000E+00  0.00000000000E+00  0.14567440863E+03  0.14567440863E+03  0.00000000000E+00 0. -1.
         -2   -1    0    0    0  501 -0.00000000000E+00 -0.00000000000E+00 -0.18354871397E+03  0.18354871397E+03  0.00000000000E+00 0.  1.
         25    2    1    2    0    0 -0.54212131271E+02  0.28160852575E+02  0.86341124117E+02  0.16381360248E+03  0.12509243722E+03 0.  0.
         23    2    1    2    0    0  0.54212131271E+02 -0.28160852575E+02 -0.12421542946E+03  0.16540952011E+03  0.90547488275E+02 0.  0.
          5    1    3    3  502    0 -0.75794802840E+02 -0.21615152613E+02  0.27284680651E+02  0.83510437421E+02  0.41800000000E+01 0. -1.
         -5    1    3    3    0  502  0.21582671569E+02  0.49776005188E+02  0.59056443465E+02  0.80303165064E+02  0.41800000000E+01 0. -1.
        -11    1    4    4    0    0 -0.20518944347E+02  0.12235090410E+02 -0.33287851726E+02  0.40973230127E+02  0.00000000000E+00 0.  1.
         11    1    4    4    0    0  0.74731075618E+02 -0.40395942986E+02 -0.90927577736E+02  0.12443628999E+03  0.00000000000E+00 0. -1.
</event>
<event>
 8    1  0.7048627E-009  0.5126813E+02  0.7561462E-02  0.1438619E+00
         -2   -1    0    0    0  501 -0.00000000000E+00  0.00000000000E+00  0.10309120962E+03  0.10309120962E+03  0.00000000000E+00 0.  1.
          2   -1    0    0  501    0  0.00000000000E+00 -0.00000000000E+00 -0.13337539297E+03  0.13337539297E+03  0.00000000000E+00 0. -1.
         25    2    1    2    0    0 -0.13338141066E+02 -0.36516706733E+02 -0.34851482222E+02  0.13554115831E+03  0.12508158899E+03 0.  0.
         23    2    1    2    0    0  0.13338141066E+02  0.36516706733E+02  0.45672988781E+01  0.10092544428E+03  0.93025314866E+02 0.  0.
          5    1    3    3  502    0 -0.28638734986E+02 -0.35039803339E+02 -0.77595648565E+02  0.89925091248E+02  0.41800000000E+01 0. -1.
         -5    1    3    3    0  502  0.15300593920E+02 -0.14769033941E+01  0.42744166343E+02  0.45616067063E+02  0.41800000000E+01 0. -1.
        -11    1    4    4    0    0 -0.21867181241E+01  0.11580963467E+02 -0.43238841868E+02  0.44816268219E+02  0.00000000000E+00 0. -1.
         11    1    4    4    0    0  0.15524859191E+02  0.24935743266E+02  0.47806140746E+02  0.56109176060E+02  0.00000000000E+00 0.  1.
</event>
<event>
 8    1  0.7048627E-009  0.2937856E+03  0.7561462E-02  0.1088389E+00
         -1   -1    0    0    0  501 -0.00000000000E+00  0.00000000000E+00  0.28343164846E+03  0.28343164846E+03  0.00000000000E+00 0.  1.
          1   -1    0    0  501    0  0.00000000000E+00 -0.00000000000E+00 -0.34235099709E+03  0.34235099709E+03  0.00000000000E+00 0. -1.
         25    2    1    2    0    0 -0.18657066814E+03 -0.21557752705E+03  0.29230857568E+02  0.31270403894E+03  0.12508832302E+03 0.  0.
         23    2    1    2    0    0  0.18657066814E+03  0.21557752705E+03 -0.88150206194E+02  0.31307860661E+03  0.94686169445E+02 0.  0.
          5    1    3    3  502    0 -0.76327540323E+02 -0.12060484179E+03 -0.44450382499E+02  0.14954842085E+03  0.41800000000E+01 0.  1.
         -5    1    3    3    0  502 -0.11024312782E+03 -0.94972685265E+02  0.73681240068E+02  0.16315561809E+03  0.41800000000E+01 0.  1.
        -11    1    4    4    0    0  0.17665618561E+02  0.81966765356E+02 -0.37434459431E+02  0.91825723275E+02  0.00000000000E+00 0.  1.
         11    1    4    4    0    0  0.16890504958E+03  0.13361076170E+03 -0.50715746764E+02  0.22125288333E+03  0.00000000000E+00 0. -1.
</event>
<event>
 8    1  0.7048627E-009  0.9892141E+02  0.7561462E-02  0.1282581E+00
         -2   -1    0    0    0  501 -0.00000000000E+00  0.00000000000E+00  0.30115267338E+02  0.30115267338E+02  0.00000000000E+00 0.  1.
          2   -1    0    0  501    0  0.00000000000E+00 -0.00000000000E+00 -0.59851596614E+03  0.59851596614E+03  0.00000000000E+00 0. -1.
         25    2    1    2    0    0  0.74595097610E+02 -0.17830834001E+02 -0.36861516940E+03  0.39674712719E+03  0.12509505423E+03 0.  0.
         23    2    1    2    0    0 -0.74595097610E+02  0.17830834001E+02 -0.19978552940E+03  0.23188410628E+03  0.89295093716E+02 0.  0.
          5    1    3    3  502    0  0.70723494652E+02 -0.25229176377E+02 -0.37685977902E+03  0.38429037131E+03  0.41800000000E+01 0. -1.
         -5    1    3    3    0  502  0.38716029588E+01  0.73983423760E+01  0.82446096186E+01  0.12456755884E+02  0.41800000000E+01 0. -1.
        -11    1    4    4    0    0 -0.71011177424E+02 -0.21197353251E+02 -0.15844086421E+03  0.17491547260E+03  0.00000000000E+00 0. -1.
         11    1    4    4    0    0 -0.35839201869E+01  0.39028187252E+02 -0.41344665185E+02  0.56968633680E+02  0.00000000000E+00 0.  1.
</event>
<event>
 8    1  0.7048627E-009  0.1366159E+03  0.7561462E-02  0.1217956E+00
         -1   -1    0    0    0  501 -0.00000000000E+00  0.00000000000E+00  0.55535562788E+02  0.55535562788E+02  0.00000000000E+00 0.  1.
          1   -1    0    0  501    0  0.00000000000E+00 -0.00000000000E+00 -0.48149486537E+03  0.48149486537E+03  0.00000000000E+00 0. -1.
         25    2    1    2    0    0  0.55881629685E+02  0.70430130533E+02 -0.91054197939E+02  0.17895210856E+03  0.12509928207E+03 0.  0.
         23    2    1    2    0    0 -0.55881629685E+02 -0.70430130533E+02 -0.33490510465E+03  0.35807831960E+03  0.89305621463E+02 0.  0.
          5    1    3    3  502    0  0.74380882027E+01 -0.33207844154E+02 -0.42493582401E+02  0.54600943350E+02  0.41800000000E+01 0. -1.
         -5    1    3    3    0  502  0.48443541483E+02  0.10363797469E+03 -0.48560615538E+02  0.12435116521E+03  0.41800000000E+01 0. -1.
        -11    1    4    4    0    0 -0.22782217294E+02  0.18646781434E+02 -0.53557211168E+02  0.61115519721E+02  0.00000000000E+00 0.  1.
         11    1    4    4    0    0 -0.33099412391E+02 -0.89076911967E+02 -0.28134789348E+03  0.29696279988E+03  0.00000000000E+00 0. -1.
</event>
<event>
 8    1  0.7048627E-009  0.1127834E+03  0.7561462E-02  0.1255501E+00
         -1   -1    0    0    0  501 -0.00000000000E+00  0.00000000000E+00  0.58356418955E+02  0.58356418955E+02  0.00000000000E+00 0. -1.
          1   -1    0    0  501    0  0.00000000000E+00 -0.00000000000E+00 -0.35414398047E+03  0.35414398047E+03  0.00000000000E+00 0.  1.
         25    2    1    2    0    0 -0.15151646651E+02  0.69696425816E+01 -0.34140491689E+02  0.13073300126E+03  0.12508955244E+03 0.  0.
         23    2    1    2    0    0  0.15151646651E+02 -0.69696425816E+01 -0.26164706982E+03  0.28176739816E+03  0.10322562283E+03 0.  0.
          5    1    3    3  502    0 -0.60843044150E+02  0.32822529684E+02 -0.35959995394E+02  0.78037094673E+02  0.41800000000E+01 0. -1.
         -5    1    3    3    0  502  0.45691397499E+02 -0.25852887102E+02  0.18195037047E+01  0.52695906583E+02  0.41800000000E+01 0. -1.
        -11    1    4    4    0    0 -0.32044156553E+02 -0.36030755667E+02 -0.14048899680E+03  0.14853350310E+03  0.00000000000E+00 0.  1.
         11    1    4    4    0    0  0.47195803205E+02  0.29061113085E+02 -0.12115807302E+03  0.13323389506E+03  0.00000000000E+00 0. -1.
</event>
<event>
 8    1  0.7048627E-009  0.8839928E+02  0.7561462E-02  0.1306775E+00
          1   -1    0    0  501    0  0.00000000000E+00  0.00000000000E+00  0.40529155366E+03  0.40529155366E+03  0.00000000000E+00 0. -1.
         -1   -1    0    0    0  501 -0.00000000000E+00 -0.00000000000E+00 -0.35225931169E+02  0.35225931169E+02  0.00000000000E+00 0.  1.
         25    2    1    2    0    0  0.22910088865E+02 -0.24667065470E+02  0.13919819930E+03  0.19014336003E+03  0.12508006389E+03 0.  0.
         23    2    1    2    0    0 -0.22910088865E+02  0.24667065470E+02  0.23086742320E+03  0.25037412481E+03  0.90852072010E+02 0.  0.
          5    1    3    3  502    0  0.56100480219E+02  0.47821495601E+01  0.13383149105E+03  0.14525313501E+03  0.41800000000E+01 0.  1.
         -5    1    3    3    0  502 -0.33190391353E+02 -0.29449215030E+02  0.53667082488E+01  0.44890225011E+02  0.41800000000E+01 0.  1.
        -11    1    4    4    0    0 -0.21473686733E+02 -0.21027350993E+02  0.23847288676E+02  0.38366155514E+02  0.00000000000E+00 0.  1.
         11    1    4    4    0    0 -0.14364021321E+01  0.45694416463E+02  0.20702013452E+03  0.21200796929E+03  0.00000000000E+00 0. -1.
</event>
<event>
 8    1  0.7048627E-009  0.9309487E+02  0.7561462E-02  0.1295525E+00
          2   -1    0    0  501    0  0.00000000000E+00  0.00000000000E+00  0.13013023100E+03  0.13013023100E+03  0.00000000000E+00 0. -1.
         -2   -1    0    0    0  501 -0.00000000000E+00 -0.00000000000E+00 -0.15446432343E+03  0.15446432343E+03  0.00000000000E+00 0.  1.
         25    2    1    2    0    0 -0.42078490425E+02 -0.60349247278E+02  0.41196024085E+02  0.15085540076E+03  0.12509040145E+03 0.  0.
         23    2    1    2    0    0  0.42078490425E+02  0.60349247278E+02 -0.65530116511E+02  0.13373915368E+03  0.90439670789E+02 0.  0.
          5    1    3    3  502    0  0.17540760588E+02 -0.27886667287E+02  0.69625651341E+02  0.77139796597E+02  0.41800000000E+01 0. -1.
         -5    1    3    3    0  502 -0.59619251012E+02 -0.32462579990E+02 -0.28429627256E+02  0.73715604161E+02  0.41800000000E+01 0. -1.
        -11    1    4    4    0    0 -0.12936686087E+01  0.34403618818E+02 -0.74812003612E+02  0.82353618322E+02  0.00000000000E+00 0.  1.
         11    1    4    4    0    0  0.43372159033E+02  0.25945628460E+02  0.92818871008E+01  0.51385535353E+02  0.00000000000E+00 0. -1.
</event>
<event>
 8    1  0.7048627E-009  0.1154569E+03  0.7561462E-02  0.1250786E+00
          1   -1    0    0  501    0  0.00000000000E+00  0.00000000000E+00  0.61898991186E+03  0.61898991186E+03  0.00000000000E+00 0. -1.
         -1   -1    0    0    0  501 -0.00000000000E+00 -0.00000000000E+00 -0.34400048477E+02  0.34400048477E+02  0.00000000000E+00 0.  1.
         25    2    1    2    0    0  0.89301290205E+02 -0.27928428613E+02  0.36248305021E+03  0.39471011495E+03  0.12508955031E+03 0.  0.
         23    2    1    2    0    0 -0.89301290205E+02  0.27928428613E+02  0.22210681318E+03  0.25867984539E+03  0.93963335373E+02 0.  0.
          5    1    3    3  502    0 -0.12062502765E+02  0.19871256882E+02  0.17239856067E+03  0.17400892777E+03  0.41800000000E+01 0.  1.
         -5    1    3    3    0  502  0.10136379297E+03 -0.47799685495E+02  0.19008448954E+03  0.22070118718E+03  0.41800000000E+01 0.  1.
        -11    1    4    4    0    0 -0.56193104331E+02  0.26184164009E+02  0.40452629972E+02  0.74024932900E+02  0.00000000000E+00 0.  1.
         11    1    4    4    0    0 -0.33108185875E+02  0.17442646045E+01  0.18165418321E+03  0.18465491249E+03  0.00000000000E+00 0. -1.
</event>
<event>
 8    1  0.7048627E-009  0.8859553E+02  0.7561462E-02  0.1306289E+00
          1   -1    0    0  501    0  0.00000000000E+00  0.00000000000E+00  0.38192495857E+02  0.38192495857E+02  0.00000000000E+00 0. -1.
         -1   -1    0    0    0  501 -0.00000000000E+00 -0.00000000000E+00 -0.41483591882E+03  0.41483591882E+03  0.00000000000E+00 0.  1.
         25    2    1    2    0    0 -0.22668682230E+02 -0.10525035211E+02 -0.31608937903E+03  0.34085558131E+03  0.12508151843E+03 0.  0.
         23    2    1    2    0    0  0.22668682230E+02  0.10525035211E+02 -0.60554043932E+02  0.11217283337E+03  0.91056613097E+02 0.  0.
          5    1    3    3  502    0 -0.54752097165E+02 -0.38864746881E+02 -0.26810330435E+03  0.27641475159E+03  0.41800000000E+01 0. -1.
         -5    1    3    3    0  502  0.32083414936E+02  0.28339711670E+02 -0.47986074680E+02  0.64440829718E+02  0.41800000000E+01 0. -1.
        -11    1    4    4    0    0  0.43832446477E+02  0.12689241143E+02 -0.74048519234E+02  0.86979787340E+02  0.00000000000E+00 0.  1.
         11    1    4    4    0    0 -0.21163764248E+02 -0.21642059313E+01  0.13494475302E+02  0.25193046027E+02  0.00000000000E+00 0. -1.
</event>
<event>
 8    1  0.7048627E-009  0.1018451E+03  0.7561462E-02  0.1276463E+00
         -1   -1    0    0    0  501 -0.00000000000E+00  0.00000000000E+00  0.11082003654E+03  0.11082003654E+03  0.00000000000E+00 0.  1.
          1   -1    0    0  501    0  0.00000000000E+00 -0.00000000000E+00 -0.10814336512E+03  0.10814336512E+03  0.00000000000E+00 0. -1.
         25    2    1    2    0    0 -0.13404367837E+02 -0.44456427064E+01  0.11038357411E+02  0.12636891520E+03  0.12509123302E+03 0.  0.
         23    2    1    2    0    0  0.13404367837E+02  0.44456427064E+01 -0.83616859901E+01  0.92594486455E+02  0.91128372712E+02 0.  0.
          5    1    3    3  502    0 -0.64983995882E+02  0.16662267366E+02 -0.71505894999E+01  0.67595519118E+02  0.41800000000E+01 0. -1.
         -5    1    3    3    0  502  0.51579628045E+02 -0.21107910073E+02  0.18188946910E+02  0.58773396078E+02  0.41800000000E+01 0. -1.
        -11    1    4    4    0    0 -0.31548395350E+02 -0.10442539869E+02  0.18620248056E+02  0.38092801495E+02  0.00000000000E+00 0.  1.
         11    1    4    4    0    0  0.44952763188E+02  0.14888182576E+02 -0.26981934046E+02  0.54501684960E+02  0.00000000000E+00 0. -1.
</event>
<event>
 8    1  0.7048627E-009  0.8002324E+02  0.7561462E-02  0.1328986E+00
          2   -1    0    0  501    0  0.00000000000E+00  0.00000000000E+00  0.48579717993E+02  0.48579717993E+02  0.00000000000E+00 0. -1.
         -2   -1    0    0    0  501 -0.00000000000E+00 -0.00000000000E+00 -0.47363132987E+03  0.47363132987E+03  0.00000000000E+00 0.  1.
         25    2    1    2    0    0  0.61560240861E+02 -0.72506546464E+01 -0.37872742152E+03  0.40363682410E+03  0.12508393467E+03 0.  0.
         23    2    1    2    0    0 -0.61560240861E+02  0.72506546464E+01 -0.46324190360E+02  0.11857422376E+03  0.89842532693E+02 0.  0.
          5    1    3    3  502    0  0.96807727338E+01 -0.24995660058E+02 -0.32705764708E+03  0.32818086065E+03  0.41800000000E+01 0. -1.
         -5    1    3    3    0  502  0.51879468127E+02  0.17745005412E+02 -0.51669774442E+02  0.75455963457E+02  0.41800000000E+01 0. -1.
        -11    1    4    4    0    0 -0.88899758745E+01 -0.17578789328E+02  0.21515532679E+02  0.29171281284E+02  0.00000000000E+00 0. -1.
         11    1    4    4    0    0 -0.52670264987E+02  0.24829443974E+02 -0.67839723038E+02  0.89402942478E+02  0.00000000000E+00 0.  1.
</event>
<event>
 8    1  0.7048627E-009  0.6599957E+02  0.7561462E-02  0.1374250E+00
         -1   -1    0    0    0  501 -0.00000000000E+00  0.00000000000E+00  0.65732335708E+03  0.65732335708E+03  0.00000000000E+00 0.  1.
          1   -1    0    0  501    0  0.00000000000E+00 -0.00000000000E+00 -0.25236903944E+02  0.25236903944E+02  0.00000000000E+00 0. -1.
         25    2    1    2    0    0 -0.76821922110E+01  0.50507223806E+02  0.46997917641E+03  0.48901814432E+03  0.12509325916E+03 0.  0.
         23    2    1    2    0    0  0.76821922110E+01 -0.50507223806E+02  0.16210727673E+03  0.19354211670E+03  0.92573138843E+02 0.  0.
          5    1    3    3  502    0  0.60864710617E+01  0.42992514951E+02  0.41427268311E+02  0.60158893204E+02  0.41800000000E+01 0. -1.
         -5    1    3    3    0  502 -0.13768663273E+02  0.75147088550E+01  0.42855190809E+03  0.42885925112E+03  0.41800000000E+01 0. -1.
        -11    1    4    4    0    0 -0.21846052668E+02 -0.24129551168E+02  0.14795744861E+03  0.15149551761E+03  0.00000000000E+00 0.  1.
         11    1    4    4    0    0  0.29528244879E+02 -0.26377672638E+02  0.14149828120E+02  0.42046599092E+02  0.00000000000E+00 0. -1.
</event>
<event>
 8    1  0.7048627E-009  0.1105704E+03  0.7561462E-02  0.1259517E+00
          1   -1    0    0  501    0  0.00000000000E+00  0.00000000000E+00  0.32164738988E+02  0.32164738988E+02  0.00000000000E+00 0. -1.
         -1   -1    0    0    0  501 -0.00000000000E+00 -0.00000000000E+00 -0.53697458461E+03  0.53697458461E+03  0.00000000000E+00 0.  1.
         25    2    1    2    0    0  0.21030447865E+02 -0.54833962949E+02 -0.18210544572E+03  0.22860093363E+03  0.12508777025E+03 0.  0.
         23    2    1    2    0    0 -0.21030447865E+02  0.54833962949E+02 -0.32270439990E+03  0.34053838996E+03  0.91538090945E+02 0.  0.
          5    1    3    3  502    0  0.68870747437E+02 -0.19471708200E+02 -0.13402689702E+03  0.15199673943E+03  0.41800000000E+01 0. -1.
         -5    1    3    3    0  502 -0.47840299572E+02 -0.35362254750E+02 -0.48078548696E+02  0.76604194198E+02  0.41800000000E+01 0. -1.
        -11    1    4    4    0    0 -0.40100406386E+02  0.10354556863E+02 -0.24863255962E+03  0.25205834472E+03  0.00000000000E+00 0.  1.
         11    1    4    4    0    0  0.19069958520E+02  0.44479406086E+02 -0.74071840283E+02  0.88480045245E+02  0.00000000000E+00 0. -1.
</event>
<event>
 8    1  0.7048627E-009  0.1824900E+03  0.7561462E-02  0.1165415E+00
         -2   -1    0    0    0  501 -0.00000000000E+00  0.00000000000E+00  0.11637338513E+03  0.11637338513E+03  0.00000000000E+00 0.  1.
          2   -1    0    0  501    0  0.00000000000E+00 -0.00000000000E+00 -0.40261431263E+03  0.40261431263E+03  0.00000000000E+00 0. -1.
         25    2    1    2    0    0  0.15862077327E+03  0.21235529933E+02 -0.26377653429E+03  0.33292181404E+03  0.12508947509E+03 0.  0.
         23    2    1    2    0    0 -0.15862077327E+03 -0.21235529933E+02 -0.22464393217E+02  0.18606588372E+03  0.92219123159E+02 0.  0.
          5    1    3    3  502    0  0.77171997946E+02  0.52810111623E+02 -0.60033174193E+02  0.11120197642E+03  0.41800000000E+01 0.  1.
         -5    1    3    3    0  502  0.81448775324E+02 -0.31574581689E+02 -0.20374336010E+03  0.22171983762E+03  0.41800000000E+01 0.  1.
        -11    1    4    4    0    0 -0.46323454389E+02  0.35256408488E+02  0.82841320481E+00  0.58219953920E+02  0.00000000000E+00 0.  1.
         11    1    4    4    0    0 -0.11229731888E+03 -0.56491938422E+02 -0.23292806421E+02  0.12784592980E+03  0.00000000000E+00 0. -1.
</event>
<event>
 8    1  0.7048627E-009  0.9790386E+02  0.7561462E-02  0.1284767E+00
         -2   -1    0    0    0  501 -0.00000000000E+00  0.00000000000E+00  0.75145263963E+02  0.75145263963E+02  0.00000000000E+00 0.  1.
          2   -1    0    0  501    0  0.00000000000E+00 -0.00000000000E+00 -0.20050402206E+03  0.20050402206E+03  0.00000000000E+00 0. -1.
         25    2    1    2    0    0 -0.14125638852E+02  0.55349992249E+02 -0.59667832330E+02  0.14990348067E+03  0.12509055915E+03 0.  0.
         23    2    1    2    0    0  0.14125638852E+02 -0.55349992249E+02 -0.65690925763E+02  0.12574580535E+03  0.90738936073E+02 0.  0.
          5    1    3    3  502    0  0.11359629361E+02  0.86949314114E+02 -0.14409567234E+02  0.88962533866E+02  0.41800000000E+01 0.  1.
         -5    1    3    3    0  502 -0.25485268213E+02 -0.31599321865E+02 -0.45258265096E+02  0.60940946806E+02  0.41800000000E+01 0.  1.
        -11    1    4    4    0    0 -0.37167598620E+01 -0.47619670376E+02 -0.85531859350E+02  0.97965025772E+02  0.00000000000E+00 0. -1.
         11    1    4    4    0    0  0.17842398714E+02 -0.77303218730E+01  0.19840933587E+02  0.27780779574E+02  0.00000000000E+00 0.  1.
</event>
<event>
 8    1  0.7048627E-009  0.8085689E+02  0.7561462E-02  0.1326637E+00
         -2   -1    0    0    0  501 -0.00000000000E+00  0.00000000000E+00  0.69444175300E+02  0.69444175300E+02  0.00000000000E+00 0. -1.
          2   -1    0    0  501    0  0.00000000000E+00 -0.00000000000E+00 -0.18532075143E+03  0.18532075143E+03  0.00000000000E+00 0.  1.
         25    2    1    2    0    0  0.17428608236E+02  0.94320758524E+00 -0.32413218329E+02  0.13038775650E+03  0.12508278977E+03 0.  0.
         23    2    1    2    0    0 -0.17428608236E+02 -0.94320758524E+00 -0.83463357796E+02  0.12437717023E+03  0.90547790438E+02 0.  0.
          5    1    3    3  502    0 -0.49963339595E+01 -0.31492534157E+02 -0.69193966164E+02  0.76302165200E+02  0.41800000000E+01 0. -1.
         -5    1    3    3    0  502  0.22424942195E+02  0.32435741742E+02  0.36780747835E+02  0.54085591299E+02  0.41800000000E+01 0. -1.
        -11    1    4    4    0    0  0.18691248880E+02 -0.35368310841E+02 -0.51130772946E+02  0.64920229039E+02  0.00000000000E+00 0.  1.
         11    1    4    4    0    0 -0.36119857115E+02  0.34425103256E+02 -0.32332584850E+02  0.59456941187E+02  0.00000000000E+00 0. -1.
</event>
<event>
 8    1  0.7048627E-009  0.1034108E+03  0.7561462E-02  0.1273283E+00
          1   -1    0    0  501    0  0.00000000000E+00  0.00000000000E+00  0.83601995992E+03  0.83601995992E+03  0.00000000000E+00 0. -1.
         -1   -1    0    0    0  501 -0.00000000000E+00 -0.00000000000E+00 -0.20116091592E+02  0.20116091592E+02  0.00000000000E+00 0.  1.
         25    2    1    2    0    0 -0.54339175868E+02  0.22682382251E+02  0.62477199785E+03  0.63988731706E+03  0.12509393565E+03 0.  0.
         23    2    1    2    0    0  0.54339175868E+02 -0.22682382251E+02  0.19113187048E+03  0.21624873446E+03  0.82248931552E+02 0.  0.
          5    1    3    3  502    0  0.18460574669E+02  0.46502653377E+02  0.38196184841E+03  0.38524747323E+03  0.41800000000E+01 0.  1.
         -5    1    3    3    0  502 -0.72799750536E+02 -0.23820271126E+02  0.24281014944E+03  0.25463984383E+03  0.41800000000E+01 0.  1.
        -11    1    4    4    0    0  0.28067190704E+02  0.16626865310E+02  0.15023120498E+03  0.15373234791E+03  0.00000000000E+00 0. -1.
         11    1    4    4    0    0  0.26271985164E+02 -0.39309247561E+02  0.40900665498E+02  0.62516386543E+02  0.00000000000E+00 0.  1.
</event>
<event>
 8    1  0.7048627E-009  0.1784906E+03  0.7561462E-02  0.1169272E+00
          1   -1    0    0  501    0  0.00000000000E+00  0.00000000000E+00  0.80213795763E+03  0.80213795763E+03  0.00000000000E+00 0. -1.
         -1   -1    0    0    0  501 -0.00000000000E+00 -0.00000000000E+00 -0.42726537420E+02  0.42726537420E+02  0.00000000000E+00 0.  1.
         25    2    1    2    0    0  0.14063371248E+03  0.16951439703E+02  0.29137067451E+03  0.34728905618E+03  0.12509047201E+03 0.  0.
         23    2    1    2    0    0 -0.14063371248E+03 -0.16951439703E+02  0.46804074570E+03  0.49757543887E+03  0.91945556363E+02 0.  0.
          5    1    3    3  502    0  0.30128604990E+02 -0.50309527062E+02  0.10583046809E+03  0.12106337897E+03  0.41800000000E+01 0.  1.
         -5    1    3    3    0  502  0.11050510749E+03  0.67260966765E+02  0.18554020642E+03  0.22622567721E+03  0.41800000000E+01 0.  1.
        -11    1    4    4    0    0 -0.11971850849E+02 -0.36687631911E+02  0.99399316144E+02  0.10662800569E+03  0.00000000000E+00 0.  1.
         11    1    4    4    0    0 -0.12866186163E+03  0.19736192208E+02  0.36864142956E+03  0.39094743318E+03  0.00000000000E+00 0. -1.
</event>
<event>
 8    1  0.7048627E-009  0.9935808E+02  0.7561462E-02  0.1281652E+00
         -1   -1    0    0    0  501 -0.00000000000E+00  0.00000000000E+00  0.11096557321E+03  0.11096557321E+03  0.00000000000E+00 0.  1.
          1   -1    0    0  501    0  0.00000000000E+00 -0.00000000000E+00 -0.14022806230E+03  0.14022806230E+03  0.00000000000E+00 0. -1.
         25    2    1    2    0    0 -0.15697603246E+02 -0.57510770020E+01 -0.76968494550E+02  0.14782102285E+03  0.12508963190E+03 0.  0.
         23    2    1    2    0    0  0.15697603246E+02  0.57510770020E+01  0.47706005459E+02  0.10337261266E+03  0.90169531754E+02 0.  0.
          5    1    3    3  502    0 -0.62116443678E+02  0.79247022116E+00 -0.79153380571E+02  0.10070655709E+03  0.41800000000E+01 0. -1.
         -5    1    3    3    0  502  0.46418840432E+02 -0.65435472231E+01  0.21848860210E+01  0.47114465765E+02  0.41800000000E+01 0. -1.
        -11    1    4    4    0    0  0.45666212783E+02 -0.20022905847E+02  0.37941983671E+02  0.62657113510E+02  0.00000000000E+00 0.  1.
         11    1    4    4    0    0 -0.29968609537E+02  0.25773982849E+02  0.97640217880E+01  0.40715499149E+02  0.00000000000E+00 0. -1.
</event>
<event>
 8    1  0.7048627E-009  0.1158034E+03  0.7561462E-02  0.1250185E+00
         -1   -1    0    0    0  501 -0.00000000000E+00  0.00000000000E+00  0.16634430426E+02  0.16634430426E+02  0.00000000000E+00 0.  1.
          1   -1    0    0  501    0  0.00000000000E+00 -0.00000000000E+00 -0.12188835144E+04  0.12188835144E+04  0.00000000000E+00 0. -1.
         25    2    1    2    0    0 -0.44667443696E+02  0.19965443868E+02 -0.10034693547E+04  0.10124189836E+04  0.12509057978E+03 0.  0.
         23    2    1    2    0    0  0.44667443696E+02 -0.19965443868E+02 -0.19877972932E+03  0.22309896123E+03  0.88690282650E+02 0.  0.
          5    1    3    3  502    0  0.34038341852E+02  0.36528235114E+02 -0.27659554567E+03  0.28109693873E+03  0.41800000000E+01 0.  1.
         -5    1    3    3    0  502 -0.78705785548E+02 -0.16562791246E+02 -0.72687380899E+03  0.73132204488E+03  0.41800000000E+01 0.  1.
        -11    1    4    4    0    0 -0.24599124397E+02  0.85719689755E+01 -0.43766023145E+02  0.50931918825E+02  0.00000000000E+00 0. -1.
         11    1    4    4    0    0  0.69266568093E+02 -0.28537412844E+02 -0.15501370618E+03  0.17216704240E+03  0.00000000000E+00 0.  1.
</event>
<event>
 8    1  0.7048627E-009  0.1336931E+03  0.7561462E-02  0.1222076E+00
         -1   -1    0    0    0  501 -0.00000000000E+00  0.00000000000E+00  0.12298969935E+03  0.12298969935E+03  0.00000000000E+00 0.  1.
          1   -1    0    0  501    0  0.00000000000E+00 -0.00000000000E+00 -0.17142545575E+03  0.17142545575E+03  0.00000000000E+00 0. -1.
         25    2    1    2    0    0 -0.88528013347E+02  0.31505799407E+02 -0.83851391405E+01  0.15667657640E+03  0.12508962583E+03 0.  0.
         23    2    1    2    0    0  0.88528013347E+02 -0.31505799407E+02 -0.40050617266E+02  0.13773857870E+03  0.92401512841E+02 0.  0.
          5    1    3    3  502    0 -0.77545512507E+02 -0.35125593626E+02 -0.21163692748E+02  0.87820772761E+02  0.41800000000E+01 0. -1.
         -5    1    3    3    0  502 -0.10982500840E+02  0.66631393033E+02  0.12778553607E+02  0.68855803637E+02  0.41800000000E+01 0. -1.
        -11    1    4    4    0    0  0.40241158486E+02  0.19102778530E+02 -0.50136085842E+02  0.67066340942E+02  0.00000000000E+00 0. -1.
         11    1    4    4    0    0  0.48286854861E+02 -0.50608577938E+02  0.10085468575E+02  0.70672237758E+02  0.00000000000E+00 0.  1.
</event>
<event>
 8    1  0.7048627E-009  0.1195109E+03  0.7561462E-02  0.1243906E+00
          1   -1    0    0  501    0  0.00000000000E+00  0.00000000000E+00  0.57960143056E+03  0.57960143056E+03  0.00000000000E+00 0. -1.
         -1   -1    0    0    0  501 -0.00000000000E+00 -0.00000000000E+00 -0.39999746618E+02  0.39999746618E+02  0.00000000000E+00 0.  1.
         25    2    1    2    0    0 -0.10495284283E+03 -0.77810639790E+01  0.31020808799E+03  0.35064282645E+03  0.12508273146E+03 0.  0.
         23    2    1    2    0    0  0.10495284283E+03  0.77810639790E+01  0.22939359595E+03  0.26895835073E+03  0.92959821368E+02 0.  0.
          5    1    3    3  502    0 -0.47879596357E+02  0.16522270520E+02  0.27404456549E+03  0.27871730740E+03  0.41800000000E+01 0.  1.
         -5    1    3    3    0  502 -0.57073246474E+02 -0.24303334499E+02  0.36163522506E+02  0.71925519052E+02  0.41800000000E+01 0.  1.
        -11    1    4    4    0    0  0.27463779919E+02  0.34467121295E+02  0.14402873766E+03  0.15062044659E+03  0.00000000000E+00 0. -1.
         11    1    4    4    0    0  0.77489062912E+02 -0.26686057316E+02  0.85364858292E+02  0.11833790414E+03  0.00000000000E+00 0.  1.
</event>
<event>
 8    1  0.7048627E-009  0.9535504E+02  0.7561462E-02  0.1290378E+00
          1   -1    0    0  501    0  0.00000000000E+00  0.00000000000E+00  0.11736818424E+03  0.11736818424E+03  0.00000000000E+00 0. -1.
         -1   -1    0    0    0  501 -0.00000000000E+00 -0.00000000000E+00 -0.11831514967E+03  0.11831514967E+03  0.00000000000E+00 0.  1.
         25    2    1    2    0    0  0.29541989885E+02  0.33479344597E+02 -0.14594449750E+02  0.13361830830E+03  0.12508900299E+03 0.  0.
         23    2    1    2    0    0 -0.29541989885E+02 -0.33479344597E+02  0.13647484319E+02  0.10206502561E+03  0.90760233275E+02 0.  0.
          5    1    3    3  502    0 -0.44653371862E+02  0.80004583159E+01  0.17436918056E+02  0.48779600892E+02  0.41800000000E+01 0. -1.
         -5    1    3    3    0  502  0.74195361747E+02  0.25478886281E+02 -0.32031367806E+02  0.84838707407E+02  0.41800000000E+01 0. -1.
        -11    1    4    4    0    0  0.12197263874E+02 -0.18678314451E+02  0.43341406323E+02  0.48745565735E+02  0.00000000000E+00 0. -1.
         11    1    4    4    0    0 -0.41739253759E+02 -0.14801030146E+02 -0.29693922004E+02  0.53319459878E+02  0.00000000000E+00 0.  1.
</event>
<event>
 8    1  0.7048627E-009  0.1246069E+03  0.7561462E-02  0.1235685E+00
          2   -1    0    0  501    0  0.00000000000E+00  0.00000000000E+00  0.56341198865E+03  0.56341198865E+03  0.00000000000E+00 0. -1.
         -2   -1    0    0    0  501 -0.00000000000E+00 -0.00000000000E+00 -0.61840422887E+02  0.61840422887E+02  0.00000000000E+00 0.  1.
         25    2    1    2    0    0 -0.66960629998E+02  0.65926405931E+02  0.65579429970E+02  0.16964263150E+03  0.12509174160E+03 0.  0.
         23    2    1    2    0    0  0.66960629998E+02 -0.65926405931E+02  0.43599213580E+03  0.45560978004E+03  0.93065096710E+02 0.  0.
          5    1    3    3  502    0  0.37547828664E+01  0.47903207392E+02  0.81621834623E+02  0.94807235800E+02  0.41800000000E+01 0.  1.
         -5    1    3    3    0  502 -0.70715412864E+02  0.18023198539E+02 -0.16042404653E+02  0.74835395698E+02  0.41800000000E+01 0.  1.
        -11    1    4    4    0    0  0.76958661057E+02 -0.79749300655E+02  0.40839428192E+03  0.42316483310E+03  0.00000000000E+00 0.  1.
         11    1    4    4    0    0 -0.99980310593E+01  0.13822894724E+02  0.27597853875E+02  0.32444946942E+02  0.00000000000E+00 0. -1.
</event>
<event>
 8    1  0.7048627E-009  0.1428510E+03  0.7561462E-02  0.1209543E+00
          2   -1    0    0  501    0  0.00000000000E+00  0.00000000000E+00  0.11516342433E+04  0.11516342433E+04  0.00000000000E+00 0. -1.
         -2   -1    0    0    0  501 -0.00000000000E+00 -0.00000000000E+00 -0.26492123805E+02  0.26492123805E+02  0.00000000000E+00 0.  1.
         25    2    1    2    0    0  0.10939156082E+02 -0.11927211038E+03  0.80733165876E+03  0.82569826747E+03  0.12509084783E+03 0.  0.
         23    2    1    2    0    0 -0.10939156082E+02  0.11927211038E+03  0.31781046077E+03  0.35242809967E+03  0.94109377918E+02 0.  0.
          5    1    3    3  502    0 -0.45477626020E+02 -0.86842213468E+02  0.34120010033E+03  0.35502783747E+03  0.41800000000E+01 0. -1.
         -5    1    3    3    0  502  0.56416782102E+02 -0.32429896916E+02  0.46613155842E+03  0.47067043000E+03  0.41800000000E+01 0. -1.
        -11    1    4    4    0    0  0.82202148168E+01  0.34584132076E+02  0.17125996020E+02  0.39458001251E+02  0.00000000000E+00 0.  1.
         11    1    4    4    0    0 -0.19159370899E+02  0.84687978309E+02  0.30068446475E+03  0.31297009842E+03  0.00000000000E+00 0. -1.
</event>
<event>
 8    1  0.7048627E-009  0.1377194E+03  0.7561462E-02  0.1216431E+00
         -3   -1    0    0    0  501 -0.00000000000E+00  0.00000000000E+00  0.14631051808E+02  0.14631051808E+02  0.00000000000E+00 0.  1.
          3   -1    0    0  501    0  0.00000000000E+00 -0.00000000000E+00 -0.13873627436E+04  0.13873627436E+04  0.00000000000E+00 0. -1.
         25    2    1    2    0    0  0.38144901084E+02  0.78545081087E+02 -0.87772513555E+03  0.89088343365E+03  0.12509002973E+03 0.  0.
         23    2    1    2    0    0 -0.38144901084E+02 -0.78545081087E+02 -0.49500655620E+03  0.51111036171E+03  0.92617211831E+02 0.  0.
          5    1    3    3  502    0 -0.31136191756E+02  0.72309872846E+02 -0.36303135618E+03  0.37149349674E+03  0.41800000000E+01 0. -1.
         -5    1    3    3    0  502  0.69281092840E+02  0.62352082407E+01 -0.51469377936E+03  0.51938993691E+03  0.41800000000E+01 0. -1.
        -11    1    4    4    0    0 -0.53371791736E+02 -0.92152078386E+02 -0.42881964520E+03  0.44184481644E+03  0.00000000000E+00 0. -1.
         11    1    4    4    0    0  0.15226890652E+02  0.13606997299E+02 -0.66186910997E+02  0.69265545271E+02  0.00000000000E+00 0.  1.
</event>
<event>
 8    1  0.7048627E-009  0.8521650E+02  0.7561462E-02  0.1314867E+00
         -1   -1    0    0    0  501 -0.00000000000E+00  0.00000000000E+00  0.24325574919E+03  0.24325574919E+03  0.00000000000E+00 0.  1.
          1   -1    0    0  501    0  0.00000000000E+00 -0.00000000000E+00 -0.62139452582E+02  0.62139452582E+02  0.00000000000E+00 0. -1.
         25    2    1    2    0    0  0.13756554490E+02 -0.23894315648E+02  0.16250183957E+03  0.20691693995E+03  0.12509033160E+03 0.  0.
         23    2    1    2    0    0 -0.13756554490E+02  0.23894315648E+02  0.18614457039E+02  0.98478261828E+02  0.92689206114E+02 0.  0.
          5    1    3    3  502    0 -0.45353326567E+02 -0.41298419686E+00  0.12482179204E+03  0.13287229566E+03  0.41800000000E+01 0. -1.
         -5    1    3    3    0  502  0.59109881057E+02 -0.23481331451E+02  0.37680047536E+02  0.74044644287E+02  0.41800000000E+01 0. -1.
        -11    1    4    4    0    0 -0.16546843997E+02 -0.14890406862E+02 -0.29283272123E+02  0.36783587223E+02  0.00000000000E+00 0. -1.
         11    1    4    4    0    0  0.27902895068E+01  0.38784722510E+02  0.47897729162E+02  0.61694674605E+02  0.00000000000E+00 0.  1.
</event>
<event>
 8    1  0.7048627E-009  0.1289268E+03  0.7561462E-02  0.1229057E+00
         -2   -1    0    0    0  501 -0.00000000000E+00  0.00000000000E+00  0.43527833705E+02  0.43527833705E+02  0.00000000000E+00 0.  1.
          2   -1    0    0  501    0  0.00000000000E+00 -0.00000000000E+00 -0.47555833935E+03  0.47555833935E+03  0.00000000000E+00 0. -1.
         25    2    1    2    0    0  0.28165760539E+02  0.77470918082E+02 -0.14554151160E+03  0.20886463794E+03  0.12508817756E+03 0.  0.
         23    2    1    2    0    0 -0.28165760539E+02 -0.77470918082E+02 -0.28648899405E+03  0.31022153512E+03  0.85827757332E+02 0.  0.
          5    1    3    3  502    0  0.42009894920E+02  0.10362567024E+03 -0.82253597468E+02  0.13887489874E+03  0.41800000000E+01 0. -1.
         -5    1    3    3    0  502 -0.13844134381E+02 -0.26154752158E+02 -0.63287914135E+02  0.69989739196E+02  0.41800000000E+01 0. -1.
        -11    1    4    4    0    0  0.28984363700E+02 -0.21590351547E+02 -0.12364304825E+03  0.12881707961E+03  0.00000000000E+00 0. -1.
         11    1    4    4    0    0 -0.57150124239E+02 -0.55880566535E+02 -0.16284594579E+03  0.18140445551E+03  0.00000000000E+00 0.  1.
</event>
<event>
 8    1  0.7048627E-009  0.1183534E+03  0.7561462E-02  0.1245838E+00
          2   -1    0    0  501    0  0.00000000000E+00  0.00000000000E+00  0.85283902771E+03  0.85283902771E+03  0.00000000000E+00 0. -1.
         -2   -1    0    0    0  501 -0.00000000000E+00 -0.00000000000E+00 -0.20589746787E+02  0.20589746787E+02  0.00000000000E+00 0.  1.
         25    2    1    2    0    0  0.47970986559E+02 -0.23541430271E+02  0.63758519596E+03  0.65193377419E+03  0.12508936538E+03 0.  0.
         23    2    1    2    0    0 -0.47970986559E+02  0.23541430271E+02  0.19466408496E+03  0.22149500030E+03  0.91162024418E+02 0.  0.
          5    1    3    3  502    0  0.88814951686E+02 -0.16964499090E+02  0.35761850254E+03  0.36889613123E+03  0.41800000000E+01 0. -1.
         -5    1    3    3    0  502 -0.40843965128E+02 -0.65769311814E+01  0.27996669342E+03  0.28303764296E+03  0.41800000000E+01 0. -1.
        -11    1    4    4    0    0 -0.69842782718E+02 -0.33777402399E+01  0.11471450391E+03  0.13434597439E+03  0.00000000000E+00 0.  1.
         11    1    4    4    0    0  0.21871796159E+02  0.26919170511E+02  0.79949581043E+02  0.87149025911E+02  0.00000000000E+00 0. -1.
</event>
<event>
 8    1  0.7048627E-009  0.2889874E+03  0.7561462E-02  0.1090879E+00
          2   -1    0    0  501    0  0.00000000000E+00  0.00000000000E+00  0.20189873437E+04  0.20189873437E+04  0.00000000000E+00 0. -1.
         -2   -1    0    0    0  501 -0.00000000000E+00 -0.00000000000E+00 -0.52935349190E+02  0.52935349190E+02  0.00000000000E+00 0.  1.
         25    2    1    2    0    0  0.11253121045E+03 -0.25697086557E+03  0.14040169857E+04  0.14372224317E+04  0.12508926071E+03 0.  0.
         23    2    1    2    0    0 -0.11253121045E+03  0.25697086557E+03  0.56203500886E+03  0.63470026118E+03  0.90905287409E+02 0.  0.
          5    1    3    3  502    0  0.75749258671E+02 -0.22422859511E+03  0.13078517786E+04  0.13291012603E+04  0.41800000000E+01 0.  1.
         -5    1    3    3    0  502  0.36781951779E+02 -0.32742270460E+02  0.96165207054E+02  0.10812117137E+03  0.41800000000E+01 0.  1.
        -11    1    4    4    0    0 -0.19793056961E+02  0.14547752579E+03  0.32825546194E+03  0.35959299757E+03  0.00000000000E+00 0.  1.
         11    1    4    4    0    0 -0.92738153489E+02  0.11149333978E+03  0.23377954693E+03  0.27510726361E+03  0.00000000000E+00 0. -1.
</event>
<event>
 8    1  0.7048627E-009  0.1522271E+03  0.7561462E-02  0.1197763E+00
          2   -1    0    0  501    0  0.00000000000E+00  0.00000000000E+00  0.85562099846E+03  0.85562099846E+03  0.00000000000E+00 0. -1.
         -2   -1    0    0    0  501 -0.00000000000E+00 -0.00000000000E+00 -0.38328440278E+02  0.38328440278E+02  0.00000000000E+00 0.  1.
         25    2    1    2    0    0  0.41493767367E+02  0.11605935008E+03  0.61737486806E+03  0.64186539305E+03  0.12509176476E+03 0.  0.
         23    2    1    2    0    0 -0.41493767367E+02 -0.11605935008E+03  0.19991769012E+03  0.25208404568E+03  0.91584812025E+02 0.  0.
          5    1    3    3  502    0 -0.28372849162E+02  0.90131259152E+02  0.42768750950E+03  0.43802139289E+03  0.41800000000E+01 0.  1.
         -5    1    3    3    0  502  0.69866616529E+02  0.25928090932E+02  0.18968735856E+03  0.20384400016E+03  0.41800000000E+01 0.  1.
        -11    1    4    4    0    0 -0.16963764380E+02 -0.36857874033E+00  0.86765668267E+02  0.88409198289E+02  0.00000000000E+00 0. -1.
         11    1    4    4    0    0 -0.24530002987E+02 -0.11569077134E+03  0.11315202185E+03  0.16367484739E+03  0.00000000000E+00 0.  1.
</event>
<event>
 8    1  0.7048627E-009  0.9395301E+02  0.7561462E-02  0.1293552E+00
         -2   -1    0    0    0  501 -0.00000000000E+00  0.00000000000E+00  0.31852273680E+03  0.31852273680E+03  0.00000000000E+00 0.  1.
          2   -1    0    0  501    0  0.00000000000E+00 -0.00000000000E+00 -0.44305923353E+02  0.44305923353E+02  0.00000000000E+00 0. -1.
         25    2    1    2    0    0  0.21248432001E+02  0.10492084068E+02  0.20822141364E+03  0.24405943690E+03  0.12508905607E+03 0.  0.
         23    2    1    2    0    0 -0.21248432001E+02 -0.10492084068E+02  0.65995399804E+02  0.11876922326E+03  0.95860085057E+02 0.  0.
          5    1    3    3  502    0  0.92452957721E+01 -0.53553240572E+02  0.54656261670E+02  0.77189406070E+02  0.41800000000E+01 0.  1.
         -5    1    3    3    0  502  0.12003136229E+02  0.64045324640E+02  0.15356515197E+03  0.16687003083E+03  0.41800000000E+01 0.  1.
        -11    1    4    4    0    0 -0.26881314886E+02  0.22242337799E+02  0.76377172747E+02  0.83969037137E+02  0.00000000000E+00 0.  1.
         11    1    4    4    0    0  0.56328828841E+01 -0.32734421867E+02 -0.10381772943E+02  0.34800186120E+02  0.00000000000E+00 0. -1.
</event>
<event>
 8    1  0.7048627E-009  0.1271360E+03  0.7561462E-02  0.1231768E+00
          1   -1    0    0  501    0  0.00000000000E+00  0.00000000000E+00  0.78299617877E+03  0.78299617877E+03  0.00000000000E+00 0.  1.
         -1   -1    0    0    0  501 -0.00000000000E+00 -0.00000000000E+00 -0.27377859297E+02  0.27377859297E+02  0.00000000000E+00 0. -1.
         25    2    1    2    0    0  0.26345280996E+02 -0.90669314816E+02  0.30239406665E+03  0.34059415512E+03  0.12508880236E+03 0.  0.
         23    2    1    2    0    0 -0.26345280996E+02  0.90669314816E+02  0.45322425282E+03  0.46977988294E+03  0.79786694351E+02 0.  0.
          5    1    3    3  502    0 -0.32605534578E+02 -0.70136231982E+02  0.24018473798E+03  0.25236559330E+03  0.41800000000E+01 0.  1.
         -5    1    3    3    0  502  0.58950815574E+02 -0.20533082834E+02  0.62209328670E+02  0.88228561822E+02  0.41800000000E+01 0.  1.
        -11    1    4    4    0    0 -0.37223365765E+02  0.19060135200E+02  0.87853906332E+02  0.97299417113E+02  0.00000000000E+00 0. -1.
         11    1    4    4    0    0  0.10878084769E+02  0.71609179616E+02  0.36537034649E+03  0.37248046583E+03  0.00000000000E+00 0.  1.
</event>
<event>
 8    1  0.7048627E-009  0.1265312E+03  0.7561462E-02  0.1232695E+00
         -1   -1    0    0    0  501 -0.00000000000E+00  0.00000000000E+00  0.24031474381E+02  0.24031474381E+02  0.00000000000E+00 0.  1.
          1   -1    0    0  501    0  0.00000000000E+00 -0.00000000000E+00 -0.90417053220E+03  0.90417053220E+03  0.00000000000E+00 0. -1.
         25    2    1    2    0    0  0.45082173960E+02  0.76765617489E+02 -0.33430152338E+03  0.36787273975E+03  0.12508989441E+03 0.  0.
         23    2    1    2    0    0 -0.45082173960E+02 -0.76765617489E+02 -0.54583753444E+03  0.56032926683E+03  0.90027278195E+02 0.  0.
          5    1    3    3  502    0 -0.23468680329E+02  0.50754656205E+02 -0.53052020551E+02  0.77193285767E+02  0.41800000000E+01 0.  1.
         -5    1    3    3    0  502  0.68550854289E+02  0.26010961284E+02 -0.28124950282E+03  0.29067945399E+03  0.41800000000E+01 0.  1.
        -11    1    4    4    0    0 -0.11526296539E+01 -0.79525209434E+02 -0.28885400145E+03  0.29960344064E+03  0.00000000000E+00 0.  1.
         11    1    4    4    0    0 -0.43929544306E+02  0.27595919456E+01 -0.25698353300E+03  0.26072582619E+03  0.00000000000E+00 0. -1.
</event>
<event>
 8    1  0.7048627E-009  0.1398043E+03  0.7561462E-02  0.1213593E+00
          2   -1    0    0  501    0  0.00000000000E+00  0.00000000000E+00  0.36510450216E+03  0.36510450216E+03  0.00000000000E+00 0. -1.
         -2   -1    0    0    0  501 -0.00000000000E+00 -0.00000000000E+00 -0.10256611789E+03  0.10256611789E+03  0.00000000000E+00 0.  1.
         25    2    1    2    0    0  0.61842444692E+02 -0.63351288738E+02  0.29833583625E+03  0.33539435762E+03  0.12508888912E+03 0.  0.
         23    2    1    2    0    0 -0.61842444692E+02  0.63351288738E+02 -0.35797451969E+02  0.13227626244E+03  0.91529657959E+02 0.  0.
          5    1    3    3  502    0  0.78462816072E+02  0.88158895263E+01  0.15555672899E+03  0.17449785600E+03  0.41800000000E+01 0. -1.
         -5    1    3    3    0  502 -0.16620371380E+02 -0.72167178264E+02  0.14277910726E+03  0.16089650162E+03  0.41800000000E+01 0. -1.
        -11    1    4    4    0    0 -0.73869022775E+02  0.13508463683E+02 -0.29237814127E+02  0.80585115820E+02  0.00000000000E+00 0.  1.
         11    1    4    4    0    0  0.12026578083E+02  0.49842825054E+02 -0.65596378414E+01  0.51691146615E+02  0.00000000000E+00 0. -1.
</event>
<event>
 8    1  0.7048627E-009  0.9504995E+02  0.7561462E-02  0.1291064E+00
         -1   -1    0    0    0  501 -0.00000000000E+00  0.00000000000E+00  0.88652759113E+02  0.88652759113E+02  0.00000000000E+00 0.  1.
          1   -1    0    0  501    0  0.00000000000E+00 -0.00000000000E+00 -0.14145585913E+03  0.14145585913E+03  0.00000000000E+00 0. -1.
         25    2    1    2    0    0  0.25628350335E+02  0.94804457858E+01 -0.20103822511E+02  0.12960913325E+03  0.12509065733E+03 0.  0.
         23    2    1    2    0    0 -0.25628350335E+02 -0.94804457858E+01 -0.32699277507E+02  0.10049948499E+03  0.91017649611E+02 0.  0.
          5    1    3    3  502    0 -0.35776696323E+02  0.85967098357E+01  0.32016679649E+02  0.48953198012E+02  0.41800000000E+01 0. -1.
         -5    1    3    3    0  502  0.61405046658E+02  0.88373595012E+00 -0.52120502160E+02  0.80655935242E+02  0.41800000000E+01 0. -1.
        -11    1    4    4    0    0  0.25529727871E+02 -0.27266679197E+02 -0.26894046573E+02  0.46027475932E+02  0.00000000000E+00 0. -1.
         11    1    4    4    0    0 -0.51158078206E+02  0.17786233412E+02 -0.58052309345E+01  0.54472009059E+02  0.00000000000E+00 0.  1.
</event>
<event>
 8    1  0.7048627E-009  0.8582952E+02  0.7561462E-02  0.1313277E+00
         -2   -1    0    0    0  501 -0.00000000000E+00  0.00000000000E+00  0.16408530738E+03  0.16408530738E+03  0.00000000000E+00 0.  1.
          2   -1    0    0  501    0  0.00000000000E+00 -0.00000000000E+00 -0.11921590300E+03  0.11921590300E+03  0.00000000000E+00 0. -1.
         25    2    1    2    0    0  0.23042441739E+02  0.18375283239E+02 -0.59187513880E+02  0.14149076105E+03  0.12509144059E+03 0.  0.
         23    2    1    2    0    0 -0.23042441739E+02 -0.18375283239E+02  0.10405691826E+03  0.14181044933E+03  0.91726529132E+02 0.  0.
          5    1    3    3  502    0 -0.42164807782E+01 -0.36013131411E+02  0.19940803672E+02  0.41591253831E+02  0.41800000000E+01 0. -1.
         -5    1    3    3    0  502  0.27258922518E+02  0.54388414650E+02 -0.79128317552E+02  0.99899507224E+02  0.41800000000E+01 0. -1.
        -11    1    4    4    0    0  0.18337081808E+02  0.12806559165E+02 -0.32960425855E+01  0.22607972567E+02  0.00000000000E+00 0. -1.
         11    1    4    4    0    0 -0.41379523547E+02 -0.31181842404E+02  0.10735296085E+03  0.11920247677E+03  0.00000000000E+00 0.  1.
</event>
<event>
 8    1  0.7048627E-009  0.1358524E+03  0.7561462E-02  0.1219021E+00
          4   -1    0    0  501    0  0.00000000000E+00  0.00000000000E+00  0.37262418819E+03  0.37262418819E+03  0.00000000000E+00 0. -1.
         -4   -1    0    0    0  501 -0.00000000000E+00 -0.00000000000E+00 -0.16412578920E+03  0.16412578920E+03  0.00000000000E+00 0.  1.
         25    2    1    2    0    0 -0.12212584509E+02  0.85462904954E+02  0.32928157013E+03  0.36266526360E+03  0.12508671253E+03 0.  0.
         23    2    1    2    0    0  0.12212584509E+02 -0.85462904954E+02 -0.12078317115E+03  0.17408471378E+03  0.90905763276E+02 0.  0.
          5    1    3    3  502    0  0.24050480271E+02 -0.22011274394E+02  0.39132727000E+02  0.51105425585E+02  0.41800000000E+01 0. -1.
         -5    1    3    3    0  502 -0.36263064780E+02  0.10747417935E+03  0.29014884313E+03  0.31155983802E+03  0.41800000000E+01 0. -1.
        -11    1    4    4    0    0 -0.38920876544E+02 -0.25517524548E+02 -0.42853618173E+02  0.63264613178E+02  0.00000000000E+00 0.  1.
         11    1    4    4    0    0  0.51133461053E+02 -0.59945380406E+02 -0.77929552978E+02  0.11082010061E+03  0.00000000000E+00 0. -1.
</event>
<event>
 8    1  0.7048627E-009  0.8517955E+02  0.7561462E-02  0.1314964E+00
          1   -1    0    0  501    0  0.00000000000E+00  0.00000000000E+00  0.11439720565E+04  0.11439720565E+04  0.00000000000E+00 0. -1.
         -1   -1    0    0    0  501 -0.00000000000E+00 -0.00000000000E+00 -0.15719983713E+02  0.15719983713E+02  0.00000000000E+00 0.  1.
         25    2    1    2    0    0 -0.11106572989E+02 -0.60509304543E+02  0.84146672118E+03  0.85293552829E+03  0.12509212876E+03 0.  0.
         23    2    1    2    0    0  0.11106572989E+02  0.60509304543E+02  0.28678535163E+03  0.30675651193E+03  0.89827544815E+02 0.  0.
          5    1    3    3  502    0 -0.27546939777E+02 -0.15417834314E+02  0.73923802878E+03  0.73992356301E+03  0.41800000000E+01 0. -1.
         -5    1    3    3    0  502  0.16440366788E+02 -0.45091470229E+02  0.10222869240E+03  0.11301196528E+03  0.41800000000E+01 0. -1.
        -11    1    4    4    0    0 -0.27627819270E+02  0.18800159398E+02  0.34120339846E+02  0.47759187412E+02  0.00000000000E+00 0.  1.
         11    1    4    4    0    0  0.38734392260E+02  0.41709145145E+02  0.25266501178E+03  0.25899732452E+03  0.00000000000E+00 0. -1.
</event>
<event>
 8    1  0.7048627E-009  0.2928600E+03  0.7561462E-02  0.1088865E+00
          4   -1    0    0  501    0  0.00000000000E+00  0.00000000000E+00  0.52688118723E+02  0.52688118723E+02  0.00000000000E+00 0. -1.
         -4   -1    0    0    0  501 -0.00000000000E+00 -0.00000000000E+00 -0.19116400631E+04  0.19116400631E+04  0.00000000000E+00 0.  1.
         25    2    1    2    0    0  0.26241500083E+03  0.77481115531E+02 -0.13123153607E+04  0.13463595488E+04  0.12508985896E+03 0.  0.
         23    2    1    2    0    0 -0.26241500083E+03 -0.77481115531E+02 -0.54663658364E+03  0.61796863298E+03  0.90601991415E+02 0.  0.
          5    1    3    3  502    0 -0.12750814975E+02  0.11465353882E+02 -0.66286220964E+02  0.68595722256E+02  0.41800000000E+01 0. -1.
         -5    1    3    3    0  502  0.27516581580E+03  0.66015761649E+02 -0.12460291397E+04  0.12777638265E+04  0.41800000000E+01 0. -1.
        -11    1    4    4    0    0 -0.20956333866E+03 -0.94017744641E+02 -0.47313676426E+03  0.52594156226E+03  0.00000000000E+00 0.  1.
         11    1    4    4    0    0 -0.52851662166E+02  0.16536629111E+02 -0.73499819380E+02  0.92027070718E+02  0.00000000000E+00 0. -1.
</event>
<event>
 8    1  0.7048627E-009  0.2788652E+03  0.7561462E-02  0.1096310E+00
         -1   -1    0    0    0  501 -0.00000000000E+00  0.00000000000E+00  0.78211556649E+03  0.78211556649E+03  0.00000000000E+00 0.  1.
          1   -1    0    0  501    0  0.00000000000E+00 -0.00000000000E+00 -0.10903283819E+03  0.10903283819E+03  0.00000000000E+00 0. -1.
         25    2    1    2    0    0  0.11164690011E+03  0.23741383848E+03  0.24063373177E+03  0.37733490603E+03  0.12508667968E+03 0.  0.
         23    2    1    2    0    0 -0.11164690011E+03 -0.23741383848E+03  0.43244899653E+03  0.51381349865E+03  0.90342768351E+02 0.  0.
          5    1    3    3  502    0 -0.22563406828E+02  0.44684416742E+02  0.17056361051E+02  0.53048998855E+02  0.41800000000E+01 0. -1.
         -5    1    3    3    0  502  0.13421030694E+03  0.19272942174E+03  0.22357737072E+03  0.32428590717E+03  0.41800000000E+01 0. -1.
        -11    1    4    4    0    0 -0.93386476323E+02 -0.11180155351E+03  0.18276459685E+03  0.23371674991E+03  0.00000000000E+00 0.  1.
         11    1    4    4    0    0 -0.18260423785E+02 -0.12561228496E+03  0.24968439968E+03  0.28009674874E+03  0.00000000000E+00 0. -1.
</event>
<event>
 8    1  0.7048627E-009  0.7381569E+02  0.7561462E-02  0.1347578E+00
         -2   -1    0    0    0  501 -0.00000000000E+00  0.00000000000E+00  0.44714338794E+02  0.44714338794E+02  0.00000000000E+00 0.  1.
          2   -1    0    0  501    0  0.00000000000E+00 -0.00000000000E+00 -0.32518177352E+03  0.32518177352E+03  0.00000000000E+00 0. -1.
         25    2    1    2    0    0  0.43492826769E+02  0.12933920524E+02 -0.11861493170E+03  0.17826145506E+03  0.12509489221E+03 0.  0.
         23    2    1    2    0    0 -0.43492826769E+02 -0.12933920524E+02 -0.16185250303E+03  0.19163465726E+03  0.92025522795E+02 0.  0.
          5    1    3    3  502    0  0.10087414692E+02 -0.45717839718E+01  0.26097567008E+02  0.28656806305E+02  0.41800000000E+01 0.  1.
         -5    1    3    3    0  502  0.33405412077E+02  0.17505704495E+02 -0.14471249871E+03  0.14960464876E+03  0.41800000000E+01 0.  1.
        -11    1    4    4    0    0 -0.69849277408E+02 -0.14892910234E+02 -0.88852950817E+02  0.11399810173E+03  0.00000000000E+00 0.  1.
         11    1    4    4    0    0  0.26356450639E+02  0.19589897105E+01 -0.72999552208E+02  0.77636555523E+02  0.00000000000E+00 0. -1.
</event>
<event>
 8    1  0.7048627E-009  0.9912610E+02  0.7561462E-02  0.1282144E+00
         -2   -1    0    0    0  501 -0.00000000000E+00  0.00000000000E+00  0.17515101731E+03  0.17515101731E+03  0.00000000000E+00 0. -1.
          2   -1    0    0  501    0  0.00000000000E+00 -0.00000000000E+00 -0.10615797810E+03  0.10615797810E+03  0.00000000000E+00 0.  1.
         25    2    1    2    0    0  0.42154544174E+02  0.54579085908E+02 -0.82947586956E+01  0.14308092713E+03  0.12508983362E+03 0.  0.
         23    2    1    2    0    0 -0.42154544174E+02 -0.54579085908E+02  0.77287797911E+02  0.13822806828E+03  0.91529847271E+02 0.  0.
          5    1    3    3  502    0  0.76052852600E+01 -0.19527889915E+02  0.41908839123E+02  0.47042555682E+02  0.41800000000E+01 0. -1.
         -5    1    3    3    0  502  0.34549258914E+02  0.74106975822E+02 -0.50203597819E+02  0.96038371451E+02  0.41800000000E+01 0. -1.
        -11    1    4    4    0    0 -0.58776014447E+02 -0.51416539442E+02  0.88425354873E+02  0.11797170757E+03  0.00000000000E+00 0. -1.
         11    1    4    4    0    0  0.16621470272E+02 -0.31625464659E+01 -0.11137556962E+02  0.20256360711E+02  0.00000000000E+00 0.  1.
</event>
<event>
 8    1  0.7048627E-009  0.8363473E+02  0.7561462E-02  0.1319042E+00
         -1   -1    0    0    0  501 -0.00000000000E+00  0.00000000000E+00  0.55004694764E+02  0.55004694764E+02  0.00000000000E+00 0.  1.
          1   -1    0    0  501    0  0.00000000000E+00 -0.00000000000E+00 -0.21608762916E+03  0.21608762916E+03  0.00000000000E+00 0. -1.
         25    2    1    2    0    0 -0.37205978149E+01 -0.11875942556E+02 -0.11154105260E+03  0.16805744538E+03  0.12508803969E+03 0.  0.
         23    2    1    2    0    0  0.37205978149E+01  0.11875942556E+02 -0.49541881795E+02  0.10303487854E+03  0.89481323663E+02 0.  0.
          5    1    3    3  502    0 -0.62688764261E+01  0.48569394374E+02 -0.92065116313E+02  0.10436351337E+03  0.41800000000E+01 0.  1.
         -5    1    3    3    0  502  0.25482786112E+01 -0.60445336929E+02 -0.19475936284E+02  0.63693932007E+02  0.41800000000E+01 0.  1.
        -11    1    4    4    0    0  0.28015311247E+02 -0.42221800404E+01  0.15116184387E+02  0.32112046010E+02  0.00000000000E+00 0.  1.
         11    1    4    4    0    0 -0.24294713432E+02  0.16098122596E+02 -0.64658066182E+02  0.70922832532E+02  0.00000000000E+00 0. -1.
</event>
<event>
 8    1  0.7048627E-009  0.1046725E+03  0.7561462E-02  0.1270766E+00
          2   -1    0    0  501    0  0.00000000000E+00  0.00000000000E+00  0.15022908475E+03  0.15022908475E+03  0.00000000000E+00 0. -1.
         -2   -1    0    0    0  501 -0.00000000000E+00 -0.00000000000E+00 -0.11445436339E+03  0.11445436339E+03  0.00000000000E+00 0.  1.
         25    2    1    2    0    0  0.73721884666E+02 -0.58068386331E+01  0.28813709658E+02  0.14814752146E+03  0.12509525410E+03 0.  0.
         23    2    1    2    0    0 -0.73721884666E+02  0.58068386331E+01  0.69610116950E+01  0.11653592667E+03  0.89797165146E+02 0.  0.
          5    1    3    3  502    0 -0.64141873475E+01  0.41448931956E+02  0.35041941516E+02  0.54813919992E+02  0.41800000000E+01 0. -1.
         -5    1    3    3    0  502  0.80136072014E+02 -0.47255770589E+02 -0.62282318577E+01  0.93333601473E+02  0.41800000000E+01 0. -1.
        -11    1    4    4    0    0 -0.48502317276E+02  0.58159846612E+01  0.47923627259E+02  0.68432262189E+02  0.00000000000E+00 0. -1.
         11    1    4    4    0    0 -0.25219567390E+02 -0.91460280214E-02 -0.40962615564E+02  0.48103664485E+02  0.00000000000E+00 0.  1.
</event>
<event>
 8    1  0.7048627E-009  0.1140791E+03  0.7561462E-02  0.1253197E+00
          1   -1    0    0  501    0  0.00000000000E+00  0.00000000000E+00  0.17686316702E+03  0.17686316702E+03  0.00000000000E+00 0. -1.
         -1   -1    0    0    0  501 -0.00000000000E+00 -0.00000000000E+00 -0.74627277766E+02  0.74627277766E+02  0.00000000000E+00 0.  1.
         25    2    1    2    0    0  0.33856608024E+02 -0.13588591297E+02  0.63935296219E+02  0.14514156825E+03  0.12508969986E+03 0.  0.
         23    2    1    2    0    0 -0.33856608024E+02  0.13588591297E+02  0.38300593031E+02  0.10634887653E+03  0.92261738506E+02 0.  0.
          5    1    3    3  502    0 -0.23583565821E+02 -0.54199325328E+02  0.22443348580E+02  0.63363457437E+02  0.41800000000E+01 0. -1.
         -5    1    3    3    0  502  0.57440173845E+02  0.40610734031E+02  0.41491947639E+02  0.81778110817E+02  0.41800000000E+01 0. -1.
        -11    1    4    4    0    0  0.18320332400E+02 -0.26790536272E+02  0.64657475765E+01  0.33093402737E+02  0.00000000000E+00 0. -1.
         11    1    4    4    0    0 -0.52176940424E+02  0.40379127570E+02  0.31834845454E+02  0.73255473791E+02  0.00000000000E+00 0.  1.
</event>
<event>
 8    1  0.7048627E-009  0.1027663E+03  0.7561462E-02  0.1274584E+00
         -1   -1    0    0    0  501 -0.00000000000E+00  0.00000000000E+00  0.88286605252E+02  0.88286605252E+02  0.00000000000E+00 0.  1.
          1   -1    0    0  501    0  0.00000000000E+00 -0.00000000000E+00 -0.18161770203E+03  0.18161770203E+03  0.00000000000E+00 0. -1.
         25    2    1    2    0    0  0.26080732833E+02  0.52498630878E+02 -0.21024345513E+02  0.13973343220E+03  0.12508836117E+03 0.  0.
         23    2    1    2    0    0 -0.26080732833E+02 -0.52498630878E+02 -0.72306751264E+02  0.13017087508E+03  0.90993843595E+02 0.  0.
          5    1    3    3  502    0  0.23742921937E+02  0.74596991835E+02 -0.57219080934E+02  0.97056340112E+02  0.41800000000E+01 0. -1.
         -5    1    3    3    0  502  0.23378108956E+01 -0.22098360956E+02  0.36194735421E+02  0.42677092086E+02  0.41800000000E+01 0. -1.
        -11    1    4    4    0    0 -0.46628563631E+02  0.15997751496E+01 -0.15719869308E+02  0.49233083571E+02  0.00000000000E+00 0. -1.
         11    1    4    4    0    0  0.20547830798E+02 -0.54098406028E+02 -0.56586881956E+02  0.80937791512E+02  0.00000000000E+00 0.  1.
</event>
<event>
 8    1  0.7048627E-009  0.8918835E+02  0.7561462E-02  0.1304829E+00
         -1   -1    0    0    0  501 -0.00000000000E+00  0.00000000000E+00  0.15140837061E+03  0.15140837061E+03  0.00000000000E+00 0.  1.
          1   -1    0    0  501    0  0.00000000000E+00 -0.00000000000E+00 -0.89138891604E+02  0.89138891604E+02  0.00000000000E+00 0. -1.
         25    2    1    2    0    0  0.19897784994E+02 -0.43750096123E+02  0.25544972512E+02  0.13641261317E+03  0.12508342278E+03 0.  0.
         23    2    1    2    0    0 -0.19897784994E+02  0.43750096123E+02  0.36724506491E+02  0.10413464904E+03  0.84766402514E+02 0.  0.
          5    1    3    3  502    0  0.48535263508E+02 -0.38159940368E+01 -0.33676234603E+02  0.59344711570E+02  0.41800000000E+01 0.  1.
         -5    1    3    3    0  502 -0.28637478515E+02 -0.39934102086E+02  0.59221207115E+02  0.77067901601E+02  0.41800000000E+01 0.  1.
        -11    1    4    4    0    0 -0.42310410987E+02  0.38431580772E+02  0.51359499957E+02  0.76843708359E+02  0.00000000000E+00 0.  1.
         11    1    4    4    0    0  0.22412625994E+02  0.53185153504E+01 -0.14634993466E+02  0.27290940680E+02  0.00000000000E+00 0. -1.
</event>
<event>
 8    1  0.7048627E-009  0.1023738E+03  0.7561462E-02  0.1275382E+00
          2   -1    0    0  501    0  0.00000000000E+00  0.00000000000E+00  0.55823181457E+02  0.55823181457E+02  0.00000000000E+00 0. -1.
         -2   -1    0    0    0  501 -0.00000000000E+00 -0.00000000000E+00 -0.26373838991E+03  0.26373838991E+03  0.00000000000E+00 0.  1.
         25    2    1    2    0    0  0.28530850861E+02 -0.21725068817E+02 -0.16349078171E+03  0.20895693555E+03  0.12509107539E+03 0.  0.
         23    2    1    2    0    0 -0.28530850861E+02  0.21725068817E+02 -0.44424426740E+02  0.11060463582E+03  0.94730500407E+02 0.  0.
          5    1    3    3  502    0 -0.26780752892E+02 -0.43325313142E+02 -0.13214199843E+03  0.14168017375E+03  0.41800000000E+01 0.  1.
         -5    1    3    3    0  502  0.55311603753E+02  0.21600244326E+02 -0.31348783278E+02  0.67276761796E+02  0.41800000000E+01 0.  1.
        -11    1    4    4    0    0  0.30919971862E+02  0.14747106045E+02 -0.36775593974E+02  0.50258990328E+02  0.00000000000E+00 0.  1.
         11    1    4    4    0    0 -0.59450822724E+02  0.69779627718E+01 -0.76488327668E+01  0.60345645491E+02  0.00000000000E+00 0. -1.
</event>
<event>
 8    1  0.7048627E-009  0.1034428E+03  0.7561462E-02  0.1273218E+00
          1   -1    0    0  501    0  0.00000000000E+00  0.00000000000E+00  0.13908579856E+03  0.13908579856E+03  0.00000000000E+00 0. -1.
         -1   -1    0    0    0  501 -0.00000000000E+00 -0.00000000000E+00 -0.10734269415E+03  0.10734269415E+03  0.00000000000E+00 0.  1.
         25    2    1    2    0    0 -0.29921549221E+02 -0.34388770486E+02 -0.15746331467E+02  0.13406222421E+03  0.12508735492E+03 0.  0.
         23    2    1    2    0    0  0.29921549221E+02  0.34388770486E+02  0.47489435877E+02  0.11236626850E+03  0.91066158008E+02 0.  0.
          5    1    3    3  502    0  0.38800950715E+02 -0.12408484016E+02 -0.40570481607E+02  0.57644779727E+02  0.41800000000E+01 0.  1.
         -5    1    3    3    0  502 -0.68722499936E+02 -0.21980286470E+02  0.24824150140E+02  0.76417444481E+02  0.41800000000E+01 0.  1.
        -11    1    4    4    0    0  0.14208779422E+02  0.61068204243E+02  0.95924904568E+01  0.63428943357E+02  0.00000000000E+00 0.  1.
         11    1    4    4    0    0  0.15712769799E+02 -0.26679433757E+02  0.37896945420E+02  0.48937325147E+02  0.00000000000E+00 0. -1.
</event>
<event>
 8    1  0.7048627E-009  0.1444352E+03  0.7561462E-02  0.1207483E+00
          1   -1    0    0  501    0  0.00000000000E+00  0.00000000000E+00  0.28486387917E+02  0.28486387917E+02  0.00000000000E+00 0. -1.
         -1   -1    0    0    0  501 -0.00000000000E+00 -0.00000000000E+00 -0.91520863478E+03  0.91520863478E+03  0.00000000000E+00 0.  1.
         25    2    1    2    0    0  0.77484706416E+02 -0.78557561864E+02 -0.61546067941E+03  0.63766371253E+03  0.12509193468E+03 0.  0.
         23    2    1    2    0    0 -0.77484706416E+02  0.78557561864E+02 -0.27126156746E+03  0.30603131017E+03  0.88865935943E+02 0.  0.
          5    1    3    3  502    0  0.59572491827E+02  0.68698316263E+01 -0.11635337472E+03  0.13096433323E+03  0.41800000000E+01 0. -1.
         -5    1    3    3    0  502  0.17912214590E+02 -0.85427393490E+02 -0.49910730468E+03  0.50669937930E+03  0.41800000000E+01 0. -1.
        -11    1    4    4    0    0 -0.62633492874E+02  0.98366623992E+02 -0.21574679593E+03  0.24524605419E+03  0.00000000000E+00 0. -1.
         11    1    4    4    0    0 -0.14851213542E+02 -0.19809062128E+02 -0.55514771528E+02  0.60785255974E+02  0.00000000000E+00 0.  1.
</event>
<event>
 8    1  0.7048627E-009  0.1225732E+03  0.7561462E-02  0.1238911E+00
         -1   -1    0    0    0  501 -0.00000000000E+00  0.00000000000E+00  0.27490365625E+03  0.27490365625E+03  0.00000000000E+00 0.  1.
          1   -1    0    0  501    0  0.00000000000E+00 -0.00000000000E+00 -0.78886607453E+02  0.78886607453E+02  0.00000000000E+00 0. -1.
         25    2    1    2    0    0  0.34542883910E+02 -0.85355770021E+02  0.16256623956E+03  0.22484167249E+03  0.12508867709E+03 0.  0.
         23    2    1    2    0    0 -0.34542883910E+02  0.85355770021E+02  0.33450809241E+02  0.12894859122E+03  0.83844881982E+02 0.  0.
          5    1    3    3  502    0 -0.31698248094E+02 -0.41207230072E+02  0.10579172634E+02  0.53218474574E+02  0.41800000000E+01 0. -1.
         -5    1    3    3    0  502  0.66241132004E+02 -0.44148539949E+02  0.15198706692E+03  0.17162319791E+03  0.41800000000E+01 0. -1.
        -11    1    4    4    0    0 -0.12246511759E+01  0.79423585961E+02  0.47224483302E+02  0.92410808894E+02  0.00000000000E+00 0.  1.
         11    1    4    4    0    0 -0.33318232734E+02  0.59321840600E+01 -0.13773674061E+02  0.36537782327E+02  0.00000000000E+00 0. -1.
</event>
<event>
 8    1  0.7048627E-009  0.7915168E+02  0.7561462E-02  0.1331476E+00
          1   -1    0    0  501    0  0.00000000000E+00  0.00000000000E+00  0.25690133520E+03  0.25690133520E+03  0.00000000000E+00 0. -1.
         -1   -1    0    0    0  501 -0.00000000000E+00 -0.00000000000E+00 -0.50889375123E+02  0.50889375123E+02  0.00000000000E+00 0.  1.
         25    2    1    2    0    0 -0.51836109241E+00  0.35131988504E+02  0.11587933909E+03  0.17411108916E+03  0.12510845226E+03 0.  0.
         23    2    1    2    0    0  0.51836109241E+00 -0.35131988504E+02  0.90132620992E+02  0.13367962117E+03  0.92259560124E+02 0.  0.
          5    1    3    3  502    0  0.98108094392E+01  0.71040493557E+02  0.11608310108E+03  0.13651286556E+03  0.41800000000E+01 0.  1.
         -5    1    3    3    0  502 -0.10329170532E+02 -0.35908505053E+02 -0.20376199004E+00  0.37598223601E+02  0.41800000000E+01 0.  1.
        -11    1    4    4    0    0 -0.15114045576E+02 -0.27711119368E+02 -0.91784380103E+01  0.32872241095E+02  0.00000000000E+00 0.  1.
         11    1    4    4    0    0  0.15632406668E+02 -0.74208691362E+01  0.99311059003E+02  0.10080738007E+03  0.00000000000E+00 0. -1.
</event>
<event>
 8    1  0.7048627E-009  0.1803655E+03  0.7561462E-02  0.1167450E+00
         -2   -1    0    0    0  501 -0.00000000000E+00  0.00000000000E+00  0.52685639049E+02  0.52685639049E+02  0.00000000000E+00 0.  1.
          2   -1    0    0  501    0  0.00000000000E+00 -0.00000000000E+00 -0.64060399619E+03  0.64060399619E+03  0.00000000000E+00 0. -1.
         25    2    1    2    0    0 -0.15112823413E+03  0.89280250631E+01 -0.31205762599E+03  0.36870963715E+03  0.12508949519E+03 0.  0.
         23    2    1    2    0    0  0.15112823413E+03 -0.89280250631E+01 -0.27586073116E+03  0.32457999809E+03  0.79583788460E+02 0.  0.
          5    1    3    3  502    0 -0.85539529608E+02 -0.54800501473E+02 -0.13102783062E+03  0.16584893995E+03  0.41800000000E+01 0.  1.
         -5    1    3    3    0  502 -0.65588704520E+02  0.63728526536E+02 -0.18102979537E+03  0.20286069720E+03  0.41800000000E+01 0.  1.
        -11    1    4    4    0    0  0.12976109153E+02  0.22367236278E+02 -0.70594297676E+02  0.75181297753E+02  0.00000000000E+00 0. -1.
         11    1    4    4    0    0  0.13815212497E+03 -0.31295261341E+02 -0.20526643348E+03  0.24939870034E+03  0.00000000000E+00 0.  1.
</event>
<event>
 8    1  0.7048627E-009  0.1933430E+03  0.7561462E-02  0.1155480E+00
         -1   -1    0    0    0  501 -0.00000000000E+00  0.00000000000E+00  0.19114573209E+02  0.19114573209E+02  0.00000000000E+00 0.  1.
          1   -1    0    0  501    0  0.00000000000E+00 -0.00000000000E+00 -0.23670916030E+04  0.23670916030E+04  0.00000000000E+00 0. -1.
         25    2    1    2    0    0 -0.40848738156E+02  0.17783350986E+03 -0.12667259966E+04  0.12858996307E+04  0.12509889319E+03 0.  0.
         23    2    1    2    0    0  0.40848738156E+02 -0.17783350986E+03 -0.10812510332E+04  0.11003065456E+04  0.90979781946E+02 0.  0.
          5    1    3    3  502    0 -0.16922817971E+02  0.10272782210E+03 -0.10515930376E+04  0.10567425308E+04  0.41800000000E+01 0.  1.
         -5    1    3    3    0  502 -0.23925920185E+02  0.75105687762E+02 -0.21513295895E+03  0.22915709987E+03  0.41800000000E+01 0.  1.
        -11    1    4    4    0    0  0.67388650992E+02 -0.94284444814E+02 -0.58414980234E+03  0.59553486748E+03  0.00000000000E+00 0. -1.
         11    1    4    4    0    0 -0.26539912836E+02 -0.83549065050E+02 -0.49710123089E+03  0.50477167809E+03  0.00000000000E+00 0.  1.
</event>
<event>
 8    1  0.7048627E-009  0.6122445E+02  0.7561462E-02  0.1392764E+00
         -2   -1    0    0    0  501 -0.00000000000E+00  0.00000000000E+00  0.21833700828E+02  0.21833700828E+02  0.00000000000E+00 0.  1.
          2   -1    0    0  501    0  0.00000000000E+00 -0.00000000000E+00 -0.55738071107E+03  0.55738071107E+03  0.00000000000E+00 0. -1.
         25    2    1    2    0    0 -0.12999399830E+02 -0.81805233388E+01 -0.31994536251E+03  0.34387364770E+03  0.12509254666E+03 0.  0.
         23    2    1    2    0    0  0.12999399830E+02  0.81805233388E+01 -0.21560164773E+03  0.23534076420E+03  0.93087590113E+02 0.  0.
          5    1    3    3  502    0 -0.62355214742E+01 -0.20526557822E+02 -0.32689671237E+03  0.32762654695E+03  0.41800000000E+01 0. -1.
         -5    1    3    3    0  502 -0.67638783562E+01  0.12346034483E+02  0.69513498611E+01  0.16247100750E+02  0.41800000000E+01 0. -1.
        -11    1    4    4    0    0 -0.34857949274E+02  0.14267627996E+02 -0.48459498081E+02  0.61375604197E+02  0.00000000000E+00 0.  1.
         11    1    4    4    0    0  0.47857349104E+02 -0.60871046572E+01 -0.16714214965E+03  0.17396516000E+03  0.00000000000E+00 0. -1.
</event>
<event>
 8    1  0.7048627E-009  0.1410166E+03  0.7561462E-02  0.1211968E+00
         -3   -1    0    0    0  501 -0.00000000000E+00  0.00000000000E+00  0.60681047192E+02  0.60681047192E+02  0.00000000000E+00 0.  1.
          3   -1    0    0  501    0  0.00000000000E+00 -0.00000000000E+00 -0.48975130816E+03  0.48975130816E+03  0.00000000000E+00 0. -1.
         25    2    1    2    0    0  0.12549900323E+03 -0.35495497946E+02 -0.27691575169E+03  0.33066556167E+03  0.12508976761E+03 0.  0.
         23    2    1    2    0    0 -0.12549900323E+03  0.35495497946E+02 -0.15215450929E+03  0.21976679368E+03  0.90202653641E+02 0.  0.
          5    1    3    3  502    0  0.46554404257E+02 -0.11829749043E+02 -0.23150913355E+03  0.23647665177E+03  0.41800000000E+01 0. -1.
         -5    1    3    3    0  502  0.78944598969E+02 -0.23665748903E+02 -0.45406618138E+02  0.94188909901E+02  0.41800000000E+01 0. -1.
        -11    1    4    4    0    0 -0.11157564205E+03 -0.16912234656E+01 -0.79642533116E+02  0.13709455576E+03  0.00000000000E+00 0.  1.
         11    1    4    4    0    0 -0.13923361172E+02  0.37186721412E+02 -0.72511976170E+02  0.82672237926E+02  0.00000000000E+00 0. -1.
</event>
<event>
 8    1  0.7048627E-009  0.7918268E+02  0.7561462E-02  0.1331387E+00
          2   -1    0    0  501    0  0.00000000000E+00  0.00000000000E+00  0.12827712730E+03  0.12827712730E+03  0.00000000000E+00 0. -1.
         -2   -1    0    0    0  501 -0.00000000000E+00 -0.00000000000E+00 -0.88500069410E+02  0.88500069410E+02  0.00000000000E+00 0.  1.
         25    2    1    2    0    0 -0.21037031717E+02 -0.17441376334E+02  0.32298030748E+02  0.13204615462E+03  0.12508503447E+03 0.  0.
         23    2    1    2    0    0  0.21037031717E+02  0.17441376334E+02  0.74790271451E+01  0.84731042095E+02  0.79853962554E+02 0.  0.
          5    1    3    3  502    0 -0.81117165388E+01 -0.61291790875E+02 -0.17426416616E+02  0.64371080230E+02  0.41800000000E+01 0. -1.
         -5    1    3    3    0  502 -0.12925315178E+02  0.43850414541E+02  0.49724447365E+02  0.67675074389E+02  0.41800000000E+01 0. -1.
        -11    1    4    4    0    0  0.31783362089E+02  0.22224005831E+01 -0.29438333303E+02  0.43378988436E+02  0.00000000000E+00 0.  1.
         11    1    4    4    0    0 -0.10746330372E+02  0.15218975751E+02  0.36917360448E+02  0.41352053659E+02  0.00000000000E+00 0. -1.
</event>
<event>
 8    1  0.7048627E-009  0.9364224E+02  0.7561462E-02  0.1294264E+00
         -2   -1    0    0    0  501 -0.00000000000E+00  0.00000000000E+00  0.86212451272E+02  0.86212451272E+02  0.00000000000E+00 0.  1.
          2   -1    0    0  501    0  0.00000000000E+00 -0.00000000000E+00 -0.15628313493E+03  0.15628313493E+03  0.00000000000E+00 0. -1.
         25    2    1    2    0    0  0.41769520314E+02 -0.16024605541E+02 -0.24195966218E+02  0.13503696117E+03  0.12509218717E+03 0.  0.
         23    2    1    2    0    0 -0.41769520314E+02  0.16024605541E+02 -0.45874717443E+02  0.10745862504E+03  0.86263466106E+02 0.  0.
          5    1    3    3  502    0 -0.95471539526E+00 -0.41778841644E+02  0.37000976258E+02  0.55972562337E+02  0.41800000000E+01 0.  1.
         -5    1    3    3    0  502  0.42724235709E+02  0.25754236103E+02 -0.61196942476E+02  0.79064398832E+02  0.41800000000E+01 0.  1.
        -11    1    4    4    0    0  0.18804048805E+02  0.27756049300E+02 -0.61727570728E+01  0.34089491843E+02  0.00000000000E+00 0.  1.
         11    1    4    4    0    0 -0.60573569119E+02 -0.11731443760E+02 -0.39701960370E+02  0.73369133195E+02  0.00000000000E+00 0. -1.
</event>
<event>
 8    1  0.7048627E-009  0.7040825E+02  0.7561462E-02  0.1358710E+00
         -2   -1    0    0    0  501 -0.00000000000E+00  0.00000000000E+00  0.43091936523E+02  0.43091936523E+02  0.00000000000E+00 0. -1.
          2   -1    0    0  501    0  0.00000000000E+00 -0.00000000000E+00 -0.32375243920E+03  0.32375243920E+03  0.00000000000E+00 0.  1.
         25    2    1    2    0    0 -0.33657708583E+02 -0.14678179652E+02 -0.11487304164E+03  0.17375981052E+03  0.12509342809E+03 0.  0.
         23    2    1    2    0    0  0.33657708583E+02  0.14678179652E+02 -0.16578746103E+03  0.19308456520E+03  0.91912332014E+02 0.  0.
          5    1    3    3  502    0 -0.29227240749E+02  0.15126036735E+02  0.17797482519E+02  0.37646399206E+02  0.41800000000E+01 0.  1.
         -5    1    3    3    0  502 -0.44304678342E+01 -0.29804216386E+02 -0.13267052416E+03  0.13611341132E+03  0.41800000000E+01 0.  1.
        -11    1    4    4    0    0 -0.18605711874E+02 -0.79976097226E+01 -0.11497855145E+03  0.11674845425E+03  0.00000000000E+00 0.  1.
         11    1    4    4    0    0  0.52263420458E+02  0.22675789374E+02 -0.50808909581E+02  0.76336110947E+02  0.00000000000E+00 0. -1.
</event>
<event>
 8    1  0.7048627E-009  0.1144896E+03  0.7561462E-02  0.1252475E+00
          2   -1    0    0  501    0  0.00000000000E+00  0.00000000000E+00  0.12996560372E+03  0.12996560372E+03  0.00000000000E+00 0. -1.
         -2   -1    0    0    0  501 -0.00000000000E+00 -0.00000000000E+00 -0.13349864772E+03  0.13349864772E+03  0.00000000000E+00 0.  1.
         25    2    1    2    0    0  0.48213527733E+02 -0.17098340367E+01  0.54018179509E+02  0.14455352302E+03  0.12510111715E+03 0.  0.
         23    2    1    2    0    0 -0.48213527733E+02  0.17098340367E+01 -0.57551223509E+02  0.11891072842E+03  0.92196259235E+02 0.  0.
          5    1    3    3  502    0  0.21166225581E+02  0.59175543815E+02  0.44510914417E+02  0.77126182282E+02  0.41800000000E+01 0.  1.
         -5    1    3    3    0  502  0.27047302152E+02 -0.60885377852E+02  0.95072650919E+01  0.67427340741E+02  0.41800000000E+01 0.  1.
        -11    1    4    4    0    0 -0.37906437312E+02  0.42627449418E+02 -0.14995690013E+02  0.58981930729E+02  0.00000000000E+00 0. -1.
         11    1    4    4    0    0 -0.10307090422E+02 -0.40917615382E+02 -0.42555533496E+02  0.59928797690E+02  0.00000000000E+00 0.  1.
</event>
<event>
 8    1  0.7048627E-009  0.1044551E+03  0.7561462E-02  0.1271197E+00
          3   -1    0    0  501    0  0.00000000000E+00  0.00000000000E+00  0.86668548530E+02  0.86668548530E+02  0.00000000000E+00 0. -1.
         -3   -1    0    0    0  501 -0.00000000000E+00 -0.00000000000E+00 -0.15011427669E+03  0.15011427669E+03  0.00000000000E+00 0.  1.
         25    2    1    2    0    0 -0.86707620200E+01  0.29939286020E+02 -0.52038782155E+02  0.13902597200E+03  0.12509453658E+03 0.  0.
         23    2    1    2    0    0  0.86707620200E+01 -0.29939286020E+02 -0.11406946001E+02  0.97756853216E+02  0.91949665428E+02 0.  0.
          5    1    3    3  502    0  0.22909477708E+02 -0.34864951104E+02 -0.52023169477E+02  0.66815354124E+02  0.41800000000E+01 0.  1.
         -5    1    3    3    0  502 -0.31580239728E+02  0.64804237123E+02 -0.15612678338E-01  0.72210617877E+02  0.41800000000E+01 0.  1.
        -11    1    4    4    0    0  0.41844312868E+02  0.98302951880E+01 -0.15768298837E+02  0.45784500337E+02  0.00000000000E+00 0.  1.
         11    1    4    4    0    0 -0.33173550848E+02 -0.39769581208E+02  0.43613528359E+01  0.51972352880E+02  0.00000000000E+00 0. -1.
</event>
<event>
 8    1  0.7048627E-009  0.9966808E+02  0.7561462E-02  0.1280995E+00
         -2   -1    0    0    0  501 -0.00000000000E+00  0.00000000000E+00  0.33438520345E+02  0.33438520345E+02  0.00000000000E+00 0.  1.
          2   -1    0    0  501    0  0.00000000000E+00 -0.00000000000E+00 -0.44760248798E+03  0.44760248798E+03  0.00000000000E+00 0. -1.
         25    2    1    2    0    0  0.47454099875E+02  0.31156782752E+02 -0.19660418142E+03  0.23984004590E+03  0.12508959492E+03 0.  0.
         23    2    1    2    0    0 -0.47454099875E+02 -0.31156782752E+02 -0.21755978622E+03  0.24120096243E+03  0.87309833303E+02 0.  0.
          5    1    3    3  502    0 -0.19857470434E+02 -0.64325239830E+01 -0.14595752636E+03  0.14750175727E+03  0.41800000000E+01 0. -1.
         -5    1    3    3    0  502  0.67311570309E+02  0.37589306735E+02 -0.50646655063E+02  0.92338288631E+02  0.41800000000E+01 0. -1.
        -11    1    4    4    0    0 -0.53869964123E+02  0.13652319377E+02 -0.14919017928E+03  0.15920448628E+03  0.00000000000E+00 0.  1.
         11    1    4    4    0    0  0.64158642482E+01 -0.44809102129E+02 -0.68369606937E+02  0.81996476146E+02  0.00000000000E+00 0. -1.
</event>
<event>
 8    1  0.7048627E-009  0.1156811E+03  0.7561462E-02  0.1250397E+00
         -2   -1    0    0    0  501 -0.00000000000E+00  0.00000000000E+00  0.38986471395E+02  0.38986471395E+02  0.00000000000E+00 0.  1.
          2   -1    0    0  501    0  0.00000000000E+00 -0.00000000000E+00 -0.42824898258E+03  0.42824898258E+03  0.00000000000E+00 0. -1.
         25    2    1    2    0    0 -0.52981008748E+02  0.14520909998E+02 -0.13722107515E+03  0.19363601761E+03  0.12508972674E+03 0.  0.
         23    2    1    2    0    0  0.52981008748E+02 -0.14520909998E+02 -0.25204143604E+03  0.27359943637E+03  0.91180710598E+02 0.  0.
          5    1    3    3  502    0  0.12057817826E+02 -0.40532148917E+02 -0.80982080183E+02  0.91453899738E+02  0.41800000000E+01 0. -1.
         -5    1    3    3    0  502 -0.65038826574E+02  0.55053058915E+02 -0.56238994964E+02  0.10218211787E+03  0.41800000000E+01 0. -1.
        -11    1    4    4    0    0  0.60528561277E+02 -0.42899871061E+02 -0.14889824156E+03  0.16635742246E+03  0.00000000000E+00 0. -1.
         11    1    4    4    0    0 -0.75475525287E+01  0.28378961063E+02 -0.10314319447E+03  0.10724201390E+03  0.00000000000E+00 0.  1.
</event>
<event>
 8    1  0.7048627E-009  0.1363510E+03  0.7561462E-02  0.1218325E+00
          2   -1    0    0  501    0  0.00000000000E+00  0.00000000000E+00  0.12825953091E+03  0.12825953091E+03  0.00000000000E+00 0.  1.
         -2   -1    0    0    0  501 -0.00000000000E+00 -0.00000000000E+00 -0.16378263458E+03  0.16378263458E+03  0.00000000000E+00 0. -1.
         25    2    1    2    0    0 -0.49219881927E+02 -0.79068454246E+02 -0.42188534895E+02  0.16156074812E+03  0.12509030986E+03 0.  0.
         23    2    1    2    0    0  0.49219881927E+02  0.79068454246E+02  0.66654312184E+01  0.13048141737E+03  0.91140304329E+02 0.  0.
          5    1    3    3  502    0 -0.81397768003E+02 -0.84249916882E+02 -0.13605700940E+02  0.11800945991E+03  0.41800000000E+01 0.  1.
         -5    1    3    3    0  502  0.32177886076E+02  0.51814626360E+01 -0.28582833955E+02  0.43551288205E+02  0.41800000000E+01 0.  1.
        -11    1    4    4    0    0  0.11182167644E+02  0.83572000173E+02  0.25099071994E+02  0.87973197629E+02  0.00000000000E+00 0.  1.
         11    1    4    4    0    0  0.38037714282E+02 -0.45035459269E+01 -0.18433640776E+02  0.42508219746E+02  0.00000000000E+00 0. -1.
</event>
<event>
 8    1  0.7048627E-009  0.6692394E+02  0.7561462E-02  0.1370877E+00
          3   -1    0    0  501    0  0.00000000000E+00  0.00000000000E+00  0.10919176502E+03  0.10919176502E+03  0.00000000000E+00 0. -1.
         -3   -1    0    0    0  501 -0.00000000000E+00 -0.00000000000E+00 -0.13004641470E+03  0.13004641470E+03  0.00000000000E+00 0.  1.
         25    2    1    2    0    0 -0.47260356704E+02  0.96973358976E+01 -0.10922454822E+01  0.13407430772E+03  0.12508855803E+03 0.  0.
         23    2    1    2    0    0  0.47260356704E+02 -0.96973358976E+01 -0.19762404200E+02  0.10516387201E+03  0.91330759972E+02 0.  0.
          5    1    3    3  502    0 -0.57183130893E+02  0.87537173450E+01  0.53207890362E+02  0.78708894178E+02  0.41800000000E+01 0. -1.
         -5    1    3    3    0  502  0.99227741891E+01  0.94361855262E+00 -0.54300135844E+02  0.55365413538E+02  0.41800000000E+01 0. -1.
        -11    1    4    4    0    0  0.53009072956E+02  0.86245048391E+00 -0.49844539238E+02  0.72768013085E+02  0.00000000000E+00 0.  1.
         11    1    4    4    0    0 -0.57487162528E+01 -0.10559786382E+02  0.30082135038E+02  0.32395858924E+02  0.00000000000E+00 0. -1.
</event>
<event>
 8    1  0.7048627E-009  0.1103451E+03  0.7561462E-02  0.1259932E+00
         -1   -1    0    0    0  501 -0.00000000000E+00  0.00000000000E+00  0.40528704682E+02  0.40528704682E+02  0.00000000000E+00 0.  1.
          1   -1    0    0  501    0  0.00000000000E+00 -0.00000000000E+00 -0.35354621959E+03  0.35354621959E+03  0.00000000000E+00 0. -1.
         25    2    1    2    0    0  0.12910361894E+02  0.34304382698E+02 -0.24062496095E+03  0.27366304988E+03  0.12509046694E+03 0.  0.
         23    2    1    2    0    0 -0.12910361894E+02 -0.34304382698E+02 -0.72392553953E+02  0.12041187439E+03  0.88965552378E+02 0.  0.
          5    1    3    3  502    0 -0.11583205407E+02  0.75497575824E+02 -0.18457831968E+03  0.19980160935E+03  0.41800000000E+01 0. -1.
         -5    1    3    3    0  502  0.24493567301E+02 -0.41193193125E+02 -0.56046641271E+02  0.73861440527E+02  0.41800000000E+01 0. -1.
        -11    1    4    4    0    0  0.28692855939E+00  0.30223244824E+02 -0.19876636370E+02  0.36174680773E+02  0.00000000000E+00 0.  1.
         11    1    4    4    0    0 -0.13197290453E+02 -0.64527627522E+02 -0.52515917584E+02  0.84237193618E+02  0.00000000000E+00 0. -1.
</event>
<event>
 8    1  0.7048627E-009  0.9666288E+02  0.7561462E-02  0.1287474E+00
          1   -1    0    0  501    0  0.00000000000E+00  0.00000000000E+00  0.42533774739E+02  0.42533774739E+02  0.00000000000E+00 0. -1.
         -1   -1    0    0    0  501 -0.00000000000E+00 -0.00000000000E+00 -0.28647888345E+03  0.28647888345E+03  0.00000000000E+00 0.  1.
         25    2    1    2    0    0  0.87141078981E+01 -0.69782693697E+01 -0.12520761095E+03  0.17733954540E+03  0.12509091335E+03 0.  0.
         23    2    1    2    0    0 -0.87141078981E+01  0.69782693697E+01 -0.11873749776E+03  0.15167311279E+03  0.93709699863E+02 0.  0.
          5    1    3    3  502    0  0.52898210392E+02 -0.37592071883E+02 -0.39506986008E+02  0.76089807955E+02  0.41800000000E+01 0.  1.
         -5    1    3    3    0  502 -0.44184102494E+02  0.30613802513E+02 -0.85700624940E+02  0.10124973745E+03  0.41800000000E+01 0.  1.
        -11    1    4    4    0    0  0.10167195417E+02 -0.30643608326E+02 -0.10092843133E+03  0.10596674405E+03  0.00000000000E+00 0.  1.
         11    1    4    4    0    0 -0.18881303315E+02  0.37621877695E+02 -0.17809066434E+02  0.45706368741E+02  0.00000000000E+00 0. -1.
</event>
<event>
 8    1  0.7048627E-009  0.1620821E+03  0.7561462E-02  0.1186366E+00
         -3   -1    0    0    0  501 -0.00000000000E+00  0.00000000000E+00  0.12931614442E+03  0.12931614442E+03  0.00000000000E+00 0.  1.
          3   -1    0    0  501    0  0.00000000000E+00 -0.00000000000E+00 -0.34046035283E+03  0.34046035283E+03  0.00000000000E+00 0. -1.
         25    2    1    2    0    0 -0.11965621220E+03  0.93028676922E+02 -0.21605985819E+03  0.29206384939E+03  0.12508991146E+03 0.  0.
         23    2    1    2    0    0  0.11965621220E+03 -0.93028676922E+02  0.49156497771E+01  0.17771264786E+03  0.92658932369E+02 0.  0.
          5    1    3    3  502    0 -0.63472181163E+02  0.86950284146E+02 -0.20877262359E+03  0.23493094827E+03  0.41800000000E+01 0. -1.
         -5    1    3    3    0  502 -0.56184031037E+02  0.60783927770E+01 -0.72872346072E+01  0.57132901122E+02  0.41800000000E+01 0. -1.
        -11    1    4    4    0    0  0.40985316362E+02 -0.43446834923E+01  0.36471907438E+02  0.55035192960E+02  0.00000000000E+00 0.  1.
         11    1    4    4    0    0  0.78670895838E+02 -0.88683993430E+02 -0.31556257660E+02  0.12267745490E+03  0.00000000000E+00 0. -1.
</event>
<event>
 8    1  0.7048627E-009  0.1301747E+03  0.7561462E-02  0.1227197E+00
         -2   -1    0    0    0  501 -0.00000000000E+00  0.00000000000E+00  0.39868119447E+02  0.39868119447E+02  0.00000000000E+00 0.  1.
          2   -1    0    0  501    0  0.00000000000E+00 -0.00000000000E+00 -0.52504118202E+03  0.52504118202E+03  0.00000000000E+00 0. -1.
         25    2    1    2    0    0 -0.42946081340E+02  0.83710643569E+02 -0.30847843098E+03  0.34591637737E+03  0.12508940802E+03 0.  0.
         23    2    1    2    0    0  0.42946081340E+02 -0.83710643569E+02 -0.17669463159E+03  0.21899292410E+03  0.88797917904E+02 0.  0.
          5    1    3    3  502    0  0.21626703824E+02  0.77175141752E+02 -0.23218268779E+03  0.24566234904E+03  0.41800000000E+01 0.  1.
         -5    1    3    3    0  502 -0.64572785163E+02  0.65355018165E+01 -0.76295743188E+02  0.10025402833E+03  0.41800000000E+01 0.  1.
        -11    1    4    4    0    0  0.56741356532E+02 -0.83867809789E+02 -0.17835737690E+03  0.20509691601E+03  0.00000000000E+00 0. -1.
         11    1    4    4    0    0 -0.13795275193E+02  0.15716622041E+00  0.16627453158E+01  0.13896008091E+02  0.00000000000E+00 0.  1.
</event>
<event>
 8    1  0.7048627E-009  0.7977644E+02  0.7561462E-02  0.1329687E+00
         -1   -1    0    0    0  501 -0.00000000000E+00  0.00000000000E+00  0.76524781001E+02  0.76524781001E+02  0.00000000000E+00 0.  1.
          1   -1    0    0  501    0  0.00000000000E+00 -0.00000000000E+00 -0.20965249447E+03  0.20965249447E+03  0.00000000000E+00 0. -1.
         25    2    1    2    0    0  0.55848409693E+02  0.15027421322E+02 -0.39488398220E+02  0.14335974907E+03  0.12509122992E+03 0.  0.
         23    2    1    2    0    0 -0.55848409693E+02 -0.15027421322E+02 -0.93639315253E+02  0.14281752640E+03  0.91014593499E+02 0.  0.
          5    1    3    3  502    0  0.32144858833E+02  0.22970188475E+02  0.42123144430E+02  0.57902963695E+02  0.41800000000E+01 0. -1.
         -5    1    3    3    0  502  0.23703550860E+02 -0.79427671531E+01 -0.81611542650E+02  0.85456785378E+02  0.41800000000E+01 0. -1.
        -11    1    4    4    0    0 -0.37145699362E+02 -0.45491678719E+02 -0.89196001389E+02  0.10679523621E+03  0.00000000000E+00 0.  1.
         11    1    4    4    0    0 -0.18702710332E+02  0.30464257397E+02 -0.44433138638E+01  0.36022290191E+02  0.00000000000E+00 0. -1.
</event>
<event>
 8    1  0.7048627E-009  0.1768298E+03  0.7561462E-02  0.1170907E+00
         -2   -1    0    0    0  501 -0.00000000000E+00  0.00000000000E+00  0.37519369003E+02  0.37519369003E+02  0.00000000000E+00 0.  1.
          2   -1    0    0  501    0  0.00000000000E+00 -0.00000000000E+00 -0.97896274961E+03  0.97896274961E+03  0.00000000000E+00 0. -1.
         25    2    1    2    0    0 -0.85518931145E+02 -0.12775658739E+03 -0.50198957364E+03  0.53970031556E+03  0.12509062860E+03 0.  0.
         23    2    1    2    0    0  0.85518931145E+02  0.12775658739E+03 -0.43945380697E+03  0.47678180306E+03  0.10279107968E+03 0.  0.
          5    1    3    3  502    0 -0.92757757283E+02 -0.73002375337E+02 -0.19678659133E+03  0.22951205473E+03  0.41800000000E+01 0. -1.
         -5    1    3    3    0  502  0.72388261382E+01 -0.54754212053E+02 -0.30520298231E+03  0.31018826082E+03  0.41800000000E+01 0. -1.
        -11    1    4    4    0    0  0.41947421926E+02 -0.32714083387E+01 -0.62587965957E+02  0.75415792785E+02  0.00000000000E+00 0.  1.
         11    1    4    4    0    0  0.43571509219E+02  0.13102799573E+03 -0.37686584101E+03  0.40136601027E+03  0.00000000000E+00 0. -1.
</event>
<event>
 8    1  0.7048627E-009  0.2532784E+03  0.7561462E-02  0.1111250E+00
         -1   -1    0    0    0  501 -0.00000000000E+00  0.00000000000E+00  0.20429197712E+03  0.20429197712E+03  0.00000000000E+00 0.  1.
          1   -1    0    0  501    0  0.00000000000E+00 -0.00000000000E+00 -0.37410672402E+03  0.37410672402E+03  0.00000000000E+00 0. -1.
         25    2    1    2    0    0 -0.21305328676E+03  0.10249012940E+03  0.10555815141E+02  0.26768172846E+03  0.12508458296E+03 0.  0.
         23    2    1    2    0    0  0.21305328676E+03 -0.10249012940E+03 -0.18037056204E+03  0.31071697267E+03  0.90086446438E+02 0.  0.
          5    1    3    3  502    0 -0.95844227855E+02 -0.16702384401E+02 -0.14980024859E+02  0.98523901682E+02  0.41800000000E+01 0. -1.
         -5    1    3    3    0  502 -0.11720905891E+03  0.11919251380E+03  0.25535840000E+02  0.16915782678E+03  0.41800000000E+01 0. -1.
        -11    1    4    4    0    0  0.18253975087E+03 -0.10625709705E+03 -0.11988449799E+03  0.24286544460E+03  0.00000000000E+00 0.  1.
         11    1    4    4    0    0  0.30513535890E+02  0.37669676487E+01 -0.60486064050E+02  0.67851528074E+02  0.00000000000E+00 0. -1.
</event>
<event>
 8    1  0.7048627E-009  0.1237367E+03  0.7561462E-02  0.1237057E+00
         -2   -1    0    0    0  501 -0.00000000000E+00  0.00000000000E+00  0.30023507046E+02  0.30023507046E+02  0.00000000000E+00 0.  1.
          2   -1    0    0  501    0  0.00000000000E+00 -0.00000000000E+00 -0.75757103281E+03  0.75757103281E+03  0.00000000000E+00 0. -1.
         25    2    1    2    0    0  0.10617263430E+02 -0.79619653213E+02 -0.57071935441E+03  0.58975919476E+03  0.12507322192E+03 0.  0.
         23    2    1    2    0    0 -0.10617263430E+02  0.79619653213E+02 -0.15682817135E+03  0.19783534510E+03  0.89954060389E+02 0.  0.
          5    1    3    3  502    0 -0.48533296703E+02 -0.42417057092E+02 -0.15089225044E+03  0.16413601452E+03  0.41800000000E+01 0. -1.
         -5    1    3    3    0  502  0.59150560133E+02 -0.37202596121E+02 -0.41982710397E+03  0.42562318023E+03  0.41800000000E+01 0. -1.
        -11    1    4    4    0    0 -0.62606069976E+01 -0.15989065253E+02 -0.57040489384E+02  0.59568975456E+02  0.00000000000E+00 0. -1.
         11    1    4    4    0    0 -0.43566564323E+01  0.95608718466E+02 -0.99787681971E+02  0.13826636965E+03  0.00000000000E+00 0.  1.
</event>
<event>
 8    1  0.7048627E-009  0.1478514E+03  0.7561462E-02  0.1203138E+00
         -1   -1    0    0    0  501 -0.00000000000E+00  0.00000000000E+00  0.25211155604E+02  0.25211155604E+02  0.00000000000E+00 0.  1.
          1   -1    0    0  501    0  0.00000000000E+00 -0.00000000000E+00 -0.12389134051E+04  0.12389134051E+04  0.00000000000E+00 0. -1.
         25    2    1    2    0    0  0.88730262054E+02 -0.77497398540E+02 -0.90322327429E+03  0.91942310127E+03  0.12509056618E+03 0.  0.
         23    2    1    2    0    0 -0.88730262054E+02  0.77497398540E+02 -0.31047897522E+03  0.34470145945E+03  0.92428328486E+02 0.  0.
          5    1    3    3  502    0  0.11917624155E+03 -0.49898890774E+02 -0.72882705822E+03  0.74020215417E+03  0.41800000000E+01 0. -1.
         -5    1    3    3    0  502 -0.30445979498E+02 -0.27598507766E+02 -0.17439621607E+03  0.17922094709E+03  0.41800000000E+01 0. -1.
        -11    1    4    4    0    0 -0.90766406904E+02  0.62995678186E+02 -0.31100594088E+03  0.33004801372E+03  0.00000000000E+00 0. -1.
         11    1    4    4    0    0  0.20361448508E+01  0.14501720353E+02  0.52696566136E+00  0.14653445734E+02  0.00000000000E+00 0.  1.
</event>
<event>
 8    1  0.7048627E-009  0.2400260E+03  0.7561462E-02  0.1119776E+00
         -1   -1    0    0    0  501 -0.00000000000E+00  0.00000000000E+00  0.16101661999E+03  0.16101661999E+03  0.00000000000E+00 0.  1.
          1   -1    0    0  501    0  0.00000000000E+00 -0.00000000000E+00 -0.48334562924E+03  0.48334562924E+03  0.00000000000E+00 0. -1.
         25    2    1    2    0    0 -0.15148647890E+03 -0.18093488062E+03 -0.28164411516E+03  0.38814560284E+03  0.12509203446E+03 0.  0.
         23    2    1    2    0    0  0.15148647890E+03  0.18093488062E+03 -0.40684894083E+02  0.25621664639E+03  0.91137944713E+02 0.  0.
          5    1    3    3  502    0 -0.79542387675E+02 -0.12870401848E+03 -0.88131885370E+02  0.17514684533E+03  0.41800000000E+01 0.  1.
         -5    1    3    3    0  502 -0.71944091227E+02 -0.52230862134E+02 -0.19351222979E+03  0.21299875751E+03  0.41800000000E+01 0.  1.
        -11    1    4    4    0    0  0.84345882222E+02  0.13185519372E+03 -0.65126198155E+02  0.16953301049E+03  0.00000000000E+00 0. -1.
         11    1    4    4    0    0  0.67140596680E+02  0.49079686896E+02  0.24441304072E+02  0.86683635902E+02  0.00000000000E+00 0.  1.
</event>
<event>
 8    1  0.7048627E-009  0.7055038E+02  0.7561462E-02  0.1358231E+00
          1   -1    0    0  501    0  0.00000000000E+00  0.00000000000E+00  0.96423743824E+02  0.96423743824E+02  0.00000000000E+00 0. -1.
         -1   -1    0    0    0  501 -0.00000000000E+00 -0.00000000000E+00 -0.13201041212E+03  0.13201041212E+03  0.00000000000E+00 0.  1.
         25    2    1    2    0    0  0.20796960034E+02 -0.54058460264E+01 -0.69087797655E+01  0.12710486332E+03  0.12508468461E+03 0.  0.
         23    2    1    2    0    0 -0.20796960034E+02  0.54058460264E+01 -0.28677888532E+02  0.10132929263E+03  0.94781156015E+02 0.  0.
          5    1    3    3  502    0  0.39311519328E+02  0.46721044187E+02  0.21385387595E+02  0.64831001260E+02  0.41800000000E+01 0.  1.
         -5    1    3    3    0  502 -0.18514559293E+02 -0.52126890214E+02 -0.28294167360E+02  0.62273862059E+02  0.41800000000E+01 0.  1.
        -11    1    4    4    0    0 -0.12531610315E+02 -0.27301751606E+01 -0.63419264014E+02  0.64703154186E+02  0.00000000000E+00 0.  1.
         11    1    4    4    0    0 -0.82653497198E+01  0.81360211870E+01  0.34741375482E+02  0.36626138441E+02  0.00000000000E+00 0. -1.
</event>
<event>
 8    1  0.7048627E-009  0.1088462E+03  0.7561462E-02  0.1262722E+00
         -2   -1    0    0    0  501 -0.00000000000E+00  0.00000000000E+00  0.18202917919E+02  0.18202917919E+02  0.00000000000E+00 0.  1.
          2   -1    0    0  501    0  0.00000000000E+00 -0.00000000000E+00 -0.69129328186E+03  0.69129328186E+03  0.00000000000E+00 0. -1.
         25    2    1    2    0    0  0.25132282833E+02 -0.17455090191E+02 -0.38221775739E+03  0.40332777271E+03  0.12508623570E+03 0.  0.
         23    2    1    2    0    0 -0.25132282833E+02  0.17455090191E+02 -0.29087260655E+03  0.30616842707E+03  0.90531324293E+02 0.  0.
          5    1    3    3  502    0 -0.29342215588E+02 -0.53081508207E+02 -0.14321079477E+03  0.15558089943E+03  0.41800000000E+01 0. -1.
         -5    1    3    3    0  502  0.54474498421E+02  0.35626418016E+02 -0.23900696263E+03  0.24774687328E+03  0.41800000000E+01 0. -1.
        -11    1    4    4    0    0  0.15404886407E+01 -0.33830647963E+02 -0.68629947008E+02  0.76530748547E+02  0.00000000000E+00 0.  1.
         11    1    4    4    0    0 -0.26672771473E+02  0.51285738154E+02 -0.22224265954E+03  0.22963767852E+03  0.00000000000E+00 0. -1.
</event>
<event>
 8    1  0.7048627E-009  0.9851577E+02  0.7561462E-02  0.1283448E+00
          1   -1    0    0  501    0  0.00000000000E+00  0.00000000000E+00  0.54505186085E+03  0.54505186085E+03  0.00000000000E+00 0. -1.
         -1   -1    0    0    0  501 -0.00000000000E+00 -0.00000000000E+00 -0.23685511246E+02  0.23685511246E+02  0.00000000000E+00 0.  1.
         25    2    1    2    0    0 -0.37584392170E+00 -0.26377309603E+02  0.27789507261E+03  0.30588788085E+03  0.12508325448E+03 0.  0.
         23    2    1    2    0    0  0.37584392170E+00  0.26377309603E+02  0.24347127700E+03  0.26284949125E+03  0.95476115365E+02 0.  0.
          5    1    3    3  502    0 -0.45258872915E+02  0.59104924529E+01  0.37614642341E+02  0.59292775420E+02  0.41800000000E+01 0. -1.
         -5    1    3    3    0  502  0.44883028993E+02 -0.32287802056E+02  0.24028043027E+03  0.24659510543E+03  0.41800000000E+01 0. -1.
        -11    1    4    4    0    0 -0.43621389052E+01  0.60823147472E+02  0.18533298218E+03  0.19510714443E+03  0.00000000000E+00 0.  1.
         11    1    4    4    0    0  0.47379828269E+01 -0.34445837869E+02  0.58138294813E+02  0.67742346811E+02  0.00000000000E+00 0. -1.
</event>
<event>
 8    1  0.7048627E-009  0.7791740E+02  0.7561462E-02  0.1335068E+00
          2   -1    0    0  501    0  0.00000000000E+00  0.00000000000E+00  0.58536090366E+03  0.58536090366E+03  0.00000000000E+00 0. -1.
         -2   -1    0    0    0  501 -0.00000000000E+00 -0.00000000000E+00 -0.24848896454E+02  0.24848896454E+02  0.00000000000E+00 0.  1.
         25    2    1    2    0    0 -0.26340244954E+02 -0.40910307598E+02  0.37539504668E+03  0.39866852197E+03  0.12509071737E+03 0.  0.
         23    2    1    2    0    0  0.26340244954E+02  0.40910307598E+02  0.18511696053E+03  0.21154127814E+03  0.90077530549E+02 0.  0.
          5    1    3    3  502    0  0.12664812140E+02 -0.37125899614E+02  0.26427880069E+02  0.47482998364E+02  0.41800000000E+01 0.  1.
         -5    1    3    3    0  502 -0.39005057094E+02 -0.37844079842E+01  0.34896716661E+03  0.35118552361E+03  0.41800000000E+01 0.  1.
        -11    1    4    4    0    0 -0.15382299238E+02 -0.37763689656E+01 -0.77102865517E+00  0.15857823860E+02  0.00000000000E+00 0. -1.
         11    1    4    4    0    0  0.41722544192E+02  0.44686676564E+02  0.18588798918E+03  0.19568345428E+03  0.00000000000E+00 0.  1.
</event>
<event>
 8    1  0.7048627E-009  0.1054492E+03  0.7561462E-02  0.1269237E+00
         -1   -1    0    0    0  501 -0.00000000000E+00  0.00000000000E+00  0.69008387674E+03  0.69008387674E+03  0.00000000000E+00 0.  1.
          1   -1    0    0  501    0  0.00000000000E+00 -0.00000000000E+00 -0.19028694030E+02  0.19028694030E+02  0.00000000000E+00 0. -1.
         25    2    1    2    0    0 -0.10354686052E+01  0.14357993782E+02  0.27851454031E+03  0.30565498776E+03  0.12508956071E+03 0.  0.
         23    2    1    2    0    0  0.10354686052E+01 -0.14357993782E+02  0.39254064241E+03  0.40345758301E+03  0.92101254988E+02 0.  0.
          5    1    3    3  502    0 -0.48050826233E+02  0.45570156387E+02  0.18271857343E+03  0.19439411136E+03  0.41800000000E+01 0.  1.
         -5    1    3    3    0  502  0.47015357628E+02 -0.31212162606E+02  0.95795966872E+02  0.11126087640E+03  0.41800000000E+01 0.  1.
        -11    1    4    4    0    0  0.37907608308E+02 -0.29562602067E+02  0.27910345294E+03  0.28321312055E+03  0.00000000000E+00 0.  1.
         11    1    4    4    0    0 -0.36872139703E+02  0.15204608285E+02  0.11343718946E+03  0.12024446246E+03  0.00000000000E+00 0. -1.
</event>
<event>
 8    1  0.7048627E-009  0.1557244E+03  0.7561462E-02  0.1193610E+00
         -1   -1    0    0    0  501 -0.00000000000E+00  0.00000000000E+00  0.13503070944E+03  0.13503070944E+03  0.00000000000E+00 0.  1.
          1   -1    0    0  501    0  0.00000000000E+00 -0.00000000000E+00 -0.20621603097E+03  0.20621603097E+03  0.00000000000E+00 0. -1.
         25    2    1    2    0    0  0.11037549893E+03  0.74100320809E+00  0.22157691515E+02  0.16828987430E+03  0.12508884303E+03 0.  0.
         23    2    1    2    0    0 -0.11037549893E+03 -0.74100320809E+00 -0.93343013044E+02  0.17295686612E+03  0.94962411527E+02 0.  0.
          5    1    3    3  502    0  0.27127070710E+01 -0.48137409497E+02  0.93078134464E+01  0.49281606750E+02  0.41800000000E+01 0. -1.
         -5    1    3    3    0  502  0.10766279186E+03  0.48878412705E+02  0.12849878069E+02  0.11900826755E+03  0.41800000000E+01 0. -1.
        -11    1    4    4    0    0 -0.38560034761E+02 -0.45869399901E+02 -0.48011196563E+02  0.76785110037E+02  0.00000000000E+00 0. -1.
         11    1    4    4    0    0 -0.71815464168E+02  0.45128396693E+02 -0.45331816481E+02  0.96171756078E+02  0.00000000000E+00 0.  1.
</event>
<event>
 8    1  0.7048627E-009  0.1015623E+03  0.7561462E-02  0.1277045E+00
          1   -1    0    0  501    0  0.00000000000E+00  0.00000000000E+00  0.89720071529E+02  0.89720071529E+02  0.00000000000E+00 0. -1.
         -1   -1    0    0    0  501 -0.00000000000E+00 -0.00000000000E+00 -0.15764696911E+03  0.15764696911E+03  0.00000000000E+00 0.  1.
         25    2    1    2    0    0  0.43459702317E+02  0.86995745624E+01 -0.16767682430E+02  0.13376143429E+03  0.12508612156E+03 0.  0.
         23    2    1    2    0    0 -0.43459702317E+02 -0.86995745624E+01 -0.51159215150E+02  0.11360560635E+03  0.91238918099E+02 0.  0.
          5    1    3    3  502    0  0.87187869343E+02  0.77741747481E+01 -0.28770758978E+01  0.87680740869E+02  0.41800000000E+01 0. -1.
         -5    1    3    3    0  502 -0.43728167027E+02  0.92539981431E+00 -0.13890606532E+02  0.46080693421E+02  0.41800000000E+01 0. -1.
        -11    1    4    4    0    0 -0.38059097850E+02 -0.30701568828E+02 -0.69138586386E+02  0.84683087952E+02  0.00000000000E+00 0.  1.
         11    1    4    4    0    0 -0.54006044664E+01  0.22001994266E+02  0.17979371236E+02  0.28922518395E+02  0.00000000000E+00 0. -1.
</event>
<event>
 8    1  0.7048627E-009  0.8785270E+02  0.7561462E-02  0.1308137E+00
          3   -1    0    0  501    0  0.00000000000E+00  0.00000000000E+00  0.40255166568E+02  0.40255166568E+02  0.00000000000E+00 0. -1.
         -3   -1    0    0    0  501 -0.00000000000E+00 -0.00000000000E+00 -0.38866615085E+03  0.38866615085E+03  0.00000000000E+00 0.  1.
         25    2    1    2    0    0  0.21436508750E+02  0.21444603540E+02 -0.11379421921E+03  0.17180315684E+03  0.12509118852E+03 0.  0.
         23    2    1    2    0    0 -0.21436508750E+02 -0.21444603540E+02 -0.23461676507E+03  0.25711816057E+03  0.10072401460E+03 0.  0.
          5    1    3    3  502    0 -0.26278198053E+02  0.42913155573E+01  0.16724092429E+02  0.31719501095E+02  0.41800000000E+01 0.  1.
         -5    1    3    3    0  502  0.47714706803E+02  0.17153287983E+02 -0.13051831164E+03  0.14008365575E+03  0.41800000000E+01 0.  1.
        -11    1    4    4    0    0 -0.22483031997E+02  0.34903989972E+02 -0.55284833737E+02  0.69138904280E+02  0.00000000000E+00 0. -1.
         11    1    4    4    0    0  0.10465232464E+01 -0.56348593512E+02 -0.17933193133E+03  0.18797925629E+03  0.00000000000E+00 0.  1.
</event>
<event>
 8    1  0.7048627E-009  0.1103143E+03  0.7561462E-02  0.1259989E+00
          1   -1    0    0  501    0  0.00000000000E+00  0.00000000000E+00  0.51671602767E+02  0.51671602767E+02  0.00000000000E+00 0. -1.
         -1   -1    0    0    0  501 -0.00000000000E+00 -0.00000000000E+00 -0.42817256197E+03  0.42817256197E+03  0.00000000000E+00 0.  1.
         25    2    1    2    0    0 -0.56262961128E+02 -0.58811948164E+02 -0.30214677327E+03  0.33699312247E+03  0.12508927193E+03 0.  0.
         23    2    1    2    0    0  0.56262961128E+02  0.58811948164E+02 -0.74354185933E+02  0.14285104227E+03  0.90848826460E+02 0.  0.
          5    1    3    3  502    0 -0.36693386273E+02  0.15793034538E+02 -0.22229898654E+03  0.22589850897E+03  0.41800000000E+01 0. -1.
         -5    1    3    3    0  502 -0.19569574855E+02 -0.74604982702E+02 -0.79847786728E+02  0.11109461350E+03  0.41800000000E+01 0. -1.
        -11    1    4    4    0    0 -0.14280022161E+02  0.95245960404E+01 -0.50812598031E+02  0.53633544366E+02  0.00000000000E+00 0.  1.
         11    1    4    4    0    0  0.70542983289E+02  0.49287352124E+02 -0.23541587902E+02  0.89217497900E+02  0.00000000000E+00 0. -1.
</event>
<event>
 8    1  0.7048627E-009  0.1232931E+03  0.7561462E-02  0.1237761E+00
         -2   -1    0    0    0  501 -0.00000000000E+00  0.00000000000E+00  0.11544654929E+03  0.11544654929E+03  0.00000000000E+00 0.  1.
          2   -1    0    0  501    0  0.00000000000E+00 -0.00000000000E+00 -0.21106565808E+03  0.21106565808E+03  0.00000000000E+00 0. -1.
         25    2    1    2    0    0 -0.97224273825E+01 -0.83519435948E+02  0.29601550720E+02  0.15359965735E+03  0.12508629485E+03 0.  0.
         23    2    1    2    0    0  0.97224273825E+01  0.83519435948E+02 -0.12522065951E+03  0.17291255002E+03  0.84548888885E+02 0.  0.
          5    1    3    3  502    0 -0.58923825839E+02 -0.33856971972E+02 -0.16112636628E+02  0.69967144159E+02  0.41800000000E+01 0. -1.
         -5    1    3    3    0  502  0.49201398457E+02 -0.49662463976E+02  0.45714187347E+02  0.83632513194E+02  0.41800000000E+01 0. -1.
        -11    1    4    4    0    0 -0.27693156763E+02  0.18038503206E+02 -0.88041905957E+01  0.34202518935E+02  0.00000000000E+00 0.  1.
         11    1    4    4    0    0  0.37415584146E+02  0.65480932741E+02 -0.11641646892E+03  0.13871003109E+03  0.00000000000E+00 0. -1.
</event>
<event>
 8    1  0.7048627E-009  0.1350524E+03  0.7561462E-02  0.1220146E+00
          1   -1    0    0  501    0  0.00000000000E+00  0.00000000000E+00  0.16395570994E+03  0.16395570994E+03  0.00000000000E+00 0. -1.
         -1   -1    0    0    0  501 -0.00000000000E+00 -0.00000000000E+00 -0.19048519070E+03  0.19048519070E+03  0.00000000000E+00 0.  1.
         25    2    1    2    0    0  0.10554309371E+03  0.25217761976E+02 -0.10347728284E+03  0.19527668434E+03  0.12510058047E+03 0.  0.
         23    2    1    2    0    0 -0.10554309371E+03 -0.25217761976E+02  0.76947802088E+02  0.15916421630E+03  0.87389949971E+02 0.  0.
          5    1    3    3  502    0 -0.30234664534E+01 -0.32586058302E+02  0.21975864125E+01  0.33065001605E+02  0.41800000000E+01 0. -1.
         -5    1    3    3    0  502  0.10856656016E+03  0.57803820278E+02 -0.10567486925E+03  0.16221168274E+03  0.41800000000E+01 0. -1.
        -11    1    4    4    0    0 -0.78183195406E+02 -0.20744935806E+01  0.45023249602E+01  0.78340197202E+02  0.00000000000E+00 0.  1.
         11    1    4    4    0    0 -0.27359898302E+02 -0.23143268396E+02  0.72445477128E+02  0.80824019099E+02  0.00000000000E+00 0. -1.
</event>
<event>
 8    1  0.7048627E-009  0.1212893E+03  0.7561462E-02  0.1240985E+00
          1   -1    0    0  501    0  0.00000000000E+00  0.00000000000E+00  0.13795855415E+04  0.13795855415E+04  0.00000000000E+00 0. -1.
         -1   -1    0    0    0  501 -0.00000000000E+00 -0.00000000000E+00 -0.11088728379E+02  0.11088728379E+02  0.00000000000E+00 0.  1.
         25    2    1    2    0    0 -0.39937967343E+02  0.40991770363E+02  0.90339224071E+03  0.91380567536E+03  0.12509158759E+03 0.  0.
         23    2    1    2    0    0  0.39937967343E+02 -0.40991770363E+02  0.46510457243E+03  0.47686859453E+03  0.88351721448E+02 0.  0.
          5    1    3    3  502    0 -0.58429413555E+02 -0.28681612789E+02  0.40881534768E+03  0.41398561833E+03  0.41800000000E+01 0.  1.
         -5    1    3    3    0  502  0.18491446212E+02  0.69673383152E+02  0.49457689303E+03  0.49982005704E+03  0.41800000000E+01 0.  1.
        -11    1    4    4    0    0 -0.14654679620E+02 -0.47926680712E+02  0.23306403581E+03  0.23839163397E+03  0.00000000000E+00 0. -1.
         11    1    4    4    0    0  0.54592646963E+02  0.69349103497E+01  0.23204053662E+03  0.23847696056E+03  0.00000000000E+00 0.  1.
</event>
<event>
 8    1  0.7048627E-009  0.9417889E+02  0.7561462E-02  0.1293036E+00
         -1   -1    0    0    0  501 -0.00000000000E+00  0.00000000000E+00  0.56376587685E+02  0.56376587685E+02  0.00000000000E+00 0.  1.
          1   -1    0    0  501    0  0.00000000000E+00 -0.00000000000E+00 -0.24593965718E+03  0.24593965718E+03  0.00000000000E+00 0. -1.
         25    2    1    2    0    0  0.21710690725E+02  0.10097979818E+02 -0.15853797079E+03  0.20335923886E+03  0.12508944224E+03 0.  0.
         23    2    1    2    0    0 -0.21710690725E+02 -0.10097979818E+02 -0.31025098710E+02  0.98957006010E+02  0.90865884689E+02 0.  0.
          5    1    3    3  502    0  0.13962113182E+02  0.67582337053E+02 -0.89454109074E+02  0.11305672433E+03  0.41800000000E+01 0. -1.
         -5    1    3    3    0  502  0.77485775433E+01 -0.57484357236E+02 -0.69083861713E+02  0.90302514527E+02  0.41800000000E+01 0. -1.
        -11    1    4    4    0    0  0.16675265571E+02 -0.14924817312E+02  0.23272183018E+02  0.32286361765E+02  0.00000000000E+00 0.  1.
         11    1    4    4    0    0 -0.38385956295E+02  0.48268374940E+01 -0.54297281728E+02  0.66670644244E+02  0.00000000000E+00 0. -1.
</event>
<event>
 8    1  0.7048627E-009  0.1526301E+03  0.7561462E-02  0.1197278E+00
          2   -1    0    0  501    0  0.00000000000E+00  0.00000000000E+00  0.49345278648E+03  0.49345278648E+03  0.00000000000E+00 0. -1.
         -2   -1    0    0    0  501 -0.00000000000E+00 -0.00000000000E+00 -0.10620209639E+03  0.10620209639E+03  0.00000000000E+00 0.  1.
         25    2    1    2    0    0  0.86311651787E+02  0.92025088687E+02 -0.58256661751E+01  0.17776189397E+03  0.12508810646E+03 0.  0.
         23    2    1    2    0    0 -0.86311651787E+02 -0.92025088687E+02  0.39307635627E+03  0.42189298890E+03  0.86984792028E+02 0.  0.
          5    1    3    3  502    0  0.11293812868E+03  0.69059299834E+02 -0.28815494633E+02  0.13554339871E+03  0.41800000000E+01 0.  1.
         -5    1    3    3    0  502 -0.26626476891E+02  0.22965788853E+02  0.22989828458E+02  0.42218495257E+02  0.41800000000E+01 0.  1.
        -11    1    4    4    0    0 -0.71236961644E+02 -0.36841835346E+02  0.13063231700E+03  0.15328675018E+03  0.00000000000E+00 0.  1.
         11    1    4    4    0    0 -0.15074690142E+02 -0.55183253340E+02  0.26244403927E+03  0.26860623872E+03  0.00000000000E+00 0. -1.
</event>
<event>
 8    1  0.7048627E-009  0.1418124E+03  0.7561462E-02  0.1210911E+00
          1   -1    0    0  501    0  0.00000000000E+00  0.00000000000E+00  0.16643800110E+03  0.16643800110E+03  0.00000000000E+00 0. -1.
         -1   -1    0    0    0  501 -0.00000000000E+00 -0.00000000000E+00 -0.20050445514E+03  0.20050445514E+03  0.00000000000E+00 0.  1.
         25    2    1    2    0    0  0.16398070548E+02 -0.13060345115E+03 -0.80342330834E+02  0.19856701610E+03  0.12509121308E+03 0.  0.
         23    2    1    2    0    0 -0.16398070548E+02  0.13060345115E+03  0.46275876793E+02  0.16837544013E+03  0.94247938415E+02 0.  0.
          5    1    3    3  502    0  0.29509027011E+02 -0.23742785991E+02  0.26826490479E+02  0.46600810649E+02  0.41800000000E+01 0. -1.
         -5    1    3    3    0  502 -0.13110956463E+02 -0.10686066516E+03 -0.10716882131E+03  0.15196620545E+03  0.41800000000E+01 0. -1.
        -11    1    4    4    0    0 -0.28473307762E+02  0.11226875290E+03  0.70572131588E+02  0.13562974559E+03  0.00000000000E+00 0.  1.
         11    1    4    4    0    0  0.12075237214E+02  0.18334698253E+02 -0.24296254794E+02  0.32745694539E+02  0.00000000000E+00 0. -1.
</event>
<event>
 8    1  0.7048627E-009  0.1127626E+03  0.7561462E-02  0.1255538E+00
         -4   -1    0    0    0  501 -0.00000000000E+00  0.00000000000E+00  0.23963820639E+02  0.23963820639E+02  0.00000000000E+00 0.  1.
          4   -1    0    0  501    0  0.00000000000E+00 -0.00000000000E+00 -0.16337895515E+04  0.16337895515E+04  0.00000000000E+00 0. -1.
         25    2    1    2    0    0  0.19250106918E+02  0.18876543500E+02 -0.15124805684E+04  0.15178838045E+04  0.12508750442E+03 0.  0.
         23    2    1    2    0    0 -0.19250106918E+02 -0.18876543500E+02 -0.97345162430E+02  0.13986956758E+03  0.96749805037E+02 0.  0.
          5    1    3    3  502    0 -0.17658216784E+01  0.70918874794E+02 -0.76935348954E+03  0.77262854542E+03  0.41800000000E+01 0.  1.
         -5    1    3    3    0  502  0.21015928597E+02 -0.52042331294E+02 -0.74312707886E+03  0.74525525911E+03  0.41800000000E+01 0.  1.
        -11    1    4    4    0    0 -0.40373823900E+02  0.26385960928E+02 -0.33122491200E+02  0.58509520710E+02  0.00000000000E+00 0.  1.
         11    1    4    4    0    0  0.21123716981E+02 -0.45262504428E+02 -0.64222671231E+02  0.81360046867E+02  0.00000000000E+00 0. -1.
</event>
<event>
 8    1  0.7048627E-009  0.1025842E+03  0.7561462E-02  0.1274954E+00
         -2   -1    0    0    0  501 -0.00000000000E+00  0.00000000000E+00  0.89517059939E+02  0.89517059939E+02  0.00000000000E+00 0.  1.
          2   -1    0    0  501    0  0.00000000000E+00 -0.00000000000E+00 -0.25212374448E+03  0.25212374448E+03  0.00000000000E+00 0. -1.
         25    2    1    2    0    0  0.25684592322E+02 -0.19351325781E+01  0.26933727464E+02  0.13052209271E+03  0.12508856059E+03 0.  0.
         23    2    1    2    0    0 -0.25684592322E+02  0.19351325781E+01 -0.18954041200E+03  0.21111871170E+03  0.89342596943E+02 0.  0.
          5    1    3    3  502    0  0.49103995308E+02 -0.45387649323E+02  0.41594814481E+02  0.78859635163E+02  0.41800000000E+01 0. -1.
         -5    1    3    3    0  502 -0.23419402986E+02  0.43452516745E+02 -0.14661087017E+02  0.51662457551E+02  0.41800000000E+01 0. -1.
        -11    1    4    4    0    0 -0.22106926912E+02 -0.40449671789E+02 -0.66346387960E+02  0.80788213006E+02  0.00000000000E+00 0.  1.
         11    1    4    4    0    0 -0.35776654099E+01  0.42384804367E+02 -0.12319402404E+03  0.13033049870E+03  0.00000000000E+00 0. -1.
</event>
<event>
 8    1  0.7048627E-009  0.1905886E+03  0.7561462E-02  0.1157932E+00
         -1   -1    0    0    0  501 -0.00000000000E+00  0.00000000000E+00  0.48856801523E+02  0.48856801523E+02  0.00000000000E+00 0.  1.
          1   -1    0    0  501    0  0.00000000000E+00 -0.00000000000E+00 -0.83699980807E+03  0.83699980807E+03  0.00000000000E+00 0. -1.
         25    2    1    2    0    0 -0.16123633422E+03 -0.54933392576E+02 -0.42246456401E+03  0.47237750158E+03  0.12509741430E+03 0.  0.
         23    2    1    2    0    0  0.16123633422E+03  0.54933392576E+02 -0.36567844254E+03  0.41347910801E+03  0.90716130498E+02 0.  0.
          5    1    3    3  502    0 -0.29587319527E+02  0.28240499498E+02 -0.32366380617E+02  0.52325808956E+02  0.41800000000E+01 0. -1.
         -5    1    3    3    0  502 -0.13164901469E+03 -0.83173892074E+02 -0.39009818339E+03  0.42005169262E+03  0.41800000000E+01 0. -1.
        -11    1    4    4    0    0  0.11000822085E+03  0.11584371161E+01 -0.15485392693E+03  0.18995496655E+03  0.00000000000E+00 0.  1.
         11    1    4    4    0    0  0.51228113363E+02  0.53774955460E+02 -0.21082451561E+03  0.22352414146E+03  0.00000000000E+00 0. -1.
</event>
<event>
 8    1  0.7048627E-009  0.1031506E+03  0.7561462E-02  0.1273807E+00
          2   -1    0    0  501    0  0.00000000000E+00  0.00000000000E+00  0.11088131302E+03  0.11088131302E+03  0.00000000000E+00 0. -1.
         -2   -1    0    0    0  501 -0.00000000000E+00 -0.00000000000E+00 -0.14666301591E+03  0.14666301591E+03  0.00000000000E+00 0.  1.
         25    2    1    2    0    0 -0.21220799148E+02 -0.59766705768E+02 -0.38779785982E+02  0.14551161991E+03  0.12508948115E+03 0.  0.
         23    2    1    2    0    0  0.21220799148E+02  0.59766705768E+02  0.29980830954E+01  0.11203270901E+03  0.92303618300E+02 0.  0.
          5    1    3    3  502    0  0.27510716781E+02  0.28006983551E+02 -0.15165546799E+02  0.42292988487E+02  0.41800000000E+01 0. -1.
         -5    1    3    3    0  502 -0.48731515930E+02 -0.87773689319E+02 -0.23614239183E+02  0.10321863143E+03  0.41800000000E+01 0. -1.
        -11    1    4    4    0    0  0.24976952471E+02  0.50452266004E+02 -0.39236399924E+02  0.68620509898E+02  0.00000000000E+00 0.  1.
         11    1    4    4    0    0 -0.37561533233E+01  0.93144397641E+01  0.42234483019E+02  0.43412199113E+02  0.00000000000E+00 0. -1.
</event>
<event>
 8    1  0.7048627E-009  0.9339103E+02  0.7561462E-02  0.1294842E+00
          2   -1    0    0  501    0  0.00000000000E+00  0.00000000000E+00  0.57431752360E+02  0.57431752360E+02  0.00000000000E+00 0. -1.
         -2   -1    0    0    0  501 -0.00000000000E+00 -0.00000000000E+00 -0.29528769572E+03  0.29528769572E+03  0.00000000000E+00 0.  1.
         25    2    1    2    0    0  0.49162019913E+02  0.21302279575E+02 -0.19730322235E+03  0.23967844147E+03  0.12508598018E+03 0.  0.
         23    2    1    2    0    0 -0.49162019913E+02 -0.21302279575E+02 -0.40552721009E+02  0.11304100661E+03  0.90901345855E+02 0.  0.
          5    1    3    3  502    0  0.86388115182E+02  0.15233186722E+02 -0.17463968161E+03  0.19547748519E+03  0.41800000000E+01 0.  1.
         -5    1    3    3    0  502 -0.37226095269E+02  0.60690928528E+01 -0.22663540742E+02  0.44200956279E+02  0.41800000000E+01 0.  1.
        -11    1    4    4    0    0 -0.51693214648E+01 -0.15864718365E+02  0.27298121520E+02  0.31993727693E+02  0.00000000000E+00 0. -1.
         11    1    4    4    0    0 -0.43992698448E+02 -0.54375612098E+01 -0.67850842529E+02  0.81047278921E+02  0.00000000000E+00 0.  1.
</event>
<event>
 8    1  0.7048627E-009  0.1263508E+03  0.7561462E-02  0.1232973E+00
          2   -1    0    0  501    0  0.00000000000E+00  0.00000000000E+00  0.19840694710E+03  0.19840694710E+03  0.00000000000E+00 0. -1.
         -2   -1    0    0    0  501 -0.00000000000E+00 -0.00000000000E+00 -0.11714192749E+03  0.11714192749E+03  0.00000000000E+00 0.  1.
         25    2    1    2    0    0  0.79996434668E+02 -0.53813067857E+02  0.80660128566E+02  0.17733898192E+03  0.12509109615E+03 0.  0.
         23    2    1    2    0    0 -0.79996434668E+02  0.53813067857E+02  0.60489104372E+00  0.13820989267E+03  0.99026929204E+02 0.  0.
          5    1    3    3  502    0  0.17941380683E+02 -0.74371311541E+02  0.43109785913E+01  0.76740094198E+02  0.41800000000E+01 0. -1.
         -5    1    3    3    0  502  0.62055053985E+02  0.20558243684E+02  0.76349149975E+02  0.10059888772E+03  0.41800000000E+01 0. -1.
        -11    1    4    4    0    0 -0.92109195383E+01 -0.11176227724E+02 -0.33296949237E+02  0.36310273111E+02  0.00000000000E+00 0.  1.
         11    1    4    4    0    0 -0.70785515130E+02  0.64989295581E+02  0.33901840281E+02  0.10189961956E+03  0.00000000000E+00 0. -1.
</event>
<event>
 8    1  0.7048627E-009  0.3234897E+03  0.7561462E-02  0.1074054E+00
          2   -1    0    0  501    0  0.00000000000E+00  0.00000000000E+00  0.17162273126E+04  0.17162273126E+04  0.00000000000E+00 0. -1.
         -2   -1    0    0    0  501 -0.00000000000E+00 -0.00000000000E+00 -0.13189815648E+03  0.13189815648E+03  0.00000000000E+00 0.  1.
         25    2    1    2    0    0  0.28875794603E+03 -0.12916868153E+03  0.14532729392E+04  0.14925534206E+04  0.12509107866E+03 0.  0.
         23    2    1    2    0    0 -0.28875794603E+03  0.12916868153E+03  0.13105621695E+03  0.35557204847E+03  0.95864748332E+02 0.  0.
          5    1    3    3  502    0  0.13366756361E+03 -0.70506178275E+02  0.96757172084E+03  0.97931131215E+03  0.41800000000E+01 0.  1.
         -5    1    3    3    0  502  0.15509038242E+03 -0.58662503251E+02  0.48570121831E+03  0.51324210844E+03  0.41800000000E+01 0.  1.
        -11    1    4    4    0    0 -0.12207311011E+03  0.51687908490E+01  0.38196067535E+02  0.12801367187E+03  0.00000000000E+00 0. -1.
         11    1    4    4    0    0 -0.16668483592E+03  0.12399989068E+03  0.92860149414E+02  0.22755837661E+03  0.00000000000E+00 0.  1.
</event>
<event>
 8    1  0.7048627E-009  0.2311100E+03  0.7561462E-02  0.1125861E+00
         -2   -1    0    0    0  501 -0.00000000000E+00  0.00000000000E+00  0.52891881520E+02  0.52891881520E+02  0.00000000000E+00 0. -1.
          2   -1    0    0  501    0  0.00000000000E+00 -0.00000000000E+00 -0.11104322184E+04  0.11104322184E+04  0.00000000000E+00 0.  1.
         25    2    1    2    0    0 -0.99349386650E+02 -0.17763025221E+03 -0.70445295715E+03  0.74385793375E+03  0.12509136517E+03 0.  0.
         23    2    1    2    0    0  0.99349386650E+02  0.17763025221E+03 -0.35308737973E+03  0.41946616617E+03  0.99289272876E+02 0.  0.
          5    1    3    3  502    0  0.10101081493E+02  0.12915097517E+02 -0.82414831878E+02  0.84133872517E+02  0.41800000000E+01 0.  1.
         -5    1    3    3    0  502 -0.10945046814E+03 -0.19054534973E+03 -0.62203812527E+03  0.65972406123E+03  0.41800000000E+01 0.  1.
        -11    1    4    4    0    0  0.35843235546E+01  0.10566447571E+03 -0.14660389298E+03  0.18074991076E+03  0.00000000000E+00 0. -1.
         11    1    4    4    0    0  0.95765063096E+02  0.71965776501E+02 -0.20648348675E+03  0.23871625541E+03  0.00000000000E+00 0.  1.
</event>
<event>
 8    1  0.7048627E-009  0.2214896E+03  0.7561462E-02  0.1132777E+00
         -2   -1    0    0    0  501 -0.00000000000E+00  0.00000000000E+00  0.30397172516E+03  0.30397172516E+03  0.00000000000E+00 0.  1.
          2   -1    0    0  501    0  0.00000000000E+00 -0.00000000000E+00 -0.24031453755E+03  0.24031453755E+03  0.00000000000E+00 0. -1.
         25    2    1    2    0    0  0.20742833863E+03 -0.33964572822E+02  0.16321726017E+03  0.29405398415E+03  0.12509102167E+03 0.  0.
         23    2    1    2    0    0 -0.20742833863E+03  0.33964572822E+02 -0.99560072554E+02  0.25023227856E+03  0.92324846653E+02 0.  0.
          5    1    3    3  502    0  0.17152536880E+02 -0.38561939513E+02  0.70561533123E+02  0.82326393441E+02  0.41800000000E+01 0.  1.
         -5    1    3    3    0  502  0.19027580175E+03  0.45973666909E+01  0.92655727044E+02  0.21172759071E+03  0.41800000000E+01 0.  1.
        -11    1    4    4    0    0 -0.46189137167E+02  0.74623792322E+01  0.16712858868E+02  0.49683429305E+02  0.00000000000E+00 0.  1.
         11    1    4    4    0    0 -0.16123920147E+03  0.26502193590E+02 -0.11627293142E+03  0.20054884925E+03  0.00000000000E+00 0. -1.
</event>
<event>
 8    1  0.7048627E-009  0.4041106E+03  0.7561462E-02  0.1042366E+00
          2   -1    0    0  501    0  0.00000000000E+00  0.00000000000E+00  0.17188846826E+04  0.17188846826E+04  0.00000000000E+00 0. -1.
         -2   -1    0    0    0  501 -0.00000000000E+00 -0.00000000000E+00 -0.12375288849E+03  0.12375288849E+03  0.00000000000E+00 0.  1.
         25    2    1    2    0    0  0.39464275761E+03 -0.21578620706E+02  0.38296304997E+03  0.56437286881E+03  0.12508994525E+03 0.  0.
         23    2    1    2    0    0 -0.39464275761E+03  0.21578620706E+02  0.12121687441E+04  0.12782647023E+04  0.91646286317E+02 0.  0.
          5    1    3    3  502    0  0.15271037282E+03 -0.55436547273E+02  0.20751609405E+03  0.26357934371E+03  0.41800000000E+01 0. -1.
         -5    1    3    3    0  502  0.24193238479E+03  0.33857926567E+02  0.17544695592E+03  0.30079352510E+03  0.41800000000E+01 0. -1.
        -11    1    4    4    0    0 -0.22376355962E+03 -0.22544685099E+02  0.58508259625E+03  0.62681738798E+03  0.00000000000E+00 0.  1.
         11    1    4    4    0    0 -0.17087919799E+03  0.44123305806E+02  0.62708614787E+03  0.65144731428E+03  0.00000000000E+00 0. -1.
</event>
<event>
 8    1  0.7048627E-009  0.3912814E+03  0.7561462E-02  0.1046841E+00
         -2   -1    0    0    0  501 -0.00000000000E+00  0.00000000000E+00  0.32300540281E+03  0.32300540281E+03  0.00000000000E+00 0.  1.
          2   -1    0    0  501    0  0.00000000000E+00 -0.00000000000E+00 -0.48765281274E+03  0.48765281274E+03  0.00000000000E+00 0. -1.
         25    2    1    2    0    0 -0.18533349453E+02  0.38093807499E+03 -0.61540652067E+02  0.40607032714E+03  0.12509419134E+03 0.  0.
         23    2    1    2    0    0  0.18533349453E+02 -0.38093807499E+03 -0.10310675787E+03  0.40458788841E+03  0.87195492475E+02 0.  0.
          5    1    3    3  502    0  0.21383441443E+02  0.34752067051E+03 -0.62841604577E+02  0.35382821774E+03  0.41800000000E+01 0.  1.
         -5    1    3    3    0  502 -0.39916790896E+02  0.33417404481E+02  0.13009525100E+01  0.52242109406E+02  0.41800000000E+01 0.  1.
        -11    1    4    4    0    0 -0.52636860616E+01 -0.11924038220E+03  0.72535265843E+01  0.11957670671E+03  0.00000000000E+00 0.  1.
         11    1    4    4    0    0  0.23797035514E+02 -0.26169769279E+03 -0.11036028445E+03  0.28501118170E+03  0.00000000000E+00 0. -1.
</event>
<event>
 8    1  0.7048627E-009  0.1058337E+03  0.7561462E-02  0.1268486E+00
         -1   -1    0    0    0  501 -0.00000000000E+00  0.00000000000E+00  0.48279175438E+02  0.48279175438E+02  0.00000000000E+00 0.  1.
          1   -1    0    0  501    0  0.00000000000E+00 -0.00000000000E+00 -0.26442666498E+03  0.26442666498E+03  0.00000000000E+00 0. -1.
         25    2    1    2    0    0 -0.86369325467E+01 -0.30361167492E+02 -0.12691764331E+03  0.18097500723E+03  0.12508983957E+03 0.  0.
         23    2    1    2    0    0  0.86369325467E+01  0.30361167492E+02 -0.89229846234E+02  0.13173083319E+03  0.91622321831E+02 0.  0.
          5    1    3    3  502    0  0.31417003644E+02 -0.64306348425E+02 -0.48668750756E+02  0.86651337357E+02  0.41800000000E+01 0.  1.
         -5    1    3    3    0  502 -0.40053936190E+02  0.33945180933E+02 -0.78248892552E+02  0.94323669874E+02  0.41800000000E+01 0.  1.
        -11    1    4    4    0    0 -0.32476097333E+02 -0.52701441224E+01 -0.78235314719E+01  0.33818322870E+02  0.00000000000E+00 0.  1.
         11    1    4    4    0    0  0.41113029880E+02  0.35631311615E+02 -0.81406314762E+02  0.97912510316E+02  0.00000000000E+00 0. -1.
</event>
<event>
 8    1  0.7048627E-009  0.9679206E+02  0.7561462E-02  0.1287190E+00
         -1   -1    0    0    0  501 -0.00000000000E+00  0.00000000000E+00  0.20485460714E+03  0.20485460714E+03  0.00000000000E+00 0.  1.
          1   -1    0    0  501    0  0.00000000000E+00 -0.00000000000E+00 -0.68373152639E+02  0.68373152639E+02  0.00000000000E+00 0. -1.
         25    2    1    2    0    0 -0.40509366703E+02  0.12490314976E+02  0.10317377173E+03  0.16760541491E+03  0.12509888558E+03 0.  0.
         23    2    1    2    0    0  0.40509366703E+02 -0.12490314976E+02  0.33307682763E+02  0.10562234487E+03  0.90827645824E+02 0.  0.
          5    1    3    3  502    0 -0.82804696558E+02  0.19730831560E+02  0.86351839973E+02  0.12132615609E+03  0.41800000000E+01 0.  1.
         -5    1    3    3    0  502  0.42295329854E+02 -0.72405165836E+01  0.16821931762E+02  0.46279258811E+02  0.41800000000E+01 0.  1.
        -11    1    4    4    0    0  0.41595840765E+01  0.17582433705E+02  0.51868593629E+02  0.54925359532E+02  0.00000000000E+00 0.  1.
         11    1    4    4    0    0  0.36349782627E+02 -0.30072748681E+02 -0.18560910866E+02  0.50696985338E+02  0.00000000000E+00 0. -1.
</event>
<event>
 8    1  0.7048627E-009  0.3262852E+03  0.7561462E-02  0.1072792E+00
          2   -1    0    0  501    0  0.00000000000E+00  0.00000000000E+00  0.45686443283E+03  0.45686443283E+03  0.00000000000E+00 0. -1.
         -2   -1    0    0    0  501 -0.00000000000E+00 -0.00000000000E+00 -0.27084721654E+03  0.27084721654E+03  0.00000000000E+00 0.  1.
         25    2    1    2    0    0 -0.25766169782E+03 -0.19568591887E+03  0.45963623757E+01  0.34691561580E+03  0.12508712392E+03 0.  0.
         23    2    1    2    0    0  0.25766169782E+03  0.19568591887E+03  0.18142085392E+03  0.38079603357E+03  0.86078821906E+02 0.  0.
          5    1    3    3  502    0 -0.18794244279E+03 -0.10782208796E+03 -0.49531967104E+02  0.22230351463E+03  0.41800000000E+01 0.  1.
         -5    1    3    3    0  502 -0.69719255030E+02 -0.87863830910E+02  0.54128329480E+02  0.12461210116E+03  0.41800000000E+01 0.  1.
        -11    1    4    4    0    0  0.13203477869E+03  0.10438511495E+03  0.45345266816E+02  0.17431473899E+03  0.00000000000E+00 0.  1.
         11    1    4    4    0    0  0.12562691913E+03  0.91300803918E+02  0.13607558710E+03  0.20648129458E+03  0.00000000000E+00 0. -1.
</event>
<event>
 8    1  0.7048627E-009  0.9540947E+02  0.7561462E-02  0.1290257E+00
         -2   -1    0    0    0  501 -0.00000000000E+00  0.00000000000E+00  0.11541124531E+03  0.11541124531E+03  0.00000000000E+00 0.  1.
          2   -1    0    0  501    0  0.00000000000E+00 -0.00000000000E+00 -0.15959630439E+03  0.15959630439E+03  0.00000000000E+00 0. -1.
         25    2    1    2    0    0  0.76010711391E+02  0.12533612933E+02 -0.11558468615E+01  0.14691496687E+03  0.12509177355E+03 0.  0.
         23    2    1    2    0    0 -0.76010711391E+02 -0.12533612933E+02 -0.43029212212E+02  0.12809258283E+03  0.92851908828E+02 0.  0.
          5    1    3    3  502    0  0.54482897447E+02 -0.91803714481E+01  0.57987481901E+02  0.80204026030E+02  0.41800000000E+01 0.  1.
         -5    1    3    3    0  502  0.21527813944E+02  0.21713984381E+02 -0.59143328763E+02  0.66710940842E+02  0.41800000000E+01 0.  1.
        -11    1    4    4    0    0 -0.99971293954E+01  0.26177939797E+02  0.15248213380E+02  0.31901961373E+02  0.00000000000E+00 0.  1.
         11    1    4    4    0    0 -0.66013581996E+02 -0.38711552730E+02 -0.58277425591E+02  0.96190621457E+02  0.00000000000E+00 0. -1.
</event>
<event>
 8    1  0.7048627E-009  0.1214508E+03  0.7561462E-02  0.1240723E+00
          2   -1    0    0  501    0  0.00000000000E+00  0.00000000000E+00  0.96980713439E+03  0.96980713439E+03  0.00000000000E+00 0. -1.
         -2   -1    0    0    0  501 -0.00000000000E+00 -0.00000000000E+00 -0.18229156761E+02  0.18229156761E+02  0.00000000000E+00 0.  1.
         25    2    1    2    0    0 -0.48572623054E+01  0.64487626178E+02  0.35339186575E+03  0.38041556520E+03  0.12509174449E+03 0.  0.
         23    2    1    2    0    0  0.48572623054E+01 -0.64487626178E+02  0.59818611188E+03  0.60762072595E+03  0.84817894544E+02 0.  0.
          5    1    3    3  502    0  0.43939294513E+02 -0.11946237152E+02  0.77625814138E+02  0.90092250526E+02  0.41800000000E+01 0. -1.
         -5    1    3    3    0  502 -0.48796556818E+02  0.76433863329E+02  0.27576605161E+03  0.29032331468E+03  0.41800000000E+01 0. -1.
        -11    1    4    4    0    0  0.43530283397E+02 -0.46662101476E+02  0.37934814458E+03  0.38467811490E+03  0.00000000000E+00 0.  1.
         11    1    4    4    0    0 -0.38673021092E+02 -0.17825524702E+02  0.21883796730E+03  0.22294261105E+03  0.00000000000E+00 0. -1.
</event>
<event>
 8    1  0.7048627E-009  0.1043400E+03  0.7561462E-02  0.1271425E+00
         -1   -1    0    0    0  501 -0.00000000000E+00  0.00000000000E+00  0.22949284681E+03  0.22949284681E+03  0.00000000000E+00 0.  1.
          1   -1    0    0  501    0  0.00000000000E+00 -0.00000000000E+00 -0.11840158563E+03  0.11840158563E+03  0.00000000000E+00 0. -1.
         25    2    1    2    0    0 -0.21414518271E+01 -0.13180546015E+02 -0.71328889910E+02  0.14461418409E+03  0.12508852503E+03 0.  0.
         23    2    1    2    0    0  0.21414518271E+01  0.13180546015E+02  0.18242015109E+03  0.20328024835E+03  0.88698563895E+02 0.  0.
          5    1    3    3  502    0 -0.13576298734E+02  0.51373874589E+02 -0.89960587176E+01  0.54055456247E+02  0.41800000000E+01 0. -1.
         -5    1    3    3    0  502  0.11434846907E+02 -0.64554420604E+02 -0.62332831192E+02  0.90558727839E+02  0.41800000000E+01 0. -1.
        -11    1    4    4    0    0 -0.42410840816E+02 -0.24237137219E+01  0.88073932685E+02  0.97783288069E+02  0.00000000000E+00 0.  1.
         11    1    4    4    0    0  0.44552292643E+02  0.15604259737E+02  0.94346218401E+02  0.10549696028E+03  0.00000000000E+00 0. -1.
</event>
<event>
 8    1  0.7048627E-009  0.1550576E+03  0.7561462E-02  0.1194392E+00
         -1   -1    0    0    0  501 -0.00000000000E+00  0.00000000000E+00  0.91332147910E+02  0.91332147910E+02  0.00000000000E+00 0.  1.
          1   -1    0    0  501    0  0.00000000000E+00 -0.00000000000E+00 -0.29012426288E+03  0.29012426288E+03  0.00000000000E+00 0. -1.
         25    2    1    2    0    0 -0.44108710318E+02  0.10534697459E+03 -0.58364065202E+02  0.17915601777E+03  0.12508777403E+03 0.  0.
         23    2    1    2    0    0  0.44108710318E+02 -0.10534697459E+03 -0.14042804977E+03  0.20230039303E+03  0.90342949223E+02 0.  0.
          5    1    3    3  502    0  0.35294964742E+02  0.69813010613E+02 -0.46918266348E+02  0.91314769364E+02  0.41800000000E+01 0.  1.
         -5    1    3    3    0  502 -0.79403675060E+02  0.35533963980E+02 -0.11445798854E+02  0.87841248401E+02  0.41800000000E+01 0.  1.
        -11    1    4    4    0    0 -0.82104079384E+01 -0.89699480447E+02 -0.98317995529E+02  0.13334105083E+03  0.00000000000E+00 0.  1.
         11    1    4    4    0    0  0.52319118257E+02 -0.15647494146E+02 -0.42110054240E+02  0.68959342198E+02  0.00000000000E+00 0. -1.
</event>
<event>
 8    1  0.7048627E-009  0.3910378E+03  0.7561462E-02  0.1046928E+00
         -2   -1    0    0    0  501 -0.00000000000E+00  0.00000000000E+00  0.80131289088E+02  0.80131289088E+02  0.00000000000E+00 0.  1.
          2   -1    0    0  501    0  0.00000000000E+00 -0.00000000000E+00 -0.21989880599E+04  0.21989880599E+04  0.00000000000E+00 0. -1.
         25    2    1    2    0    0  0.28532103924E+03 -0.25191247223E+03 -0.69323423863E+03  0.80068049394E+03  0.12509018611E+03 0.  0.
         23    2    1    2    0    0 -0.28532103924E+03  0.25191247223E+03 -0.14256225322E+04  0.14784388551E+04  0.92270551962E+02 0.  0.
          5    1    3    3  502    0  0.23949663194E+02 -0.82435515040E+02 -0.11150481911E+03  0.14078351321E+03  0.41800000000E+01 0. -1.
         -5    1    3    3    0  502  0.26137137605E+03 -0.16947695719E+03 -0.58172941952E+03  0.65989698073E+03  0.41800000000E+01 0. -1.
        -11    1    4    4    0    0 -0.13883973779E+03  0.15920103165E+03 -0.91945831718E+03  0.94341138338E+03  0.00000000000E+00 0.  1.
         11    1    4    4    0    0 -0.14648130145E+03  0.92711440585E+02 -0.50616421504E+03  0.53502747170E+03  0.00000000000E+00 0. -1.
</event>
<event>
 8    1  0.7048627E-009  0.1268251E+03  0.7561462E-02  0.1232244E+00
          3   -1    0    0  501    0  0.00000000000E+00  0.00000000000E+00  0.45706917083E+03  0.45706917083E+03  0.00000000000E+00 0. -1.
         -3   -1    0    0    0  501 -0.00000000000E+00 -0.00000000000E+00 -0.41845486881E+02  0.41845486881E+02  0.00000000000E+00 0.  1.
         25    2    1    2    0    0 -0.35525310109E+02  0.71540071055E+02  0.16640561402E+03  0.22297544822E+03  0.12508873933E+03 0.  0.
         23    2    1    2    0    0  0.35525310109E+02 -0.71540071055E+02  0.24881806992E+03  0.27593920949E+03  0.88611432598E+02 0.  0.
          5    1    3    3  502    0 -0.74945931291E+02  0.70567740001E+02  0.14511486625E+03  0.17796768064E+03  0.41800000000E+01 0. -1.
         -5    1    3    3    0  502  0.39420621182E+02  0.97233105380E+00  0.21290747777E+02  0.45007767585E+02  0.41800000000E+01 0. -1.
        -11    1    4    4    0    0 -0.89430335918E+01 -0.65484958754E+02  0.19482153526E+03  0.20572721812E+03  0.00000000000E+00 0. -1.
         11    1    4    4    0    0  0.44468343701E+02 -0.60551123007E+01  0.53996534659E+02  0.70211991367E+02  0.00000000000E+00 0.  1.
</event>
<event>
 8    1  0.7048627E-009  0.7126890E+02  0.7561462E-02  0.1355830E+00
         -2   -1    0    0    0  501 -0.00000000000E+00  0.00000000000E+00  0.32607047580E+02  0.32607047580E+02  0.00000000000E+00 0.  1.
          2   -1    0    0  501    0  0.00000000000E+00 -0.00000000000E+00 -0.51530537793E+03  0.51530537793E+03  0.00000000000E+00 0. -1.
         25    2    1    2    0    0 -0.54662762484E+02 -0.15850479527E+02 -0.17953538436E+03  0.22609617153E+03  0.12508904524E+03 0.  0.
         23    2    1    2    0    0  0.54662762484E+02  0.15850479527E+02 -0.30316294599E+03  0.32181625399E+03  0.91753333474E+02 0.  0.
          5    1    3    3  502    0 -0.16233453718E+02  0.10883610155E+02  0.15616824182E+02  0.25364060936E+02  0.41800000000E+01 0. -1.
         -5    1    3    3    0  502 -0.38429308766E+02 -0.26734089683E+02 -0.19515220854E+03  0.20073211059E+03  0.41800000000E+01 0. -1.
        -11    1    4    4    0    0  0.64184364300E+02  0.12083420837E+02 -0.30455769570E+03  0.31148199257E+03  0.00000000000E+00 0. -1.
         11    1    4    4    0    0 -0.95216018161E+01  0.37670586903E+01  0.13947497141E+01  0.10334261419E+02  0.00000000000E+00 0.  1.
</event>
<event>
 8    1  0.7048627E-009  0.1988689E+03  0.7561462E-02  0.1150697E+00
          3   -1    0    0  501    0  0.00000000000E+00  0.00000000000E+00  0.59726574291E+03  0.59726574291E+03  0.00000000000E+00 0. -1.
         -3   -1    0    0    0  501 -0.00000000000E+00 -0.00000000000E+00 -0.10607506201E+03  0.10607506201E+03  0.00000000000E+00 0.  1.
         25    2    1    2    0    0  0.15731935016E+03 -0.98094501101E+02  0.70389319391E+02  0.23446684805E+03  0.12509251564E+03 0.  0.
         23    2    1    2    0    0 -0.15731935016E+03  0.98094501101E+02  0.42080136150E+03  0.46887395687E+03  0.91635650857E+02 0.  0.
          5    1    3    3  502    0  0.14795550030E+03 -0.11457516917E+03  0.29881528561E+02  0.18954861543E+03  0.41800000000E+01 0. -1.
         -5    1    3    3    0  502  0.93638498527E+01  0.16480668071E+02  0.40507790829E+02  0.44918232623E+02  0.41800000000E+01 0. -1.
        -11    1    4    4    0    0 -0.11776116325E+03  0.95300363896E+02  0.39083615116E+03  0.41916911621E+03  0.00000000000E+00 0. -1.
         11    1    4    4    0    0 -0.39558186911E+02  0.27941372044E+01  0.29965210341E+02  0.49704840662E+02  0.00000000000E+00 0.  1.
</event>
<event>
 8    1  0.7048627E-009  0.1092020E+03  0.7561462E-02  0.1262055E+00
          2   -1    0    0  501    0  0.00000000000E+00  0.00000000000E+00  0.15498891987E+03  0.15498891987E+03  0.00000000000E+00 0. -1.
         -2   -1    0    0    0  501 -0.00000000000E+00 -0.00000000000E+00 -0.11310478144E+03  0.11310478144E+03  0.00000000000E+00 0.  1.
         25    2    1    2    0    0  0.36184913248E+02 -0.53650206733E+02 -0.14430334072E+02  0.14156798231E+03  0.12508223873E+03 0.  0.
         23    2    1    2    0    0 -0.36184913248E+02  0.53650206733E+02  0.56314472502E+02  0.12652571900E+03  0.93004005962E+02 0.  0.
          5    1    3    3  502    0 -0.32975039019E+02 -0.38512754727E+02 -0.41504088398E+02  0.65655519408E+02  0.41800000000E+01 0. -1.
         -5    1    3    3    0  502  0.69159952267E+02 -0.15137452006E+02  0.27073754326E+02  0.75912462904E+02  0.41800000000E+01 0. -1.
        -11    1    4    4    0    0 -0.57284147666E+02  0.29140290441E+02  0.66634414776E+02  0.92578482021E+02  0.00000000000E+00 0.  1.
         11    1    4    4    0    0  0.21099234417E+02  0.24509916292E+02 -0.10319942274E+02  0.33947236974E+02  0.00000000000E+00 0. -1.
</event>
<event>
 8    1  0.7048627E-009  0.1429346E+03  0.7561462E-02  0.1209434E+00
         -2   -1    0    0    0  501 -0.00000000000E+00  0.00000000000E+00  0.11668491060E+02  0.11668491060E+02  0.00000000000E+00 0.  1.
          2   -1    0    0  501    0  0.00000000000E+00 -0.00000000000E+00 -0.17516819856E+04  0.17516819856E+04  0.00000000000E+00 0. -1.
         25    2    1    2    0    0 -0.80549069921E+02 -0.49650199603E+02 -0.96455972030E+03  0.97722869648E+03  0.12508867342E+03 0.  0.
         23    2    1    2    0    0  0.80549069921E+02  0.49650199603E+02 -0.77545377424E+03  0.78612178018E+03  0.87781560139E+02 0.  0.
          5    1    3    3  502    0 -0.32998762653E+02 -0.88956572181E+02 -0.59480506149E+03  0.60233937580E+03  0.41800000000E+01 0. -1.
         -5    1    3    3    0  502 -0.47550307268E+02  0.39306372578E+02 -0.36975465882E+03  0.37488932068E+03  0.41800000000E+01 0. -1.
        -11    1    4    4    0    0  0.73853044651E+02  0.73557759723E+02 -0.62934184651E+03  0.63791549283E+03  0.00000000000E+00 0. -1.
         11    1    4    4    0    0  0.66960252701E+01 -0.23907560120E+02 -0.14611192773E+03  0.14820628735E+03  0.00000000000E+00 0.  1.
</event>
<event>
 8    1  0.7048627E-009  0.1241379E+03  0.7561462E-02  0.1236423E+00
          2   -1    0    0  501    0  0.00000000000E+00  0.00000000000E+00  0.50898436140E+03  0.50898436140E+03  0.00000000000E+00 0. -1.
         -2   -1    0    0    0  501 -0.00000000000E+00 -0.00000000000E+00 -0.83019687939E+02  0.83019687939E+02  0.00000000000E+00 0.  1.
         25    2    1    2    0    0  0.34545086322E+02 -0.68368147037E+02  0.44879762954E+03  0.47215960003E+03  0.12509120313E+03 0.  0.
         23    2    1    2    0    0 -0.34545086322E+02  0.68368147037E+02 -0.22832956077E+02  0.11984444931E+03  0.89296033673E+02 0.  0.
          5    1    3    3  502    0 -0.25294325115E+02  0.17155207219E+02  0.41680913044E+02  0.51854362689E+02  0.41800000000E+01 0.  1.
         -5    1    3    3    0  502  0.59839411437E+02 -0.85523354257E+02  0.40711671650E+03  0.42030523734E+03  0.41800000000E+01 0.  1.
        -11    1    4    4    0    0 -0.58948185023E+02  0.65930996465E+02 -0.33180701406E+01  0.88503075664E+02  0.00000000000E+00 0. -1.
         11    1    4    4    0    0  0.24403098702E+02  0.24371505721E+01 -0.19514885936E+02  0.31341373650E+02  0.00000000000E+00 0.  1.
</event>
<event>
 8    1  0.7048627E-009  0.1627710E+03  0.7561462E-02  0.1185603E+00
          2   -1    0    0  501    0  0.00000000000E+00  0.00000000000E+00  0.31177529412E+04  0.31177529412E+04  0.00000000000E+00 0. -1.
         -2   -1    0    0    0  501 -0.00000000000E+00 -0.00000000000E+00 -0.12539335172E+02  0.12539335172E+02  0.00000000000E+00 0.  1.
         25    2    1    2    0    0  0.12342459024E+03 -0.12408269062E+02  0.24842783370E+04  0.24905168136E+04  0.12509016132E+03 0.  0.
         23    2    1    2    0    0 -0.12342459024E+03  0.12408269062E+02  0.62093526901E+03  0.63977546277E+03  0.91457311574E+02 0.  0.
          5    1    3    3  502    0  0.12372839473E+03  0.33616433813E+02  0.16638926924E+04  0.16688304721E+04  0.41800000000E+01 0. -1.
         -5    1    3    3    0  502 -0.30380449388E+00 -0.46024702875E+02  0.82038564457E+03  0.82168634149E+03  0.41800000000E+01 0. -1.
        -11    1    4    4    0    0 -0.10843636595E+03 -0.24534733223E+02  0.39491864701E+03  0.41026958984E+03  0.00000000000E+00 0. -1.
         11    1    4    4    0    0 -0.14988224287E+02  0.36943002285E+02  0.22601662200E+03  0.22950587293E+03  0.00000000000E+00 0.  1.
</event>
<event>
 8    1  0.7048627E-009  0.9519824E+02  0.7561462E-02  0.1290730E+00
          2   -1    0    0  501    0  0.00000000000E+00  0.00000000000E+00  0.57122615301E+03  0.57122615301E+03  0.00000000000E+00 0. -1.
         -2   -1    0    0    0  501 -0.00000000000E+00 -0.00000000000E+00 -0.40246326275E+02  0.40246326275E+02  0.00000000000E+00 0.  1.
         25    2    1    2    0    0 -0.22170578368E+02 -0.44219221988E+02  0.46858270927E+03  0.48750734676E+03  0.12508710396E+03 0.  0.
         23    2    1    2    0    0  0.22170578368E+02  0.44219221988E+02  0.62397117463E+02  0.12396513253E+03  0.95010945035E+02 0.  0.
          5    1    3    3  502    0 -0.64920556083E+02  0.48312162464E+00  0.15929578121E+03  0.17206838850E+03  0.41800000000E+01 0. -1.
         -5    1    3    3    0  502  0.42749977715E+02 -0.44702343612E+02  0.30928692806E+03  0.31543895826E+03  0.41800000000E+01 0. -1.
        -11    1    4    4    0    0  0.33722892378E+02  0.34556267901E+02 -0.10597014339E+02  0.49433448539E+02  0.00000000000E+00 0.  1.
         11    1    4    4    0    0 -0.11552314010E+02  0.96629540867E+01  0.72994131802E+02  0.74531683988E+02  0.00000000000E+00 0. -1.
</event>
<event>
 8    1  0.7048627E-009  0.6538713E+02  0.7561462E-02  0.1376521E+00
         -2   -1    0    0    0  501 -0.00000000000E+00  0.00000000000E+00  0.43409047389E+02  0.43409047389E+02  0.00000000000E+00 0.  1.
          2   -1    0    0  501    0  0.00000000000E+00 -0.00000000000E+00 -0.39107987597E+03  0.39107987597E+03  0.00000000000E+00 0. -1.
         25    2    1    2    0    0 -0.15486078618E+02  0.13859187761E+02 -0.30802810525E+03  0.33310825541E+03  0.12509156838E+03 0.  0.
         23    2    1    2    0    0  0.15486078618E+02 -0.13859187761E+02 -0.39642723334E+02  0.10138066796E+03  0.90964820703E+02 0.  0.
          5    1    3    3  502    0 -0.43268971236E+02 -0.89815154729E+01 -0.32012749379E+02  0.54728055098E+02  0.41800000000E+01 0.  1.
         -5    1    3    3    0  502  0.27782892618E+02  0.22840703234E+02 -0.27601535587E+03  0.27838020031E+03  0.41800000000E+01 0.  1.
        -11    1    4    4    0    0  0.30512700781E+02 -0.16849553011E+02 -0.63842897798E+02  0.72738215162E+02  0.00000000000E+00 0. -1.
         11    1    4    4    0    0 -0.15026622163E+02  0.29903652493E+01  0.24200174464E+02  0.28642452794E+02  0.00000000000E+00 0.  1.
</event>
<event>
 8    1  0.7048627E-009  0.1323963E+03  0.7561462E-02  0.1223943E+00
         -2   -1    0    0    0  501 -0.00000000000E+00  0.00000000000E+00  0.26645467940E+02  0.26645467940E+02  0.00000000000E+00 0. -1.
          2   -1    0    0  501    0  0.00000000000E+00 -0.00000000000E+00 -0.85728661893E+03  0.85728661893E+03  0.00000000000E+00 0.  1.
         25    2    1    2    0    0 -0.55000282864E+02 -0.58756671745E+02 -0.63792731580E+03  0.65503916184E+03  0.12509062997E+03 0.  0.
         23    2    1    2    0    0  0.55000282864E+02  0.58756671745E+02 -0.19271383519E+03  0.22889292503E+03  0.93680154074E+02 0.  0.
          5    1    3    3  502    0  0.90693037196E+01  0.32402910200E+02 -0.21516331438E+03  0.21781856007E+03  0.41800000000E+01 0.  1.
         -5    1    3    3    0  502 -0.64069586584E+02 -0.91159581945E+02 -0.42276400143E+03  0.43722060177E+03  0.41800000000E+01 0.  1.
        -11    1    4    4    0    0  0.46715735747E+02  0.82185291057E+02 -0.12470931112E+03  0.15649023711E+03  0.00000000000E+00 0.  1.
         11    1    4    4    0    0  0.82845471169E+01 -0.23428619312E+02 -0.68004524071E+02  0.72402687919E+02  0.00000000000E+00 0. -1.
</event>
<event>
 8    1  0.7048627E-009  0.1063914E+03  0.7561462E-02  0.1267402E+00
         -1   -1    0    0    0  501 -0.00000000000E+00  0.00000000000E+00  0.50098491757E+02  0.50098491757E+02  0.00000000000E+00 0.  1.
          1   -1    0    0  501    0  0.00000000000E+00 -0.00000000000E+00 -0.37200952411E+03  0.37200952411E+03  0.00000000000E+00 0. -1.
         25    2    1    2    0    0 -0.34452000951E+02  0.39512940230E+02 -0.26034669171E+03  0.29355954596E+03  0.12509434170E+03 0.  0.
         23    2    1    2    0    0  0.34452000951E+02 -0.39512940230E+02 -0.61564340642E+02  0.12854846990E+03  0.99931617923E+02 0.  0.
          5    1    3    3  502    0  0.15551737219E+02  0.68781765906E+02 -0.18763555241E+03  0.20049279484E+03  0.41800000000E+01 0.  1.
         -5    1    3    3    0  502 -0.50003738169E+02 -0.29268825676E+02 -0.72711139294E+02  0.93066751124E+02  0.41800000000E+01 0.  1.
        -11    1    4    4    0    0  0.46091211090E+01  0.18363510991E+02  0.17732991937E+02  0.25940731222E+02  0.00000000000E+00 0.  1.
         11    1    4    4    0    0  0.29842879842E+02 -0.57876451221E+02 -0.79297332579E+02  0.10260773868E+03  0.00000000000E+00 0. -1.
</event>
<event>
 8    1  0.7048627E-009  0.1074744E+03  0.7561462E-02  0.1265320E+00
         -2   -1    0    0    0  501 -0.00000000000E+00  0.00000000000E+00  0.10232779921E+02  0.10232779921E+02  0.00000000000E+00 0.  1.
          2   -1    0    0  501    0  0.00000000000E+00 -0.00000000000E+00 -0.12762334786E+04  0.12762334786E+04  0.00000000000E+00 0. -1.
         25    2    1    2    0    0 -0.16563130101E+02 -0.60022881803E+00 -0.93135058907E+03  0.93985944909E+03  0.12508863550E+03 0.  0.
         23    2    1    2    0    0  0.16563130101E+02  0.60022881803E+00 -0.33465010958E+03  0.34660680940E+03  0.88718019184E+02 0.  0.
          5    1    3    3  502    0  0.14809512184E+02  0.57558968621E+02 -0.47804877152E+03  0.48174729566E+03  0.41800000000E+01 0.  1.
         -5    1    3    3    0  502 -0.31372642285E+02 -0.58159197439E+02 -0.45330181755E+03  0.45811215343E+03  0.41800000000E+01 0.  1.
        -11    1    4    4    0    0  0.45436926741E+02 -0.23853243173E+02 -0.21866022508E+03  0.22460139259E+03  0.00000000000E+00 0.  1.
         11    1    4    4    0    0 -0.28873796640E+02  0.24453471991E+02 -0.11598988450E+03  0.12200541681E+03  0.00000000000E+00 0. -1.
</event>
<event>
 8    1  0.7048627E-009  0.8375508E+02  0.7561462E-02  0.1318721E+00
          2   -1    0    0  501    0  0.00000000000E+00  0.00000000000E+00  0.29390579510E+03  0.29390579510E+03  0.00000000000E+00 0. -1.
         -2   -1    0    0    0  501 -0.00000000000E+00 -0.00000000000E+00 -0.61620316673E+02  0.61620316673E+02  0.00000000000E+00 0.  1.
         25    2    1    2    0    0  0.44187452471E+02  0.51779486962E+02  0.18055525116E+03  0.22995561808E+03  0.12508293785E+03 0.  0.
         23    2    1    2    0    0 -0.44187452471E+02 -0.51779486962E+02  0.51730227264E+02  0.12557049369E+03  0.91968941748E+02 0.  0.
          5    1    3    3  502    0  0.72567861513E+01  0.59000664664E+02  0.18256108294E+03  0.19204103931E+03  0.41800000000E+01 0.  1.
         -5    1    3    3    0  502  0.36930666320E+02 -0.72211777022E+01 -0.20058317788E+01  0.37914578771E+02  0.41800000000E+01 0.  1.
        -11    1    4    4    0    0 -0.40725408046E+02 -0.37490687411E+02 -0.14910349038E+02  0.57327384481E+02  0.00000000000E+00 0.  1.
         11    1    4    4    0    0 -0.34620444252E+01 -0.14288799551E+02  0.66640576303E+02  0.68243109207E+02  0.00000000000E+00 0. -1.
</event>
<event>
 8    1  0.7048627E-009  0.9285362E+02  0.7561462E-02  0.1296085E+00
          1   -1    0    0  501    0  0.00000000000E+00  0.00000000000E+00  0.58825234572E+03  0.58825234572E+03  0.00000000000E+00 0. -1.
         -1   -1    0    0    0  501 -0.00000000000E+00 -0.00000000000E+00 -0.26345437640E+02  0.26345437640E+02  0.00000000000E+00 0.  1.
         25    2    1    2    0    0 -0.48511804002E+02 -0.16377687091E+02  0.40570572938E+03  0.42763093044E+03  0.12509776198E+03 0.  0.
         23    2    1    2    0    0  0.48511804002E+02  0.16377687091E+02  0.15620117870E+03  0.18696685292E+03  0.89085195757E+02 0.  0.
          5    1    3    3  502    0 -0.83176623932E+02  0.16859404395E+02  0.22200620005E+03  0.23771162266E+03  0.41800000000E+01 0.  1.
         -5    1    3    3    0  502  0.34664819930E+02 -0.33237091486E+02  0.18369952933E+03  0.18991930778E+03  0.41800000000E+01 0.  1.
        -11    1    4    4    0    0  0.26526745085E+02  0.27614370632E+01  0.15875621123E+03  0.16098083222E+03  0.00000000000E+00 0. -1.
         11    1    4    4    0    0  0.21985058917E+02  0.13616250028E+02 -0.25550325332E+01  0.25986020697E+02  0.00000000000E+00 0.  1.
</event>
<event>
 8    1  0.7048627E-009  0.9661591E+02  0.7561462E-02  0.1287578E+00
         -2   -1    0    0    0  501 -0.00000000000E+00  0.00000000000E+00  0.56543491084E+02  0.56543491084E+02  0.00000000000E+00 0.  1.
          2   -1    0    0  501    0  0.00000000000E+00 -0.00000000000E+00 -0.31701026282E+03  0.31701026282E+03  0.00000000000E+00 0. -1.
         25    2    1    2    0    0  0.15831583061E+02 -0.39258568477E+02 -0.51179456000E+02  0.14164116860E+03  0.12510399556E+03 0.  0.
         23    2    1    2    0    0 -0.15831583061E+02  0.39258568477E+02 -0.20928731573E+03  0.23191258530E+03  0.90500787138E+02 0.  0.
          5    1    3    3  502    0  0.91913883681E+01 -0.65799719598E+02 -0.78380641617E+02  0.10283521819E+03  0.41800000000E+01 0.  1.
         -5    1    3    3    0  502  0.66401946926E+01  0.26541151122E+02  0.27201185618E+02  0.38805950413E+02  0.41800000000E+01 0.  1.
        -11    1    4    4    0    0  0.50189500689E+00  0.66887526509E+02 -0.12598227116E+03  0.14263844414E+03  0.00000000000E+00 0.  1.
         11    1    4    4    0    0 -0.16333478068E+02 -0.27628958033E+02 -0.83305044577E+02  0.89274141159E+02  0.00000000000E+00 0. -1.
</event>
<event>
 8    1  0.7048627E-009  0.7137138E+02  0.7561462E-02  0.1355491E+00
          1   -1    0    0  501    0  0.00000000000E+00  0.00000000000E+00  0.19260198990E+03  0.19260198990E+03  0.00000000000E+00 0. -1.
         -1   -1    0    0    0  501 -0.00000000000E+00 -0.00000000000E+00 -0.65097646844E+02  0.65097646844E+02  0.00000000000E+00 0.  1.
         25    2    1    2    0    0  0.15342135818E+02 -0.24320523899E+02  0.80641028951E+02  0.15158351696E+03  0.12509083919E+03 0.  0.
         23    2    1    2    0    0 -0.15342135818E+02  0.24320523899E+02  0.46863314107E+02  0.10611611978E+03  0.90761179227E+02 0.  0.
          5    1    3    3  502    0  0.49613542718E+02 -0.17489882581E+02  0.98777669509E+02  0.11199062464E+03  0.41800000000E+01 0.  1.
         -5    1    3    3    0  502 -0.34271406899E+02 -0.68306413181E+01 -0.18136640558E+02  0.39592892322E+02  0.41800000000E+01 0.  1.
        -11    1    4    4    0    0 -0.29718540077E+02  0.27000242587E+02 -0.14761600203E+02  0.42779779857E+02  0.00000000000E+00 0.  1.
         11    1    4    4    0    0  0.14376404259E+02 -0.26797186875E+01  0.61624914310E+02  0.63336339927E+02  0.00000000000E+00 0. -1.
</event>
<event>
 8    1  0.7048627E-009  0.1372981E+03  0.7561462E-02  0.1217012E+00
          1   -1    0    0  501    0  0.00000000000E+00  0.00000000000E+00  0.12485046182E+04  0.12485046182E+04  0.00000000000E+00 0. -1.
         -1   -1    0    0    0  501 -0.00000000000E+00 -0.00000000000E+00 -0.50028712205E+02  0.50028712205E+02  0.00000000000E+00 0.  1.
         25    2    1    2    0    0  0.10635736166E+02  0.88999471237E+02  0.11513606430E+04  0.11615995549E+04  0.12509264909E+03 0.  0.
         23    2    1    2    0    0 -0.10635736166E+02 -0.88999471237E+02  0.47115262995E+02  0.13693377554E+03  0.92179098018E+02 0.  0.
          5    1    3    3  502    0 -0.41693305947E+02  0.92216010842E+02  0.75282473680E+03  0.75960824190E+03  0.41800000000E+01 0. -1.
         -5    1    3    3    0  502  0.52329042113E+02 -0.32165396045E+01  0.39853590623E+03  0.40199131301E+03  0.41800000000E+01 0. -1.
        -11    1    4    4    0    0 -0.45501347065E+02 -0.60379099329E+02  0.59037043054E+01  0.75834437725E+02  0.00000000000E+00 0.  1.
         11    1    4    4    0    0  0.34865610898E+02 -0.28620371908E+02  0.41211558690E+02  0.61099337813E+02  0.00000000000E+00 0. -1.
</event>
<event>
 8    1  0.7048627E-009  0.1131564E+03  0.7561462E-02  0.1254834E+00
          2   -1    0    0  501    0  0.00000000000E+00  0.00000000000E+00  0.25792439557E+03  0.25792439557E+03  0.00000000000E+00 0. -1.
         -2   -1    0    0    0  501 -0.00000000000E+00 -0.00000000000E+00 -0.97088968218E+02  0.97088968218E+02  0.00000000000E+00 0.  1.
         25    2    1    2    0    0  0.23354664391E+02  0.66729356970E+02  0.18558138479E+03  0.23470311561E+03  0.12508738811E+03 0.  0.
         23    2    1    2    0    0 -0.23354664391E+02 -0.66729356970E+02 -0.24745957442E+02  0.12031024818E+03  0.94148531465E+02 0.  0.
          5    1    3    3  502    0  0.50195298522E+02  0.38869212990E+00  0.19865462530E+02  0.54146357927E+02  0.41800000000E+01 0.  1.
         -5    1    3    3    0  502 -0.26840634131E+02  0.66340664840E+02  0.16571592226E+03  0.18055675768E+03  0.41800000000E+01 0.  1.
        -11    1    4    4    0    0 -0.37419997018E+02 -0.77816362193E+02 -0.41486012273E+02  0.95795258839E+02  0.00000000000E+00 0.  1.
         11    1    4    4    0    0  0.14065332626E+02  0.11087005222E+02  0.16740054831E+02  0.24514989342E+02  0.00000000000E+00 0. -1.
</event>
<event>
 8    1  0.7048627E-009  0.1004097E+03  0.7561462E-02  0.1279437E+00
          2   -1    0    0  501    0  0.00000000000E+00  0.00000000000E+00  0.35054120407E+04  0.35054120407E+04  0.00000000000E+00 0.  1.
         -2   -1    0    0    0  501 -0.00000000000E+00 -0.00000000000E+00 -0.99518178933E+01  0.99518178933E+01  0.00000000000E+00 0. -1.
         25    2    1    2    0    0 -0.19688809285E+02 -0.34265327292E+01  0.32691399275E+04  0.32715933058E+04  0.12508997836E+03 0.  0.
         23    2    1    2    0    0  0.19688809285E+02  0.34265327292E+01  0.22632029532E+03  0.24377055280E+03  0.88339209874E+02 0.  0.
          5    1    3    3  502    0 -0.40899516877E+02 -0.55966082511E+02  0.19292855643E+04  0.19305349605E+04  0.41800000000E+01 0.  1.
         -5    1    3    3    0  502  0.21210707592E+02  0.52539549782E+02  0.13398543632E+04  0.13410583453E+04  0.41800000000E+01 0.  1.
        -11    1    4    4    0    0  0.30896810894E+02 -0.27689597675E+02  0.52921851605E+02  0.67246182941E+02  0.00000000000E+00 0. -1.
         11    1    4    4    0    0 -0.11208001609E+02  0.31116130404E+02  0.17339844371E+03  0.17652436986E+03  0.00000000000E+00 0.  1.
</event>
<event>
 8    1  0.7048627E-009  0.7890690E+02  0.7561462E-02  0.1332182E+00
          2   -1    0    0  501    0  0.00000000000E+00  0.00000000000E+00  0.33034043178E+03  0.33034043178E+03  0.00000000000E+00 0. -1.
         -2   -1    0    0    0  501 -0.00000000000E+00 -0.00000000000E+00 -0.41122239634E+02  0.41122239634E+02  0.00000000000E+00 0.  1.
         25    2    1    2    0    0  0.11112200134E+02  0.41845444207E+02  0.19774500435E+03  0.23796200487E+03  0.12509319256E+03 0.  0.
         23    2    1    2    0    0 -0.11112200134E+02 -0.41845444207E+02  0.91473187795E+02  0.13350066654E+03  0.87066421132E+02 0.  0.
          5    1    3    3  502    0  0.13485007440E+02  0.50100049881E+02  0.21338173658E+03  0.21963856294E+03  0.41800000000E+01 0. -1.
         -5    1    3    3    0  502 -0.23728073051E+01 -0.82546056743E+01 -0.15636732232E+02  0.18323441932E+02  0.41800000000E+01 0. -1.
        -11    1    4    4    0    0 -0.96039680723E+01  0.26325637058E+02  0.35854661930E+02  0.45506396818E+02  0.00000000000E+00 0.  1.
         11    1    4    4    0    0 -0.15082320621E+01 -0.68171081264E+02  0.55618525865E+02  0.87994269723E+02  0.00000000000E+00 0. -1.
</event>
<event>
 8    1  0.7048627E-009  0.8646631E+02  0.7561462E-02  0.1311642E+00
          1   -1    0    0  501    0  0.00000000000E+00  0.00000000000E+00  0.81259857270E+02  0.81259857270E+02  0.00000000000E+00 0. -1.
         -1   -1    0    0    0  501 -0.00000000000E+00 -0.00000000000E+00 -0.15407842057E+03  0.15407842057E+03  0.00000000000E+00 0.  1.
         25    2    1    2    0    0  0.42216632792E+01 -0.25300464336E+02 -0.39956004425E+02  0.13380009230E+03  0.12509215193E+03 0.  0.
         23    2    1    2    0    0 -0.42216632792E+01  0.25300464336E+02 -0.32862558876E+02  0.10153818554E+03  0.92585740856E+02 0.  0.
          5    1    3    3  502    0  0.42879026639E+01  0.44392745953E+02 -0.45388467765E+02  0.63770584195E+02  0.41800000000E+01 0. -1.
         -5    1    3    3    0  502 -0.66239384755E-01 -0.69693210289E+02  0.54324633396E+01  0.70029508109E+02  0.41800000000E+01 0. -1.
        -11    1    4    4    0    0  0.23887265915E+02  0.74527207754E+01 -0.55767551558E+02  0.61124171378E+02  0.00000000000E+00 0.  1.
         11    1    4    4    0    0 -0.28108929195E+02  0.17847743561E+02  0.22904992682E+02  0.40414014159E+02  0.00000000000E+00 0. -1.
</event>
<event>
 8    1  0.7048627E-009  0.1179093E+03  0.7561462E-02  0.1246586E+00
          1   -1    0    0  501    0  0.00000000000E+00  0.00000000000E+00  0.17766347583E+02  0.17766347583E+02  0.00000000000E+00 0.  1.
         -1   -1    0    0    0  501 -0.00000000000E+00 -0.00000000000E+00 -0.13210047841E+04  0.13210047841E+04  0.00000000000E+00 0. -1.
         25    2    1    2    0    0  0.66706502575E+02  0.58282791528E+02 -0.97369595603E+03  0.98568679516E+03  0.12509197452E+03 0.  0.
         23    2    1    2    0    0 -0.66706502575E+02 -0.58282791528E+02 -0.32954248051E+03  0.35308433655E+03  0.90684403174E+02 0.  0.
          5    1    3    3  502    0  0.10030849552E+03  0.35958291526E+02 -0.56440336522E+03  0.57438961000E+03  0.41800000000E+01 0.  1.
         -5    1    3    3    0  502 -0.33601992941E+02  0.22324500002E+02 -0.40929259081E+03  0.41129718516E+03  0.41800000000E+01 0.  1.
        -11    1    4    4    0    0 -0.57807887168E+02 -0.51654791829E+02 -0.33264807611E+03  0.34156216400E+03  0.00000000000E+00 0. -1.
         11    1    4    4    0    0 -0.88986154071E+01 -0.66279996990E+01  0.31055955975E+01  0.11522172546E+02  0.00000000000E+00 0.  1.
</event>
<event>
 8    1  0.7048627E-009  0.1215164E+03  0.7561462E-02  0.1240616E+00
          1   -1    0    0  501    0  0.00000000000E+00  0.00000000000E+00  0.50517258326E+03  0.50517258326E+03  0.00000000000E+00 0. -1.
         -1   -1    0    0    0  501 -0.00000000000E+00 -0.00000000000E+00 -0.59366380402E+02  0.59366380402E+02  0.00000000000E+00 0.  1.
         25    2    1    2    0    0  0.83607921285E+02  0.68017718633E+02  0.36829761615E+03  0.40361777013E+03  0.12508987071E+03 0.  0.
         23    2    1    2    0    0 -0.83607921285E+02 -0.68017718633E+02  0.77508586708E+02  0.16092119353E+03  0.90946989858E+02 0.  0.
          5    1    3    3  502    0  0.16970065517E+02  0.63311938504E+02  0.30325579619E+03  0.31028685922E+03  0.41800000000E+01 0. -1.
         -5    1    3    3    0  502  0.66637855768E+02  0.47057801298E+01  0.65041819958E+02  0.93330910911E+02  0.41800000000E+01 0. -1.
        -11    1    4    4    0    0 -0.25273588106E+02 -0.35668336305E+02 -0.15573781063E+02  0.46406110881E+02  0.00000000000E+00 0.  1.
         11    1    4    4    0    0 -0.58334333179E+02 -0.32349382328E+02  0.93082367770E+02  0.11451508265E+03  0.00000000000E+00 0. -1.
</event>
<event>
 8    1  0.7048627E-009  0.1252254E+03  0.7561462E-02  0.1234718E+00
          2   -1    0    0  501    0  0.00000000000E+00  0.00000000000E+00  0.37251273001E+03  0.37251273001E+03  0.00000000000E+00 0.  1.
         -2   -1    0    0    0  501 -0.00000000000E+00 -0.00000000000E+00 -0.55604921990E+02  0.55604921990E+02  0.00000000000E+00 0. -1.
         25    2    1    2    0    0  0.31731456740E+00  0.92063370889E+02  0.21001697506E+03  0.26120796090E+03  0.12508678619E+03 0.  0.
         23    2    1    2    0    0 -0.31731456740E+00 -0.92063370889E+02  0.10689083296E+03  0.16690969109E+03  0.89204427368E+02 0.  0.
          5    1    3    3  502    0  0.12594720104E+02 -0.18921922413E+02 -0.22923985866E+00  0.23112573921E+02  0.41800000000E+01 0. -1.
         -5    1    3    3    0  502 -0.12277405537E+02  0.11098529330E+03  0.21024621492E+03  0.23809538698E+03  0.41800000000E+01 0. -1.
        -11    1    4    4    0    0  0.26960111830E+02 -0.94011480727E+01  0.63551503353E+02  0.69670817372E+02  0.00000000000E+00 0.  1.
         11    1    4    4    0    0 -0.27277426397E+02 -0.82662222816E+02  0.43339329608E+02  0.97238873721E+02  0.00000000000E+00 0. -1.
</event>
<event>
 8    1  0.7048627E-009  0.1220613E+03  0.7561462E-02  0.1239735E+00
         -2   -1    0    0    0  501 -0.00000000000E+00  0.00000000000E+00  0.59483633248E+02  0.59483633248E+02  0.00000000000E+00 0.  1.
          2   -1    0    0  501    0  0.00000000000E+00 -0.00000000000E+00 -0.25618331500E+03  0.25618331500E+03  0.00000000000E+00 0. -1.
         25    2    1    2    0    0 -0.44039722415E+02  0.42076759018E+02 -0.90005492513E+02  0.16570569198E+03  0.12508971530E+03 0.  0.
         23    2    1    2    0    0  0.44039722415E+02 -0.42076759018E+02 -0.10669418924E+03  0.14996125626E+03  0.85992892512E+02 0.  0.
          5    1    3    3  502    0 -0.48187759251E+01  0.82403662233E+02 -0.56090343159E+02  0.99885850582E+02  0.41800000000E+01 0. -1.
         -5    1    3    3    0  502 -0.39220946490E+02 -0.40326903215E+02 -0.33915149354E+02  0.65819841402E+02  0.41800000000E+01 0. -1.
        -11    1    4    4    0    0  0.42725606132E+02 -0.67348173952E+02 -0.75862923211E+02  0.11007468861E+03  0.00000000000E+00 0.  1.
         11    1    4    4    0    0  0.13141162828E+01  0.25271414934E+02 -0.30831266025E+02  0.39886567652E+02  0.00000000000E+00 0. -1.
</event>
<event>
 8    1  0.7048627E-009  0.1059080E+03  0.7561462E-02  0.1268341E+00
         -2   -1    0    0    0  501 -0.00000000000E+00  0.00000000000E+00  0.58460991124E+02  0.58460991124E+02  0.00000000000E+00 0. -1.
          2   -1    0    0  501    0  0.00000000000E+00 -0.00000000000E+00 -0.38875624419E+03  0.38875624419E+03  0.00000000000E+00 0.  1.
         25    2    1    2    0    0  0.37742732221E+02 -0.26867397988E+02 -0.31730690799E+03  0.34420541697E+03  0.12508926533E+03 0.  0.
         23    2    1    2    0    0 -0.37742732221E+02  0.26867397988E+02 -0.12988345074E+02  0.10301181834E+03  0.91084393289E+02 0.  0.
          5    1    3    3  502    0 -0.35006606050E+02  0.23174196551E+02 -0.71912355728E+02  0.83374847282E+02  0.41800000000E+01 0. -1.
         -5    1    3    3    0  502  0.72749338271E+02 -0.50041594539E+02 -0.24539455226E+03  0.26083056969E+03  0.41800000000E+01 0. -1.
        -11    1    4    4    0    0 -0.31689881872E+02 -0.17669085478E+02 -0.37195990023E+02  0.51961397868E+02  0.00000000000E+00 0.  1.
         11    1    4    4    0    0 -0.60528503489E+01  0.44536483466E+02  0.24207644948E+02  0.51050420476E+02  0.00000000000E+00 0. -1.
</event>
<event>
 8    1  0.7048627E-009  0.1893897E+03  0.7561462E-02  0.1159013E+00
         -1   -1    0    0    0  501 -0.00000000000E+00  0.00000000000E+00  0.35596760847E+03  0.35596760847E+03  0.00000000000E+00 0.  1.
          1   -1    0    0  501    0  0.00000000000E+00 -0.00000000000E+00 -0.13710155315E+03  0.13710155315E+03  0.00000000000E+00 0. -1.
         25    2    1    2    0    0 -0.32519571610E+02  0.16258600024E+03  0.84052330747E+01  0.20787254550E+03  0.12509443320E+03 0.  0.
         23    2    1    2    0    0  0.32519571610E+02 -0.16258600024E+03  0.21046082224E+03  0.28519661612E+03  0.97732400656E+02 0.  0.
          5    1    3    3  502    0 -0.61661749413E+02  0.10232824397E+03  0.49313253826E+02  0.12931554531E+03  0.41800000000E+01 0. -1.
         -5    1    3    3    0  502  0.29142177803E+02  0.60257756265E+02 -0.40908020752E+02  0.78557000191E+02  0.41800000000E+01 0. -1.
        -11    1    4    4    0    0  0.67349517979E+02 -0.10045539419E+03  0.14000763656E+03  0.18501184311E+03  0.00000000000E+00 0. -1.
         11    1    4    4    0    0 -0.34829946369E+02 -0.62130606044E+02  0.70453185678E+02  0.10018477301E+03  0.00000000000E+00 0.  1.
</event>
<event>
 8    1  0.7048627E-009  0.1032827E+03  0.7561462E-02  0.1273541E+00
         -1   -1    0    0    0  501 -0.00000000000E+00  0.00000000000E+00  0.19700096867E+02  0.19700096867E+02  0.00000000000E+00 0.  1.
          1   -1    0    0  501    0  0.00000000000E+00 -0.00000000000E+00 -0.74503696813E+03  0.74503696813E+03  0.00000000000E+00 0. -1.
         25    2    1    2    0    0  0.34217851925E+02  0.40618370375E+02 -0.38284684466E+03  0.40625332140E+03  0.12509732723E+03 0.  0.
         23    2    1    2    0    0 -0.34217851925E+02 -0.40618370375E+02 -0.34249002661E+03  0.35848374360E+03  0.91599468884E+02 0.  0.
          5    1    3    3  502    0 -0.74749915524E+01  0.59490709376E+02 -0.33329657581E+03  0.33867255550E+03  0.41800000000E+01 0. -1.
         -5    1    3    3    0  502  0.41692843478E+02 -0.18872339001E+02 -0.49550268849E+02  0.67580765900E+02  0.41800000000E+01 0. -1.
        -11    1    4    4    0    0  0.26112327517E+02 -0.29077747510E+02 -0.81820974827E+02  0.90675470609E+02  0.00000000000E+00 0.  1.
         11    1    4    4    0    0 -0.60330179443E+02 -0.11540622865E+02 -0.26066905178E+03  0.26780827299E+03  0.00000000000E+00 0. -1.
</event>
<event>
 8    1  0.7048627E-009  0.2276978E+03  0.7561462E-02  0.1128271E+00
          1   -1    0    0  501    0  0.00000000000E+00  0.00000000000E+00  0.19869713989E+03  0.19869713989E+03  0.00000000000E+00 0. -1.
         -1   -1    0    0    0  501 -0.00000000000E+00 -0.00000000000E+00 -0.34162561267E+03  0.34162561267E+03  0.00000000000E+00 0.  1.
         25    2    1    2    0    0 -0.55544291605E+02  0.19862897243E+03  0.46872049101E+02  0.24572989970E+03  0.12509019787E+03 0.  0.
         23    2    1    2    0    0  0.55544291605E+02 -0.19862897243E+03 -0.18980052188E+03  0.29459285286E+03  0.90675651816E+02 0.  0.
          5    1    3    3  502    0  0.36005785484E+02  0.27282709463E+02 -0.18289161132E+01  0.45404627056E+02  0.41800000000E+01 0.  1.
         -5    1    3    3    0  502 -0.91550077088E+02  0.17134626297E+03  0.48700965214E+02  0.20032527265E+03  0.41800000000E+01 0.  1.
        -11    1    4    4    0    0  0.68621019097E+02 -0.14363091021E+03 -0.98452319236E+02  0.18716714934E+03  0.00000000000E+00 0.  1.
         11    1    4    4    0    0 -0.13076727493E+02 -0.54998062217E+02 -0.91348202649E+02  0.10742570352E+03  0.00000000000E+00 0. -1.
</event>
<event>
 8    1  0.7048627E-009  0.1103674E+03  0.7561462E-02  0.1259891E+00
         -1   -1    0    0    0  501 -0.00000000000E+00  0.00000000000E+00  0.12297764921E+04  0.12297764921E+04  0.00000000000E+00 0.  1.
          1   -1    0    0  501    0  0.00000000000E+00 -0.00000000000E+00 -0.10029730653E+02  0.10029730653E+02  0.00000000000E+00 0. -1.
         25    2    1    2    0    0  0.20222776222E+02  0.16873184456E+01  0.73749259423E+03  0.74830178875E+03  0.12509369603E+03 0.  0.
         23    2    1    2    0    0 -0.20222776222E+02 -0.16873184456E+01  0.48225416726E+03  0.49150443404E+03  0.92713101126E+02 0.  0.
          5    1    3    3  502    0 -0.90363310698E+01  0.60258184404E+02  0.36586804421E+03  0.37093072432E+03  0.41800000000E+01 0.  1.
         -5    1    3    3    0  502  0.29259107292E+02 -0.58570865958E+02  0.37162455002E+03  0.37737106444E+03  0.41800000000E+01 0.  1.
        -11    1    4    4    0    0  0.14811421098E+02 -0.39691642634E+02  0.25038946227E+03  0.25394819847E+03  0.00000000000E+00 0. -1.
         11    1    4    4    0    0 -0.35034197320E+02  0.38004324188E+02  0.23186470499E+03  0.23755623557E+03  0.00000000000E+00 0.  1.
</event>
<event>
 8    1  0.7048627E-009  0.1150894E+03  0.7561462E-02  0.1251425E+00
          2   -1    0    0  501    0  0.00000000000E+00  0.00000000000E+00  0.73785685684E+03  0.73785685684E+03  0.00000000000E+00 0. -1.
         -2   -1    0    0    0  501 -0.00000000000E+00 -0.00000000000E+00 -0.22593925043E+02  0.22593925043E+02  0.00000000000E+00 0.  1.
         25    2    1    2    0    0 -0.61265199155E+02 -0.22624119249E+02  0.47484062912E+03  0.49536134366E+03  0.12507582634E+03 0.  0.
         23    2    1    2    0    0  0.61265199155E+02  0.22624119249E+02  0.24042230268E+03  0.26508943822E+03  0.90577321840E+02 0.  0.
          5    1    3    3  502    0  0.27451745764E+02 -0.52062618156E+01  0.29228372552E+02  0.40650629388E+02  0.41800000000E+01 0. -1.
         -5    1    3    3    0  502 -0.88716944919E+02 -0.17417857434E+02  0.44561225657E+03  0.45471071427E+03  0.41800000000E+01 0. -1.
        -11    1    4    4    0    0  0.79264732407E+02 -0.39048394636E+01  0.16303270810E+03  0.18132239102E+03  0.00000000000E+00 0.  1.
         11    1    4    4    0    0 -0.17999533253E+02  0.26528958713E+02  0.77389594575E+02  0.83767047198E+02  0.00000000000E+00 0. -1.
</event>
<event>
 8    1  0.7048627E-009  0.1200430E+03  0.7561462E-02  0.1243026E+00
          1   -1    0    0  501    0  0.00000000000E+00  0.00000000000E+00  0.80056559071E+03  0.80056559071E+03  0.00000000000E+00 0. -1.
         -1   -1    0    0    0  501 -0.00000000000E+00 -0.00000000000E+00 -0.34218462694E+02  0.34218462694E+02  0.00000000000E+00 0.  1.
         25    2    1    2    0    0 -0.96294913635E+02  0.30017536405E+02  0.59299071728E+03  0.61437714720E+03  0.12509006890E+03 0.  0.
         23    2    1    2    0    0  0.96294913635E+02 -0.30017536405E+02  0.17335641074E+03  0.22040690620E+03  0.91394727832E+02 0.  0.
          5    1    3    3  502    0 -0.61211067021E+02  0.38731248566E+02  0.56174944139E+03  0.56641575864E+03  0.41800000000E+01 0.  1.
         -5    1    3    3    0  502 -0.35083846614E+02 -0.87137121602E+01  0.31241275896E+02  0.47961388558E+02  0.41800000000E+01 0.  1.
        -11    1    4    4    0    0  0.10043171700E+03  0.40939929953E+00  0.10410654488E+03  0.14465431233E+03  0.00000000000E+00 0. -1.
         11    1    4    4    0    0 -0.41368033648E+01 -0.30426935705E+02  0.69249865854E+02  0.75752593878E+02  0.00000000000E+00 0.  1.
</event>
<event>
 8    1  0.7048627E-009  0.1469678E+03  0.7561462E-02  0.1204249E+00
          1   -1    0    0  501    0  0.00000000000E+00  0.00000000000E+00  0.78021426921E+02  0.78021426921E+02  0.00000000000E+00 0. -1.
         -1   -1    0    0    0  501 -0.00000000000E+00 -0.00000000000E+00 -0.30138803418E+03  0.30138803418E+03  0.00000000000E+00 0.  1.
         25    2    1    2    0    0 -0.10516911537E+03 -0.29731751516E+02 -0.10677002162E+03  0.19746005869E+03  0.12508444101E+03 0.  0.
         23    2    1    2    0    0  0.10516911537E+03  0.29731751516E+02 -0.11659658564E+03  0.18194940242E+03  0.86984489317E+02 0.  0.
          5    1    3    3  502    0 -0.12826572265E+03 -0.12607342400E+01 -0.91023435217E+02  0.15734174023E+03  0.41800000000E+01 0.  1.
         -5    1    3    3    0  502  0.23096607281E+02 -0.28471017276E+02 -0.15746586408E+02  0.40118318461E+02  0.41800000000E+01 0.  1.
        -11    1    4    4    0    0  0.33066025172E+02 -0.22210009728E+02 -0.72556030476E+02  0.82770913438E+02  0.00000000000E+00 0.  1.
         11    1    4    4    0    0  0.72103090199E+02  0.51941761244E+02 -0.44040555160E+02  0.99178488980E+02  0.00000000000E+00 0. -1.
</event>
<event>
 8    1  0.7048627E-009  0.8859672E+02  0.7561462E-02  0.1306286E+00
          1   -1    0    0  501    0  0.00000000000E+00  0.00000000000E+00  0.11199307387E+03  0.11199307387E+03  0.00000000000E+00 0. -1.
         -1   -1    0    0    0  501 -0.00000000000E+00 -0.00000000000E+00 -0.19354416174E+03  0.19354416174E+03  0.00000000000E+00 0.  1.
         25    2    1    2    0    0  0.28590074791E+02 -0.35294853324E+02  0.47946123397E+02  0.14145199678E+03  0.12508684022E+03 0.  0.
         23    2    1    2    0    0 -0.28590074791E+02  0.35294853324E+02 -0.12949721127E+03  0.16408523883E+03  0.89951758332E+02 0.  0.
          5    1    3    3  502    0  0.40722023326E+02 -0.65434964209E+02  0.68149168662E+02  0.10296503928E+03  0.41800000000E+01 0. -1.
         -5    1    3    3    0  502 -0.12131948535E+02  0.30140110885E+02 -0.20203045264E+02  0.38486957497E+02  0.41800000000E+01 0. -1.
        -11    1    4    4    0    0 -0.35539909372E+02  0.43711031697E+02 -0.13876619209E+03  0.14976580223E+03  0.00000000000E+00 0.  1.
         11    1    4    4    0    0  0.69498345806E+01 -0.84161783730E+01  0.92689808192E+01  0.14319436600E+02  0.00000000000E+00 0. -1.
</event>
<event>
 8    1  0.7048627E-009  0.9159916E+02  0.7561462E-02  0.1299025E+00
         -1   -1    0    0    0  501 -0.00000000000E+00  0.00000000000E+00  0.68254009640E+02  0.68254009640E+02  0.00000000000E+00 0.  1.
          1   -1    0    0  501    0  0.00000000000E+00 -0.00000000000E+00 -0.22308704064E+03  0.22308704064E+03  0.00000000000E+00 0. -1.
         25    2    1    2    0    0  0.58728478800E+02 -0.73821481603E+01 -0.92607192112E+02  0.16651304387E+03  0.12508785478E+03 0.  0.
         23    2    1    2    0    0 -0.58728478800E+02  0.73821481603E+01 -0.62225838884E+02  0.12482800640E+03  0.90589435502E+02 0.  0.
          5    1    3    3  502    0  0.55379161301E+02 -0.48923671228E+02 -0.11055160022E+02  0.74833589223E+02  0.41800000000E+01 0. -1.
         -5    1    3    3    0  502  0.33493174984E+01  0.41541523068E+02 -0.81552032090E+02  0.91679454648E+02  0.41800000000E+01 0. -1.
        -11    1    4    4    0    0 -0.53769551246E+01 -0.98609098632E+01  0.21386619731E+02  0.24156504161E+02  0.00000000000E+00 0.  1.
         11    1    4    4    0    0 -0.53351523675E+02  0.17243058024E+02 -0.83612458615E+02  0.10067150224E+03  0.00000000000E+00 0. -1.
</event>
<event>
 8    1  0.7048627E-009  0.1117464E+03  0.7561462E-02  0.1257370E+00
         -4   -1    0    0    0  501 -0.00000000000E+00  0.00000000000E+00  0.66271836285E+02  0.66271836285E+02  0.00000000000E+00 0. -1.
          4   -1    0    0  501    0  0.00000000000E+00 -0.00000000000E+00 -0.23858362457E+03  0.23858362457E+03  0.00000000000E+00 0.  1.
         25    2    1    2    0    0 -0.60024226849E+02 -0.20914175797E+02 -0.12110972427E+03  0.18535260945E+03  0.12509082284E+03 0.  0.
         23    2    1    2    0    0  0.60024226849E+02  0.20914175797E+02 -0.51202064014E+02  0.11950285141E+03  0.87286709050E+02 0.  0.
          5    1    3    3  502    0 -0.68425916835E+02  0.31231226329E+02 -0.32355910612E+02  0.81987029122E+02  0.41800000000E+01 0.  1.
         -5    1    3    3    0  502  0.84016899857E+01 -0.52145402126E+02 -0.88753813661E+02  0.10336558033E+03  0.41800000000E+01 0.  1.
        -11    1    4    4    0    0  0.76435367704E+02  0.16856989421E+02 -0.61644796479E+02  0.99632346461E+02  0.00000000000E+00 0.  1.
         11    1    4    4    0    0 -0.16411140854E+02  0.40571863754E+01  0.10442732465E+02  0.19870504945E+02  0.00000000000E+00 0. -1.
</event>
<event>
 8    1  0.7048627E-009  0.8137522E+02  0.7561462E-02  0.1325193E+00
         -1   -1    0    0    0  501 -0.00000000000E+00  0.00000000000E+00  0.11142090825E+03  0.11142090825E+03  0.00000000000E+00 0.  1.
          1   -1    0    0  501    0  0.00000000000E+00 -0.00000000000E+00 -0.13269639470E+03  0.13269639470E+03  0.00000000000E+00 0. -1.
         25    2    1    2    0    0 -0.14002798318E+02  0.23700346752E+02 -0.56273619319E+02  0.13989219521E+03  0.12508125860E+03 0.  0.
         23    2    1    2    0    0  0.14002798318E+02 -0.23700346752E+02  0.34998132871E+02  0.10422510774E+03  0.94234913820E+02 0.  0.
          5    1    3    3  502    0 -0.49276012360E+02 -0.13561244875E+02  0.13648157165E+02  0.53063898751E+02  0.41800000000E+01 0.  1.
         -5    1    3    3    0  502  0.35273214042E+02  0.37261591627E+02 -0.69921776484E+02  0.86828296460E+02  0.41800000000E+01 0.  1.
        -11    1    4    4    0    0  0.34226065071E+02 -0.19312576909E+02 -0.20977178655E+02  0.44547067035E+02  0.00000000000E+00 0. -1.
         11    1    4    4    0    0 -0.20223266753E+02 -0.43877698434E+01  0.55975311525E+02  0.59678040708E+02  0.00000000000E+00 0.  1.
</event>
<event>
 8    1  0.7048627E-009  0.9472989E+02  0.7561462E-02  0.1291786E+00
          4   -1    0    0  501    0  0.00000000000E+00  0.00000000000E+00  0.18655794064E+03  0.18655794064E+03  0.00000000000E+00 0.  1.
         -4   -1    0    0    0  501 -0.00000000000E+00 -0.00000000000E+00 -0.70138949288E+02  0.70138949288E+02  0.00000000000E+00 0. -1.
         25    2    1    2    0    0  0.29483547431E+02 -0.72454664287E+01  0.40612817205E+02  0.13497483229E+03  0.12508808128E+03 0.  0.
         23    2    1    2    0    0 -0.29483547431E+02  0.72454664287E+01  0.75806174147E+02  0.12172205764E+03  0.90265757206E+02 0.  0.
          5    1    3    3  502    0  0.45459959540E+02 -0.56978357087E+02  0.84734237084E+01  0.73501104801E+02  0.41800000000E+01 0.  1.
         -5    1    3    3    0  502 -0.15976412108E+02  0.49732890658E+02  0.32139393497E+02  0.61473727489E+02  0.41800000000E+01 0.  1.
        -11    1    4    4    0    0 -0.23613622888E+02  0.31343492233E+02 -0.27540090438E+01  0.39339576219E+02  0.00000000000E+00 0. -1.
         11    1    4    4    0    0 -0.58699245437E+01 -0.24098025805E+02  0.78560183190E+02  0.82382481419E+02  0.00000000000E+00 0.  1.
</event>
<event>
 8    1  0.7048627E-009  0.2193174E+03  0.7561462E-02  0.1134393E+00
          2   -1    0    0  501    0  0.00000000000E+00  0.00000000000E+00  0.35664632098E+03  0.35664632098E+03  0.00000000000E+00 0. -1.
         -2   -1    0    0    0  501 -0.00000000000E+00 -0.00000000000E+00 -0.13690775652E+03  0.13690775652E+03  0.00000000000E+00 0.  1.
         25    2    1    2    0    0  0.15789142008E+03  0.10934841105E+03  0.13006739656E+03  0.26353639755E+03  0.12508848729E+03 0.  0.
         23    2    1    2    0    0 -0.15789142008E+03 -0.10934841105E+03  0.89671167906E+02  0.23001767995E+03  0.89333303979E+02 0.  0.
          5    1    3    3  502    0  0.12455987447E+03  0.13377143660E+02  0.89702955289E+02  0.15413696146E+03  0.41800000000E+01 0.  1.
         -5    1    3    3    0  502  0.33331545611E+02  0.95971267393E+02  0.40364441267E+02  0.10939943609E+03  0.41800000000E+01 0.  1.
        -11    1    4    4    0    0 -0.66363897277E+01 -0.47884063673E+02  0.16227028687E+02  0.50992564973E+02  0.00000000000E+00 0. -1.
         11    1    4    4    0    0 -0.15125503036E+03 -0.61464347381E+02  0.73444139220E+02  0.17902511498E+03  0.00000000000E+00 0.  1.
</event>
<event>
 8    1  0.7048627E-009  0.1367078E+03  0.7561462E-02  0.1217829E+00
         -2   -1    0    0    0  501 -0.00000000000E+00  0.00000000000E+00  0.36357087284E+02  0.36357087284E+02  0.00000000000E+00 0.  1.
          2   -1    0    0  501    0  0.00000000000E+00 -0.00000000000E+00 -0.71596636207E+03  0.71596636207E+03  0.00000000000E+00 0. -1.
         25    2    1    2    0    0 -0.10704240474E+03 -0.18309933158E+02 -0.45033171507E+03  0.47983360353E+03  0.12509317894E+03 0.  0.
         23    2    1    2    0    0  0.10704240474E+03  0.18309933158E+02 -0.22927755972E+03  0.27248984582E+03  0.99444389584E+02 0.  0.
          5    1    3    3  502    0 -0.28623029234E+02 -0.58620818286E+02 -0.28512933178E+03  0.29252672763E+03  0.41800000000E+01 0. -1.
         -5    1    3    3    0  502 -0.78419375509E+02  0.40310885128E+02 -0.16520238329E+03  0.18730687590E+03  0.41800000000E+01 0. -1.
        -11    1    4    4    0    0  0.68806664809E+02  0.35987244375E+02 -0.60223233245E+02  0.98266355902E+02  0.00000000000E+00 0.  1.
         11    1    4    4    0    0  0.38235739935E+02 -0.17677311216E+02 -0.16905432647E+03  0.17422348992E+03  0.00000000000E+00 0. -1.
</event>
<event>
 8    1  0.7048627E-009  0.8498219E+02  0.7561462E-02  0.1315479E+00
          3   -1    0    0  501    0  0.00000000000E+00  0.00000000000E+00  0.23316841614E+03  0.23316841614E+03  0.00000000000E+00 0. -1.
         -3   -1    0    0    0  501 -0.00000000000E+00 -0.00000000000E+00 -0.50521744742E+02  0.50521744742E+02  0.00000000000E+00 0.  1.
         25    2    1    2    0    0  0.26886663742E+01  0.12860773369E+01  0.85145254897E+02  0.15134770341E+03  0.12509008744E+03 0.  0.
         23    2    1    2    0    0 -0.26886663742E+01 -0.12860773369E+01  0.97501416501E+02  0.13234245747E+03  0.89437782326E+02 0.  0.
          5    1    3    3  502    0 -0.30601100228E+02  0.32926890577E+02  0.94099886259E+02  0.10436890558E+03  0.41800000000E+01 0.  1.
         -5    1    3    3    0  502  0.33289766602E+02 -0.31640813240E+02 -0.89546313614E+01  0.46978797832E+02  0.41800000000E+01 0.  1.
        -11    1    4    4    0    0 -0.13199950190E+02 -0.38149744925E+02  0.81212052515E+02  0.90692001834E+02  0.00000000000E+00 0. -1.
         11    1    4    4    0    0  0.10511283816E+02  0.36863667589E+02  0.16289363986E+02  0.41650455635E+02  0.00000000000E+00 0.  1.
</event>
<event>
 8    1  0.7048627E-009  0.9208936E+02  0.7561462E-02  0.1297869E+00
         -2   -1    0    0    0  501 -0.00000000000E+00  0.00000000000E+00  0.88861469890E+02  0.88861469890E+02  0.00000000000E+00 0.  1.
          2   -1    0    0  501    0  0.00000000000E+00 -0.00000000000E+00 -0.15824650911E+03  0.15824650911E+03  0.00000000000E+00 0. -1.
         25    2    1    2    0    0 -0.15040310595E+02 -0.88029399681E+01 -0.82800633748E+02  0.15102233443E+03  0.12509235729E+03 0.  0.
         23    2    1    2    0    0  0.15040310595E+02  0.88029399681E+01  0.13415594533E+02  0.96085644569E+02  0.93534860992E+02 0.  0.
          5    1    3    3  502    0 -0.45879563485E+02 -0.52490627860E+02 -0.30852938258E+02  0.76351663753E+02  0.41800000000E+01 0.  1.
         -5    1    3    3    0  502  0.30839252890E+02  0.43687687892E+02 -0.51947695491E+02  0.74670670674E+02  0.41800000000E+01 0.  1.
        -11    1    4    4    0    0 -0.19825508472E+02 -0.87427303445E+01  0.42301370710E+02  0.47527803274E+02  0.00000000000E+00 0.  1.
         11    1    4    4    0    0  0.34865819068E+02  0.17545670313E+02 -0.28885776177E+02  0.48557841296E+02  0.00000000000E+00 0. -1.
</event>
<event>
 8    1  0.7048627E-009  0.1445040E+03  0.7561462E-02  0.1207394E+00
         -1   -1    0    0    0  501 -0.00000000000E+00  0.00000000000E+00  0.10770129620E+03  0.10770129620E+03  0.00000000000E+00 0. -1.
          1   -1    0    0  501    0  0.00000000000E+00 -0.00000000000E+00 -0.28808971470E+03  0.28808971470E+03  0.00000000000E+00 0.  1.
         25    2    1    2    0    0 -0.13746210520E+03  0.72655089521E+01 -0.10708888820E+03  0.21462538903E+03  0.12508960650E+03 0.  0.
         23    2    1    2    0    0  0.13746210520E+03 -0.72655089521E+01 -0.73299530291E+02  0.18116562186E+03  0.92192968376E+02 0.  0.
          5    1    3    3  502    0 -0.11737456710E+02 -0.11956702950E+02  0.25534095391E+02  0.30825201750E+02  0.41800000000E+01 0. -1.
         -5    1    3    3    0  502 -0.12572464849E+03  0.19222211902E+02 -0.13262298359E+03  0.18380018728E+03  0.41800000000E+01 0. -1.
        -11    1    4    4    0    0  0.98952748311E+02  0.14875351004E+02 -0.89134491153E+02  0.13400701466E+03  0.00000000000E+00 0.  1.
         11    1    4    4    0    0  0.38509356890E+02 -0.22140859956E+02  0.15834960862E+02  0.47158607201E+02  0.00000000000E+00 0. -1.
</event>
<event>
 8    1  0.7048627E-009  0.8951992E+02  0.7561462E-02  0.1304018E+00
         -3   -1    0    0    0  501 -0.00000000000E+00  0.00000000000E+00  0.70867379097E+02  0.70867379097E+02  0.00000000000E+00 0.  1.
          3   -1    0    0  501    0  0.00000000000E+00 -0.00000000000E+00 -0.18401919052E+03  0.18401919052E+03  0.00000000000E+00 0. -1.
         25    2    1    2    0    0 -0.33348678636E+00  0.34871629675E+02 -0.77562338346E+02  0.15125552031E+03  0.12508466862E+03 0.  0.
         23    2    1    2    0    0  0.33348678636E+00 -0.34871629675E+02 -0.35589473075E+02  0.10363104931E+03  0.90866066370E+02 0.  0.
          5    1    3    3  502    0 -0.35108300899E+02  0.56350987005E+02 -0.35688655530E+01  0.66620085033E+02  0.41800000000E+01 0.  1.
         -5    1    3    3    0  502  0.34774814112E+02 -0.21479357330E+02 -0.73993472793E+02  0.84635435273E+02  0.41800000000E+01 0.  1.
        -11    1    4    4    0    0  0.21029836278E+02 -0.44031585107E+02  0.12595623102E+02  0.50395279761E+02  0.00000000000E+00 0.  1.
         11    1    4    4    0    0 -0.20696349492E+02  0.91599554319E+01 -0.48185096176E+02  0.53235769547E+02  0.00000000000E+00 0. -1.
</event>
<event>
 8    1  0.7048627E-009  0.1746377E+03  0.7561462E-02  0.1173096E+00
         -1   -1    0    0    0  501 -0.00000000000E+00  0.00000000000E+00  0.12301127768E+03  0.12301127768E+03  0.00000000000E+00 0.  1.
          1   -1    0    0  501    0  0.00000000000E+00 -0.00000000000E+00 -0.34525436408E+03  0.34525436408E+03  0.00000000000E+00 0. -1.
         25    2    1    2    0    0 -0.30678334450E+02  0.15553471512E+03 -0.19934025476E+03  0.28375245844E+03  0.12508682061E+03 0.  0.
         23    2    1    2    0    0  0.30678334450E+02 -0.15553471512E+03 -0.22902831640E+02  0.18451318332E+03  0.91588030373E+02 0.  0.
          5    1    3    3  502    0 -0.49875983676E+02  0.13887699387E+03 -0.20931156810E+03  0.25613129078E+03  0.41800000000E+01 0.  1.
         -5    1    3    3    0  502  0.19197649226E+02  0.16657721252E+02  0.99713133448E+01  0.27621167660E+02  0.41800000000E+01 0.  1.
        -11    1    4    4    0    0 -0.23050511436E+02 -0.79634080007E+02 -0.36406773565E+02  0.90544828331E+02  0.00000000000E+00 0.  1.
         11    1    4    4    0    0  0.53728845886E+02 -0.75900635117E+02  0.13503941925E+02  0.93968354987E+02  0.00000000000E+00 0. -1.
</event>
<event>
 8    1  0.7048627E-009  0.1548935E+03  0.7561462E-02  0.1194586E+00
         -1   -1    0    0    0  501 -0.00000000000E+00  0.00000000000E+00  0.47672749983E+02  0.47672749983E+02  0.00000000000E+00 0.  1.
          1   -1    0    0  501    0  0.00000000000E+00 -0.00000000000E+00 -0.71406910867E+03  0.71406910867E+03  0.00000000000E+00 0. -1.
         25    2    1    2    0    0  0.94930519103E+02  0.94040543136E+02 -0.48499855840E+03  0.51838770627E+03  0.12508711024E+03 0.  0.
         23    2    1    2    0    0 -0.94930519103E+02 -0.94040543136E+02 -0.18139780029E+03  0.24335415239E+03  0.91981815187E+02 0.  0.
          5    1    3    3  502    0  0.62145957487E+02 -0.13434746534E+02 -0.11253958325E+03  0.12932610968E+03  0.41800000000E+01 0.  1.
         -5    1    3    3    0  502  0.32784561615E+02  0.10747528967E+03 -0.37245897515E+03  0.38906159658E+03  0.41800000000E+01 0.  1.
        -11    1    4    4    0    0 -0.55106237190E+02 -0.54097934653E+02 -0.31867060303E+02  0.83539173107E+02  0.00000000000E+00 0.  1.
         11    1    4    4    0    0 -0.39824281912E+02 -0.39942608483E+02 -0.14953073999E+03  0.15981497928E+03  0.00000000000E+00 0. -1.
</event>
<event>
 8    1  0.7048627E-009  0.5884048E+02  0.7561462E-02  0.1402763E+00
         -2   -1    0    0    0  501 -0.00000000000E+00  0.00000000000E+00  0.63865005594E+03  0.63865005594E+03  0.00000000000E+00 0.  1.
          2   -1    0    0  501    0  0.00000000000E+00 -0.00000000000E+00 -0.20627196734E+02  0.20627196734E+02  0.00000000000E+00 0. -1.
         25    2    1    2    0    0  0.33806513703E+01  0.24420742394E+02  0.43183234012E+03  0.45025612369E+03  0.12507439980E+03 0.  0.
         23    2    1    2    0    0 -0.33806513703E+01 -0.24420742394E+02  0.18619051909E+03  0.20902112899E+03  0.91733971358E+02 0.  0.
          5    1    3    3  502    0 -0.26280274943E+01  0.13453092653E+02 -0.34776463423E+01  0.14746479394E+02  0.41800000000E+01 0. -1.
         -5    1    3    3    0  502  0.60086788645E+01  0.10967649741E+02  0.43530998646E+03  0.43550964429E+03  0.41800000000E+01 0. -1.
        -11    1    4    4    0    0  0.40683377934E+02 -0.21472013349E+02  0.61929124519E+02  0.77145324298E+02  0.00000000000E+00 0.  1.
         11    1    4    4    0    0 -0.44064029304E+02 -0.29487290453E+01  0.12426139457E+03  0.13187580469E+03  0.00000000000E+00 0. -1.
</event>
<event>
 8    1  0.7048627E-009  0.1785346E+03  0.7561462E-02  0.1169229E+00
          2   -1    0    0  501    0  0.00000000000E+00  0.00000000000E+00  0.28349054639E+03  0.28349054639E+03  0.00000000000E+00 0.  1.
         -2   -1    0    0    0  501 -0.00000000000E+00 -0.00000000000E+00 -0.12321029014E+03  0.12321029014E+03  0.00000000000E+00 0. -1.
         25    2    1    2    0    0  0.14522868773E+03 -0.38971241046E+02  0.11263691680E+03  0.22570979164E+03  0.12509078962E+03 0.  0.
         23    2    1    2    0    0 -0.14522868773E+03  0.38971241046E+02  0.47643339447E+02  0.18099104490E+03  0.88756640148E+02 0.  0.
          5    1    3    3  502    0  0.12336010789E+03 -0.72017629938E+02  0.11822973419E+03  0.18547236367E+03  0.41800000000E+01 0.  1.
         -5    1    3    3    0  502  0.21868579844E+02  0.33046388892E+02 -0.55928173885E+01  0.40237427968E+02  0.41800000000E+01 0.  1.
        -11    1    4    4    0    0 -0.10133927415E+03 -0.17455543702E+02  0.33220079508E+02  0.10806441677E+03  0.00000000000E+00 0.  1.
         11    1    4    4    0    0 -0.43889413584E+02  0.56426784749E+02  0.14423259939E+02  0.72926628121E+02  0.00000000000E+00 0. -1.
</event>
<event>
 8    1  0.7048627E-009  0.1088882E+03  0.7561462E-02  0.1262643E+00
          2   -1    0    0  501    0  0.00000000000E+00  0.00000000000E+00  0.46826219443E+03  0.46826219443E+03  0.00000000000E+00 0.  1.
         -2   -1    0    0    0  501 -0.00000000000E+00 -0.00000000000E+00 -0.33371153321E+02  0.33371153321E+02  0.00000000000E+00 0. -1.
         25    2    1    2    0    0 -0.26916628127E+02  0.58886568786E+02  0.23976075251E+03  0.27807417464E+03  0.12509154768E+03 0.  0.
         23    2    1    2    0    0  0.26916628127E+02 -0.58886568786E+02  0.19513028860E+03  0.22355917311E+03  0.87810827932E+02 0.  0.
          5    1    3    3  502    0  0.39422031563E+02  0.60796383485E+02  0.10299256385E+03  0.12599697388E+03  0.41800000000E+01 0. -1.
         -5    1    3    3    0  502 -0.66338659690E+02 -0.19098146987E+01  0.13676818866E+03  0.15207720076E+03  0.41800000000E+01 0. -1.
        -11    1    4    4    0    0  0.39561825583E+02 -0.45024522441E+02  0.19581603047E+03  0.20478345503E+03  0.00000000000E+00 0.  1.
         11    1    4    4    0    0 -0.12645197456E+02 -0.13862046346E+02 -0.68574187594E+00  0.18775718082E+02  0.00000000000E+00 0. -1.
</event>
<event>
 8    1  0.7048627E-009  0.7725489E+02  0.7561462E-02  0.1337027E+00
         -1   -1    0    0    0  501 -0.00000000000E+00  0.00000000000E+00  0.22328597375E+03  0.22328597375E+03  0.00000000000E+00 0.  1.
          1   -1    0    0  501    0  0.00000000000E+00 -0.00000000000E+00 -0.72110236732E+02  0.72110236732E+02  0.00000000000E+00 0. -1.
         25    2    1    2    0    0 -0.32169545662E+02  0.56453078173E+02  0.69826743833E+02  0.15730564206E+03  0.12508981240E+03 0.  0.
         23    2    1    2    0    0  0.32169545662E+02 -0.56453078173E+02  0.81348993189E+02  0.13809056842E+03  0.90716683645E+02 0.  0.
          5    1    3    3  502    0 -0.40649729262E+02  0.64815482337E+02 -0.92948123148E+01  0.77183632822E+02  0.41800000000E+01 0. -1.
         -5    1    3    3    0  502  0.84801836001E+01 -0.83624041646E+01  0.79121556148E+02  0.80122009239E+02  0.41800000000E+01 0. -1.
        -11    1    4    4    0    0  0.80700380742E+01 -0.19999265281E+02 -0.18934935600E+02  0.28698918315E+02  0.00000000000E+00 0. -1.
         11    1    4    4    0    0  0.24099507588E+02 -0.36453812892E+02  0.10028392879E+03  0.10939165011E+03  0.00000000000E+00 0.  1.
</event>
<event>
 8    1  0.7048627E-009  0.1989191E+03  0.7561462E-02  0.1150654E+00
          1   -1    0    0  501    0  0.00000000000E+00  0.00000000000E+00  0.11054885025E+04  0.11054885025E+04  0.00000000000E+00 0. -1.
         -1   -1    0    0    0  501 -0.00000000000E+00 -0.00000000000E+00 -0.42965500890E+02  0.42965500890E+02  0.00000000000E+00 0.  1.
         25    2    1    2    0    0  0.34910836679E+02 -0.17805438342E+03  0.68996978426E+03  0.72431193820E+03  0.12508937069E+03 0.  0.
         23    2    1    2    0    0 -0.34910836679E+02  0.17805438342E+03  0.37255321731E+03  0.42414206514E+03  0.90434847948E+02 0.  0.
          5    1    3    3  502    0 -0.12763570123E+02  0.96857713978E+01  0.14470537402E+03  0.14564971871E+03  0.41800000000E+01 0.  1.
         -5    1    3    3    0  502  0.47674406802E+02 -0.18774015482E+03  0.54526441024E+03  0.57866221949E+03  0.41800000000E+01 0.  1.
        -11    1    4    4    0    0 -0.46722823137E+02  0.13341171135E+03  0.19604257803E+03  0.24169071006E+03  0.00000000000E+00 0.  1.
         11    1    4    4    0    0  0.11811986458E+02  0.44642672071E+02  0.17651063928E+03  0.18245135509E+03  0.00000000000E+00 0. -1.
</event>
<event>
 8    1  0.7048627E-009  0.8247620E+02  0.7561462E-02  0.1322168E+00
          1   -1    0    0  501    0  0.00000000000E+00  0.00000000000E+00  0.14853617150E+04  0.14853617150E+04  0.00000000000E+00 0. -1.
         -1   -1    0    0    0  501 -0.00000000000E+00 -0.00000000000E+00 -0.12852460977E+02  0.12852460977E+02  0.00000000000E+00 0.  1.
         25    2    1    2    0    0  0.74953748291E+01 -0.39098402333E+01  0.12967345250E+04  0.13027814498E+04  0.12509040769E+03 0.  0.
         23    2    1    2    0    0 -0.74953748291E+01  0.39098402333E+01  0.17577472899E+03  0.19543272616E+03  0.85004279928E+02 0.  0.
          5    1    3    3  502    0  0.44065868872E+02 -0.15184702757E+02  0.11539462215E+04  0.11548946837E+04  0.41800000000E+01 0. -1.
         -5    1    3    3    0  502 -0.36570494042E+02  0.11274862524E+02  0.14278830356E+03  0.14788676611E+03  0.41800000000E+01 0. -1.
        -11    1    4    4    0    0 -0.32470484748E+02 -0.25347372034E+02  0.55234613971E+02  0.68903441346E+02  0.00000000000E+00 0.  1.
         11    1    4    4    0    0  0.24975109919E+02  0.29257212267E+02  0.12054011502E+03  0.12652928481E+03  0.00000000000E+00 0. -1.
</event>
<event>
 8    1  0.7048627E-009  0.8815183E+02  0.7561462E-02  0.1307390E+00
          2   -1    0    0  501    0  0.00000000000E+00  0.00000000000E+00  0.21501576246E+03  0.21501576246E+03  0.00000000000E+00 0. -1.
         -2   -1    0    0    0  501 -0.00000000000E+00 -0.00000000000E+00 -0.66345617238E+02  0.66345617238E+02  0.00000000000E+00 0.  1.
         25    2    1    2    0    0 -0.64646422577E+01  0.43097305975E+02  0.48644404939E+02  0.14111574468E+03  0.12509278909E+03 0.  0.
         23    2    1    2    0    0  0.64646422577E+01 -0.43097305975E+02  0.10002574029E+03  0.14024563503E+03  0.88116514013E+02 0.  0.
          5    1    3    3  502    0 -0.47455353618E+01  0.61356413740E+02  0.82127437377E+02  0.10271084647E+03  0.41800000000E+01 0.  1.
         -5    1    3    3    0  502 -0.17191068959E+01 -0.18259107765E+02 -0.33483032438E+02  0.38404898205E+02  0.41800000000E+01 0.  1.
        -11    1    4    4    0    0  0.39841598133E+01  0.26184480576E+02  0.42890919718E+02  0.50409637439E+02  0.00000000000E+00 0. -1.
         11    1    4    4    0    0  0.24804824444E+01 -0.69281786551E+02  0.57134820570E+02  0.89835997587E+02  0.00000000000E+00 0.  1.
</event>
<event>
 8    1  0.7048627E-009  0.9688081E+02  0.7561462E-02  0.1286995E+00
          2   -1    0    0  501    0  0.00000000000E+00  0.00000000000E+00  0.15299345813E+03  0.15299345813E+03  0.00000000000E+00 0. -1.
         -2   -1    0    0    0  501 -0.00000000000E+00 -0.00000000000E+00 -0.12318905250E+03  0.12318905250E+03  0.00000000000E+00 0.  1.
         25    2    1    2    0    0 -0.90825759505E+01  0.83926106676E+02  0.18141345908E+02  0.15200035044E+03  0.12509561757E+03 0.  0.
         23    2    1    2    0    0  0.90825759505E+01 -0.83926106676E+02  0.11663059723E+02  0.12418216019E+03  0.90327722096E+02 0.  0.
          5    1    3    3  502    0 -0.54301168170E+01 -0.11213920289E+02  0.49856800945E+02  0.51559782557E+02  0.41800000000E+01 0. -1.
         -5    1    3    3    0  502 -0.36524591335E+01  0.95140026966E+02 -0.31715455036E+02  0.10044056788E+03  0.41800000000E+01 0. -1.
        -11    1    4    4    0    0 -0.31295140061E+01 -0.16190788615E+02  0.44839807589E+02  0.47775975537E+02  0.00000000000E+00 0. -1.
         11    1    4    4    0    0  0.12212089957E+02 -0.67735318061E+02 -0.33176747866E+02  0.76406184651E+02  0.00000000000E+00 0.  1.
</event>
<event>
 8    1  0.7048627E-009  0.9028978E+02  0.7561462E-02  0.1302151E+00
         -2   -1    0    0    0  501 -0.00000000000E+00  0.00000000000E+00  0.58738238423E+02  0.58738238423E+02  0.00000000000E+00 0.  1.
          2   -1    0    0  501    0  0.00000000000E+00 -0.00000000000E+00 -0.24829190794E+03  0.24829190794E+03  0.00000000000E+00 0. -1.
         25    2    1    2    0    0  0.20961514849E+02  0.47318087390E+02 -0.91877450517E+02  0.16360641342E+03  0.12508879286E+03 0.  0.
         23    2    1    2    0    0 -0.20961514849E+02 -0.47318087390E+02 -0.97676218998E+02  0.14342373294E+03  0.91385649390E+02 0.  0.
          5    1    3    3  502    0  0.11946852026E+02 -0.38774678963E+02 -0.53434700301E+01  0.41136699843E+02  0.41800000000E+01 0.  1.
         -5    1    3    3    0  502  0.90146628229E+01  0.86092766353E+02 -0.86533980487E+02  0.12246971357E+03  0.41800000000E+01 0.  1.
        -11    1    4    4    0    0 -0.15815978458E+02 -0.20885180309E+02  0.13191975270E+02  0.29331964521E+02  0.00000000000E+00 0.  1.
         11    1    4    4    0    0 -0.51455363912E+01 -0.26432907081E+02 -0.11086819427E+03  0.11409176842E+03  0.00000000000E+00 0. -1.
</event>
<event>
 8    1  0.7048627E-009  0.1099536E+03  0.7561462E-02  0.1260656E+00
         -2   -1    0    0    0  501 -0.00000000000E+00  0.00000000000E+00  0.31028383026E+03  0.31028383026E+03  0.00000000000E+00 0.  1.
          2   -1    0    0  501    0  0.00000000000E+00 -0.00000000000E+00 -0.80075282484E+02  0.80075282484E+02  0.00000000000E+00 0. -1.
         25    2    1    2    0    0  0.74351785885E+02 -0.42150855510E+01  0.23093808291E+03  0.27299243890E+03  0.12508604457E+03 0.  0.
         23    2    1    2    0    0 -0.74351785885E+02  0.42150855510E+01 -0.72953513805E+00  0.11736667384E+03  0.90710798129E+02 0.  0.
          5    1    3    3  502    0 -0.10971515569E+02  0.11112023030E+02 -0.85328393772E+01  0.18279304077E+02  0.41800000000E+01 0.  1.
         -5    1    3    3    0  502  0.85323301454E+02 -0.15327108581E+02  0.23947092229E+03  0.25471313482E+03  0.41800000000E+01 0.  1.
        -11    1    4    4    0    0 -0.49549293020E+02 -0.41703228302E+02 -0.52906242699E+01  0.64979091981E+02  0.00000000000E+00 0.  1.
         11    1    4    4    0    0 -0.24802492865E+02  0.45918313853E+02  0.45610891319E+01  0.52387581863E+02  0.00000000000E+00 0. -1.
</event>
<event>
 8    1  0.7048627E-009  0.2716417E+03  0.7561462E-02  0.1100344E+00
          2   -1    0    0  501    0  0.00000000000E+00  0.00000000000E+00  0.25872527890E+03  0.25872527890E+03  0.00000000000E+00 0. -1.
         -2   -1    0    0    0  501 -0.00000000000E+00 -0.00000000000E+00 -0.30533358166E+03  0.30533358166E+03  0.00000000000E+00 0.  1.
         25    2    1    2    0    0  0.17166524589E+03  0.19284427561E+03 -0.97242675698E+01  0.28704579022E+03  0.12507139170E+03 0.  0.
         23    2    1    2    0    0 -0.17166524589E+03 -0.19284427561E+03 -0.36884035190E+02  0.27701307035E+03  0.93369897770E+02 0.  0.
          5    1    3    3  502    0 -0.10587763905E+02  0.28076568670E+02 -0.27176521714E+02  0.40699265169E+02  0.41800000000E+01 0. -1.
         -5    1    3    3    0  502  0.18225300980E+03  0.16476770694E+03  0.17452254144E+02  0.24634652505E+03  0.41800000000E+01 0. -1.
        -11    1    4    4    0    0 -0.97649817759E+02 -0.58379990865E+02 -0.47210592927E+02  0.12317690663E+03  0.00000000000E+00 0.  1.
         11    1    4    4    0    0 -0.74015428131E+02 -0.13446428475E+03  0.10326557737E+02  0.15383616372E+03  0.00000000000E+00 0. -1.
</event>
<event>
 8    1  0.7048627E-009  0.1627817E+03  0.7561462E-02  0.1185592E+00
         -1   -1    0    0    0  501 -0.00000000000E+00  0.00000000000E+00  0.49803451652E+02  0.49803451652E+02  0.00000000000E+00 0.  1.
          1   -1    0    0  501    0  0.00000000000E+00 -0.00000000000E+00 -0.70185674890E+03  0.70185674890E+03  0.00000000000E+00 0. -1.
         25    2    1    2    0    0 -0.93955566730E+02 -0.88799825773E+02 -0.17763028142E+03  0.25280671188E+03  0.12508260917E+03 0.  0.
         23    2    1    2    0    0  0.93955566730E+02  0.88799825773E+02 -0.47442301583E+03  0.49885348868E+03  0.84050863396E+02 0.  0.
          5    1    3    3  502    0  0.30958065916E+02 -0.21617505031E+02 -0.37722346047E+02  0.53536587119E+02  0.41800000000E+01 0.  1.
         -5    1    3    3    0  502 -0.12491363265E+03 -0.67182320742E+02 -0.13990793537E+03  0.19927012476E+03  0.41800000000E+01 0.  1.
        -11    1    4    4    0    0  0.45212832235E+02  0.96230547867E+00 -0.80597490671E+02  0.92417972998E+02  0.00000000000E+00 0.  1.
         11    1    4    4    0    0  0.48742734495E+02  0.87837520295E+02 -0.39382552516E+03  0.40643551568E+03  0.00000000000E+00 0. -1.
</event>
<event>
 8    1  0.7048627E-009  0.8283485E+02  0.7561462E-02  0.1321194E+00
         -1   -1    0    0    0  501 -0.00000000000E+00  0.00000000000E+00  0.65460153222E+02  0.65460153222E+02  0.00000000000E+00 0.  1.
          1   -1    0    0  501    0  0.00000000000E+00 -0.00000000000E+00 -0.33550419377E+03  0.33550419377E+03  0.00000000000E+00 0. -1.
         25    2    1    2    0    0  0.75687775457E+01  0.46237679763E+02 -0.28516308214E+02  0.13658643452E+03  0.12508982707E+03 0.  0.
         23    2    1    2    0    0 -0.75687775457E+01 -0.46237679763E+02 -0.24152773233E+03  0.26437791247E+03  0.96772029505E+02 0.  0.
          5    1    3    3  502    0  0.17444195080E+02  0.43007912592E+01  0.46473321724E+02  0.50000387794E+02  0.41800000000E+01 0. -1.
         -5    1    3    3    0  502 -0.98754175340E+01  0.41936888504E+02 -0.74989629938E+02  0.86586046723E+02  0.41800000000E+01 0. -1.
        -11    1    4    4    0    0  0.85415562794E+01 -0.72568098179E+02 -0.13547069267E+03  0.15392009495E+03  0.00000000000E+00 0. -1.
         11    1    4    4    0    0 -0.16110333825E+02  0.26330418416E+02 -0.10605703967E+03  0.11045781753E+03  0.00000000000E+00 0.  1.
</event>
<event>
 8    1  0.7048627E-009  0.3656406E+03  0.7561462E-02  0.1056372E+00
          1   -1    0    0  501    0  0.00000000000E+00  0.00000000000E+00  0.65736966192E+03  0.65736966192E+03  0.00000000000E+00 0. -1.
         -1   -1    0    0    0  501 -0.00000000000E+00 -0.00000000000E+00 -0.22558089866E+03  0.22558089866E+03  0.00000000000E+00 0.  1.
         25    2    1    2    0    0 -0.23572643618E+03 -0.26173469674E+03  0.34493536967E+03  0.50862507910E+03  0.12508819946E+03 0.  0.
         23    2    1    2    0    0  0.23572643618E+03  0.26173469674E+03  0.86853393587E+02  0.37432548149E+03  0.92217405734E+02 0.  0.
          5    1    3    3  502    0 -0.36507666832E+02 -0.12482354974E+03  0.96742929855E+02  0.16214313178E+03  0.41800000000E+01 0.  1.
         -5    1    3    3    0  502 -0.19921876935E+03 -0.13691114700E+03  0.24819243982E+03  0.34648194732E+03  0.41800000000E+01 0.  1.
        -11    1    4    4    0    0  0.23722206232E+03  0.23945050657E+03  0.95572183786E+02  0.35034967427E+03  0.00000000000E+00 0. -1.
         11    1    4    4    0    0 -0.14956261411E+01  0.22284190166E+02 -0.87187901990E+01  0.23975807212E+02  0.00000000000E+00 0.  1.
</event>
<event>
 8    1  0.7048627E-009  0.1694848E+03  0.7561462E-02  0.1178386E+00
          1   -1    0    0  501    0  0.00000000000E+00  0.00000000000E+00  0.88176002551E+02  0.88176002551E+02  0.00000000000E+00 0. -1.
         -1   -1    0    0    0  501 -0.00000000000E+00 -0.00000000000E+00 -0.48619940952E+03  0.48619940952E+03  0.00000000000E+00 0.  1.
         25    2    1    2    0    0 -0.15326964758E+03  0.53560109112E+02 -0.30156307907E+03  0.36461999465E+03  0.12508868726E+03 0.  0.
         23    2    1    2    0    0  0.15326964758E+03 -0.53560109112E+02 -0.96460327901E+02  0.20975541742E+03  0.91282364791E+02 0.  0.
          5    1    3    3  502    0 -0.90632274442E+02  0.20180782118E+02 -0.54976244947E+02  0.10798765228E+03  0.41800000000E+01 0.  1.
         -5    1    3    3    0  502 -0.62637373140E+02  0.33379326993E+02 -0.24658683413E+03  0.25663234237E+03  0.41800000000E+01 0.  1.
        -11    1    4    4    0    0  0.26552684276E+02 -0.39269991183E+02 -0.61272719120E+02  0.77469499535E+02  0.00000000000E+00 0.  1.
         11    1    4    4    0    0  0.12671696331E+03 -0.14290117929E+02 -0.35187608781E+02  0.13228591789E+03  0.00000000000E+00 0. -1.
</event>
<event>
 8    1  0.7048627E-009  0.1245366E+03  0.7561462E-02  0.1235795E+00
          2   -1    0    0  501    0  0.00000000000E+00  0.00000000000E+00  0.54233495660E+03  0.54233495660E+03  0.00000000000E+00 0. -1.
         -2   -1    0    0    0  501 -0.00000000000E+00 -0.00000000000E+00 -0.44315490239E+02  0.44315490239E+02  0.00000000000E+00 0.  1.
         25    2    1    2    0    0 -0.50377907373E+02 -0.85029535221E+02  0.36461785265E+03  0.39794649829E+03  0.12508909472E+03 0.  0.
         23    2    1    2    0    0  0.50377907373E+02  0.85029535221E+02  0.13340161371E+03  0.18870394855E+03  0.89695229785E+02 0.  0.
          5    1    3    3  502    0 -0.39220328552E+02 -0.97408590714E+02  0.36592361538E+03  0.38071542182E+03  0.41800000000E+01 0.  1.
         -5    1    3    3    0  502 -0.11157578821E+02  0.12379055493E+02 -0.13057627293E+01  0.17231076471E+02  0.41800000000E+01 0.  1.
        -11    1    4    4    0    0 -0.21640647937E+02  0.24815449031E+02  0.11567203094E+02  0.34898772775E+02  0.00000000000E+00 0.  1.
         11    1    4    4    0    0  0.72018555310E+02  0.60214086190E+02  0.12183441061E+03  0.15380517577E+03  0.00000000000E+00 0. -1.
</event>
<event>
 8    1  0.7048627E-009  0.3137502E+03  0.7561462E-02  0.1078562E+00
         -2   -1    0    0    0  501 -0.00000000000E+00  0.00000000000E+00  0.14110744128E+03  0.14110744128E+03  0.00000000000E+00 0.  1.
          2   -1    0    0  501    0  0.00000000000E+00 -0.00000000000E+00 -0.92763750342E+03  0.92763750342E+03  0.00000000000E+00 0. -1.
         25    2    1    2    0    0  0.15656762944E+03 -0.26415695918E+03 -0.63048161509E+03  0.71235326013E+03  0.12509108114E+03 0.  0.
         23    2    1    2    0    0 -0.15656762944E+03  0.26415695918E+03 -0.15604844706E+03  0.35639168457E+03  0.91496411550E+02 0.  0.
          5    1    3    3  502    0  0.10581878717E+03 -0.21692184044E+03 -0.36251029114E+03  0.43552713367E+03  0.41800000000E+01 0.  1.
         -5    1    3    3    0  502  0.50748842268E+02 -0.47235118745E+02 -0.26797132395E+03  0.27682612646E+03  0.41800000000E+01 0.  1.
        -11    1    4    4    0    0 -0.14044353997E+03  0.16717220526E+03 -0.13214319550E+03  0.25521120322E+03  0.00000000000E+00 0.  1.
         11    1    4    4    0    0 -0.16124089474E+02  0.96984753921E+02 -0.23905251560E+02  0.10118048135E+03  0.00000000000E+00 0. -1.
</event>
<event>
 8    1  0.7048627E-009  0.8901208E+02  0.7561462E-02  0.1305262E+00
          1   -1    0    0  501    0  0.00000000000E+00  0.00000000000E+00  0.11669829342E+03  0.11669829342E+03  0.00000000000E+00 0. -1.
         -1   -1    0    0    0  501 -0.00000000000E+00 -0.00000000000E+00 -0.10197807652E+03  0.10197807652E+03  0.00000000000E+00 0.  1.
         25    2    1    2    0    0  0.62831541198E+01 -0.95617369345E+01  0.86625865162E+01  0.12591044765E+03  0.12508994997E+03 0.  0.
         23    2    1    2    0    0 -0.62831541198E+01  0.95617369345E+01  0.60576303822E+01  0.92765922299E+02  0.91858133092E+02 0.  0.
          5    1    3    3  502    0 -0.24715767633E+01  0.37294941720E+02 -0.41894439491E+02  0.56299536676E+02  0.41800000000E+01 0.  1.
         -5    1    3    3    0  502  0.87547308831E+01 -0.46856678655E+02  0.50557026008E+02  0.69610910970E+02  0.41800000000E+01 0.  1.
        -11    1    4    4    0    0  0.16402417238E+02  0.46448522642E+02  0.36527094704E+01  0.49394805732E+02  0.00000000000E+00 0. -1.
         11    1    4    4    0    0 -0.22685571358E+02 -0.36886785707E+02  0.24049209118E+01  0.43371116567E+02  0.00000000000E+00 0.  1.
</event>
<event>
 8    1  0.7048627E-009  0.8242336E+02  0.7561462E-02  0.1322312E+00
          2   -1    0    0  501    0  0.00000000000E+00  0.00000000000E+00  0.96655770698E+03  0.96655770698E+03  0.00000000000E+00 0. -1.
         -2   -1    0    0    0  501 -0.00000000000E+00 -0.00000000000E+00 -0.20363878076E+02  0.20363878076E+02  0.00000000000E+00 0.  1.
         25    2    1    2    0    0 -0.24045442588E+02  0.33966608159E+02  0.78517534604E+03  0.79616538220E+03  0.12508828085E+03 0.  0.
         23    2    1    2    0    0  0.24045442588E+02 -0.33966608159E+02  0.16101848287E+03  0.19075620286E+03  0.93429456409E+02 0.  0.
          5    1    3    3  502    0  0.19264719786E+02 -0.25190538606E+02  0.52077094060E+03  0.52175237195E+03  0.41800000000E+01 0.  1.
         -5    1    3    3    0  502 -0.43310162374E+02  0.59157146764E+02  0.26440440544E+03  0.27441301025E+03  0.41800000000E+01 0.  1.
        -11    1    4    4    0    0  0.28070742066E+02 -0.30381200493E+01  0.15617604776E+01  0.28277832827E+02  0.00000000000E+00 0.  1.
         11    1    4    4    0    0 -0.40252994784E+01 -0.30928488109E+02  0.15945672239E+03  0.16247837003E+03  0.00000000000E+00 0. -1.
</event>
<event>
 8    1  0.7048627E-009  0.7774280E+02  0.7561462E-02  0.1335582E+00
          2   -1    0    0  501    0  0.00000000000E+00  0.00000000000E+00  0.32083114288E+03  0.32083114288E+03  0.00000000000E+00 0.  1.
         -2   -1    0    0    0  501 -0.00000000000E+00 -0.00000000000E+00 -0.42301674989E+02  0.42301674989E+02  0.00000000000E+00 0. -1.
         25    2    1    2    0    0 -0.27401348337E+02  0.34767034006E+01  0.10636040033E+03  0.16649881223E+03  0.12508556415E+03 0.  0.
         23    2    1    2    0    0  0.27401348337E+02 -0.34767034006E+01  0.17216906756E+03  0.19663400564E+03  0.90883568316E+02 0.  0.
          5    1    3    3  502    0 -0.23803620571E+02  0.30242853124E+02  0.12666755589E+03  0.13245144254E+03  0.41800000000E+01 0.  1.
         -5    1    3    3    0  502 -0.35977277657E+01 -0.26766149724E+02 -0.20307155556E+02  0.34047369691E+02  0.41800000000E+01 0.  1.
        -11    1    4    4    0    0  0.22149433661E+02  0.39961507449E+02  0.54644904556E+02  0.71229102781E+02  0.00000000000E+00 0. -1.
         11    1    4    4    0    0  0.52519146764E+01 -0.43438210850E+02  0.11752416301E+03  0.12540490286E+03  0.00000000000E+00 0.  1.
</event>
<event>
 8    1  0.7048627E-009  0.8911011E+02  0.7561462E-02  0.1305021E+00
         -1   -1    0    0    0  501 -0.00000000000E+00  0.00000000000E+00  0.74966831174E+02  0.74966831174E+02  0.00000000000E+00 0.  1.
          1   -1    0    0  501    0  0.00000000000E+00 -0.00000000000E+00 -0.39621241900E+03  0.39621241900E+03  0.00000000000E+00 0. -1.
         25    2    1    2    0    0  0.53119915780E+02  0.56463810214E+02 -0.31997495483E+03  0.35219724443E+03  0.12509612283E+03 0.  0.
         23    2    1    2    0    0 -0.53119915780E+02 -0.56463810214E+02 -0.12706329891E+01  0.11898200574E+03  0.90250849665E+02 0.  0.
          5    1    3    3  502    0 -0.63629494532E+01 -0.21198929827E+00  0.97456528060E+01  0.12368597892E+02  0.41800000000E+01 0.  1.
         -5    1    3    3    0  502  0.59482865233E+02  0.56675799512E+02 -0.32972060764E+03  0.33982864654E+03  0.41800000000E+01 0.  1.
        -11    1    4    4    0    0 -0.21557508595E+01 -0.31524844919E+02  0.38415310355E+02  0.49741322647E+02  0.00000000000E+00 0.  1.
         11    1    4    4    0    0 -0.50964164920E+02 -0.24938965295E+02 -0.39685943344E+02  0.69240683093E+02  0.00000000000E+00 0. -1.
</event>
<event>
 8    1  0.7048627E-009  0.1232387E+03  0.7561462E-02  0.1237848E+00
         -3   -1    0    0    0  501 -0.00000000000E+00  0.00000000000E+00  0.18691033991E+03  0.18691033991E+03  0.00000000000E+00 0.  1.
          3   -1    0    0  501    0  0.00000000000E+00 -0.00000000000E+00 -0.10532037325E+03  0.10532037325E+03  0.00000000000E+00 0. -1.
         25    2    1    2    0    0  0.85081025322E+02 -0.22054416694E+02  0.40936769044E+02  0.15826684872E+03  0.12508956063E+03 0.  0.
         23    2    1    2    0    0 -0.85081025322E+02  0.22054416694E+02  0.40653197623E+02  0.13396386444E+03  0.92565956663E+02 0.  0.
          5    1    3    3  502    0  0.11638899892E+03 -0.18826372072E+02  0.18567889324E+02  0.11942809665E+03  0.41800000000E+01 0.  1.
         -5    1    3    3    0  502 -0.31307973597E+02 -0.32280446229E+01  0.22368879720E+02  0.38838752075E+02  0.41800000000E+01 0.  1.
        -11    1    4    4    0    0 -0.16296265114E+02  0.22723796679E+02  0.56796430829E+02  0.63306980240E+02  0.00000000000E+00 0.  1.
         11    1    4    4    0    0 -0.68784760207E+02 -0.66937998431E+00 -0.16143233207E+02  0.70656884199E+02  0.00000000000E+00 0. -1.
</event>
<event>
 8    1  0.7048627E-009  0.9229368E+02  0.7561462E-02  0.1297390E+00
          2   -1    0    0  501    0  0.00000000000E+00  0.00000000000E+00  0.67942848689E+02  0.67942848689E+02  0.00000000000E+00 0. -1.
         -2   -1    0    0    0  501 -0.00000000000E+00 -0.00000000000E+00 -0.27406162552E+03  0.27406162552E+03  0.00000000000E+00 0.  1.
         25    2    1    2    0    0 -0.10182774618E+02  0.81574478978E+02 -0.10890466115E+03  0.18511346547E+03  0.12509470556E+03 0.  0.
         23    2    1    2    0    0  0.10182774618E+02 -0.81574478978E+02 -0.97214115686E+02  0.15689100874E+03  0.91684894158E+02 0.  0.
          5    1    3    3  502    0 -0.12830670072E+02  0.15394172302E+02 -0.11652754690E+03  0.11831207978E+03  0.41800000000E+01 0.  1.
         -5    1    3    3    0  502  0.26478954541E+01  0.66180306677E+02  0.76228857548E+01  0.66801385685E+02  0.41800000000E+01 0.  1.
        -11    1    4    4    0    0 -0.11251467503E+02  0.20382060696E+01  0.12730235111E+02  0.17111653658E+02  0.00000000000E+00 0. -1.
         11    1    4    4    0    0  0.21434242121E+02 -0.83612685048E+02 -0.10994435080E+03  0.13977935509E+03  0.00000000000E+00 0.  1.
</event>
<event>
 8    1  0.7048627E-009  0.1148324E+03  0.7561462E-02  0.1251874E+00
          1   -1    0    0  501    0  0.00000000000E+00  0.00000000000E+00  0.27116432728E+03  0.27116432728E+03  0.00000000000E+00 0. -1.
         -1   -1    0    0    0  501 -0.00000000000E+00 -0.00000000000E+00 -0.95171838398E+02  0.95171838398E+02  0.00000000000E+00 0.  1.
         25    2    1    2    0    0  0.88830617359E+02 -0.32055113159E+02  0.11037110579E+02  0.15712317041E+03  0.12508982376E+03 0.  0.
         23    2    1    2    0    0 -0.88830617359E+02  0.32055113159E+02  0.16495537830E+03  0.20921299527E+03  0.87415054188E+02 0.  0.
          5    1    3    3  502    0 -0.72053886953E+00 -0.12205037050E+02  0.54160810692E+02  0.55680767959E+02  0.41800000000E+01 0. -1.
         -5    1    3    3    0  502  0.89551156228E+02 -0.19850076110E+02 -0.43123700113E+02  0.10144240245E+03  0.41800000000E+01 0. -1.
        -11    1    4    4    0    0 -0.36470174195E+02 -0.27461368438E+02  0.85795293752E+02  0.97185558558E+02  0.00000000000E+00 0. -1.
         11    1    4    4    0    0 -0.52360443164E+02  0.59516481597E+02  0.79160084550E+02  0.11202743671E+03  0.00000000000E+00 0.  1.
</event>
<event>
 8    1  0.7048627E-009  0.9741598E+02  0.7561462E-02  0.1285826E+00
          2   -1    0    0  501    0  0.00000000000E+00  0.00000000000E+00  0.12254908033E+03  0.12254908033E+03  0.00000000000E+00 0. -1.
         -2   -1    0    0    0  501 -0.00000000000E+00 -0.00000000000E+00 -0.12756090292E+03  0.12756090292E+03  0.00000000000E+00 0.  1.
         25    2    1    2    0    0  0.22950530103E+02 -0.40471486825E+02 -0.44774919047E+02  0.14076883242E+03  0.12508558161E+03 0.  0.
         23    2    1    2    0    0 -0.22950530103E+02  0.40471486825E+02  0.39763096466E+02  0.10934115083E+03  0.90607479531E+02 0.  0.
          5    1    3    3  502    0  0.30987086888E+02 -0.69355902485E+02 -0.68449571144E+02  0.10233893176E+03  0.41800000000E+01 0.  1.
         -5    1    3    3    0  502 -0.80365567855E+01  0.28884415660E+02  0.23674652097E+02  0.38429900662E+02  0.41800000000E+01 0.  1.
        -11    1    4    4    0    0  0.22012945932E+02  0.37420703005E+02 -0.74746019209E+01  0.44053926906E+02  0.00000000000E+00 0.  1.
         11    1    4    4    0    0 -0.44963476035E+02  0.30507838197E+01  0.47237698386E+02  0.65287223926E+02  0.00000000000E+00 0. -1.
</event>
<event>
 8    1  0.7048627E-009  0.1316925E+03  0.7561462E-02  0.1224966E+00
         -2   -1    0    0    0  501 -0.00000000000E+00  0.00000000000E+00  0.10805398810E+02  0.10805398810E+02  0.00000000000E+00 0.  1.
          2   -1    0    0  501    0  0.00000000000E+00 -0.00000000000E+00 -0.16786665255E+04  0.16786665255E+04  0.00000000000E+00 0. -1.
         25    2    1    2    0    0  0.52427513413E+02 -0.53287645220E+02 -0.10478187202E+04  0.10579035947E+04  0.12509087899E+03 0.  0.
         23    2    1    2    0    0 -0.52427513413E+02  0.53287645220E+02 -0.62004240642E+03  0.63156832953E+03  0.94009317674E+02 0.  0.
          5    1    3    3  502    0  0.25239747151E+02 -0.92197068572E+02 -0.78389987870E+03  0.78971756756E+03  0.41800000000E+01 0. -1.
         -5    1    3    3    0  502  0.27187766262E+02  0.38909423352E+02 -0.26391884154E+03  0.26818602719E+03  0.41800000000E+01 0. -1.
        -11    1    4    4    0    0 -0.32704722207E+02  0.80243781081E+02 -0.45595145269E+03  0.46411247610E+03  0.00000000000E+00 0. -1.
         11    1    4    4    0    0 -0.19722791206E+02 -0.26956135860E+02 -0.16409095372E+03  0.16745585343E+03  0.00000000000E+00 0.  1.
</event>
<event>
 8    1  0.7048627E-009  0.1836661E+03  0.7561462E-02  0.1164301E+00
          1   -1    0    0  501    0  0.00000000000E+00  0.00000000000E+00  0.19535399067E+04  0.19535399067E+04  0.00000000000E+00 0. -1.
         -1   -1    0    0    0  501 -0.00000000000E+00 -0.00000000000E+00 -0.21502318540E+02  0.21502318540E+02  0.00000000000E+00 0.  1.
         25    2    1    2    0    0 -0.13945235297E+03  0.10063113196E+03  0.89188532003E+03  0.91688611689E+03  0.12508854381E+03 0.  0.
         23    2    1    2    0    0  0.13945235297E+03 -0.10063113196E+03  0.10401522681E+04  0.10581561083E+04  0.90576074506E+02 0.  0.
          5    1    3    3  502    0 -0.82864623165E+02  0.77655012639E+02  0.28349788254E+03  0.30542653546E+03  0.41800000000E+01 0.  1.
         -5    1    3    3    0  502 -0.56587729805E+02  0.22976119317E+02  0.60838743749E+03  0.61145958143E+03  0.41800000000E+01 0.  1.
        -11    1    4    4    0    0  0.11397645626E+03 -0.30688141747E+02  0.70734266104E+03  0.71712344457E+03  0.00000000000E+00 0. -1.
         11    1    4    4    0    0  0.25475896712E+02 -0.69942990208E+02  0.33280960706E+03  0.34103266375E+03  0.00000000000E+00 0.  1.
</event>
<event>
 8    1  0.7048627E-009  0.9099917E+02  0.7561462E-02  0.1300450E+00
          1   -1    0    0  501    0  0.00000000000E+00  0.00000000000E+00  0.26719166426E+03  0.26719166426E+03  0.00000000000E+00 0. -1.
         -1   -1    0    0    0  501 -0.00000000000E+00 -0.00000000000E+00 -0.58317626158E+02  0.58317626158E+02  0.00000000000E+00 0.  1.
         25    2    1    2    0    0  0.51508316661E+02 -0.31899691821E+02  0.12876357244E+03  0.18946573598E+03  0.12508601241E+03 0.  0.
         23    2    1    2    0    0 -0.51508316661E+02  0.31899691821E+02  0.80110465671E+02  0.13604355444E+03  0.91757642581E+02 0.  0.
          5    1    3    3  502    0 -0.61124605152E+01  0.24514756938E+01 -0.22568688835E+02  0.23878652021E+02  0.41800000000E+01 0.  1.
         -5    1    3    3    0  502  0.57620777177E+02 -0.34351167515E+02  0.15133226127E+03  0.16558708396E+03  0.41800000000E+01 0.  1.
        -11    1    4    4    0    0 -0.60059424537E+02  0.55565837107E+02  0.73596150583E+02  0.11005039804E+03  0.00000000000E+00 0. -1.
         11    1    4    4    0    0  0.85511078752E+01 -0.23666145285E+02  0.65143150879E+01  0.25993156400E+02  0.00000000000E+00 0.  1.
</event>
<event>
 8    1  0.7048627E-009  0.1160458E+03  0.7561462E-02  0.1249767E+00
          2   -1    0    0  501    0  0.00000000000E+00  0.00000000000E+00  0.79722880928E+03  0.79722880928E+03  0.00000000000E+00 0. -1.
         -2   -1    0    0    0  501 -0.00000000000E+00 -0.00000000000E+00 -0.27600453408E+02  0.27600453408E+02  0.00000000000E+00 0.  1.
         25    2    1    2    0    0 -0.91534711385E+02 -0.39626618474E+02  0.37203214947E+03  0.40497321988E+03  0.12508603559E+03 0.  0.
         23    2    1    2    0    0  0.91534711385E+02  0.39626618474E+02  0.39759620641E+03  0.41985604281E+03  0.90815643246E+02 0.  0.
          5    1    3    3  502    0 -0.82508485866E+02 -0.62319785326E+01  0.35791293582E+03  0.36737668655E+03  0.41800000000E+01 0.  1.
         -5    1    3    3    0  502 -0.90262255193E+01 -0.33394639941E+02  0.14119213650E+02  0.37596533325E+02  0.41800000000E+01 0.  1.
        -11    1    4    4    0    0  0.45272924234E+02  0.49513835078E+02  0.11348735308E+03  0.13183564329E+03  0.00000000000E+00 0.  1.
         11    1    4    4    0    0  0.46261787151E+02 -0.98872166043E+01  0.28410885333E+03  0.28802039952E+03  0.00000000000E+00 0. -1.
</event>
<event>
 8    1  0.7048627E-009  0.1400940E+03  0.7561462E-02  0.1213202E+00
          2   -1    0    0  501    0  0.00000000000E+00  0.00000000000E+00  0.54207479820E+03  0.54207479820E+03  0.00000000000E+00 0. -1.
         -2   -1    0    0    0  501 -0.00000000000E+00 -0.00000000000E+00 -0.51069111463E+02  0.51069111463E+02  0.00000000000E+00 0.  1.
         25    2    1    2    0    0  0.11779374120E+03  0.41387142412E+02  0.29159639657E+03  0.34097347114E+03  0.12508472531E+03 0.  0.
         23    2    1    2    0    0 -0.11779374120E+03 -0.41387142412E+02  0.19940929017E+03  0.25217043852E+03  0.90761247435E+02 0.  0.
          5    1    3    3  502    0 -0.47625443107E+00  0.14192880175E+02  0.16460861534E+03  0.16527290556E+03  0.41800000000E+01 0. -1.
         -5    1    3    3    0  502  0.11826999563E+03  0.27194262237E+02  0.12698778123E+03  0.17570056559E+03  0.41800000000E+01 0. -1.
        -11    1    4    4    0    0 -0.43830285912E+02 -0.53335263951E+02  0.50693550466E+02  0.85648002912E+02  0.00000000000E+00 0.  1.
         11    1    4    4    0    0 -0.73963455291E+02  0.11948121540E+02  0.14871573970E+03  0.16652243561E+03  0.00000000000E+00 0. -1.
</event>
<event>
 8    1  0.7048627E-009  0.1233680E+03  0.7561462E-02  0.1237642E+00
          2   -1    0    0  501    0  0.00000000000E+00  0.00000000000E+00  0.57902011336E+03  0.57902011336E+03  0.00000000000E+00 0. -1.
         -2   -1    0    0    0  501 -0.00000000000E+00 -0.00000000000E+00 -0.29964336287E+02  0.29964336287E+02  0.00000000000E+00 0.  1.
         25    2    1    2    0    0  0.66354760355E+02  0.27229055482E+02  0.24649309648E+03  0.28557148680E+03  0.12509137372E+03 0.  0.
         23    2    1    2    0    0 -0.66354760355E+02 -0.27229055482E+02  0.30256268059E+03  0.32341296284E+03  0.88923524231E+02 0.  0.
          5    1    3    3  502    0  0.71432428831E+02 -0.28093527576E+02  0.19540342261E+03  0.20998049469E+03  0.41800000000E+01 0. -1.
         -5    1    3    3    0  502 -0.50776684760E+01  0.55322583059E+02  0.51089673865E+02  0.75590992116E+02  0.41800000000E+01 0. -1.
        -11    1    4    4    0    0 -0.43099775642E+02 -0.60056894094E+02  0.20207627346E+03  0.21517258535E+03  0.00000000000E+00 0.  1.
         11    1    4    4    0    0 -0.23254984713E+02  0.32827838612E+02  0.10048640713E+03  0.10824037749E+03  0.00000000000E+00 0. -1.
</event>
<event>
 8    1  0.7048627E-009  0.1008488E+03  0.7561462E-02  0.1278521E+00
          2   -1    0    0  501    0  0.00000000000E+00  0.00000000000E+00  0.27446945919E+03  0.27446945919E+03  0.00000000000E+00 0. -1.
         -2   -1    0    0    0  501 -0.00000000000E+00 -0.00000000000E+00 -0.66662320553E+02  0.66662320553E+02  0.00000000000E+00 0.  1.
         25    2    1    2    0    0 -0.73103580968E+02  0.13891440375E+02  0.78743618423E+02  0.16547926177E+03  0.12508286441E+03 0.  0.
         23    2    1    2    0    0  0.73103580968E+02 -0.13891440375E+02  0.12906352021E+03  0.17565251797E+03  0.93055409047E+02 0.  0.
          5    1    3    3  502    0 -0.30328615562E+01  0.20006347310E+02 -0.29684693359E+02  0.36167742558E+02  0.41800000000E+01 0.  1.
         -5    1    3    3    0  502 -0.70070719412E+02 -0.61149069350E+01  0.10842831178E+03  0.12931151921E+03  0.41800000000E+01 0.  1.
        -11    1    4    4    0    0 -0.16045437972E+02 -0.14197347494E+02  0.57406936817E+02  0.61274604448E+02  0.00000000000E+00 0. -1.
         11    1    4    4    0    0  0.89149018941E+02  0.30590711882E+00  0.71656583395E+02  0.11437791352E+03  0.00000000000E+00 0.  1.
</event>
<event>
 8    1  0.7048627E-009  0.1480197E+03  0.7561462E-02  0.1202928E+00
          1   -1    0    0  501    0  0.00000000000E+00  0.00000000000E+00  0.90083761604E+03  0.90083761604E+03  0.00000000000E+00 0. -1.
         -1   -1    0    0    0  501 -0.00000000000E+00 -0.00000000000E+00 -0.28053141978E+02  0.28053141978E+02  0.00000000000E+00 0.  1.
         25    2    1    2    0    0  0.11370366175E+03  0.21238028765E+02  0.46605831611E+03  0.49622485495E+03  0.12509666700E+03 0.  0.
         23    2    1    2    0    0 -0.11370366175E+03 -0.21238028765E+02  0.40672615795E+03  0.43266590307E+03  0.91618991223E+02 0.  0.
          5    1    3    3  502    0  0.10164222946E+03 -0.38802037723E+02  0.30685210413E+03  0.32559549621E+03  0.41800000000E+01 0. -1.
         -5    1    3    3    0  502  0.12061432297E+02  0.60040066488E+02  0.15920621198E+03  0.17062935874E+03  0.41800000000E+01 0. -1.
        -11    1    4    4    0    0 -0.33429264771E+02  0.16266634420E+02  0.36924870733E+02  0.52398141352E+02  0.00000000000E+00 0.  1.
         11    1    4    4    0    0 -0.80274396981E+02 -0.37504663185E+02  0.36980128722E+03  0.38026776172E+03  0.00000000000E+00 0. -1.
</event>
<event>
 8    1  0.7048627E-009  0.1219298E+03  0.7561462E-02  0.1239947E+00
          3   -1    0    0  501    0  0.00000000000E+00  0.00000000000E+00  0.27429739589E+03  0.27429739589E+03  0.00000000000E+00 0. -1.
         -3   -1    0    0    0  501 -0.00000000000E+00 -0.00000000000E+00 -0.67021917789E+02  0.67021917789E+02  0.00000000000E+00 0.  1.
         25    2    1    2    0    0  0.27591288041E+02  0.56059151215E+02  0.48743908186E+02  0.14807862588E+03  0.12508958088E+03 0.  0.
         23    2    1    2    0    0 -0.27591288041E+02 -0.56059151215E+02  0.15853156992E+03  0.19324068781E+03  0.91136146245E+02 0.  0.
          5    1    3    3  502    0 -0.36566515934E+02  0.59241089416E+02  0.46197367992E+02  0.83655758750E+02  0.41800000000E+01 0.  1.
         -5    1    3    3    0  502  0.64157803976E+02 -0.31819382007E+01  0.25465401946E+01  0.64422867125E+02  0.41800000000E+01 0.  1.
        -11    1    4    4    0    0  0.32970093315E+02 -0.26782629732E+02  0.72581386108E+02  0.84097526229E+02  0.00000000000E+00 0. -1.
         11    1    4    4    0    0 -0.60561381357E+02 -0.29276521483E+02  0.85950183812E+02  0.10914316158E+03  0.00000000000E+00 0.  1.
</event>
<event>
 8    1  0.7048627E-009  0.1120786E+03  0.7561462E-02  0.1256768E+00
          2   -1    0    0  501    0  0.00000000000E+00  0.00000000000E+00  0.49983174517E+03  0.49983174517E+03  0.00000000000E+00 0. -1.
         -2   -1    0    0    0  501 -0.00000000000E+00 -0.00000000000E+00 -0.40434001805E+02  0.40434001805E+02  0.00000000000E+00 0.  1.
         25    2    1    2    0    0  0.37746484468E+02 -0.54783474061E+01  0.40316874744E+03  0.42384870811E+03  0.12509148284E+03 0.  0.
         23    2    1    2    0    0 -0.37746484468E+02  0.54783474061E+01  0.56228995935E+02  0.11641703887E+03  0.94532627038E+02 0.  0.
          5    1    3    3  502    0  0.55711159103E+02  0.45119882931E+02  0.28628724457E+03  0.29515656165E+03  0.41800000000E+01 0.  1.
         -5    1    3    3    0  502 -0.17964674635E+02 -0.50598230337E+02  0.11688150287E+03  0.12869214646E+03  0.41800000000E+01 0.  1.
        -11    1    4    4    0    0 -0.17497708491E+01  0.44998797622E+02  0.10910403484E+02  0.46335627649E+02  0.00000000000E+00 0.  1.
         11    1    4    4    0    0 -0.35996713619E+02 -0.39520450216E+02  0.45318592451E+02  0.70081411218E+02  0.00000000000E+00 0. -1.
</event>
<event>
 8    1  0.7048627E-009  0.1372089E+03  0.7561462E-02  0.1217135E+00
         -4   -1    0    0    0  501 -0.00000000000E+00  0.00000000000E+00  0.71175875965E+02  0.71175875965E+02  0.00000000000E+00 0.  1.
          4   -1    0    0  501    0  0.00000000000E+00 -0.00000000000E+00 -0.51959960590E+03  0.51959960590E+03  0.00000000000E+00 0. -1.
         25    2    1    2    0    0  0.10606348476E+03  0.27838789091E+02 -0.59543032057E+02  0.17667964718E+03  0.12508342850E+03 0.  0.
         23    2    1    2    0    0 -0.10606348476E+03 -0.27838789091E+02 -0.38888069787E+03  0.41409583468E+03  0.90679116345E+02 0.  0.
          5    1    3    3  502    0 -0.18254093962E+02 -0.22694966556E+02  0.90730627251E+00  0.29437545040E+02  0.41800000000E+01 0.  1.
         -5    1    3    3    0  502  0.12431757872E+03  0.50533755647E+02 -0.60450338329E+02  0.14724210214E+03  0.41800000000E+01 0.  1.
        -11    1    4    4    0    0 -0.47324598604E+02 -0.20366611521E+02 -0.56424231684E+02  0.76407528549E+02  0.00000000000E+00 0.  1.
         11    1    4    4    0    0 -0.58738886157E+02 -0.74721775699E+01 -0.33245646619E+03  0.33768830613E+03  0.00000000000E+00 0. -1.
</event>
<event>
 8    1  0.7048627E-009  0.1335894E+03  0.7561462E-02  0.1222225E+00
         -2   -1    0    0    0  501 -0.00000000000E+00  0.00000000000E+00  0.28726341755E+02  0.28726341755E+02  0.00000000000E+00 0.  1.
          2   -1    0    0  501    0  0.00000000000E+00 -0.00000000000E+00 -0.67117754787E+03  0.67117754787E+03  0.00000000000E+00 0. -1.
         25    2    1    2    0    0  0.57448530827E+02  0.59491159024E+02 -0.29714306881E+03  0.33283720600E+03  0.12508825150E+03 0.  0.
         23    2    1    2    0    0 -0.57448530827E+02 -0.59491159024E+02 -0.34530813730E+03  0.36706668362E+03  0.93062929459E+02 0.  0.
          5    1    3    3  502    0  0.88762524513E+02  0.66213597836E+02 -0.26514629132E+03  0.28737267528E+03  0.41800000000E+01 0.  1.
         -5    1    3    3    0  502 -0.31313993686E+02 -0.67224388120E+01 -0.31996777487E+02  0.45464530721E+02  0.41800000000E+01 0.  1.
        -11    1    4    4    0    0 -0.63662986338E+02 -0.80225769542E+02 -0.29597075996E+03  0.31318978381E+03  0.00000000000E+00 0. -1.
         11    1    4    4    0    0  0.62144555111E+01  0.20734610518E+02 -0.49337377340E+02  0.53876899812E+02  0.00000000000E+00 0.  1.
</event>
<event>
 8    1  0.7048627E-009  0.3005732E+03  0.7561462E-02  0.1084954E+00
         -1   -1    0    0    0  501 -0.00000000000E+00  0.00000000000E+00  0.45556974859E+03  0.45556974859E+03  0.00000000000E+00 0.  1.
          1   -1    0    0  501    0  0.00000000000E+00 -0.00000000000E+00 -0.21820431325E+03  0.21820431325E+03  0.00000000000E+00 0. -1.
         25    2    1    2    0    0 -0.26244767133E+03 -0.10433200642E+03  0.24981120360E+02  0.30989806823E+03  0.12509519801E+03 0.  0.
         23    2    1    2    0    0  0.26244767133E+03  0.10433200642E+03  0.21238431498E+03  0.36387599361E+03  0.86802613588E+02 0.  0.
          5    1    3    3  502    0 -0.19411915082E+03 -0.13190390662E+02  0.22236724638E+02  0.19587796059E+03  0.41800000000E+01 0.  1.
         -5    1    3    3    0  502 -0.68328520513E+02 -0.91141615758E+02  0.27443957218E+01  0.11402010764E+03  0.41800000000E+01 0.  1.
        -11    1    4    4    0    0  0.13886239487E+03  0.14199852543E+02  0.75962020134E+02  0.15891705077E+03  0.00000000000E+00 0.  1.
         11    1    4    4    0    0  0.12358527646E+03  0.90132153877E+02  0.13642229485E+03  0.20495894284E+03  0.00000000000E+00 0. -1.
</event>
<event>
 8    1  0.7048627E-009  0.1324671E+03  0.7561462E-02  0.1223840E+00
          2   -1    0    0  501    0  0.00000000000E+00  0.00000000000E+00  0.79435254091E+03  0.79435254091E+03  0.00000000000E+00 0. -1.
         -2   -1    0    0    0  501 -0.00000000000E+00 -0.00000000000E+00 -0.35214085804E+02  0.35214085804E+02  0.00000000000E+00 0.  1.
         25    2    1    2    0    0  0.56736926280E+02  0.80516034585E+02  0.60291986731E+03  0.62358750193E+03  0.12508835091E+03 0.  0.
         23    2    1    2    0    0 -0.56736926280E+02 -0.80516034585E+02  0.15621858780E+03  0.20597912479E+03  0.91220842170E+02 0.  0.
          5    1    3    3  502    0  0.14850707960E+01  0.76240915897E+02  0.16108799721E+03  0.17827422118E+03  0.41800000000E+01 0. -1.
         -5    1    3    3    0  502  0.55251855484E+02  0.42751186875E+01  0.44183187010E+03  0.44531328074E+03  0.41800000000E+01 0. -1.
        -11    1    4    4    0    0 -0.67692661136E+02 -0.18724432991E+02  0.68362511059E+02  0.98011905812E+02  0.00000000000E+00 0.  1.
         11    1    4    4    0    0  0.10955734856E+02 -0.61791601593E+02  0.87856076736E+02  0.10796721897E+03  0.00000000000E+00 0. -1.
</event>
<event>
 8    1  0.7048627E-009  0.1172086E+03  0.7561462E-02  0.1247774E+00
         -2   -1    0    0    0  501 -0.00000000000E+00  0.00000000000E+00  0.11312389348E+03  0.11312389348E+03  0.00000000000E+00 0. -1.
          2   -1    0    0  501    0  0.00000000000E+00 -0.00000000000E+00 -0.13310967933E+03  0.13310967933E+03  0.00000000000E+00 0.  1.
         25    2    1    2    0    0 -0.53746777465E+02  0.12590074409E+02  0.48696888202E+00  0.13672567307E+03  0.12508575649E+03 0.  0.
         23    2    1    2    0    0  0.53746777465E+02 -0.12590074409E+02 -0.20472754733E+02  0.10950789974E+03  0.92334285928E+02 0.  0.
          5    1    3    3  502    0  0.98679619144E+01  0.55270904949E+02 -0.15420361142E+02  0.58373877240E+02  0.41800000000E+01 0. -1.
         -5    1    3    3    0  502 -0.63614739379E+02 -0.42680830540E+02  0.15907330024E+02  0.78351795834E+02  0.41800000000E+01 0. -1.
        -11    1    4    4    0    0  0.28224543661E+01 -0.42330335369E+02  0.93213432773E+01  0.43436286462E+02  0.00000000000E+00 0. -1.
         11    1    4    4    0    0  0.50924323099E+02  0.29740260960E+02 -0.29794098010E+02  0.66071613279E+02  0.00000000000E+00 0.  1.
</event>
<event>
 8    1  0.7048627E-009  0.7818172E+02  0.7561462E-02  0.1334292E+00
         -2   -1    0    0    0  501 -0.00000000000E+00  0.00000000000E+00  0.17392806708E+03  0.17392806708E+03  0.00000000000E+00 0.  1.
          2   -1    0    0  501    0  0.00000000000E+00 -0.00000000000E+00 -0.77228862226E+02  0.77228862226E+02  0.00000000000E+00 0. -1.
         25    2    1    2    0    0  0.10197435514E+02 -0.35675915971E+02  0.56477704293E+02  0.14218184903E+03  0.12509671635E+03 0.  0.
         23    2    1    2    0    0 -0.10197435514E+02  0.35675915971E+02  0.40221500561E+02  0.10897508027E+03  0.94239271757E+02 0.  0.
          5    1    3    3  502    0 -0.19376254324E+02 -0.19053229994E+02 -0.35010920623E+02  0.44516309008E+02  0.41800000000E+01 0.  1.
         -5    1    3    3    0  502  0.29573689838E+02 -0.16622685977E+02  0.91488624916E+02  0.97665540027E+02  0.41800000000E+01 0.  1.
        -11    1    4    4    0    0 -0.29534230205E+01 -0.29229837435E+02  0.31521219930E+02  0.43089365392E+02  0.00000000000E+00 0.  1.
         11    1    4    4    0    0 -0.72440124938E+01  0.64905753406E+02  0.87002806312E+01  0.65885714880E+02  0.00000000000E+00 0. -1.
</event>
<event>
 8    1  0.7048627E-009  0.7521618E+02  0.7561462E-02  0.1343203E+00
          1   -1    0    0  501    0  0.00000000000E+00  0.00000000000E+00  0.26364409280E+03  0.26364409280E+03  0.00000000000E+00 0. -1.
         -1   -1    0    0    0  501 -0.00000000000E+00 -0.00000000000E+00 -0.53023668245E+02  0.53023668245E+02  0.00000000000E+00 0.  1.
         25    2    1    2    0    0  0.43812896498E+02 -0.11030651185E+02  0.10321964003E+03  0.16835483053E+03  0.12509120556E+03 0.  0.
         23    2    1    2    0    0 -0.43812896498E+02  0.11030651185E+02  0.10740078453E+03  0.14831293052E+03  0.91763564000E+02 0.  0.
          5    1    3    3  502    0  0.29106492021E+02  0.60463003597E+01  0.12981745067E+03  0.13324334326E+03  0.41800000000E+01 0. -1.
         -5    1    3    3    0  502  0.14706404477E+02 -0.17076951545E+02 -0.26597810641E+02  0.35111487260E+02  0.41800000000E+01 0. -1.
        -11    1    4    4    0    0 -0.65553836499E+02  0.26605351665E+02  0.95970511397E+02  0.11922872672E+03  0.00000000000E+00 0. -1.
         11    1    4    4    0    0  0.21740940001E+02 -0.15574700480E+02  0.11430273133E+02  0.29084203807E+02  0.00000000000E+00 0.  1.
</event>
<event>
 8    1  0.7048627E-009  0.1196703E+03  0.7561462E-02  0.1243642E+00
         -2   -1    0    0    0  501 -0.00000000000E+00  0.00000000000E+00  0.30250284178E+02  0.30250284178E+02  0.00000000000E+00 0.  1.
          2   -1    0    0  501    0  0.00000000000E+00 -0.00000000000E+00 -0.65866589402E+03  0.65866589402E+03  0.00000000000E+00 0. -1.
         25    2    1    2    0    0 -0.84396538096E+02 -0.24840491602E+02 -0.31097353269E+03  0.34654147360E+03  0.12508648699E+03 0.  0.
         23    2    1    2    0    0  0.84396538096E+02  0.24840491602E+02 -0.31744207716E+03  0.34237470460E+03  0.93333489895E+02 0.  0.
          5    1    3    3  502    0 -0.94038080869E+02 -0.34167483324E+01 -0.11288798079E+03  0.14702381926E+03  0.41800000000E+01 0.  1.
         -5    1    3    3    0  502  0.96415427729E+01 -0.21423743270E+02 -0.19808555190E+03  0.19951765434E+03  0.41800000000E+01 0.  1.
        -11    1    4    4    0    0  0.24721614892E+01  0.38199147684E+02 -0.15857325804E+03  0.16312806206E+03  0.00000000000E+00 0. -1.
         11    1    4    4    0    0  0.81924376607E+02 -0.13358656082E+02 -0.15886881912E+03  0.17924664254E+03  0.00000000000E+00 0.  1.
</event>
<event>
 8    1  0.7048627E-009  0.1268362E+03  0.7561462E-02  0.1232227E+00
          2   -1    0    0  501    0  0.00000000000E+00  0.00000000000E+00  0.37306938689E+02  0.37306938689E+02  0.00000000000E+00 0. -1.
         -2   -1    0    0    0  501 -0.00000000000E+00 -0.00000000000E+00 -0.63471031932E+03  0.63471031932E+03  0.00000000000E+00 0.  1.
         25    2    1    2    0    0  0.89731648217E+02 -0.18994940917E+02 -0.45182708060E+03  0.47771094100E+03  0.12508979138E+03 0.  0.
         23    2    1    2    0    0 -0.89731648217E+02  0.18994940917E+02 -0.14557630003E+03  0.19430631702E+03  0.90276847695E+02 0.  0.
          5    1    3    3  502    0  0.11927006308E+03  0.71086655329E+00 -0.35036351043E+03  0.37013229407E+03  0.41800000000E+01 0. -1.
         -5    1    3    3    0  502 -0.29538414861E+02 -0.19705807471E+02 -0.10146357018E+03  0.10757864692E+03  0.41800000000E+01 0. -1.
        -11    1    4    4    0    0 -0.40134415103E+02  0.26948750589E+02 -0.95164739441E+01  0.49270373556E+02  0.00000000000E+00 0. -1.
         11    1    4    4    0    0 -0.49597233114E+02 -0.79538096721E+01 -0.13605982609E+03  0.14503594346E+03  0.00000000000E+00 0.  1.
</event>
<event>
 8    1  0.7048627E-009  0.1200160E+03  0.7561462E-02  0.1243071E+00
          1   -1    0    0  501    0  0.00000000000E+00  0.00000000000E+00  0.45325685600E+02  0.45325685600E+02  0.00000000000E+00 0. -1.
         -1   -1    0    0    0  501 -0.00000000000E+00 -0.00000000000E+00 -0.38043232042E+03  0.38043232042E+03  0.00000000000E+00 0.  1.
         25    2    1    2    0    0  0.53078961016E+02  0.28207735403E+01 -0.26652210206E+03  0.29917729270E+03  0.12509072194E+03 0.  0.
         23    2    1    2    0    0 -0.53078961016E+02 -0.28207735403E+01 -0.68584532759E+02  0.12658071332E+03  0.92160219099E+02 0.  0.
          5    1    3    3  502    0 -0.37925490725E+02 -0.17941406972E+02 -0.92551146545E+02  0.10170262562E+03  0.41800000000E+01 0. -1.
         -5    1    3    3    0  502  0.91004451741E+02  0.20762180512E+02 -0.17397095551E+03  0.19747466708E+03  0.41800000000E+01 0. -1.
        -11    1    4    4    0    0  0.22635259456E+02  0.14343658671E+02 -0.28822695833E+02  0.39355346649E+02  0.00000000000E+00 0.  1.
         11    1    4    4    0    0 -0.75714220473E+02 -0.17164432212E+02 -0.39761836926E+02  0.87225366669E+02  0.00000000000E+00 0. -1.
</event>
<event>
 8    1  0.7048627E-009  0.1282468E+03  0.7561462E-02  0.1230081E+00
          1   -1    0    0  501    0  0.00000000000E+00  0.00000000000E+00  0.54408794124E+02  0.54408794124E+02  0.00000000000E+00 0. -1.
         -1   -1    0    0    0  501 -0.00000000000E+00 -0.00000000000E+00 -0.60367053616E+03  0.60367053616E+03  0.00000000000E+00 0.  1.
         25    2    1    2    0    0 -0.76701299730E+02  0.10247510769E+03 -0.41294595289E+03  0.45006205135E+03  0.12508898024E+03 0.  0.
         23    2    1    2    0    0  0.76701299730E+02 -0.10247510769E+03 -0.13631578914E+03  0.20801727894E+03  0.91131536198E+02 0.  0.
          5    1    3    3  502    0 -0.54733162161E+02  0.68203965221E+02 -0.39634810206E+03  0.40590243941E+03  0.41800000000E+01 0. -1.
         -5    1    3    3    0  502 -0.21968137569E+02  0.34271142468E+02 -0.16597850832E+02  0.44159611938E+02  0.41800000000E+01 0. -1.
        -11    1    4    4    0    0  0.42812550961E+02 -0.55267881863E+02 -0.12194419007E+02  0.70965887159E+02  0.00000000000E+00 0. -1.
         11    1    4    4    0    0  0.33888748769E+02 -0.47207225826E+02 -0.12412137014E+03  0.13705139178E+03  0.00000000000E+00 0.  1.
</event>
<event>
 8    1  0.7048627E-009  0.2669913E+03  0.7561462E-02  0.1103014E+00
          2   -1    0    0  501    0  0.00000000000E+00  0.00000000000E+00  0.62918087034E+03  0.62918087034E+03  0.00000000000E+00 0. -1.
         -2   -1    0    0    0  501 -0.00000000000E+00 -0.00000000000E+00 -0.13745456041E+03  0.13745456041E+03  0.00000000000E+00 0.  1.
         25    2    1    2    0    0  0.34990900776E+02 -0.25593895083E+03  0.36618724000E+03  0.46526344647E+03  0.12509144731E+03 0.  0.
         23    2    1    2    0    0 -0.34990900776E+02  0.25593895083E+03  0.12553906993E+03  0.30137198428E+03  0.91301178193E+02 0.  0.
          5    1    3    3  502    0  0.19605346405E+02 -0.25714219557E+03  0.36776871862E+03  0.44919681783E+03  0.41800000000E+01 0. -1.
         -5    1    3    3    0  502  0.15385554371E+02  0.12032447434E+01 -0.15814786187E+01  0.16066628640E+02  0.41800000000E+01 0. -1.
        -11    1    4    4    0    0 -0.14410583659E+02  0.30916998764E+02 -0.12792485569E+02  0.36430391448E+02  0.00000000000E+00 0.  1.
         11    1    4    4    0    0 -0.20580317116E+02  0.22502195206E+03  0.13833155550E+03  0.26494159283E+03  0.00000000000E+00 0. -1.
</event>
<event>
 8    1  0.7048627E-009  0.1497013E+03  0.7561462E-02  0.1200841E+00
         -2   -1    0    0    0  501 -0.00000000000E+00  0.00000000000E+00  0.14175403002E+03  0.14175403002E+03  0.00000000000E+00 0.  1.
          2   -1    0    0  501    0  0.00000000000E+00 -0.00000000000E+00 -0.22991105380E+03  0.22991105380E+03  0.00000000000E+00 0. -1.
         25    2    1    2    0    0 -0.83680467401E+02 -0.10824162115E+03 -0.89401748711E+02  0.20580953607E+03  0.12508486436E+03 0.  0.
         23    2    1    2    0    0  0.83680467401E+02  0.10824162115E+03  0.12447249361E+01  0.16585554774E+03  0.93743502187E+02 0.  0.
          5    1    3    3  502    0 -0.46014571767E+02 -0.11203125417E+03 -0.10898533359E+03  0.16298349016E+03  0.41800000000E+01 0.  1.
         -5    1    3    3    0  502 -0.37665895635E+02  0.37896330158E+01  0.19583584879E+02  0.42826045919E+02  0.41800000000E+01 0.  1.
        -11    1    4    4    0    0  0.58410764878E+02  0.95209671796E+02 -0.37475018063E+02  0.11781797841E+03  0.00000000000E+00 0. -1.
         11    1    4    4    0    0  0.25269702523E+02  0.13031949356E+02  0.38719742999E+02  0.48037569334E+02  0.00000000000E+00 0.  1.
</event>
<event>
 8    1  0.7048627E-009  0.1107813E+03  0.7561462E-02  0.1259130E+00
         -1   -1    0    0    0  501 -0.00000000000E+00  0.00000000000E+00  0.33921946072E+03  0.33921946072E+03  0.00000000000E+00 0.  1.
          1   -1    0    0  501    0  0.00000000000E+00 -0.00000000000E+00 -0.53577908010E+02  0.53577908010E+02  0.00000000000E+00 0. -1.
         25    2    1    2    0    0 -0.62942155848E+02 -0.47974821352E+02  0.13833576633E+03  0.20260058491E+03  0.12508762646E+03 0.  0.
         23    2    1    2    0    0  0.62942155848E+02  0.47974821352E+02  0.14730578638E+03  0.19019678382E+03  0.90622973954E+02 0.  0.
          5    1    3    3  502    0  0.21854909830E+00  0.34061484428E+02  0.71466536060E+02  0.79279068244E+02  0.41800000000E+01 0.  1.
         -5    1    3    3    0  502 -0.63160704946E+02 -0.82036305780E+02  0.66869230266E+02  0.12332151666E+03  0.41800000000E+01 0.  1.
        -11    1    4    4    0    0  0.16776148116E+02  0.29429163445E+02  0.13467045928E+03  0.13886557316E+03  0.00000000000E+00 0.  1.
         11    1    4    4    0    0  0.46166007732E+02  0.18545657906E+02  0.12635327103E+02  0.51331210663E+02  0.00000000000E+00 0. -1.
</event>
<event>
 8    1  0.7048627E-009  0.1105756E+03  0.7561462E-02  0.1259508E+00
          2   -1    0    0  501    0  0.00000000000E+00  0.00000000000E+00  0.83996900102E+02  0.83996900102E+02  0.00000000000E+00 0. -1.
         -2   -1    0    0    0  501 -0.00000000000E+00 -0.00000000000E+00 -0.27543672884E+03  0.27543672884E+03  0.00000000000E+00 0.  1.
         25    2    1    2    0    0 -0.12778296064E+02  0.82939923286E+02 -0.25121118878E+02  0.15271161661E+03  0.12508977380E+03 0.  0.
         23    2    1    2    0    0  0.12778296064E+02 -0.82939923286E+02 -0.16631870986E+03  0.20672201233E+03  0.89608935984E+02 0.  0.
          5    1    3    3  502    0  0.43740485750E+02  0.10563857020E+02 -0.39064473290E+02  0.59735505708E+02  0.41800000000E+01 0.  1.
         -5    1    3    3    0  502 -0.56518781814E+02  0.72376066266E+02  0.13943354412E+02  0.92976110900E+02  0.41800000000E+01 0.  1.
        -11    1    4    4    0    0  0.96775367037E+01 -0.48530756345E+02 -0.15293567731E+02  0.51795581298E+02  0.00000000000E+00 0. -1.
         11    1    4    4    0    0  0.31007593601E+01 -0.34409166941E+02 -0.15102514212E+03  0.15492643103E+03  0.00000000000E+00 0.  1.
</event>
<event>
 8    1  0.7048627E-009  0.1722067E+03  0.7561462E-02  0.1175566E+00
         -2   -1    0    0    0  501 -0.00000000000E+00  0.00000000000E+00  0.52353129437E+03  0.52353129437E+03  0.00000000000E+00 0.  1.
          2   -1    0    0  501    0  0.00000000000E+00 -0.00000000000E+00 -0.75612001184E+02  0.75612001184E+02  0.00000000000E+00 0. -1.
         25    2    1    2    0    0  0.13554906727E+03 -0.37497942464E+02  0.99327921203E+02  0.21282217652E+03  0.12509035759E+03 0.  0.
         23    2    1    2    0    0 -0.13554906727E+03  0.37497942464E+02  0.34859137198E+03  0.38632111903E+03  0.89153895397E+02 0.  0.
          5    1    3    3  502    0  0.62048630790E+01  0.36098594889E+02  0.66613323328E+01  0.37462709822E+02  0.41800000000E+01 0.  1.
         -5    1    3    3    0  502  0.12934420419E+03 -0.73596537353E+02  0.92666588871E+02  0.17535946670E+03  0.41800000000E+01 0.  1.
        -11    1    4    4    0    0 -0.42822050513E+02 -0.22355356185E+02  0.58028330108E+02  0.75503490353E+02  0.00000000000E+00 0. -1.
         11    1    4    4    0    0 -0.92727016754E+02  0.59853298650E+02  0.29056304187E+03  0.31081762868E+03  0.00000000000E+00 0.  1.
</event>
<event>
 8    1  0.7048627E-009  0.1677180E+03  0.7561462E-02  0.1180249E+00
         -2   -1    0    0    0  501 -0.00000000000E+00  0.00000000000E+00  0.62666235310E+02  0.62666235310E+02  0.00000000000E+00 0.  1.
          2   -1    0    0  501    0  0.00000000000E+00 -0.00000000000E+00 -0.45946456114E+03  0.45946456114E+03  0.00000000000E+00 0. -1.
         25    2    1    2    0    0  0.10315263187E+01 -0.12946768448E+03 -0.21825707577E+03  0.28292494468E+03  0.12508967912E+03 0.  0.
         23    2    1    2    0    0 -0.10315263187E+01  0.12946768448E+03 -0.17854125006E+03  0.23920585178E+03  0.92625677766E+02 0.  0.
          5    1    3    3  502    0  0.39231959769E+02  0.32918199741E+01 -0.68651985013E+02  0.79249922348E+02  0.41800000000E+01 0.  1.
         -5    1    3    3    0  502 -0.38200433450E+02 -0.13275950445E+03 -0.14960509076E+03  0.20367502233E+03  0.41800000000E+01 0.  1.
        -11    1    4    4    0    0 -0.30033607672E+02  0.57691877808E+01 -0.22426126217E+02  0.37924032678E+02  0.00000000000E+00 0.  1.
         11    1    4    4    0    0  0.29002081354E+02  0.12369849670E+03 -0.15611512384E+03  0.20128181910E+03  0.00000000000E+00 0. -1.
</event>
<event>
 8    1  0.7048627E-009  0.7411455E+02  0.7561462E-02  0.1346635E+00
          1   -1    0    0  501    0  0.00000000000E+00  0.00000000000E+00  0.36116802504E+02  0.36116802504E+02  0.00000000000E+00 0. -1.
         -1   -1    0    0    0  501 -0.00000000000E+00 -0.00000000000E+00 -0.39203940144E+03  0.39203940144E+03  0.00000000000E+00 0.  1.
         25    2    1    2    0    0  0.48546386652E+02  0.50244256451E+01 -0.21230963699E+03  0.25120665136E+03  0.12508958077E+03 0.  0.
         23    2    1    2    0    0 -0.48546386652E+02 -0.50244256451E+01 -0.14361296195E+03  0.17694955259E+03  0.91128836333E+02 0.  0.
          5    1    3    3  502    0  0.35980583527E+02 -0.15633018841E+02 -0.20343313928E+01  0.39504488014E+02  0.41800000000E+01 0.  1.
         -5    1    3    3    0  502  0.12565803125E+02  0.20657444486E+02 -0.21027530560E+03  0.21170216334E+03  0.41800000000E+01 0.  1.
        -11    1    4    4    0    0 -0.37349614794E+02 -0.35649125988E+02 -0.13298085285E+03  0.14265258895E+03  0.00000000000E+00 0.  1.
         11    1    4    4    0    0 -0.11196771858E+02  0.30624700342E+02 -0.10632109101E+02  0.34296963642E+02  0.00000000000E+00 0. -1.
</event>
<event>
 8    1  0.7048627E-009  0.1119601E+03  0.7561462E-02  0.1256983E+00
         -2   -1    0    0    0  501 -0.00000000000E+00  0.00000000000E+00  0.91736273455E+01  0.91736273455E+01  0.00000000000E+00 0.  1.
          2   -1    0    0  501    0  0.00000000000E+00 -0.00000000000E+00 -0.18066794897E+04  0.18066794897E+04  0.00000000000E+00 0. -1.
         25    2    1    2    0    0  0.14855736762E+02  0.47913213206E+02 -0.13063565567E+04  0.13132901858E+04  0.12508912859E+03 0.  0.
         23    2    1    2    0    0 -0.14855736762E+02 -0.47913213206E+02 -0.49114930567E+03  0.50256293122E+03  0.93944081542E+02 0.  0.
          5    1    3    3  502    0 -0.35325734385E+02  0.59918172877E+02 -0.10135751516E+04  0.10159675956E+04  0.41800000000E+01 0.  1.
         -5    1    3    3    0  502  0.50181471147E+02 -0.12004959671E+02 -0.29278140508E+03  0.29732259023E+03  0.41800000000E+01 0.  1.
        -11    1    4    4    0    0  0.37861337068E+02 -0.20355759760E+02 -0.14135349691E+03  0.14774521613E+03  0.00000000000E+00 0.  1.
         11    1    4    4    0    0 -0.52717073830E+02 -0.27557453446E+02 -0.34979580876E+03  0.35481771509E+03  0.00000000000E+00 0. -1.
</event>
<event>
 8    1  0.7048627E-009  0.1620050E+03  0.7561462E-02  0.1186452E+00
          2   -1    0    0  501    0  0.00000000000E+00  0.00000000000E+00  0.41394337838E+03  0.41394337838E+03  0.00000000000E+00 0. -1.
         -2   -1    0    0    0  501 -0.00000000000E+00 -0.00000000000E+00 -0.64457995455E+02  0.64457995455E+02  0.00000000000E+00 0.  1.
         25    2    1    2    0    0 -0.11261079500E+03 -0.39089064173E+02  0.17978010471E+03  0.24935336658E+03  0.12508824599E+03 0.  0.
         23    2    1    2    0    0  0.11261079500E+03  0.39089064173E+02  0.16970527821E+03  0.22904800726E+03  0.97231487121E+02 0.  0.
          5    1    3    3  502    0 -0.13614016902E+03 -0.12181229551E+02  0.14481406699E+03  0.19917608886E+03  0.41800000000E+01 0.  1.
         -5    1    3    3    0  502  0.23529374017E+02 -0.26907834622E+02  0.34966037721E+02  0.50177277721E+02  0.41800000000E+01 0.  1.
        -11    1    4    4    0    0  0.12598019759E+03  0.48426007309E+02  0.16244519888E+03  0.21119784802E+03  0.00000000000E+00 0. -1.
         11    1    4    4    0    0 -0.13369402594E+02 -0.93369431363E+01  0.72600793285E+01  0.17850159235E+02  0.00000000000E+00 0.  1.
</event>
<event>
 8    1  0.7048627E-009  0.7832979E+02  0.7561462E-02  0.1333859E+00
         -2   -1    0    0    0  501 -0.00000000000E+00  0.00000000000E+00  0.25163484153E+02  0.25163484153E+02  0.00000000000E+00 0.  1.
          2   -1    0    0  501    0  0.00000000000E+00 -0.00000000000E+00 -0.63262929569E+03  0.63262929569E+03  0.00000000000E+00 0. -1.
         25    2    1    2    0    0  0.67594409292E+02  0.73446288364E+01 -0.29439068912E+03  0.32701098669E+03  0.12508940737E+03 0.  0.
         23    2    1    2    0    0 -0.67594409292E+02 -0.73446288364E+01 -0.31307512242E+03  0.33078179315E+03  0.82326269590E+02 0.  0.
          5    1    3    3  502    0  0.62449141212E+02  0.11331341790E+02 -0.30628641977E+03  0.31282125548E+03  0.41800000000E+01 0.  1.
         -5    1    3    3    0  502  0.51452680797E+01 -0.39867129531E+01  0.11895730657E+02  0.14189731204E+02  0.41800000000E+01 0.  1.
        -11    1    4    4    0    0 -0.63007491381E+02 -0.24467171609E+02 -0.30288525842E+03  0.31033540924E+03  0.00000000000E+00 0. -1.
         11    1    4    4    0    0 -0.45869179107E+01  0.17122542773E+02 -0.10189863991E+02  0.20446383912E+02  0.00000000000E+00 0.  1.
</event>
<event>
 8    1  0.7048627E-009  0.6197123E+02  0.7561462E-02  0.1389741E+00
          1   -1    0    0  501    0  0.00000000000E+00  0.00000000000E+00  0.12268307766E+03  0.12268307766E+03  0.00000000000E+00 0. -1.
         -1   -1    0    0    0  501 -0.00000000000E+00 -0.00000000000E+00 -0.10924549155E+03  0.10924549155E+03  0.00000000000E+00 0.  1.
         25    2    1    2    0    0  0.75334479783E+01  0.39971283703E+02 -0.39610115512E+00  0.13153718806E+03  0.12508964221E+03 0.  0.
         23    2    1    2    0    0 -0.75334479783E+01 -0.39971283703E+02  0.13833687265E+02  0.10039138115E+03  0.90733688045E+02 0.  0.
          5    1    3    3  502    0  0.24119761262E+02  0.26334968171E+02 -0.58939245775E+02  0.69040571583E+02  0.41800000000E+01 0. -1.
         -5    1    3    3    0  502 -0.16586313284E+02  0.13636315531E+02  0.58543144620E+02  0.62496616481E+02  0.41800000000E+01 0. -1.
        -11    1    4    4    0    0 -0.64758828060E+01  0.12262612128E+02  0.39730144099E+02  0.42080792108E+02  0.00000000000E+00 0.  1.
         11    1    4    4    0    0 -0.10575651723E+01 -0.52233895830E+02 -0.25896456833E+02  0.58310589040E+02  0.00000000000E+00 0. -1.
</event>
<event>
 8    1  0.7048627E-009  0.1147576E+03  0.7561462E-02  0.1252005E+00
         -1   -1    0    0    0  501 -0.00000000000E+00  0.00000000000E+00  0.33877069244E+03  0.33877069244E+03  0.00000000000E+00 0.  1.
          1   -1    0    0  501    0  0.00000000000E+00 -0.00000000000E+00 -0.51806168815E+02  0.51806168815E+02  0.00000000000E+00 0. -1.
         25    2    1    2    0    0  0.20637481855E+02 -0.74379657316E+02  0.14830001017E+03  0.20880361504E+03  0.12509123693E+03 0.  0.
         23    2    1    2    0    0 -0.20637481855E+02  0.74379657316E+02  0.13866451345E+03  0.18177324621E+03  0.88630844901E+02 0.  0.
          5    1    3    3  502    0 -0.24905898706E+02  0.51646671719E+01  0.10356421370E+03  0.10672392579E+03  0.41800000000E+01 0.  1.
         -5    1    3    3    0  502  0.45543380561E+02 -0.79544324488E+02  0.44735796473E+02  0.10207968925E+03  0.41800000000E+01 0.  1.
        -11    1    4    4    0    0 -0.27231150360E+02 -0.87424374258E+01  0.14127194579E+02  0.31898955920E+02  0.00000000000E+00 0. -1.
         11    1    4    4    0    0  0.65936685059E+01  0.83122094742E+02  0.12453731887E+03  0.14987429029E+03  0.00000000000E+00 0.  1.
</event>
<event>
 8    1  0.7048627E-009  0.1054395E+03  0.7561462E-02  0.1269256E+00
         -2   -1    0    0    0  501 -0.00000000000E+00  0.00000000000E+00  0.10105606058E+02  0.10105606058E+02  0.00000000000E+00 0.  1.
          2   -1    0    0  501    0  0.00000000000E+00 -0.00000000000E+00 -0.15450997708E+04  0.15450997708E+04  0.00000000000E+00 0. -1.
         25    2    1    2    0    0  0.14814177949E+02  0.26008337900E+02 -0.12282563362E+04  0.12349726723E+04  0.12509188788E+03 0.  0.
         23    2    1    2    0    0 -0.14814177949E+02 -0.26008337900E+02 -0.30673782858E+03  0.32023270459E+03  0.86976986036E+02 0.  0.
          5    1    3    3  502    0 -0.11702766652E+02  0.73131772884E+02 -0.74403353846E+03  0.74772226776E+03  0.41800000000E+01 0.  1.
         -5    1    3    3    0  502  0.26516944601E+02 -0.47123434985E+02 -0.48422279771E+03  0.48725040451E+03  0.41800000000E+01 0.  1.
        -11    1    4    4    0    0  0.11744530655E+02 -0.47105452890E+02 -0.10521186242E+03  0.11587231630E+03  0.00000000000E+00 0.  1.
         11    1    4    4    0    0 -0.26558708604E+02  0.21097114990E+02 -0.20152596616E+03  0.20436038829E+03  0.00000000000E+00 0. -1.
</event>
<event>
 8    1  0.7048627E-009  0.2024929E+03  0.7561462E-02  0.1147653E+00
          1   -1    0    0  501    0  0.00000000000E+00  0.00000000000E+00  0.53908447275E+03  0.53908447275E+03  0.00000000000E+00 0. -1.
         -1   -1    0    0    0  501 -0.00000000000E+00 -0.00000000000E+00 -0.11833216436E+03  0.11833216436E+03  0.00000000000E+00 0.  1.
         25    2    1    2    0    0 -0.15367393832E+03  0.81640805133E+02  0.40729160417E+03  0.46023823688E+03  0.12510748771E+03 0.  0.
         23    2    1    2    0    0  0.15367393832E+03 -0.81640805133E+02  0.13460704226E+02  0.19717840023E+03  0.91745466242E+02 0.  0.
          5    1    3    3  502    0  0.73942265354E+01  0.48382726555E+02  0.78935134597E+02  0.92971988732E+02  0.41800000000E+01 0. -1.
         -5    1    3    3    0  502 -0.16106816486E+03  0.33258078578E+02  0.32835646957E+03  0.36726624815E+03  0.41800000000E+01 0. -1.
        -11    1    4    4    0    0  0.11359444541E+03 -0.16395070758E+02 -0.14450095126E+02  0.11567757614E+03  0.00000000000E+00 0.  1.
         11    1    4    4    0    0  0.40079492916E+02 -0.65245734376E+02  0.27910799352E+02  0.81500824088E+02  0.00000000000E+00 0. -1.
</event>
<event>
 8    1  0.7048627E-009  0.9232728E+02  0.7561462E-02  0.1297312E+00
          2   -1    0    0  501    0  0.00000000000E+00  0.00000000000E+00  0.27169400191E+03  0.27169400191E+03  0.00000000000E+00 0. -1.
         -2   -1    0    0    0  501 -0.00000000000E+00 -0.00000000000E+00 -0.66739962038E+02  0.66739962038E+02  0.00000000000E+00 0.  1.
         25    2    1    2    0    0 -0.23930519356E+02  0.59466656004E+01  0.19164030876E+02  0.12892727038E+03  0.12508776271E+03 0.  0.
         23    2    1    2    0    0  0.23930519356E+02 -0.59466656004E+01  0.18579000900E+03  0.20950669357E+03  0.93632764677E+02 0.  0.
          5    1    3    3  502    0 -0.43968710200E+01  0.46868407726E+02 -0.34525205253E+02  0.58527278386E+02  0.41800000000E+01 0.  1.
         -5    1    3    3    0  502 -0.19533648336E+02 -0.40921742126E+02  0.53689236129E+02  0.70399991989E+02  0.41800000000E+01 0.  1.
        -11    1    4    4    0    0 -0.33329450727E+02  0.45669443839E+01  0.10256200800E+03  0.10793829141E+03  0.00000000000E+00 0.  1.
         11    1    4    4    0    0  0.57259970083E+02 -0.10513609984E+02  0.83228000992E+02  0.10156840216E+03  0.00000000000E+00 0. -1.
</event>
<event>
 8    1  0.7048627E-009  0.1593647E+03  0.7561462E-02  0.1189416E+00
          2   -1    0    0  501    0  0.00000000000E+00  0.00000000000E+00  0.17730789868E+03  0.17730789868E+03  0.00000000000E+00 0. -1.
         -2   -1    0    0    0  501 -0.00000000000E+00 -0.00000000000E+00 -0.15827290422E+03  0.15827290422E+03  0.00000000000E+00 0.  1.
         25    2    1    2    0    0 -0.99069746290E+02 -0.65781773880E+02  0.45670837703E+02  0.17853777077E+03  0.12509138167E+03 0.  0.
         23    2    1    2    0    0  0.99069746290E+02  0.65781773880E+02 -0.26635843236E+02  0.15704303213E+03  0.99050438622E+02 0.  0.
          5    1    3    3  502    0 -0.20548264190E+02 -0.87060455018E+02  0.35958425998E+02  0.96499921189E+02  0.41800000000E+01 0. -1.
         -5    1    3    3    0  502 -0.78521482101E+02  0.21278681138E+02  0.97124117051E+01  0.82037849578E+02  0.41800000000E+01 0. -1.
        -11    1    4    4    0    0  0.82285805582E+02  0.87603357789E+02 -0.39693538633E+02  0.12657361141E+03  0.00000000000E+00 0.  1.
         11    1    4    4    0    0  0.16783940708E+02 -0.21821583909E+02  0.13057695397E+02  0.30469420721E+02  0.00000000000E+00 0. -1.
</event>
<event>
 8    1  0.7048627E-009  0.1063921E+03  0.7561462E-02  0.1267401E+00
         -1   -1    0    0    0  501 -0.00000000000E+00  0.00000000000E+00  0.25440639735E+02  0.25440639735E+02  0.00000000000E+00 0.  1.
          1   -1    0    0  501    0  0.00000000000E+00 -0.00000000000E+00 -0.70641158683E+03  0.70641158683E+03  0.00000000000E+00 0. -1.
         25    2    1    2    0    0 -0.46486880748E+02  0.53848408056E+02 -0.37690270122E+03  0.40343907399E+03  0.12508700613E+03 0.  0.
         23    2    1    2    0    0  0.46486880748E+02 -0.53848408056E+02 -0.30406824588E+03  0.32841315258E+03  0.10167113407E+03 0.  0.
          5    1    3    3  502    0 -0.70536056737E+02  0.19295972711E+02 -0.33839920552E+03  0.34623570665E+03  0.41800000000E+01 0.  1.
         -5    1    3    3    0  502  0.24049175989E+02  0.34552435344E+02 -0.38503495705E+02  0.57203367343E+02  0.41800000000E+01 0.  1.
        -11    1    4    4    0    0  0.57755083787E+02 -0.19302884646E+02 -0.27561407062E+03  0.28226116804E+03  0.00000000000E+00 0. -1.
         11    1    4    4    0    0 -0.11268203039E+02 -0.34545523410E+02 -0.28454175258E+02  0.46151984540E+02  0.00000000000E+00 0.  1.
</event>
<event>
 8    1  0.7048627E-009  0.1219818E+03  0.7561462E-02  0.1239863E+00
          1   -1    0    0  501    0  0.00000000000E+00  0.00000000000E+00  0.89844852425E+03  0.89844852425E+03  0.00000000000E+00 0. -1.
         -1   -1    0    0    0  501 -0.00000000000E+00 -0.00000000000E+00 -0.21780185053E+02  0.21780185053E+02  0.00000000000E+00 0.  1.
         25    2    1    2    0    0 -0.79137973351E+02  0.34866809572E+02  0.44018977202E+03  0.46571412815E+03  0.12507637879E+03 0.  0.
         23    2    1    2    0    0  0.79137973351E+02 -0.34866809572E+02  0.43647856717E+03  0.45451458115E+03  0.92690083824E+02 0.  0.
          5    1    3    3  502    0 -0.44022246389E+01  0.46515983955E+02  0.32153688355E+03  0.32494085035E+03  0.41800000000E+01 0. -1.
         -5    1    3    3    0  502 -0.74735748712E+02 -0.11649174383E+02  0.11865288847E+03  0.14077327780E+03  0.41800000000E+01 0. -1.
        -11    1    4    4    0    0  0.95368872636E+02 -0.41185658543E+02  0.40895603941E+03  0.42194374329E+03  0.00000000000E+00 0. -1.
         11    1    4    4    0    0 -0.16230899285E+02  0.63188489706E+01  0.27522527768E+02  0.32570837857E+02  0.00000000000E+00 0.  1.
</event>
<event>
 8    1  0.7048627E-009  0.8678813E+02  0.7561462E-02  0.1310822E+00
          1   -1    0    0  501    0  0.00000000000E+00  0.00000000000E+00  0.63408713065E+02  0.63408713065E+02  0.00000000000E+00 0. -1.
         -1   -1    0    0    0  501 -0.00000000000E+00 -0.00000000000E+00 -0.20464482379E+03  0.20464482379E+03  0.00000000000E+00 0.  1.
         25    2    1    2    0    0 -0.21771459558E+02 -0.17116875226E+01 -0.88843586661E+02  0.15497925102E+03  0.12509380093E+03 0.  0.
         23    2    1    2    0    0  0.21771459558E+02  0.17116875226E+01 -0.52392524067E+02  0.11307428583E+03  0.97795149233E+02 0.  0.
          5    1    3    3  502    0  0.30161928884E+01 -0.57416446036E+02 -0.15864117947E+02  0.59790369904E+02  0.41800000000E+01 0.  1.
         -5    1    3    3    0  502 -0.24787652446E+02  0.55704758514E+02 -0.72979468715E+02  0.95188881119E+02  0.41800000000E+01 0.  1.
        -11    1    4    4    0    0  0.33739168332E+02 -0.12728262680E+02 -0.75287824318E+02  0.83478120733E+02  0.00000000000E+00 0.  1.
         11    1    4    4    0    0 -0.11967708774E+02  0.14439950202E+02  0.22895300251E+02  0.29596165102E+02  0.00000000000E+00 0. -1.
</event>
<event>
 8    1  0.7048627E-009  0.1800547E+03  0.7561462E-02  0.1167750E+00
         -2   -1    0    0    0  501 -0.00000000000E+00  0.00000000000E+00  0.41557983742E+02  0.41557983742E+02  0.00000000000E+00 0.  1.
          2   -1    0    0  501    0  0.00000000000E+00 -0.00000000000E+00 -0.10832881013E+04  0.10832881013E+04  0.00000000000E+00 0. -1.
         25    2    1    2    0    0 -0.27621480911E+02  0.17162146354E+03 -0.39664742967E+03  0.45076987547E+03  0.12508966470E+03 0.  0.
         23    2    1    2    0    0  0.27621480911E+02 -0.17162146354E+03 -0.64508268789E+03  0.67407620957E+03  0.89611322621E+02 0.  0.
          5    1    3    3  502    0  0.20247698485E+02  0.36840275539E+02 -0.21713274863E+03  0.22120415485E+03  0.41800000000E+01 0. -1.
         -5    1    3    3    0  502 -0.47869179396E+02  0.13478118800E+03 -0.17951468104E+03  0.22956572062E+03  0.41800000000E+01 0. -1.
        -11    1    4    4    0    0  0.49713627683E+01 -0.87960447753E+02 -0.17341252013E+03  0.19450875804E+03  0.00000000000E+00 0.  1.
         11    1    4    4    0    0  0.22650118143E+02 -0.83661015787E+02 -0.47167016776E+03  0.47956745154E+03  0.00000000000E+00 0. -1.
</event>
<event>
 8    1  0.7048627E-009  0.7593071E+02  0.7561462E-02  0.1341013E+00
          2   -1    0    0  501    0  0.00000000000E+00  0.00000000000E+00  0.37581493947E+02  0.37581493947E+02  0.00000000000E+00 0. -1.
         -2   -1    0    0    0  501 -0.00000000000E+00 -0.00000000000E+00 -0.35856310034E+03  0.35856310034E+03  0.00000000000E+00 0.  1.
         25    2    1    2    0    0  0.35176281356E+02 -0.25454268805E+02 -0.20268247836E+03  0.24210165241E+03  0.12509089692E+03 0.  0.
         23    2    1    2    0    0 -0.35176281356E+02  0.25454268805E+02 -0.11829912803E+03  0.15404294187E+03  0.88596013901E+02 0.  0.
          5    1    3    3  502    0  0.20250888690E+02  0.50951347966E+01 -0.20653426155E+03  0.20762931509E+03  0.41800000000E+01 0. -1.
         -5    1    3    3    0  502  0.14925392666E+02 -0.30549403602E+02  0.38517831830E+01  0.34472337320E+02  0.41800000000E+01 0. -1.
        -11    1    4    4    0    0  0.72762416478E+01 -0.27495470937E+02 -0.51412947199E+02  0.58755729544E+02  0.00000000000E+00 0.  1.
         11    1    4    4    0    0 -0.42452523004E+02  0.52949739742E+02 -0.66886180827E+02  0.95287212331E+02  0.00000000000E+00 0. -1.
</event>
<event>
 8    1  0.7048627E-009  0.1162238E+03  0.7561462E-02  0.1249460E+00
         -1   -1    0    0    0  501 -0.00000000000E+00  0.00000000000E+00  0.42822524352E+02  0.42822524352E+02  0.00000000000E+00 0.  1.
          1   -1    0    0  501    0  0.00000000000E+00 -0.00000000000E+00 -0.58098257945E+03  0.58098257945E+03  0.00000000000E+00 0. -1.
         25    2    1    2    0    0 -0.41160082709E+02 -0.92503608964E+02 -0.39384381051E+03  0.42545364848E+03  0.12508712902E+03 0.  0.
         23    2    1    2    0    0  0.41160082709E+02  0.92503608964E+02 -0.14431624459E+03  0.19835145533E+03  0.90912327535E+02 0.  0.
          5    1    3    3  502    0 -0.87696479281E+01 -0.24082444444E+02 -0.31501126423E+03  0.31607979981E+03  0.41800000000E+01 0.  1.
         -5    1    3    3    0  502 -0.32390434781E+02 -0.68421164520E+02 -0.78832546275E+02  0.10937384866E+03  0.41800000000E+01 0.  1.
        -11    1    4    4    0    0  0.44156144830E+02  0.65283970102E+01 -0.24705895280E+02  0.51017314270E+02  0.00000000000E+00 0.  1.
         11    1    4    4    0    0 -0.29960621209E+01  0.85975211954E+02 -0.11961034931E+03  0.14733414106E+03  0.00000000000E+00 0. -1.
</event>
<event>
 8    1  0.7048627E-009  0.1155406E+03  0.7561462E-02  0.1250640E+00
         -2   -1    0    0    0  501 -0.00000000000E+00  0.00000000000E+00  0.33334869954E+03  0.33334869954E+03  0.00000000000E+00 0.  1.
          2   -1    0    0  501    0  0.00000000000E+00 -0.00000000000E+00 -0.66831971475E+02  0.66831971475E+02  0.00000000000E+00 0. -1.
         25    2    1    2    0    0  0.26398589428E+02 -0.97947557681E+02  0.17150250174E+03  0.23527833986E+03  0.12510867086E+03 0.  0.
         23    2    1    2    0    0 -0.26398589428E+02  0.97947557681E+02  0.95014226324E+02  0.16490233116E+03  0.88738188154E+02 0.  0.
          5    1    3    3  502    0 -0.28136815204E-02 -0.66492790790E+02  0.18104211489E+03  0.19291192550E+03  0.41800000000E+01 0.  1.
         -5    1    3    3    0  502  0.26401403110E+02 -0.31454766891E+02 -0.95396131555E+01  0.42366414357E+02  0.41800000000E+01 0.  1.
        -11    1    4    4    0    0  0.22280726488E+02  0.50520480597E+02  0.76713377570E+02  0.94518210048E+02  0.00000000000E+00 0. -1.
         11    1    4    4    0    0 -0.48679315916E+02  0.47427077085E+02  0.18300848754E+02  0.70384121107E+02  0.00000000000E+00 0.  1.
</event>
<event>
 8    1  0.7048627E-009  0.2267828E+03  0.7561462E-02  0.1128925E+00
         -1   -1    0    0    0  501 -0.00000000000E+00  0.00000000000E+00  0.17843282634E+04  0.17843282634E+04  0.00000000000E+00 0.  1.
          1   -1    0    0  501    0  0.00000000000E+00 -0.00000000000E+00 -0.30559103054E+02  0.30559103054E+02  0.00000000000E+00 0. -1.
         25    2    1    2    0    0 -0.20453149761E+03  0.20729492528E+02  0.98624829315E+03  0.10151826556E+04  0.12508910112E+03 0.  0.
         23    2    1    2    0    0  0.20453149761E+03 -0.20729492528E+02  0.76752086719E+03  0.79970471079E+03  0.90423987544E+02 0.  0.
          5    1    3    3  502    0 -0.16881658779E+03  0.64708935125E+02  0.81253675596E+03  0.83241800724E+03  0.41800000000E+01 0. -1.
         -5    1    3    3    0  502 -0.35714909821E+02 -0.43979442597E+02  0.17371153719E+03  0.18276464841E+03  0.41800000000E+01 0. -1.
        -11    1    4    4    0    0  0.66887575166E+02  0.24189323895E+02  0.15880127928E+03  0.17400263619E+03  0.00000000000E+00 0. -1.
         11    1    4    4    0    0  0.13764392244E+03 -0.44918816422E+02  0.60871958791E+03  0.62570207460E+03  0.00000000000E+00 0.  1.
</event>
<event>
 8    1  0.7048627E-009  0.1441075E+03  0.7561462E-02  0.1207906E+00
          1   -1    0    0  501    0  0.00000000000E+00  0.00000000000E+00  0.13433210966E+03  0.13433210966E+03  0.00000000000E+00 0. -1.
         -1   -1    0    0    0  501 -0.00000000000E+00 -0.00000000000E+00 -0.19995625651E+03  0.19995625651E+03  0.00000000000E+00 0.  1.
         25    2    1    2    0    0  0.26247404302E+02  0.10709460321E+03  0.19643411496E+02  0.16790379658E+03  0.12509053130E+03 0.  0.
         23    2    1    2    0    0 -0.26247404302E+02 -0.10709460321E+03 -0.85267558345E+02  0.16638456959E+03  0.90857516042E+02 0.  0.
          5    1    3    3  502    0 -0.48986016214E+02  0.24962890951E+02  0.31220261765E+01  0.55226761236E+02  0.41800000000E+01 0.  1.
         -5    1    3    3    0  502  0.75233420516E+02  0.82131712263E+02  0.16521385319E+02  0.11267703535E+03  0.41800000000E+01 0.  1.
        -11    1    4    4    0    0 -0.41639327166E+02 -0.85480040602E+02 -0.98352604679E+02  0.13679877834E+03  0.00000000000E+00 0.  1.
         11    1    4    4    0    0  0.15391922864E+02 -0.21614562612E+02  0.13085046334E+02  0.29585791250E+02  0.00000000000E+00 0. -1.
</event>
<event>
 8    1  0.7048627E-009  0.1111840E+03  0.7561462E-02  0.1258393E+00
         -4   -1    0    0    0  501 -0.00000000000E+00  0.00000000000E+00  0.21368479238E+03  0.21368479238E+03  0.00000000000E+00 0.  1.
          4   -1    0    0  501    0  0.00000000000E+00 -0.00000000000E+00 -0.69430893632E+02  0.69430893632E+02  0.00000000000E+00 0. -1.
         25    2    1    2    0    0 -0.55902459831E+02 -0.22390866518E+02  0.10597244492E+03  0.17466838075E+03  0.12510974476E+03 0.  0.
         23    2    1    2    0    0  0.55902459831E+02  0.22390866518E+02  0.38281453827E+02  0.10844730526E+03  0.81663409140E+02 0.  0.
          5    1    3    3  502    0 -0.35624004694E+01 -0.68034009627E+02  0.41915388369E+02  0.80097998384E+02  0.41800000000E+01 0. -1.
         -5    1    3    3    0  502 -0.52340059362E+02  0.45643143109E+02  0.64057056551E+02  0.94570382366E+02  0.41800000000E+01 0. -1.
        -11    1    4    4    0    0  0.43423405768E+02  0.42573387278E+02  0.52879669434E+02  0.80587498486E+02  0.00000000000E+00 0.  1.
         11    1    4    4    0    0  0.12479054063E+02 -0.20182520760E+02 -0.14598215607E+02  0.27859806773E+02  0.00000000000E+00 0. -1.
</event>
<event>
 8    1  0.7048627E-009  0.9269432E+02  0.7561462E-02  0.1296455E+00
         -2   -1    0    0    0  501 -0.00000000000E+00  0.00000000000E+00  0.98663178768E+01  0.98663178768E+01  0.00000000000E+00 0.  1.
          2   -1    0    0  501    0  0.00000000000E+00 -0.00000000000E+00 -0.13422959150E+04  0.13422959150E+04  0.00000000000E+00 0. -1.
         25    2    1    2    0    0 -0.23481091337E+02 -0.24397607026E+02 -0.83311346139E+03  0.84313222288E+03  0.12508917152E+03 0.  0.
         23    2    1    2    0    0  0.23481091337E+02  0.24397607026E+02 -0.49931613571E+03  0.50903000998E+03  0.92996466571E+02 0.  0.
          5    1    3    3  502    0  0.27770532937E+02  0.40728340519E+01 -0.47556853165E+02  0.55379754060E+02  0.41800000000E+01 0.  1.
         -5    1    3    3    0  502 -0.51251624274E+02 -0.28470441078E+02 -0.78555660822E+03  0.78775246882E+03  0.41800000000E+01 0.  1.
        -11    1    4    4    0    0  0.58881341138E+02  0.87423986490E+01 -0.27151416559E+03  0.27796291837E+03  0.00000000000E+00 0. -1.
         11    1    4    4    0    0 -0.35400249801E+02  0.15655208377E+02 -0.22780197012E+03  0.23106709161E+03  0.00000000000E+00 0.  1.
</event>
<event>
 8    1  0.7048627E-009  0.8206792E+02  0.7561462E-02  0.1323283E+00
          2   -1    0    0  501    0  0.00000000000E+00  0.00000000000E+00  0.28086583097E+03  0.28086583097E+03  0.00000000000E+00 0. -1.
         -2   -1    0    0    0  501 -0.00000000000E+00 -0.00000000000E+00 -0.45192928452E+02  0.45192928452E+02  0.00000000000E+00 0.  1.
         25    2    1    2    0    0  0.19343890587E+02 -0.20688029981E+02  0.15481137331E+03  0.20103645696E+03  0.12508762941E+03 0.  0.
         23    2    1    2    0    0 -0.19343890587E+02  0.20688029981E+02  0.80861529208E+02  0.12502230247E+03  0.91048385602E+02 0.  0.
          5    1    3    3  502    0  0.50058742737E+02 -0.53933192520E+02  0.56977628290E+02  0.93158947532E+02  0.41800000000E+01 0.  1.
         -5    1    3    3    0  502 -0.30714852150E+02  0.33245162539E+02  0.97833745020E+02  0.10787750942E+03  0.41800000000E+01 0.  1.
        -11    1    4    4    0    0 -0.53898265556E+01  0.28487163588E+02 -0.11571994978E+02  0.31216658812E+02  0.00000000000E+00 0.  1.
         11    1    4    4    0    0 -0.13954064031E+02 -0.77991336072E+01  0.92433524187E+02  0.93805643655E+02  0.00000000000E+00 0. -1.
</event>
<event>
 8    1  0.7048627E-009  0.7855041E+02  0.7561462E-02  0.1333216E+00
          2   -1    0    0  501    0  0.00000000000E+00  0.00000000000E+00  0.43019879946E+03  0.43019879946E+03  0.00000000000E+00 0.  1.
         -2   -1    0    0    0  501 -0.00000000000E+00 -0.00000000000E+00 -0.62230830556E+02  0.62230830556E+02  0.00000000000E+00 0. -1.
         25    2    1    2    0    0  0.28537597108E+02  0.30198409419E+02  0.36925484665E+03  0.39207297081E+03  0.12508290962E+03 0.  0.
         23    2    1    2    0    0 -0.28537597108E+02 -0.30198409419E+02 -0.12868777464E+01  0.10035665921E+03  0.91342567370E+02 0.  0.
          5    1    3    3  502    0  0.47601729306E+02 -0.16715779145E+01  0.34320241716E+03  0.34651708522E+03  0.41800000000E+01 0.  1.
         -5    1    3    3    0  502 -0.19064132197E+02  0.31869987334E+02  0.26052429495E+02  0.45555885588E+02  0.41800000000E+01 0.  1.
        -11    1    4    4    0    0 -0.37778427390E+02 -0.42283719796E+02  0.31030432329E+02  0.64637529859E+02  0.00000000000E+00 0.  1.
         11    1    4    4    0    0  0.92408302813E+01  0.12085310377E+02 -0.32317310075E+02  0.35719129352E+02  0.00000000000E+00 0. -1.
</event>
<event>
 8    1  0.7048627E-009  0.1516074E+03  0.7561462E-02  0.1198512E+00
          1   -1    0    0  501    0  0.00000000000E+00  0.00000000000E+00  0.70966171833E+03  0.70966171833E+03  0.00000000000E+00 0. -1.
         -1   -1    0    0    0  501 -0.00000000000E+00 -0.00000000000E+00 -0.36075693353E+02  0.36075693353E+02  0.00000000000E+00 0.  1.
         25    2    1    2    0    0  0.95625747339E+02  0.66115823799E+02  0.38650553658E+03  0.42254938200E+03  0.12508343100E+03 0.  0.
         23    2    1    2    0    0 -0.95625747339E+02 -0.66115823799E+02  0.28708048840E+03  0.32318802969E+03  0.92302275166E+02 0.  0.
          5    1    3    3  502    0  0.76205995609E+02 -0.18570326451E+02  0.23584617747E+03  0.24858218484E+03  0.41800000000E+01 0. -1.
         -5    1    3    3    0  502  0.19419751731E+02  0.84686150250E+02  0.15065935910E+03  0.17396719716E+03  0.41800000000E+01 0. -1.
        -11    1    4    4    0    0 -0.28512031703E+02 -0.64532320150E+02  0.86219552107E+02  0.11140541935E+03  0.00000000000E+00 0.  1.
         11    1    4    4    0    0 -0.67113715636E+02 -0.15835036493E+01  0.20086093630E+03  0.21178261033E+03  0.00000000000E+00 0. -1.
</event>
<event>
 8    1  0.7048627E-009  0.7086278E+02  0.7561462E-02  0.1357183E+00
         -1   -1    0    0    0  501 -0.00000000000E+00  0.00000000000E+00  0.16333405409E+03  0.16333405409E+03  0.00000000000E+00 0.  1.
          1   -1    0    0  501    0  0.00000000000E+00 -0.00000000000E+00 -0.96224418000E+02  0.96224418000E+02  0.00000000000E+00 0. -1.
         25    2    1    2    0    0  0.13507864225E+02 -0.21793039654E+02  0.96013027526E+02  0.15976210951E+03  0.12509209090E+03 0.  0.
         23    2    1    2    0    0 -0.13507864225E+02  0.21793039654E+02 -0.28903391434E+02  0.99796362587E+02  0.92013634729E+02 0.  0.
          5    1    3    3  502    0  0.26455451693E+02 -0.58863425260E+02  0.10103088929E+03  0.11995627015E+03  0.41800000000E+01 0.  1.
         -5    1    3    3    0  502 -0.12947587468E+02  0.37070385606E+02 -0.50178617626E+01  0.39805839357E+02  0.41800000000E+01 0.  1.
        -11    1    4    4    0    0 -0.19537612383E+02  0.56556863643E+01  0.31215815201E+02  0.37257646256E+02  0.00000000000E+00 0.  1.
         11    1    4    4    0    0  0.60297481584E+01  0.16137353290E+02 -0.60119206634E+02  0.62538716331E+02  0.00000000000E+00 0. -1.
</event>
<event>
 8    1  0.7048627E-009  0.1038015E+03  0.7561462E-02  0.1272499E+00
         -4   -1    0    0    0  501 -0.00000000000E+00  0.00000000000E+00  0.10260867077E+03  0.10260867077E+03  0.00000000000E+00 0.  1.
          4   -1    0    0  501    0  0.00000000000E+00 -0.00000000000E+00 -0.15330967118E+03  0.15330967118E+03  0.00000000000E+00 0. -1.
         25    2    1    2    0    0 -0.30868170988E+02 -0.19042476810E+02  0.10806935306E+02  0.13068995285E+03  0.12509042338E+03 0.  0.
         23    2    1    2    0    0  0.30868170988E+02  0.19042476810E+02 -0.61507935708E+02  0.12522838910E+03  0.10287596113E+03 0.  0.
          5    1    3    3  502    0 -0.31695954097E+02 -0.55259283913E+02  0.47027255315E+02  0.79292226020E+02  0.41800000000E+01 0.  1.
         -5    1    3    3    0  502  0.82778310894E+00  0.36216807102E+02 -0.36220320008E+02  0.51397726828E+02  0.41800000000E+01 0.  1.
        -11    1    4    4    0    0  0.67901260312E+02  0.18004082088E+02 -0.50712333537E+02  0.86639880520E+02  0.00000000000E+00 0. -1.
         11    1    4    4    0    0 -0.37033089324E+02  0.10383947220E+01 -0.10795602171E+02  0.38588508583E+02  0.00000000000E+00 0.  1.
</event>
<event>
 8    1  0.7048627E-009  0.9756704E+02  0.7561462E-02  0.1285497E+00
          4   -1    0    0  501    0  0.00000000000E+00  0.00000000000E+00  0.23383890000E+03  0.23383890000E+03  0.00000000000E+00 0. -1.
         -4   -1    0    0    0  501 -0.00000000000E+00 -0.00000000000E+00 -0.69304637570E+02  0.69304637570E+02  0.00000000000E+00 0.  1.
         25    2    1    2    0    0 -0.52351689241E+01 -0.55597390447E+02  0.47148139277E+02  0.14486397781E+03  0.12507656939E+03 0.  0.
         23    2    1    2    0    0  0.52351689241E+01  0.55597390447E+02  0.11738612316E+03  0.15827955977E+03  0.90301939688E+02 0.  0.
          5    1    3    3  502    0  0.35883354521E+02 -0.30345672333E+02  0.75287453959E+02  0.88849018479E+02  0.41800000000E+01 0. -1.
         -5    1    3    3    0  502 -0.41118523445E+02 -0.25251718114E+02 -0.28139314682E+02  0.56014959330E+02  0.41800000000E+01 0. -1.
        -11    1    4    4    0    0 -0.37544056739E+02  0.14646418157E+02  0.21755020016E+02  0.45796884797E+02  0.00000000000E+00 0.  1.
         11    1    4    4    0    0  0.42779225663E+02  0.40950972290E+02  0.95631103142E+02  0.11248267497E+03  0.00000000000E+00 0. -1.
</event>
<event>
 8    1  0.7048627E-009  0.1184030E+03  0.7561462E-02  0.1245755E+00
          4   -1    0    0  501    0  0.00000000000E+00  0.00000000000E+00  0.13529689281E+03  0.13529689281E+03  0.00000000000E+00 0.  1.
         -4   -1    0    0    0  501 -0.00000000000E+00 -0.00000000000E+00 -0.14182958360E+03  0.14182958360E+03  0.00000000000E+00 0. -1.
         25    2    1    2    0    0 -0.63491675696E+02 -0.49062858270E+02 -0.34576779846E+02  0.15257868539E+03  0.12508534921E+03 0.  0.
         23    2    1    2    0    0  0.63491675696E+02  0.49062858270E+02  0.28044089052E+02  0.12454779101E+03  0.91034742660E+02 0.  0.
          5    1    3    3  502    0 -0.18588333813E+02 -0.73804976719E+02  0.18738992393E+02  0.78494095181E+02  0.41800000000E+01 0.  1.
         -5    1    3    3    0  502 -0.44903341883E+02  0.24742118449E+02 -0.53315772239E+02  0.74084590213E+02  0.41800000000E+01 0.  1.
        -11    1    4    4    0    0  0.60717355288E+02  0.67331240685E+02  0.43404811377E+02  0.10051900744E+03  0.00000000000E+00 0.  1.
         11    1    4    4    0    0  0.27743204081E+01 -0.18268382415E+02 -0.15360722325E+02  0.24028783576E+02  0.00000000000E+00 0. -1.
</event>
<event>
 8    1  0.7048627E-009  0.9199902E+02  0.7561462E-02  0.1298082E+00
          2   -1    0    0  501    0  0.00000000000E+00  0.00000000000E+00  0.73502230612E+03  0.73502230612E+03  0.00000000000E+00 0. -1.
         -2   -1    0    0    0  501 -0.00000000000E+00 -0.00000000000E+00 -0.20751678089E+02  0.20751678089E+02  0.00000000000E+00 0.  1.
         25    2    1    2    0    0  0.57493296576E+02 -0.95179460945E+01  0.41342739921E+03  0.43585083108E+03  0.12509061552E+03 0.  0.
         23    2    1    2    0    0 -0.57493296576E+02  0.95179460945E+01  0.30084322883E+03  0.31992315313E+03  0.91913574226E+02 0.  0.
          5    1    3    3  502    0  0.78357405370E+01  0.28712048085E+02  0.33029390732E+03  0.33165843597E+03  0.41800000000E+01 0.  1.
         -5    1    3    3    0  502  0.49657556039E+02 -0.38229994180E+02  0.83133491884E+02  0.10419239511E+03  0.41800000000E+01 0.  1.
        -11    1    4    4    0    0 -0.73017921970E+02  0.17831785943E+00  0.28945723679E+03  0.29852494143E+03  0.00000000000E+00 0. -1.
         11    1    4    4    0    0  0.15524625394E+02  0.93396282350E+01  0.11385992039E+02  0.21398211699E+02  0.00000000000E+00 0.  1.
</event>
<event>
 8    1  0.7048627E-009  0.1179809E+03  0.7561462E-02  0.1246466E+00
          2   -1    0    0  501    0  0.00000000000E+00  0.00000000000E+00  0.19312745380E+03  0.19312745380E+03  0.00000000000E+00 0. -1.
         -2   -1    0    0    0  501 -0.00000000000E+00 -0.00000000000E+00 -0.94946031465E+02  0.94946031465E+02  0.00000000000E+00 0.  1.
         25    2    1    2    0    0  0.74350302991E+02  0.15466049422E+02  0.68527850711E+02  0.16158816065E+03  0.12508997202E+03 0.  0.
         23    2    1    2    0    0 -0.74350302991E+02 -0.15466049422E+02  0.29653571626E+02  0.12648532461E+03  0.96705929459E+02 0.  0.
          5    1    3    3  502    0  0.85668210872E+02 -0.13599776480E+02  0.88758955504E+02  0.12417576598E+03  0.41800000000E+01 0.  1.
         -5    1    3    3    0  502 -0.11317907881E+02  0.29065825902E+02 -0.20231104793E+02  0.37412394675E+02  0.41800000000E+01 0.  1.
        -11    1    4    4    0    0 -0.64347138622E+02 -0.50131214955E+02  0.29946003133E+01  0.81625122314E+02  0.00000000000E+00 0.  1.
         11    1    4    4    0    0 -0.10003164369E+02  0.34665165533E+02  0.26658971312E+02  0.44860202299E+02  0.00000000000E+00 0. -1.
</event>
<event>
 8    1  0.7048627E-009  0.1153885E+03  0.7561462E-02  0.1250905E+00
          1   -1    0    0  501    0  0.00000000000E+00  0.00000000000E+00  0.42437150366E+03  0.42437150366E+03  0.00000000000E+00 0. -1.
         -1   -1    0    0    0  501 -0.00000000000E+00 -0.00000000000E+00 -0.37929813760E+02  0.37929813760E+02  0.00000000000E+00 0.  1.
         25    2    1    2    0    0 -0.37764826302E+02 -0.26093871837E+02  0.30196480986E+03  0.33005433001E+03  0.12508414013E+03 0.  0.
         23    2    1    2    0    0  0.37764826302E+02  0.26093871837E+02  0.84476880036E+02  0.13224698741E+03  0.90806663655E+02 0.  0.
          5    1    3    3  502    0 -0.70325922215E+02 -0.52513755401E+02  0.16760540297E+03  0.18924183826E+03  0.41800000000E+01 0. -1.
         -5    1    3    3    0  502  0.32561095913E+02  0.26419883563E+02  0.13435940689E+03  0.14081249176E+03  0.41800000000E+01 0. -1.
        -11    1    4    4    0    0  0.74061743347E+01  0.56980930089E+02  0.38989144745E+02  0.69439406823E+02  0.00000000000E+00 0.  1.
         11    1    4    4    0    0  0.30358651967E+02 -0.30887058251E+02  0.45487735291E+02  0.62807580582E+02  0.00000000000E+00 0. -1.
</event>
<event>
 8    1  0.7048627E-009  0.1011597E+03  0.7561462E-02  0.1277876E+00
         -1   -1    0    0    0  501 -0.00000000000E+00  0.00000000000E+00  0.17820232096E+03  0.17820232096E+03  0.00000000000E+00 0.  1.
          1   -1    0    0  501    0  0.00000000000E+00 -0.00000000000E+00 -0.75906217643E+02  0.75906217643E+02  0.00000000000E+00 0. -1.
         25    2    1    2    0    0  0.43339117408E+01 -0.35105516010E+02  0.84310976988E+02  0.15494236057E+03  0.12509042414E+03 0.  0.
         23    2    1    2    0    0 -0.43339117408E+01  0.35105516010E+02  0.17985126328E+02  0.99166178036E+02  0.90880614280E+02 0.  0.
          5    1    3    3  502    0  0.51879355658E+02 -0.52988487386E+02  0.69855037142E+02  0.10196296363E+03  0.41800000000E+01 0. -1.
         -5    1    3    3    0  502 -0.47545443917E+02  0.17882971377E+02  0.14455939846E+02  0.52979396932E+02  0.41800000000E+01 0. -1.
        -11    1    4    4    0    0 -0.31063315599E+02  0.39220125434E+02  0.40189552940E+02  0.64174356098E+02  0.00000000000E+00 0.  1.
         11    1    4    4    0    0  0.26729403858E+02 -0.41146094247E+01 -0.22204426612E+02  0.34991821938E+02  0.00000000000E+00 0. -1.
</event>
<event>
 8    1  0.7048627E-009  0.1549477E+03  0.7561462E-02  0.1194522E+00
          1   -1    0    0  501    0  0.00000000000E+00  0.00000000000E+00  0.53266014244E+02  0.53266014244E+02  0.00000000000E+00 0. -1.
         -1   -1    0    0    0  501 -0.00000000000E+00 -0.00000000000E+00 -0.52833613716E+03  0.52833613716E+03  0.00000000000E+00 0.  1.
         25    2    1    2    0    0  0.30240004323E+02 -0.12000753049E+03 -0.30418201131E+03  0.35141159300E+03  0.12508855444E+03 0.  0.
         23    2    1    2    0    0 -0.30240004323E+02  0.12000753049E+03 -0.17088811160E+03  0.23019055841E+03  0.92025438091E+02 0.  0.
          5    1    3    3  502    0 -0.45060120080E+02 -0.23966385357E+02 -0.63957393647E+02  0.81931817085E+02  0.41800000000E+01 0. -1.
         -5    1    3    3    0  502  0.75300124403E+02 -0.96041145134E+02 -0.24022461767E+03  0.26947977591E+03  0.41800000000E+01 0. -1.
        -11    1    4    4    0    0  0.26231733510E+01  0.95607868438E+02 -0.16227427185E+03  0.18836317275E+03  0.00000000000E+00 0.  1.
         11    1    4    4    0    0 -0.32863177674E+02  0.24399662053E+02 -0.86138397526E+01  0.41827385651E+02  0.00000000000E+00 0. -1.
</event>
<event>
 8    1  0.7048627E-009  0.1230197E+03  0.7561462E-02  0.1238197E+00
          2   -1    0    0  501    0  0.00000000000E+00  0.00000000000E+00  0.65488178614E+03  0.65488178614E+03  0.00000000000E+00 0. -1.
         -2   -1    0    0    0  501 -0.00000000000E+00 -0.00000000000E+00 -0.28649317967E+02  0.28649317967E+02  0.00000000000E+00 0.  1.
         25    2    1    2    0    0  0.50905492207E+02 -0.48076663408E+02  0.23421860902E+03  0.27460556614E+03  0.12508847046E+03 0.  0.
         23    2    1    2    0    0 -0.50905492207E+02  0.48076663408E+02  0.39201385915E+03  0.40892553796E+03  0.92965021014E+02 0.  0.
          5    1    3    3  502    0 -0.33058445040E+02 -0.31150574564E+02  0.34302780191E+02  0.57073393214E+02  0.41800000000E+01 0.  1.
         -5    1    3    3    0  502  0.83963937247E+02 -0.16926088844E+02  0.19991582883E+03  0.21753217293E+03  0.41800000000E+01 0.  1.
        -11    1    4    4    0    0 -0.33580261269E+02  0.75273142352E+02  0.31081401170E+03  0.32155719519E+03  0.00000000000E+00 0. -1.
         11    1    4    4    0    0 -0.17325230937E+02 -0.27196478943E+02  0.81199847448E+02  0.87368342776E+02  0.00000000000E+00 0.  1.
</event>
<event>
 8    1  0.7048627E-009  0.1450309E+03  0.7561462E-02  0.1206715E+00
          2   -1    0    0  501    0  0.00000000000E+00  0.00000000000E+00  0.11892195634E+04  0.11892195634E+04  0.00000000000E+00 0. -1.
         -2   -1    0    0    0  501 -0.00000000000E+00 -0.00000000000E+00 -0.26607971814E+02  0.26607971814E+02  0.00000000000E+00 0.  1.
         25    2    1    2    0    0  0.13165626965E+03  0.49970903991E+02  0.65725919431E+03  0.68371534934E+03  0.12508623359E+03 0.  0.
         23    2    1    2    0    0 -0.13165626965E+03 -0.49970903991E+02  0.50535239725E+03  0.53211218585E+03  0.89061037153E+02 0.  0.
          5    1    3    3  502    0  0.42275316012E+02  0.95550224017E+01  0.41412791368E+02  0.60091534229E+02  0.41800000000E+01 0.  1.
         -5    1    3    3    0  502  0.89380953639E+02  0.40415881589E+02  0.61584640294E+03  0.62362381511E+03  0.41800000000E+01 0.  1.
        -11    1    4    4    0    0 -0.51391922862E+02 -0.44337202434E+02  0.35650973175E+03  0.36291335893E+03  0.00000000000E+00 0. -1.
         11    1    4    4    0    0 -0.80264346789E+02 -0.56337015571E+01  0.14884266550E+03  0.16919882692E+03  0.00000000000E+00 0.  1.
</event>
<event>
 8    1  0.7048627E-009  0.8224231E+02  0.7561462E-02  0.1322806E+00
         -2   -1    0    0    0  501 -0.00000000000E+00  0.00000000000E+00  0.50792821015E+02  0.50792821015E+02  0.00000000000E+00 0.  1.
          2   -1    0    0  501    0  0.00000000000E+00 -0.00000000000E+00 -0.23337790165E+03  0.23337790165E+03  0.00000000000E+00 0. -1.
         25    2    1    2    0    0  0.11323140711E+01 -0.99842497254E+01 -0.98476076495E+02  0.15952247746E+03  0.12509562660E+03 0.  0.
         23    2    1    2    0    0 -0.11323140711E+01  0.99842497254E+01 -0.84109004140E+02  0.12464824521E+03  0.91443387284E+02 0.  0.
          5    1    3    3  502    0  0.28399774184E+02 -0.38886515306E+02  0.50084802512E+01  0.48592854626E+02  0.41800000000E+01 0.  1.
         -5    1    3    3    0  502 -0.27267460112E+02  0.28902265581E+02 -0.10348455675E+03  0.11092962283E+03  0.41800000000E+01 0.  1.
        -11    1    4    4    0    0  0.34750934903E+02 -0.85815108786E+01 -0.54327327726E+01  0.36204756469E+02  0.00000000000E+00 0.  1.
         11    1    4    4    0    0 -0.35883248974E+02  0.18565760604E+02 -0.78676271367E+02  0.88443488737E+02  0.00000000000E+00 0. -1.
</event>
<event>
 8    1  0.7048627E-009  0.9827078E+02  0.7561462E-02  0.1283975E+00
         -2   -1    0    0    0  501 -0.00000000000E+00  0.00000000000E+00  0.41936764416E+02  0.41936764416E+02  0.00000000000E+00 0.  1.
          2   -1    0    0  501    0  0.00000000000E+00 -0.00000000000E+00 -0.29505324996E+03  0.29505324996E+03  0.00000000000E+00 0. -1.
         25    2    1    2    0    0  0.26898775408E+02  0.35992744645E+01 -0.13102964584E+03  0.18317501548E+03  0.12509124395E+03 0.  0.
         23    2    1    2    0    0 -0.26898775408E+02 -0.35992744645E+01 -0.12208683970E+03  0.15381499890E+03  0.89539703827E+02 0.  0.
          5    1    3    3  502    0  0.30829384210E+01  0.56986822379E+02 -0.10384883685E+03  0.11857088913E+03  0.41800000000E+01 0.  1.
         -5    1    3    3    0  502  0.23815836987E+02 -0.53387547915E+02 -0.27180808986E+02  0.64604126346E+02  0.41800000000E+01 0.  1.
        -11    1    4    4    0    0 -0.46360720587E+02  0.19682400020E+02 -0.34311767659E+02  0.60942683595E+02  0.00000000000E+00 0.  1.
         11    1    4    4    0    0  0.19461945179E+02 -0.23281674484E+02 -0.87775072046E+02  0.92872315302E+02  0.00000000000E+00 0. -1.
</event>
<event>
 8    1  0.7048627E-009  0.1091881E+03  0.7561462E-02  0.1262081E+00
         -2   -1    0    0    0  501 -0.00000000000E+00  0.00000000000E+00  0.75073955847E+02  0.75073955847E+02  0.00000000000E+00 0.  1.
          2   -1    0    0  501    0  0.00000000000E+00 -0.00000000000E+00 -0.33561340831E+03  0.33561340831E+03  0.00000000000E+00 0. -1.
         25    2    1    2    0    0 -0.47566098078E+00 -0.72688779365E+02 -0.25498391372E+03  0.29316695539E+03  0.12508470162E+03 0.  0.
         23    2    1    2    0    0  0.47566098078E+00  0.72688779365E+02 -0.55555387456E+01  0.11752040877E+03  0.92175363124E+02 0.  0.
          5    1    3    3  502    0 -0.91611059990E+01  0.34642376471E+02 -0.78325042049E+02  0.86234011403E+02  0.41800000000E+01 0. -1.
         -5    1    3    3    0  502  0.86854450182E+01 -0.10733115584E+03 -0.17665887167E+03  0.20693294399E+03  0.41800000000E+01 0. -1.
        -11    1    4    4    0    0 -0.63832666067E+01  0.57716053878E+02 -0.45851976316E+02  0.73988463289E+02  0.00000000000E+00 0. -1.
         11    1    4    4    0    0  0.68589275875E+01  0.14972725487E+02  0.40296437571E+02  0.43531945478E+02  0.00000000000E+00 0.  1.
</event>
<event>
 8    1  0.7048627E-009  0.9607182E+02  0.7561462E-02  0.1288780E+00
          2   -1    0    0  501    0  0.00000000000E+00  0.00000000000E+00  0.18035898018E+03  0.18035898018E+03  0.00000000000E+00 0. -1.
         -2   -1    0    0    0  501 -0.00000000000E+00 -0.00000000000E+00 -0.75910914279E+02  0.75910914279E+02  0.00000000000E+00 0.  1.
         25    2    1    2    0    0 -0.36555245688E+02 -0.16948215882E+02  0.34227818195E+02  0.13580167305E+03  0.12508806041E+03 0.  0.
         23    2    1    2    0    0  0.36555245688E+02  0.16948215882E+02  0.70220247709E+02  0.12046822141E+03  0.89208638442E+02 0.  0.
          5    1    3    3  502    0  0.45272239835E+02 -0.80817243372E+00 -0.20556910101E+00  0.45472447713E+02  0.41800000000E+01 0.  1.
         -5    1    3    3    0  502 -0.81827485523E+02 -0.16140043448E+02  0.34433387296E+02  0.90329225339E+02  0.41800000000E+01 0.  1.
        -11    1    4    4    0    0  0.48700716951E+02  0.13471110061E+02  0.14532533918E+01  0.50550396470E+02  0.00000000000E+00 0.  1.
         11    1    4    4    0    0 -0.12145471263E+02  0.34771058206E+01  0.68766994317E+02  0.69917824941E+02  0.00000000000E+00 0. -1.
</event>
<event>
 8    1  0.7048627E-009  0.1373156E+03  0.7561462E-02  0.1216987E+00
          2   -1    0    0  501    0  0.00000000000E+00  0.00000000000E+00  0.10755998074E+04  0.10755998074E+04  0.00000000000E+00 0. -1.
         -2   -1    0    0    0  501 -0.00000000000E+00 -0.00000000000E+00 -0.20798759744E+02  0.20798759744E+02  0.00000000000E+00 0.  1.
         25    2    1    2    0    0  0.73067031257E+02  0.68496213918E+02  0.65284638350E+03  0.67222499056E+03  0.12509002801E+03 0.  0.
         23    2    1    2    0    0 -0.73067031257E+02 -0.68496213918E+02  0.40195466414E+03  0.42417357657E+03  0.91242252581E+02 0.  0.
          5    1    3    3  502    0  0.66931973004E+02 -0.31387619595E+01  0.15119242484E+03  0.16542781678E+03  0.41800000000E+01 0.  1.
         -5    1    3    3    0  502  0.61350582529E+01  0.71634975877E+02  0.50165395866E+03  0.50679717378E+03  0.41800000000E+01 0.  1.
        -11    1    4    4    0    0  0.14539195406E+02  0.10163127876E+02  0.54030973153E+02  0.56868474844E+02  0.00000000000E+00 0.  1.
         11    1    4    4    0    0 -0.87606226663E+02 -0.78659341793E+02  0.34792369099E+03  0.36730510172E+03  0.00000000000E+00 0. -1.
</event>
<event>
 8    1  0.7048627E-009  0.1307309E+03  0.7561462E-02  0.1226375E+00
          1   -1    0    0  501    0  0.00000000000E+00  0.00000000000E+00  0.17627682997E+04  0.17627682997E+04  0.00000000000E+00 0. -1.
         -1   -1    0    0    0  501 -0.00000000000E+00 -0.00000000000E+00 -0.12153743010E+02  0.12153743010E+02  0.00000000000E+00 0.  1.
         25    2    1    2    0    0  0.25028282872E+02  0.78893624057E+02  0.12542983942E+04  0.12632353588E+04  0.12509392904E+03 0.  0.
         23    2    1    2    0    0 -0.25028282872E+02 -0.78893624057E+02  0.49631616251E+03  0.51168668396E+03  0.92967255078E+02 0.  0.
          5    1    3    3  502    0  0.75207119825E+02  0.35094318233E+02  0.72474171848E+03  0.72949006364E+03  0.41800000000E+01 0. -1.
         -5    1    3    3    0  502 -0.50178836954E+02  0.43799305824E+02  0.52955667573E+03  0.53374529513E+03  0.41800000000E+01 0. -1.
        -11    1    4    4    0    0 -0.31685432132E+02  0.76182496236E+00  0.57563880023E+02  0.65712611194E+02  0.00000000000E+00 0.  1.
         11    1    4    4    0    0  0.66571492606E+01 -0.79655449019E+02  0.43875228249E+03  0.44597407277E+03  0.00000000000E+00 0. -1.
</event>
<event>
 8    1  0.7048627E-009  0.1081124E+03  0.7561462E-02  0.1264106E+00
         -2   -1    0    0    0  501 -0.00000000000E+00  0.00000000000E+00  0.25556928705E+02  0.25556928705E+02  0.00000000000E+00 0.  1.
          2   -1    0    0  501    0  0.00000000000E+00 -0.00000000000E+00 -0.50807738228E+03  0.50807738228E+03  0.00000000000E+00 0. -1.
         25    2    1    2    0    0 -0.35767116212E+02  0.84373641582E+00 -0.27873758093E+03  0.30760759996E+03  0.12509115890E+03 0.  0.
         23    2    1    2    0    0  0.35767116212E+02 -0.84373641582E+00 -0.20378287264E+03  0.22602671102E+03  0.90997892400E+02 0.  0.
          5    1    3    3  502    0 -0.30418628153E+02  0.59774857457E+02 -0.11177873979E+03  0.13042348559E+03  0.41800000000E+01 0. -1.
         -5    1    3    3    0  502 -0.53484880594E+01 -0.58931121041E+02 -0.16695884114E+03  0.17718411437E+03  0.41800000000E+01 0. -1.
        -11    1    4    4    0    0  0.51394760434E+02 -0.27884938961E+02 -0.84744534898E+02  0.10295934837E+03  0.00000000000E+00 0.  1.
         11    1    4    4    0    0 -0.15627644222E+02  0.27041202545E+02 -0.11903833774E+03  0.12306736265E+03  0.00000000000E+00 0. -1.
</event>
<event>
 8    1  0.7048627E-009  0.1300807E+03  0.7561462E-02  0.1227336E+00
          2   -1    0    0  501    0  0.00000000000E+00  0.00000000000E+00  0.11665599405E+04  0.11665599405E+04  0.00000000000E+00 0. -1.
         -2   -1    0    0    0  501 -0.00000000000E+00 -0.00000000000E+00 -0.14723922590E+02  0.14723922590E+02  0.00000000000E+00 0.  1.
         25    2    1    2    0    0 -0.27704780418E+02 -0.66744409527E+02  0.64759456969E+03  0.66351249654E+03  0.12509090821E+03 0.  0.
         23    2    1    2    0    0  0.27704780418E+02  0.66744409527E+02  0.50424144820E+03  0.51777136653E+03  0.92765181233E+02 0.  0.
          5    1    3    3  502    0 -0.74782888239E+02 -0.23468255696E+02  0.40890955701E+03  0.41637451605E+03  0.41800000000E+01 0.  1.
         -5    1    3    3    0  502  0.47078107822E+02 -0.43276153831E+02  0.23868501268E+03  0.24713798050E+03  0.41800000000E+01 0.  1.
        -11    1    4    4    0    0 -0.10008722408E+02 -0.20350467790E+02  0.98800666634E+02  0.10137005372E+03  0.00000000000E+00 0. -1.
         11    1    4    4    0    0  0.37713502826E+02  0.87094877317E+02  0.40544078157E+03  0.41640131281E+03  0.00000000000E+00 0.  1.
</event>
<event>
 8    1  0.7048627E-009  0.9291690E+02  0.7561462E-02  0.1295938E+00
          2   -1    0    0  501    0  0.00000000000E+00  0.00000000000E+00  0.11618462581E+03  0.11618462581E+03  0.00000000000E+00 0.  1.
         -2   -1    0    0    0  501 -0.00000000000E+00 -0.00000000000E+00 -0.12981155034E+03  0.12981155034E+03  0.00000000000E+00 0. -1.
         25    2    1    2    0    0  0.43197988299E+02  0.69392655354E+01 -0.22066904646E+02  0.13435399569E+03  0.12509927369E+03 0.  0.
         23    2    1    2    0    0 -0.43197988299E+02 -0.69392655354E+01  0.84399801110E+01  0.11164218047E+03  0.10236465990E+03 0.  0.
          5    1    3    3  502    0  0.58300645785E+02  0.41308476567E+01  0.39562577142E+02  0.70701478849E+02  0.41800000000E+01 0. -1.
         -5    1    3    3    0  502 -0.15102657486E+02  0.28084178787E+01 -0.61629481788E+02  0.63652516836E+02  0.41800000000E+01 0. -1.
        -11    1    4    4    0    0 -0.68520720059E+02 -0.32058518470E+02  0.52368775230E+01  0.75830485757E+02  0.00000000000E+00 0.  1.
         11    1    4    4    0    0  0.25322731760E+02  0.25119252935E+02  0.32031025880E+01  0.35811694710E+02  0.00000000000E+00 0. -1.
</event>
<event>
 8    1  0.7048627E-009  0.1072338E+03  0.7561462E-02  0.1265780E+00
         -1   -1    0    0    0  501 -0.00000000000E+00  0.00000000000E+00  0.58470231323E+02  0.58470231323E+02  0.00000000000E+00 0.  1.
          1   -1    0    0  501    0  0.00000000000E+00 -0.00000000000E+00 -0.30827497171E+03  0.30827497171E+03  0.00000000000E+00 0. -1.
         25    2    1    2    0    0  0.43141739403E+02 -0.30227930337E+02 -0.61392826594E+02  0.14896881081E+03  0.12509072702E+03 0.  0.
         23    2    1    2    0    0 -0.43141739403E+02  0.30227930337E+02 -0.18841191379E+03  0.21777639222E+03  0.95669066578E+02 0.  0.
          5    1    3    3  502    0  0.65322006109E+02  0.27830664043E+02 -0.19000558935E+02  0.73620676328E+02  0.41800000000E+01 0.  1.
         -5    1    3    3    0  502 -0.22180266706E+02 -0.58058594379E+02 -0.42392267659E+02  0.75348134480E+02  0.41800000000E+01 0.  1.
        -11    1    4    4    0    0 -0.23924869518E+02 -0.17471134047E+02 -0.15176610458E+03  0.15463049636E+03  0.00000000000E+00 0. -1.
         11    1    4    4    0    0 -0.19216869885E+02  0.47699064383E+02 -0.36645809214E+02  0.63145895862E+02  0.00000000000E+00 0.  1.
</event>
<event>
 8    1  0.7048627E-009  0.1147669E+03  0.7561462E-02  0.1251988E+00
          1   -1    0    0  501    0  0.00000000000E+00  0.00000000000E+00  0.55754992179E+03  0.55754992179E+03  0.00000000000E+00 0. -1.
         -1   -1    0    0    0  501 -0.00000000000E+00 -0.00000000000E+00 -0.28828691696E+02  0.28828691696E+02  0.00000000000E+00 0.  1.
         25    2    1    2    0    0 -0.37909857060E+02 -0.10431233769E+02  0.41262724191E+03  0.43296106219E+03  0.12509225680E+03 0.  0.
         23    2    1    2    0    0  0.37909857060E+02  0.10431233769E+02  0.11609398819E+03  0.15341755130E+03  0.92266803627E+02 0.  0.
          5    1    3    3  502    0  0.40835397183E+02  0.20863247131E+02  0.13286528087E+03  0.14061813541E+03  0.41800000000E+01 0. -1.
         -5    1    3    3    0  502 -0.78745254243E+02 -0.31294480899E+02  0.27976196104E+03  0.29234292679E+03  0.41800000000E+01 0. -1.
        -11    1    4    4    0    0  0.58229472575E+02 -0.20420633493E+02  0.58729656228E+02  0.85187125021E+02  0.00000000000E+00 0. -1.
         11    1    4    4    0    0 -0.20319615515E+02  0.30851867262E+02  0.57364331961E+02  0.68230426275E+02  0.00000000000E+00 0.  1.
</event>
<event>
 8    1  0.7048627E-009  0.1041051E+03  0.7561462E-02  0.1271893E+00
          2   -1    0    0  501    0  0.00000000000E+00  0.00000000000E+00  0.28162896689E+02  0.28162896689E+02  0.00000000000E+00 0. -1.
         -2   -1    0    0    0  501 -0.00000000000E+00 -0.00000000000E+00 -0.76418265167E+03  0.76418265167E+03  0.00000000000E+00 0.  1.
         25    2    1    2    0    0 -0.37637632532E+02  0.27188438766E+02 -0.63503258505E+03  0.64889874845E+03  0.12508956425E+03 0.  0.
         23    2    1    2    0    0  0.37637632532E+02 -0.27188438766E+02 -0.10098716993E+03  0.14344679991E+03  0.90679508862E+02 0.  0.
          5    1    3    3  502    0 -0.42224756545E+02  0.62193466502E+02 -0.22364226806E+03  0.23597519744E+03  0.41800000000E+01 0.  1.
         -5    1    3    3    0  502  0.45871240129E+01 -0.35005027736E+02 -0.41139031699E+03  0.41292355102E+03  0.41800000000E+01 0.  1.
        -11    1    4    4    0    0  0.64331391390E+02 -0.29102871231E+02 -0.52225390728E+02  0.87823666906E+02  0.00000000000E+00 0. -1.
         11    1    4    4    0    0 -0.26693758858E+02  0.19144324656E+01 -0.48761779205E+02  0.55623133002E+02  0.00000000000E+00 0.  1.
</event>
<event>
 8    1  0.7048627E-009  0.1122909E+03  0.7561462E-02  0.1256385E+00
         -1   -1    0    0    0  501 -0.00000000000E+00  0.00000000000E+00  0.26159565314E+02  0.26159565314E+02  0.00000000000E+00 0.  1.
          1   -1    0    0  501    0  0.00000000000E+00 -0.00000000000E+00 -0.81450601247E+03  0.81450601247E+03  0.00000000000E+00 0. -1.
         25    2    1    2    0    0 -0.50960297802E+02 -0.75196973467E+02 -0.51866643033E+03  0.54121507615E+03  0.12508939176E+03 0.  0.
         23    2    1    2    0    0  0.50960297802E+02  0.75196973467E+02 -0.26968001682E+03  0.29945050163E+03  0.93229580513E+02 0.  0.
          5    1    3    3  502    0 -0.55319353054E+02 -0.59481814808E+02 -0.51802023627E+03  0.52436700383E+03  0.41800000000E+01 0. -1.
         -5    1    3    3    0  502  0.43590552516E+01 -0.15715158659E+02 -0.64619406135E+00  0.16848072327E+02  0.41800000000E+01 0. -1.
        -11    1    4    4    0    0  0.49963938114E+00 -0.19287352815E+02 -0.20129396474E+02  0.27882686753E+02  0.00000000000E+00 0.  1.
         11    1    4    4    0    0  0.50460658421E+02  0.94484326282E+02 -0.24955062034E+03  0.27156781487E+03  0.00000000000E+00 0. -1.
</event>
<event>
 8    1  0.7048627E-009  0.1315176E+03  0.7561462E-02  0.1225221E+00
          1   -1    0    0  501    0  0.00000000000E+00  0.00000000000E+00  0.54025129201E+03  0.54025129201E+03  0.00000000000E+00 0. -1.
         -1   -1    0    0    0  501 -0.00000000000E+00 -0.00000000000E+00 -0.60054107760E+02  0.60054107760E+02  0.00000000000E+00 0.  1.
         25    2    1    2    0    0  0.93698667491E+02  0.18539599895E+02  0.43186193997E+03  0.45964466048E+03  0.12508126020E+03 0.  0.
         23    2    1    2    0    0 -0.93698667491E+02 -0.18539599895E+02  0.48335244278E+02  0.14066073929E+03  0.91246866717E+02 0.  0.
          5    1    3    3  502    0  0.25890334788E+02  0.63121963670E+02  0.12802716513E+03  0.14513138580E+03  0.41800000000E+01 0.  1.
         -5    1    3    3    0  502  0.67808332703E+02 -0.44582363775E+02  0.30383477485E+03  0.31451327468E+03  0.41800000000E+01 0.  1.
        -11    1    4    4    0    0 -0.97341463605E+02 -0.29211224452E+01  0.85443051917E+01  0.97759391592E+02  0.00000000000E+00 0.  1.
         11    1    4    4    0    0  0.36427961144E+01 -0.15618477449E+02  0.39790939086E+02  0.42901347703E+02  0.00000000000E+00 0. -1.
</event>
<event>
 8    1  0.7048627E-009  0.1177117E+03  0.7561462E-02  0.1246920E+00
          2   -1    0    0  501    0  0.00000000000E+00  0.00000000000E+00  0.76935168004E+03  0.76935168004E+03  0.00000000000E+00 0. -1.
         -2   -1    0    0    0  501 -0.00000000000E+00 -0.00000000000E+00 -0.32436503405E+02  0.32436503405E+02  0.00000000000E+00 0.  1.
         25    2    1    2    0    0  0.49121347007E+02  0.13080064588E+02  0.65639686709E+03  0.67014104792E+03  0.12509269430E+03 0.  0.
         23    2    1    2    0    0 -0.49121347007E+02 -0.13080064588E+02  0.80518309552E+02  0.13164713553E+03  0.90905309516E+02 0.  0.
          5    1    3    3  502    0  0.44552851770E+02 -0.52310849852E+02  0.30693077436E+03  0.31455580469E+03  0.41800000000E+01 0. -1.
         -5    1    3    3    0  502  0.45684952372E+01  0.65390914440E+02  0.34946609273E+03  0.35558524324E+03  0.41800000000E+01 0. -1.
        -11    1    4    4    0    0  0.17634675837E+02 -0.27439597081E+02  0.11570263252E+02  0.34609020089E+02  0.00000000000E+00 0. -1.
         11    1    4    4    0    0 -0.66756022843E+02  0.14359532493E+02  0.68948046300E+02  0.97038115439E+02  0.00000000000E+00 0.  1.
</event>
<event>
 8    1  0.7048627E-009  0.1042164E+03  0.7561462E-02  0.1271671E+00
         -1   -1    0    0    0  501 -0.00000000000E+00  0.00000000000E+00  0.14113258889E+02  0.14113258889E+02  0.00000000000E+00 0.  1.
          1   -1    0    0  501    0  0.00000000000E+00 -0.00000000000E+00 -0.92086245755E+03  0.92086245755E+03  0.00000000000E+00 0. -1.
         25    2    1    2    0    0  0.20098937741E+01  0.26718975325E+02 -0.60719760237E+03  0.62052757553E+03  0.12509036873E+03 0.  0.
         23    2    1    2    0    0 -0.20098937741E+01 -0.26718975325E+02 -0.29955159628E+03  0.31444814091E+03  0.91807032238E+02 0.  0.
          5    1    3    3  502    0  0.95312708234E+01 -0.47727039799E+02 -0.32030252003E+03  0.32400600641E+03  0.41800000000E+01 0. -1.
         -5    1    3    3    0  502 -0.75213770492E+01  0.74446015124E+02 -0.28689508235E+03  0.29652156912E+03  0.41800000000E+01 0. -1.
        -11    1    4    4    0    0 -0.17323931376E+02  0.25161690127E+02 -0.46203268031E+02  0.55389269945E+02  0.00000000000E+00 0.  1.
         11    1    4    4    0    0  0.15314037602E+02 -0.51880665452E+02 -0.25334832825E+03  0.25905887096E+03  0.00000000000E+00 0. -1.
</event>
<event>
 8    1  0.7048627E-009  0.2523809E+03  0.7561462E-02  0.1111809E+00
         -2   -1    0    0    0  501 -0.00000000000E+00  0.00000000000E+00  0.40502673058E+02  0.40502673058E+02  0.00000000000E+00 0.  1.
          2   -1    0    0  501    0  0.00000000000E+00 -0.00000000000E+00 -0.23319055401E+04  0.23319055401E+04  0.00000000000E+00 0. -1.
         25    2    1    2    0    0 -0.14814910422E+03 -0.17318961965E+03 -0.18434112196E+04  0.18616539204E+04  0.12509034047E+03 0.  0.
         23    2    1    2    0    0  0.14814910422E+03  0.17318961965E+03 -0.44799164746E+03  0.51075429280E+03  0.90722819507E+02 0.  0.
          5    1    3    3  502    0  0.97320879322E+01 -0.70166315988E+02 -0.55445143769E+03  0.55897396593E+03  0.41800000000E+01 0.  1.
         -5    1    3    3    0  502 -0.15788119215E+03 -0.10302330366E+03 -0.12889597819E+04  0.13026799544E+04  0.41800000000E+01 0.  1.
        -11    1    4    4    0    0  0.10992528616E+03  0.17534012851E+03 -0.38239120512E+03  0.43479968141E+03  0.00000000000E+00 0.  1.
         11    1    4    4    0    0  0.38223818059E+02 -0.21505088552E+01 -0.65600442344E+02  0.75954611388E+02  0.00000000000E+00 0. -1.
</event>
<event>
 8    1  0.7048627E-009  0.1030968E+03  0.7561462E-02  0.1273915E+00
         -2   -1    0    0    0  501 -0.00000000000E+00  0.00000000000E+00  0.15753853365E+03  0.15753853365E+03  0.00000000000E+00 0.  1.
          2   -1    0    0  501    0  0.00000000000E+00 -0.00000000000E+00 -0.13296100011E+03  0.13296100011E+03  0.00000000000E+00 0. -1.
         25    2    1    2    0    0  0.17380264570E+02 -0.27313176450E+02  0.10303834641E+03  0.16526383885E+03  0.12508857820E+03 0.  0.
         23    2    1    2    0    0 -0.17380264570E+02  0.27313176450E+02 -0.78460812871E+02  0.12523569491E+03  0.92085812799E+02 0.  0.
          5    1    3    3  502    0 -0.50319227133E+02 -0.33116961304E+02  0.39596818170E+02  0.72208989430E+02  0.41800000000E+01 0. -1.
         -5    1    3    3    0  502  0.67699491703E+02  0.58037848544E+01  0.63441528237E+02  0.93054849419E+02  0.41800000000E+01 0. -1.
        -11    1    4    4    0    0  0.39011222557E+01 -0.22882463116E+02  0.66619335941E+01  0.24149683897E+02  0.00000000000E+00 0.  1.
         11    1    4    4    0    0 -0.21281386825E+02  0.50195639566E+02 -0.85122746465E+02  0.10108601101E+03  0.00000000000E+00 0. -1.
</event>
<event>
 8    1  0.7048627E-009  0.8082009E+02  0.7561462E-02  0.1326740E+00
          1   -1    0    0  501    0  0.00000000000E+00  0.00000000000E+00  0.38757837459E+03  0.38757837459E+03  0.00000000000E+00 0. -1.
         -1   -1    0    0    0  501 -0.00000000000E+00 -0.00000000000E+00 -0.46710159404E+02  0.46710159404E+02  0.00000000000E+00 0.  1.
         25    2    1    2    0    0 -0.75109713971E+02 -0.39061973234E+01  0.15436389783E+03  0.21243564469E+03  0.12507582768E+03 0.  0.
         23    2    1    2    0    0  0.75109713971E+02  0.39061973234E+01  0.18650431735E+03  0.22185288930E+03  0.93691603635E+02 0.  0.
          5    1    3    3  502    0 -0.24673558996E+02 -0.76965078703E+01  0.15930748628E+03  0.16144462931E+03  0.41800000000E+01 0. -1.
         -5    1    3    3    0  502 -0.50436154974E+02  0.37903105468E+01 -0.49435884504E+01  0.50991015379E+02  0.41800000000E+01 0. -1.
        -11    1    4    4    0    0  0.45505224405E+02  0.21436916224E+02  0.23977387074E+02  0.55724159179E+02  0.00000000000E+00 0.  1.
         11    1    4    4    0    0  0.29604489566E+02 -0.17530718900E+02  0.16252693028E+03  0.16612873012E+03  0.00000000000E+00 0. -1.
</event>
<event>
 8    1  0.7048627E-009  0.1111616E+03  0.7561462E-02  0.1258434E+00
         -3   -1    0    0    0  501 -0.00000000000E+00  0.00000000000E+00  0.39280986039E+03  0.39280986039E+03  0.00000000000E+00 0.  1.
          3   -1    0    0  501    0  0.00000000000E+00 -0.00000000000E+00 -0.43862743128E+02  0.43862743128E+02  0.00000000000E+00 0. -1.
         25    2    1    2    0    0  0.50595327479E+02 -0.43033489578E+02  0.13775056729E+03  0.19757128944E+03  0.12508967678E+03 0.  0.
         23    2    1    2    0    0 -0.50595327479E+02  0.43033489578E+02  0.21119654997E+03  0.23910131407E+03  0.90297770088E+02 0.  0.
          5    1    3    3  502    0  0.18656830504E+02  0.43465420483E+02  0.32291439209E+02  0.57424119919E+02  0.41800000000E+01 0.  1.
         -5    1    3    3    0  502  0.31938496975E+02 -0.86498910061E+02  0.10545912808E+03  0.14014716952E+03  0.41800000000E+01 0.  1.
        -11    1    4    4    0    0 -0.90849471586E+01  0.39885759047E+02  0.18598929979E+03  0.19043484365E+03  0.00000000000E+00 0.  1.
         11    1    4    4    0    0 -0.41510380321E+02  0.31477305308E+01  0.25207250189E+02  0.48666470429E+02  0.00000000000E+00 0. -1.
</event>
<event>
 8    1  0.7048627E-009  0.8964151E+02  0.7561462E-02  0.1303722E+00
          1   -1    0    0  501    0  0.00000000000E+00  0.00000000000E+00  0.64668163057E+03  0.64668163057E+03  0.00000000000E+00 0. -1.
         -1   -1    0    0    0  501 -0.00000000000E+00 -0.00000000000E+00 -0.21923286059E+02  0.21923286059E+02  0.00000000000E+00 0.  1.
         25    2    1    2    0    0 -0.36948731587E+02  0.19911521231E+02  0.43992008742E+03  0.45928224108E+03  0.12509522860E+03 0.  0.
         23    2    1    2    0    0  0.36948731587E+02 -0.19911521231E+02  0.18483825709E+03  0.20932267555E+03  0.88820739519E+02 0.  0.
          5    1    3    3  502    0 -0.48079370949E+02 -0.97783540414E+01  0.58249248576E+02  0.76273779756E+02  0.41800000000E+01 0.  1.
         -5    1    3    3    0  502  0.11130639361E+02  0.29689875273E+02  0.38167083884E+03  0.38300846133E+03  0.41800000000E+01 0.  1.
        -11    1    4    4    0    0 -0.21619488732E+02  0.18135049042E+02  0.47614226794E+02  0.55347961932E+02  0.00000000000E+00 0.  1.
         11    1    4    4    0    0  0.58568220319E+02 -0.38046570274E+02  0.13722403030E+03  0.15397471361E+03  0.00000000000E+00 0. -1.
</event>
<event>
 8    1  0.7048627E-009  0.2197677E+03  0.7561462E-02  0.1134056E+00
         -1   -1    0    0    0  501 -0.00000000000E+00  0.00000000000E+00  0.17403417505E+04  0.17403417505E+04  0.00000000000E+00 0.  1.
          1   -1    0    0  501    0  0.00000000000E+00 -0.00000000000E+00 -0.40493825321E+02  0.40493825321E+02  0.00000000000E+00 0. -1.
         25    2    1    2    0    0  0.96516260140E+02  0.19405128113E+03  0.12380333138E+04  0.12630698249E+04  0.12509040080E+03 0.  0.
         23    2    1    2    0    0 -0.96516260140E+02 -0.19405128113E+03  0.46181461142E+03  0.51776575094E+03  0.88528805161E+02 0.  0.
          5    1    3    3  502    0  0.49961373503E+02  0.72101857551E+02  0.22300100068E+03  0.23967005531E+03  0.41800000000E+01 0. -1.
         -5    1    3    3    0  502  0.46554886637E+02  0.12194942358E+03  0.10150323131E+04  0.10233997696E+04  0.41800000000E+01 0. -1.
        -11    1    4    4    0    0 -0.84906549998E+01 -0.60954706955E+02  0.21683147728E+03  0.22539622238E+03  0.00000000000E+00 0.  1.
         11    1    4    4    0    0 -0.88025605140E+02 -0.13309657418E+03  0.24498313413E+03  0.29236952856E+03  0.00000000000E+00 0. -1.
</event>
<event>
 8    1  0.7048627E-009  0.1007470E+03  0.7561462E-02  0.1278733E+00
         -1   -1    0    0    0  501 -0.00000000000E+00  0.00000000000E+00  0.30608946476E+02  0.30608946476E+02  0.00000000000E+00 0.  1.
          1   -1    0    0  501    0  0.00000000000E+00 -0.00000000000E+00 -0.65122078118E+03  0.65122078118E+03  0.00000000000E+00 0. -1.
         25    2    1    2    0    0 -0.33222056346E+02 -0.84419469982E+02 -0.37853563951E+03  0.40886033119E+03  0.12508872090E+03 0.  0.
         23    2    1    2    0    0  0.33222056346E+02  0.84419469982E+02 -0.24207619518E+03  0.27296939646E+03  0.87641629329E+02 0.  0.
          5    1    3    3  502    0 -0.22492085695E+02 -0.87696499791E+02 -0.12166902420E+03  0.15171484385E+03  0.41800000000E+01 0.  1.
         -5    1    3    3    0  502 -0.10729970652E+02  0.32770298091E+01 -0.25686661532E+03  0.25714548734E+03  0.41800000000E+01 0.  1.
        -11    1    4    4    0    0 -0.43059888285E+00  0.52518020457E+02 -0.41035000634E+02  0.66649824945E+02  0.00000000000E+00 0.  1.
         11    1    4    4    0    0  0.33652655229E+02  0.31901449524E+02 -0.20104119455E+03  0.20631957152E+03  0.00000000000E+00 0. -1.
</event>
<event>
 8    1  0.7048627E-009  0.1235246E+03  0.7561462E-02  0.1237393E+00
         -3   -1    0    0    0  501 -0.00000000000E+00  0.00000000000E+00  0.82174079864E+02  0.82174079864E+02  0.00000000000E+00 0.  1.
          3   -1    0    0  501    0  0.00000000000E+00 -0.00000000000E+00 -0.25195151530E+03  0.25195151530E+03  0.00000000000E+00 0. -1.
         25    2    1    2    0    0  0.74651197840E+02  0.50204502659E+02 -0.12160696712E+03  0.19628857785E+03  0.12509059884E+03 0.  0.
         23    2    1    2    0    0 -0.74651197840E+02 -0.50204502659E+02 -0.48170468319E+02  0.13783701731E+03  0.92657195603E+02 0.  0.
          5    1    3    3  502    0 -0.28401015212E+02  0.41338748487E+02 -0.44930940454E+02  0.67466818523E+02  0.41800000000E+01 0. -1.
         -5    1    3    3    0  502  0.10305221305E+03  0.88657541722E+01 -0.76676026662E+02  0.12882175933E+03  0.41800000000E+01 0. -1.
        -11    1    4    4    0    0 -0.59654612980E+02 -0.26781168944E+02  0.16499512676E+02  0.67439882698E+02  0.00000000000E+00 0.  1.
         11    1    4    4    0    0 -0.14996584860E+02 -0.23423333715E+02 -0.64669980995E+02  0.70397134613E+02  0.00000000000E+00 0. -1.
</event>
<event>
 8    1  0.7048627E-009  0.1055864E+03  0.7561462E-02  0.1268968E+00
         -3   -1    0    0    0  501 -0.00000000000E+00  0.00000000000E+00  0.85820800384E+02  0.85820800384E+02  0.00000000000E+00 0.  1.
          3   -1    0    0  501    0  0.00000000000E+00 -0.00000000000E+00 -0.19905753607E+03  0.19905753607E+03  0.00000000000E+00 0. -1.
         25    2    1    2    0    0 -0.49716861787E+02 -0.55018538494E+02 -0.47559076224E+02  0.15300095171E+03  0.12509444260E+03 0.  0.
         23    2    1    2    0    0  0.49716861787E+02  0.55018538494E+02 -0.65677659460E+02  0.13187738474E+03  0.87059081833E+02 0.  0.
          5    1    3    3  502    0  0.68234572314E+01 -0.73147001881E+02  0.47820736271E+01  0.73738620010E+02  0.41800000000E+01 0. -1.
         -5    1    3    3    0  502 -0.56540319018E+02  0.18128463387E+02 -0.52341149851E+02  0.79262331704E+02  0.41800000000E+01 0. -1.
        -11    1    4    4    0    0  0.21591000271E+02  0.41676188644E+02 -0.83659517345E+02  0.95927007850E+02  0.00000000000E+00 0. -1.
         11    1    4    4    0    0  0.28125861516E+02  0.13342349849E+02  0.17981857885E+02  0.35950376890E+02  0.00000000000E+00 0.  1.
</event>
<event>
 8    1  0.7048627E-009  0.2181895E+03  0.7561462E-02  0.1135240E+00
          1   -1    0    0  501    0  0.00000000000E+00  0.00000000000E+00  0.41134834920E+03  0.41134834920E+03  0.00000000000E+00 0. -1.
         -1   -1    0    0    0  501 -0.00000000000E+00 -0.00000000000E+00 -0.12095362814E+03  0.12095362814E+03  0.00000000000E+00 0.  1.
         25    2    1    2    0    0 -0.14224688907E+03 -0.13176847951E+03  0.13439603716E+03  0.26703371678E+03  0.12509037313E+03 0.  0.
         23    2    1    2    0    0  0.14224688907E+03  0.13176847951E+03  0.15599868390E+03  0.26526826056E+03  0.91839811854E+02 0.  0.
          5    1    3    3  502    0 -0.11155834155E+02 -0.80692797422E+02  0.16030940146E+02  0.83127875189E+02  0.41800000000E+01 0.  1.
         -5    1    3    3    0  502 -0.13109105491E+03 -0.51075682083E+02  0.11836509702E+03  0.18390584159E+03  0.41800000000E+01 0.  1.
        -11    1    4    4    0    0  0.42627544080E+02  0.10127076504E+03  0.71107466451E+02  0.13087836777E+03  0.00000000000E+00 0.  1.
         11    1    4    4    0    0  0.99619344988E+02  0.30497714468E+02  0.84891217451E+02  0.13438989279E+03  0.00000000000E+00 0. -1.
</event>
<event>
 8    1  0.7048627E-009  0.1227534E+03  0.7561462E-02  0.1238623E+00
          1   -1    0    0  501    0  0.00000000000E+00  0.00000000000E+00  0.51782769813E+03  0.51782769813E+03  0.00000000000E+00 0. -1.
         -1   -1    0    0    0  501 -0.00000000000E+00 -0.00000000000E+00 -0.43404629378E+02  0.43404629378E+02  0.00000000000E+00 0.  1.
         25    2    1    2    0    0  0.81541613553E+02 -0.43294042959E+02  0.34535002721E+03  0.37873173133E+03  0.12509066364E+03 0.  0.
         23    2    1    2    0    0 -0.81541613553E+02  0.43294042959E+02  0.12907304154E+03  0.18250059618E+03  0.90128844743E+02 0.  0.
          5    1    3    3  502    0 -0.62333612655E+01 -0.25858569608E+02  0.57751917168E+01  0.27538076444E+02  0.41800000000E+01 0.  1.
         -5    1    3    3    0  502  0.87774974819E+02 -0.17435473350E+02  0.33957483549E+03  0.35119365489E+03  0.41800000000E+01 0.  1.
        -11    1    4    4    0    0  0.18067230949E+02 -0.43400341835E+01  0.19949000972E+02  0.27262123370E+02  0.00000000000E+00 0. -1.
         11    1    4    4    0    0 -0.99608844502E+02  0.47634077142E+02  0.10912404057E+03  0.15523847281E+03  0.00000000000E+00 0.  1.
</event>
<event>
 8    1  0.7048627E-009  0.7438939E+02  0.7561462E-02  0.1345772E+00
         -1   -1    0    0    0  501 -0.00000000000E+00  0.00000000000E+00  0.27036664085E+02  0.27036664085E+02  0.00000000000E+00 0.  1.
          1   -1    0    0  501    0  0.00000000000E+00 -0.00000000000E+00 -0.49399045883E+03  0.49399045883E+03  0.00000000000E+00 0. -1.
         25    2    1    2    0    0  0.23590611625E+02 -0.30991185514E+02 -0.26638822387E+03  0.29686253827E+03  0.12509080811E+03 0.  0.
         23    2    1    2    0    0 -0.23590611625E+02  0.30991185514E+02 -0.20056557088E+03  0.22416458465E+03  0.92229291725E+02 0.  0.
          5    1    3    3  502    0  0.31675291377E+02 -0.37770257803E+02 -0.27696549769E+03  0.28134902837E+03  0.41800000000E+01 0. -1.
         -5    1    3    3    0  502 -0.80846797515E+01  0.67790722891E+01  0.10577273819E+02  0.15513509894E+02  0.41800000000E+01 0. -1.
        -11    1    4    4    0    0  0.71638975173E+01  0.50848728298E+02 -0.60308843415E+02  0.79209034783E+02  0.00000000000E+00 0.  1.
         11    1    4    4    0    0 -0.30754509143E+02 -0.19857542784E+02 -0.14025672746E+03  0.14495554986E+03  0.00000000000E+00 0. -1.
</event>
<event>
 8    1  0.7048627E-009  0.1165896E+03  0.7561462E-02  0.1248832E+00
          2   -1    0    0  501    0  0.00000000000E+00  0.00000000000E+00  0.97380354314E+03  0.97380354314E+03  0.00000000000E+00 0. -1.
         -2   -1    0    0    0  501 -0.00000000000E+00 -0.00000000000E+00 -0.18543181586E+02  0.18543181586E+02  0.00000000000E+00 0.  1.
         25    2    1    2    0    0  0.61021742355E+02  0.30470028257E+02  0.37587511157E+03  0.40197202616E+03  0.12508930672E+03 0.  0.
         23    2    1    2    0    0 -0.61021742355E+02 -0.30470028257E+02  0.57938524998E+03  0.59037469856E+03  0.90570089671E+02 0.  0.
          5    1    3    3  502    0  0.53757111780E+02  0.66534660993E+02  0.33924924237E+03  0.34989171043E+03  0.41800000000E+01 0. -1.
         -5    1    3    3    0  502  0.72646305758E+01 -0.36064632736E+02  0.36625869197E+02  0.52080315727E+02  0.41800000000E+01 0. -1.
        -11    1    4    4    0    0  0.15202250415E+02 -0.30735073267E+02  0.12397762526E+03  0.12863205165E+03  0.00000000000E+00 0.  1.
         11    1    4    4    0    0 -0.76223992770E+02  0.26504500988E+00  0.45540762472E+03  0.46174264692E+03  0.00000000000E+00 0. -1.
</event>
<event>
 8    1  0.7048627E-009  0.7836969E+02  0.7561462E-02  0.1333743E+00
         -2   -1    0    0    0  501 -0.00000000000E+00  0.00000000000E+00  0.21276549294E+02  0.21276549294E+02  0.00000000000E+00 0.  1.
          2   -1    0    0  501    0  0.00000000000E+00 -0.00000000000E+00 -0.84052863033E+03  0.84052863033E+03  0.00000000000E+00 0. -1.
         25    2    1    2    0    0 -0.35293711193E+02  0.29426797495E+02 -0.63734711244E+03  0.65113043865E+03  0.12509166214E+03 0.  0.
         23    2    1    2    0    0  0.35293711193E+02 -0.29426797495E+02 -0.18190496859E+03  0.21067474097E+03  0.95827169554E+02 0.  0.
          5    1    3    3  502    0 -0.48871159030E+02  0.10596529766E+02 -0.88193027950E+02  0.10146999166E+03  0.41800000000E+01 0.  1.
         -5    1    3    3    0  502  0.13577447837E+02  0.18830267729E+02 -0.54915408449E+03  0.54966044699E+03  0.41800000000E+01 0.  1.
        -11    1    4    4    0    0  0.56281100112E+02 -0.24669220519E+02 -0.56630084861E+02  0.83564939910E+02  0.00000000000E+00 0.  1.
         11    1    4    4    0    0 -0.20987388919E+02 -0.47575769764E+01 -0.12527488373E+03  0.12710980106E+03  0.00000000000E+00 0. -1.
</event>
<event>
 8    1  0.7048627E-009  0.8980809E+02  0.7561462E-02  0.1303317E+00
          1   -1    0    0  501    0  0.00000000000E+00  0.00000000000E+00  0.10990733949E+03  0.10990733949E+03  0.00000000000E+00 0. -1.
         -1   -1    0    0    0  501 -0.00000000000E+00 -0.00000000000E+00 -0.10635715723E+03  0.10635715723E+03  0.00000000000E+00 0.  1.
         25    2    1    2    0    0 -0.30833630634E+01 -0.19359288566E+02 -0.25637964629E+01  0.12664452599E+03  0.12509186116E+03 0.  0.
         23    2    1    2    0    0  0.30833630634E+01  0.19359288566E+02  0.61139787221E+01  0.89619970735E+02  0.87235710791E+02 0.  0.
          5    1    3    3  502    0  0.45999023252E+02 -0.49946729405E+02  0.47787895778E+01  0.68197471714E+02  0.41800000000E+01 0.  1.
         -5    1    3    3    0  502 -0.49082386315E+02  0.30587440839E+02 -0.73425860407E+01  0.58447054274E+02  0.41800000000E+01 0.  1.
        -11    1    4    4    0    0  0.20239629474E+02  0.27875779541E+02 -0.31965538876E+02  0.46994652482E+02  0.00000000000E+00 0.  1.
         11    1    4    4    0    0 -0.17156266411E+02 -0.85164909753E+01  0.38079517598E+02  0.42625318253E+02  0.00000000000E+00 0. -1.
</event>
<event>
 8    1  0.7048627E-009  0.9597161E+02  0.7561462E-02  0.1289003E+00
         -1   -1    0    0    0  501 -0.00000000000E+00  0.00000000000E+00  0.45321035484E+02  0.45321035484E+02  0.00000000000E+00 0.  1.
          1   -1    0    0  501    0  0.00000000000E+00 -0.00000000000E+00 -0.29182746195E+03  0.29182746195E+03  0.00000000000E+00 0. -1.
         25    2    1    2    0    0 -0.76646899117E+01  0.14699014238E+02 -0.87040342678E+02  0.15329310659E+03  0.12509175346E+03 0.  0.
         23    2    1    2    0    0  0.76646899117E+01 -0.14699014238E+02 -0.15946608379E+03  0.18385539085E+03  0.89992023944E+02 0.  0.
          5    1    3    3  502    0  0.25855154975E+02  0.61974123945E+02 -0.38065914532E+02  0.77303087433E+02  0.41800000000E+01 0.  1.
         -5    1    3    3    0  502 -0.33519844886E+02 -0.47275109707E+02 -0.48974428145E+02  0.75990019155E+02  0.41800000000E+01 0.  1.
        -11    1    4    4    0    0  0.32723874599E+02  0.69377613848E+01 -0.14303535124E+03  0.14689484745E+03  0.00000000000E+00 0. -1.
         11    1    4    4    0    0 -0.25059184687E+02 -0.21636775622E+02 -0.16430732553E+02  0.36960543404E+02  0.00000000000E+00 0.  1.
</event>
<event>
 8    1  0.7048627E-009  0.2166274E+03  0.7561462E-02  0.1136423E+00
         -4   -1    0    0    0  501 -0.00000000000E+00  0.00000000000E+00  0.16098963643E+03  0.16098963643E+03  0.00000000000E+00 0.  1.
          4   -1    0    0  501    0  0.00000000000E+00 -0.00000000000E+00 -0.31797745595E+03  0.31797745595E+03  0.00000000000E+00 0. -1.
         25    2    1    2    0    0  0.16692694287E+03 -0.10279043401E+03 -0.49597185145E+02  0.23778136623E+03  0.12509844033E+03 0.  0.
         23    2    1    2    0    0 -0.16692694287E+03  0.10279043401E+03 -0.10739063438E+03  0.24118572615E+03  0.90594307559E+02 0.  0.
          5    1    3    3  502    0  0.16252380180E+03 -0.12237662312E+03 -0.63314314299E+02  0.21311076658E+03  0.41800000000E+01 0. -1.
         -5    1    3    3    0  502  0.44031410754E+01  0.19586189108E+02  0.13717129154E+02  0.24670599655E+02  0.41800000000E+01 0. -1.
        -11    1    4    4    0    0 -0.60024878193E+02  0.79901084035E+02 -0.81203757086E+02  0.12876808377E+03  0.00000000000E+00 0. -1.
         11    1    4    4    0    0 -0.10690206468E+03  0.22889349974E+02 -0.26186877296E+02  0.11241764238E+03  0.00000000000E+00 0.  1.
</event>
<event>
 8    1  0.7048627E-009  0.9907270E+02  0.7561462E-02  0.1282258E+00
         -4   -1    0    0    0  501 -0.00000000000E+00  0.00000000000E+00  0.43342660586E+03  0.43342660586E+03  0.00000000000E+00 0.  1.
          4   -1    0    0  501    0  0.00000000000E+00 -0.00000000000E+00 -0.34848006970E+02  0.34848006970E+02  0.00000000000E+00 0. -1.
         25    2    1    2    0    0 -0.30564174150E+02 -0.38026958119E+02  0.28567320883E+03  0.31565773512E+03  0.12510157957E+03 0.  0.
         23    2    1    2    0    0  0.30564174150E+02  0.38026958119E+02  0.11290539006E+03  0.15261687771E+03  0.90355221061E+02 0.  0.
          5    1    3    3  502    0 -0.63584690046E+02 -0.35475164734E+02  0.84010335309E+02  0.11125065824E+03  0.41800000000E+01 0.  1.
         -5    1    3    3    0  502  0.33020515896E+02 -0.25517933844E+01  0.20166287352E+03  0.20440707687E+03  0.41800000000E+01 0.  1.
        -11    1    4    4    0    0 -0.25703744906E+02  0.20562279916E+02  0.10638099256E+02  0.34592759551E+02  0.00000000000E+00 0. -1.
         11    1    4    4    0    0  0.56267919055E+02  0.17464678203E+02  0.10226729081E+03  0.11802411816E+03  0.00000000000E+00 0.  1.
</event>
<event>
 8    1  0.7048627E-009  0.8557666E+02  0.7561462E-02  0.1313931E+00
          2   -1    0    0  501    0  0.00000000000E+00  0.00000000000E+00  0.16156715860E+03  0.16156715860E+03  0.00000000000E+00 0.  1.
         -2   -1    0    0    0  501 -0.00000000000E+00 -0.00000000000E+00 -0.86489847146E+02  0.86489847146E+02  0.00000000000E+00 0. -1.
         25    2    1    2    0    0  0.41463217658E+02 -0.68158516982E+00  0.18553983755E+02  0.13308078646E+03  0.12508629995E+03 0.  0.
         23    2    1    2    0    0 -0.41463217658E+02  0.68158516982E+00  0.56523327698E+02  0.11497621929E+03  0.91131670951E+02 0.  0.
          5    1    3    3  502    0 -0.17129812809E+02  0.12697526343E+02 -0.42234047750E+02  0.47495735087E+02  0.41800000000E+01 0. -1.
         -5    1    3    3    0  502  0.58593030467E+02 -0.13379111513E+02  0.60788031505E+02  0.85585051372E+02  0.41800000000E+01 0. -1.
        -11    1    4    4    0    0  0.20180239764E+02 -0.15500773532E+02 -0.55126867712E+01  0.26036623676E+02  0.00000000000E+00 0. -1.
         11    1    4    4    0    0 -0.61643457422E+02  0.16182358702E+02  0.62036014469E+02  0.88939595610E+02  0.00000000000E+00 0.  1.
</event>
<event>
 8    1  0.7048627E-009  0.2489129E+03  0.7561462E-02  0.1113994E+00
         -2   -1    0    0    0  501 -0.00000000000E+00  0.00000000000E+00  0.40098934103E+02  0.40098934103E+02  0.00000000000E+00 0.  1.
          2   -1    0    0  501    0  0.00000000000E+00 -0.00000000000E+00 -0.16963345231E+04  0.16963345231E+04  0.00000000000E+00 0. -1.
         25    2    1    2    0    0  0.55969802297E+02  0.22509603348E+03 -0.10365306487E+04  0.10695075610E+04  0.12509913779E+03 0.  0.
         23    2    1    2    0    0 -0.55969802297E+02 -0.22509603348E+03 -0.61970494033E+03  0.66692589624E+03  0.83397211880E+02 0.  0.
          5    1    3    3  502    0 -0.79488171391E+01  0.19046211816E+03 -0.74142115228E+03  0.76554673247E+03  0.41800000000E+01 0. -1.
         -5    1    3    3    0  502  0.63918619436E+02  0.34633915318E+02 -0.29510949639E+03  0.30396082850E+03  0.41800000000E+01 0. -1.
        -11    1    4    4    0    0 -0.30725721114E+02 -0.18042805315E+03 -0.55468147007E+03  0.58409749660E+03  0.00000000000E+00 0. -1.
         11    1    4    4    0    0 -0.25244081183E+02 -0.44667980329E+02 -0.65023470260E+02  0.82828399635E+02  0.00000000000E+00 0.  1.
</event>
<event>
 8    1  0.7048627E-009  0.7970807E+02  0.7561462E-02  0.1329882E+00
          2   -1    0    0  501    0  0.00000000000E+00  0.00000000000E+00  0.25618759870E+03  0.25618759870E+03  0.00000000000E+00 0. -1.
         -2   -1    0    0    0  501 -0.00000000000E+00 -0.00000000000E+00 -0.53748746728E+02  0.53748746728E+02  0.00000000000E+00 0.  1.
         25    2    1    2    0    0 -0.11567138656E+02 -0.29381276346E+02  0.78574519360E+02  0.15106139043E+03  0.12509408655E+03 0.  0.
         23    2    1    2    0    0  0.11567138656E+02  0.29381276346E+02  0.12386433261E+03  0.15887495499E+03  0.94349458578E+02 0.  0.
          5    1    3    3  502    0 -0.17824819779E+02  0.36696409471E+02  0.73745586383E+02  0.84381482443E+02  0.41800000000E+01 0. -1.
         -5    1    3    3    0  502  0.62576811235E+01 -0.66077685817E+02  0.48289329768E+01  0.66679907991E+02  0.41800000000E+01 0. -1.
        -11    1    4    4    0    0 -0.15599872893E+02  0.11430171712E+02 -0.95328597500E+01  0.21561082409E+02  0.00000000000E+00 0.  1.
         11    1    4    4    0    0  0.27167011548E+02  0.17951104634E+02  0.13339719236E+03  0.13731387258E+03  0.00000000000E+00 0. -1.
</event>
<event>
 8    1  0.7048627E-009  0.1155877E+03  0.7561462E-02  0.1250559E+00
         -1   -1    0    0    0  501 -0.00000000000E+00  0.00000000000E+00  0.11599812673E+02  0.11599812673E+02  0.00000000000E+00 0.  1.
          1   -1    0    0  501    0  0.00000000000E+00 -0.00000000000E+00 -0.13852490372E+04  0.13852490372E+04  0.00000000000E+00 0. -1.
         25    2    1    2    0    0 -0.97466611415E+01 -0.45999604121E+02 -0.10120939098E+04  0.10208776958E+04  0.12508487787E+03 0.  0.
         23    2    1    2    0    0  0.97466611415E+01  0.45999604121E+02 -0.36155531473E+03  0.37597115401E+03  0.91766562849E+02 0.  0.
          5    1    3    3  502    0 -0.44642556143E+02  0.27156786995E+02 -0.41081918955E+03  0.41415012713E+03  0.41800000000E+01 0.  1.
         -5    1    3    3    0  502  0.34895895002E+02 -0.73156391116E+02 -0.60127472022E+03  0.60672756870E+03  0.41800000000E+01 0.  1.
        -11    1    4    4    0    0  0.45993973529E+02  0.11182466474E+02 -0.11527564495E+03  0.12461527786E+03  0.00000000000E+00 0.  1.
         11    1    4    4    0    0 -0.36247312388E+02  0.34817137647E+02 -0.24627966978E+03  0.25135587616E+03  0.00000000000E+00 0. -1.
</event>
<event>
 8    1  0.7048627E-009  0.6506568E+02  0.7561462E-02  0.1377725E+00
         -2   -1    0    0    0  501 -0.00000000000E+00  0.00000000000E+00  0.16401928380E+02  0.16401928380E+02  0.00000000000E+00 0.  1.
          2   -1    0    0  501    0  0.00000000000E+00 -0.00000000000E+00 -0.80119411001E+03  0.80119411001E+03  0.00000000000E+00 0. -1.
         25    2    1    2    0    0  0.31388057753E+02  0.20750835265E+02 -0.47609391280E+03  0.49368920802E+03  0.12509121860E+03 0.  0.
         23    2    1    2    0    0 -0.31388057753E+02 -0.20750835265E+02 -0.30869826883E+03  0.32390683038E+03  0.90582593539E+02 0.  0.
          5    1    3    3  502    0  0.99128847729E+01  0.69764268139E+01 -0.46561740748E+03  0.46579392263E+03  0.41800000000E+01 0. -1.
         -5    1    3    3    0  502  0.21475172980E+02  0.13774408452E+02 -0.10476505323E+02  0.27895285381E+02  0.41800000000E+01 0. -1.
        -11    1    4    4    0    0 -0.34951568489E+02  0.26630489514E+02 -0.20760106363E+03  0.21220036930E+03  0.00000000000E+00 0. -1.
         11    1    4    4    0    0  0.35635107358E+01 -0.47381324779E+02 -0.10109720520E+03  0.11170646108E+03  0.00000000000E+00 0.  1.
</event>
<event>
 8    1  0.7048627E-009  0.1480341E+03  0.7561462E-02  0.1202910E+00
         -2   -1    0    0    0  501 -0.00000000000E+00  0.00000000000E+00  0.87781749079E+02  0.87781749079E+02  0.00000000000E+00 0. -1.
          2   -1    0    0  501    0  0.00000000000E+00 -0.00000000000E+00 -0.27614147920E+03  0.27614147920E+03  0.00000000000E+00 0.  1.
         25    2    1    2    0    0 -0.10850260711E+03 -0.14271989265E+02 -0.79378456702E+02  0.18418740238E+03  0.12509018498E+03 0.  0.
         23    2    1    2    0    0  0.10850260711E+03  0.14271989265E+02 -0.10898127342E+03  0.17973582590E+03  0.91932277941E+02 0.  0.
          5    1    3    3  502    0  0.18002812677E+02  0.14325292559E+02  0.11209083574E+02  0.25931278906E+02  0.41800000000E+01 0.  1.
         -5    1    3    3    0  502 -0.12650541979E+03 -0.28597281824E+02 -0.90587540275E+02  0.15825612347E+03  0.41800000000E+01 0.  1.
        -11    1    4    4    0    0  0.65034433849E+02  0.53619141076E+02 -0.65137481961E+02  0.10652408851E+03  0.00000000000E+00 0. -1.
         11    1    4    4    0    0  0.43468173265E+02 -0.39347151811E+02 -0.43843791456E+02  0.73211737392E+02  0.00000000000E+00 0.  1.
</event>
<event>
 8    1  0.7048627E-009  0.1060405E+03  0.7561462E-02  0.1268083E+00
          1   -1    0    0  501    0  0.00000000000E+00  0.00000000000E+00  0.78903937203E+02  0.78903937203E+02  0.00000000000E+00 0. -1.
         -1   -1    0    0    0  501 -0.00000000000E+00 -0.00000000000E+00 -0.15681215344E+03  0.15681215344E+03  0.00000000000E+00 0.  1.
         25    2    1    2    0    0  0.89406902647E+01 -0.68719980139E+01 -0.18012695858E+02  0.12688352412E+03  0.12509121145E+03 0.  0.
         23    2    1    2    0    0 -0.89406902647E+01  0.68719980139E+01 -0.59895520379E+02  0.10883256652E+03  0.90165924139E+02 0.  0.
          5    1    3    3  502    0  0.57028349408E+02  0.26001669163E+02 -0.25914792113E+02  0.67951219898E+02  0.41800000000E+01 0.  1.
         -5    1    3    3    0  502 -0.48087659143E+02 -0.32873667176E+02  0.79020962548E+01  0.58932304220E+02  0.41800000000E+01 0.  1.
        -11    1    4    4    0    0  0.35078488264E+02  0.25190826988E+02 -0.28026504712E+02  0.51483619430E+02  0.00000000000E+00 0. -1.
         11    1    4    4    0    0 -0.44019178529E+02 -0.18318828974E+02 -0.31869015667E+02  0.57348947095E+02  0.00000000000E+00 0.  1.
</event>
<event>
 8    1  0.7048627E-009  0.9924797E+02  0.7561462E-02  0.1281885E+00
          3   -1    0    0  501    0  0.00000000000E+00  0.00000000000E+00  0.38091688341E+02  0.38091688341E+02  0.00000000000E+00 0. -1.
         -3   -1    0    0    0  501 -0.00000000000E+00 -0.00000000000E+00 -0.34163462568E+03  0.34163462568E+03  0.00000000000E+00 0.  1.
         25    2    1    2    0    0 -0.36442137000E+02  0.35692840795E+01 -0.16073976377E+03  0.20694135069E+03  0.12508669727E+03 0.  0.
         23    2    1    2    0    0  0.36442137000E+02 -0.35692840795E+01 -0.14280317357E+03  0.17278496332E+03  0.90117301510E+02 0.  0.
          5    1    3    3  502    0 -0.67078496373E+02 -0.18413221966E+02 -0.39929794225E+02  0.80314583269E+02  0.41800000000E+01 0.  1.
         -5    1    3    3    0  502  0.30636359373E+02  0.21982506045E+02 -0.12080996954E+03  0.12662676742E+03  0.41800000000E+01 0.  1.
        -11    1    4    4    0    0 -0.21650982063E+02 -0.21059462782E+02 -0.79778163893E+02  0.85304287296E+02  0.00000000000E+00 0.  1.
         11    1    4    4    0    0  0.58093119064E+02  0.17490178702E+02 -0.63025009677E+02  0.87480676028E+02  0.00000000000E+00 0. -1.
</event>
<event>
 8    1  0.7048627E-009  0.1166944E+03  0.7561462E-02  0.1248652E+00
          2   -1    0    0  501    0  0.00000000000E+00  0.00000000000E+00  0.65686070914E+03  0.65686070914E+03  0.00000000000E+00 0. -1.
         -2   -1    0    0    0  501 -0.00000000000E+00 -0.00000000000E+00 -0.35768181051E+02  0.35768181051E+02  0.00000000000E+00 0.  1.
         25    2    1    2    0    0 -0.68993024374E+02  0.68023561210E+02  0.44155871257E+03  0.46904981890E+03  0.12508554541E+03 0.  0.
         23    2    1    2    0    0  0.68993024374E+02 -0.68023561210E+02  0.17953381552E+03  0.22357907130E+03  0.91476597629E+02 0.  0.
          5    1    3    3  502    0 -0.81608250027E+02  0.17999250504E+02  0.37765764479E+03  0.38681603969E+03  0.41800000000E+01 0. -1.
         -5    1    3    3    0  502  0.12615225653E+02  0.50024310707E+02  0.63901067778E+02  0.82233779210E+02  0.41800000000E+01 0. -1.
        -11    1    4    4    0    0  0.35180322767E+02 -0.44677288375E+02  0.22328136593E+02  0.61092232651E+02  0.00000000000E+00 0.  1.
         11    1    4    4    0    0  0.33812701607E+02 -0.23346272835E+02  0.15720567893E+03  0.16248683865E+03  0.00000000000E+00 0. -1.
</event>
<event>
 8    1  0.7048627E-009  0.1533248E+03  0.7561462E-02  0.1196446E+00
          1   -1    0    0  501    0  0.00000000000E+00  0.00000000000E+00  0.34350166567E+02  0.34350166567E+02  0.00000000000E+00 0. -1.
         -1   -1    0    0    0  501 -0.00000000000E+00 -0.00000000000E+00 -0.82912105033E+03  0.82912105033E+03  0.00000000000E+00 0.  1.
         25    2    1    2    0    0 -0.13865442187E+02  0.10927365016E+03 -0.60168541816E+03  0.62434391001E+03  0.12508794678E+03 0.  0.
         23    2    1    2    0    0  0.13865442187E+02 -0.10927365016E+03 -0.19308546561E+03  0.23912730689E+03  0.88129965204E+02 0.  0.
          5    1    3    3  502    0 -0.67860563775E+02  0.44811675806E+02 -0.26086135733E+03  0.27327506757E+03  0.41800000000E+01 0. -1.
         -5    1    3    3    0  502  0.53995121588E+02  0.64461974357E+02 -0.34082406083E+03  0.35106884244E+03  0.41800000000E+01 0. -1.
        -11    1    4    4    0    0 -0.30815364322E+02 -0.10390660280E+02 -0.46883285369E+02  0.57057821080E+02  0.00000000000E+00 0.  1.
         11    1    4    4    0    0  0.44680806509E+02 -0.98882989883E+02 -0.14620218024E+03  0.18206948581E+03  0.00000000000E+00 0. -1.
</event>
<event>
 8    1  0.7048627E-009  0.1017008E+03  0.7561462E-02  0.1276760E+00
          2   -1    0    0  501    0  0.00000000000E+00  0.00000000000E+00  0.27372381488E+03  0.27372381488E+03  0.00000000000E+00 0. -1.
         -2   -1    0    0    0  501 -0.00000000000E+00 -0.00000000000E+00 -0.54920636258E+02  0.54920636258E+02  0.00000000000E+00 0.  1.
         25    2    1    2    0    0  0.33053625156E+02 -0.46793862544E+02  0.11835188635E+03  0.18148739734E+03  0.12509316001E+03 0.  0.
         23    2    1    2    0    0 -0.33053625156E+02  0.46793862544E+02  0.10045129227E+03  0.14715705380E+03  0.91008398824E+02 0.  0.
          5    1    3    3  502    0 -0.17158271659E+02  0.22008126073E+02  0.85608197405E+02  0.90138780570E+02  0.41800000000E+01 0. -1.
         -5    1    3    3    0  502  0.50211896815E+02 -0.68801988617E+02  0.32743688943E+02  0.91348616766E+02  0.41800000000E+01 0. -1.
        -11    1    4    4    0    0  0.20478748547E+02  0.29095152959E+01  0.67300296562E+02  0.70407203741E+02  0.00000000000E+00 0. -1.
         11    1    4    4    0    0 -0.53532373702E+02  0.43884347248E+02  0.33150995709E+02  0.76749850059E+02  0.00000000000E+00 0.  1.
</event>
<event>
 8    1  0.7048627E-009  0.1040818E+03  0.7561462E-02  0.1271939E+00
         -1   -1    0    0    0  501 -0.00000000000E+00  0.00000000000E+00  0.17107923209E+03  0.17107923209E+03  0.00000000000E+00 0.  1.
          1   -1    0    0  501    0  0.00000000000E+00 -0.00000000000E+00 -0.12575117536E+03  0.12575117536E+03  0.00000000000E+00 0. -1.
         25    2    1    2    0    0 -0.86595802807E+02 -0.90690747245E+01  0.69854511566E+02  0.16765439498E+03  0.12508901706E+03 0.  0.
         23    2    1    2    0    0  0.86595802807E+02  0.90690747245E+01 -0.24526454830E+02  0.12917601247E+03  0.92216126737E+02 0.  0.
          5    1    3    3  502    0 -0.42122947697E+02  0.28382356200E+02 -0.24654348308E+02  0.56614575479E+02  0.41800000000E+01 0. -1.
         -5    1    3    3    0  502 -0.44472855110E+02 -0.37451430925E+02  0.94508859874E+02  0.11103981950E+03  0.41800000000E+01 0. -1.
        -11    1    4    4    0    0  0.56014920553E+02 -0.17196723501E+02 -0.53648220315E+02  0.79445139352E+02  0.00000000000E+00 0. -1.
         11    1    4    4    0    0  0.30580882254E+02  0.26265798225E+02  0.29121765485E+02  0.49730873115E+02  0.00000000000E+00 0.  1.
</event>
<event>
 8    1  0.7048627E-009  0.1376743E+03  0.7561462E-02  0.1216493E+00
         -2   -1    0    0    0  501 -0.00000000000E+00  0.00000000000E+00  0.27927744286E+03  0.27927744286E+03  0.00000000000E+00 0.  1.
          2   -1    0    0  501    0  0.00000000000E+00 -0.00000000000E+00 -0.87335455240E+02  0.87335455240E+02  0.00000000000E+00 0. -1.
         25    2    1    2    0    0  0.95057937814E+02 -0.19125027396E+01  0.17274156400E+03  0.23350906037E+03  0.12508862512E+03 0.  0.
         23    2    1    2    0    0 -0.95057937814E+02  0.19125027396E+01  0.19200423622E+02  0.13310383773E+03  0.91149910274E+02 0.  0.
          5    1    3    3  502    0  0.10795400138E+03 -0.31620064201E+02  0.88598353369E+02  0.14325165093E+03  0.41800000000E+01 0. -1.
         -5    1    3    3    0  502 -0.12896063570E+02  0.29707561461E+02  0.84143210628E+02  0.90257409438E+02  0.41800000000E+01 0. -1.
        -11    1    4    4    0    0 -0.11186036856E+03 -0.49671555970E+01  0.23580589664E+02  0.11442665292E+03  0.00000000000E+00 0. -1.
         11    1    4    4    0    0  0.16802430748E+02  0.68796583366E+01 -0.43801660419E+01  0.18677184810E+02  0.00000000000E+00 0.  1.
</event>
<event>
 8    1  0.7048627E-009  0.9131666E+02  0.7561462E-02  0.1299694E+00
          1   -1    0    0  501    0  0.00000000000E+00  0.00000000000E+00  0.24545294083E+03  0.24545294083E+03  0.00000000000E+00 0. -1.
         -1   -1    0    0    0  501 -0.00000000000E+00 -0.00000000000E+00 -0.57326682761E+02  0.57326682761E+02  0.00000000000E+00 0.  1.
         25    2    1    2    0    0 -0.12135041366E+02 -0.29335937453E+02  0.57311110019E+02  0.14120350021E+03  0.12508400651E+03 0.  0.
         23    2    1    2    0    0  0.12135041366E+02  0.29335937453E+02  0.13081514805E+03  0.16157612337E+03  0.89366572226E+02 0.  0.
          5    1    3    3  502    0 -0.98004293675E+01  0.29158817892E+02 -0.25174531816E+02  0.39968919535E+02  0.41800000000E+01 0.  1.
         -5    1    3    3    0  502 -0.23346119988E+01 -0.58494755345E+02  0.82485641835E+02  0.10123458068E+03  0.41800000000E+01 0.  1.
        -11    1    4    4    0    0 -0.37466682017E+02  0.55047763890E+01  0.69800737289E+02  0.79411571893E+02  0.00000000000E+00 0.  1.
         11    1    4    4    0    0  0.49601723383E+02  0.23831161064E+02  0.61014410757E+02  0.82164551482E+02  0.00000000000E+00 0. -1.
</event>
<event>
 8    1  0.7048627E-009  0.1155767E+03  0.7561462E-02  0.1250578E+00
          4   -1    0    0  501    0  0.00000000000E+00  0.00000000000E+00  0.11319925033E+03  0.11319925033E+03  0.00000000000E+00 0.  1.
         -4   -1    0    0    0  501 -0.00000000000E+00 -0.00000000000E+00 -0.20822300664E+03  0.20822300664E+03  0.00000000000E+00 0. -1.
         25    2    1    2    0    0 -0.53970666855E+02  0.85942336620E+02 -0.89988045849E+02  0.18451243500E+03  0.12509225463E+03 0.  0.
         23    2    1    2    0    0  0.53970666855E+02 -0.85942336620E+02 -0.50357104570E+01  0.13690982198E+03  0.91760682589E+02 0.  0.
          5    1    3    3  502    0 -0.38447334351E+02  0.14500731132E+02 -0.10223892542E+03  0.11026667218E+03  0.41800000000E+01 0. -1.
         -5    1    3    3    0  502 -0.15523332504E+02  0.71441605488E+02  0.12250879570E+02  0.74245762822E+02  0.41800000000E+01 0. -1.
        -11    1    4    4    0    0  0.61792178647E+02 -0.49003478730E+02  0.30978392685E+02  0.84730602990E+02  0.00000000000E+00 0.  1.
         11    1    4    4    0    0 -0.78215117917E+01 -0.36938857889E+02 -0.36014103142E+02  0.52179218986E+02  0.00000000000E+00 0. -1.
</event>
<event>
 8    1  0.7048627E-009  0.1013836E+03  0.7561462E-02  0.1277413E+00
          2   -1    0    0  501    0  0.00000000000E+00  0.00000000000E+00  0.14638154544E+04  0.14638154544E+04  0.00000000000E+00 0. -1.
         -2   -1    0    0    0  501 -0.00000000000E+00 -0.00000000000E+00 -0.11002046587E+02  0.11002046587E+02  0.00000000000E+00 0.  1.
         25    2    1    2    0    0 -0.22982756896E+01  0.24469430508E+02  0.11209145572E+04  0.11281403407E+04  0.12508856394E+03 0.  0.
         23    2    1    2    0    0  0.22982756896E+01 -0.24469430508E+02  0.33189885068E+03  0.34667716028E+03  0.97078170970E+02 0.  0.
          5    1    3    3  502    0 -0.53745411365E+02  0.31818169383E+02  0.84686803009E+03  0.84917836638E+03  0.41800000000E+01 0.  1.
         -5    1    3    3    0  502  0.51447135676E+02 -0.73487388749E+01  0.27404652708E+03  0.27896197436E+03  0.41800000000E+01 0.  1.
        -11    1    4    4    0    0  0.18350954912E+02  0.27824077774E+02  0.54095914277E+02  0.63539789043E+02  0.00000000000E+00 0.  1.
         11    1    4    4    0    0 -0.16052679222E+02 -0.52293508283E+02  0.27780293640E+03  0.28313737124E+03  0.00000000000E+00 0. -1.
</event>
<event>
 8    1  0.7048627E-009  0.9716796E+02  0.7561462E-02  0.1286367E+00
          2   -1    0    0  501    0  0.00000000000E+00  0.00000000000E+00  0.64865664586E+03  0.64865664586E+03  0.00000000000E+00 0. -1.
         -2   -1    0    0    0  501 -0.00000000000E+00 -0.00000000000E+00 -0.26009673389E+02  0.26009673389E+02  0.00000000000E+00 0.  1.
         25    2    1    2    0    0  0.58445808905E+02  0.42425206082E+02  0.36326208082E+03  0.39092464339E+03  0.12508767629E+03 0.  0.
         23    2    1    2    0    0 -0.58445808905E+02 -0.42425206082E+02  0.25938489165E+03  0.28374167585E+03  0.89515394828E+02 0.  0.
          5    1    3    3  502    0 -0.14058967709E+02 -0.75970224806E+00 -0.30446685198E+01  0.14999137540E+02  0.41800000000E+01 0. -1.
         -5    1    3    3    0  502  0.72504776613E+02  0.43184908330E+02  0.36630674934E+03  0.37592550585E+03  0.41800000000E+01 0. -1.
        -11    1    4    4    0    0  0.72339175800E+01 -0.26639574999E+02  0.17693598419E+02  0.32788106756E+02  0.00000000000E+00 0. -1.
         11    1    4    4    0    0 -0.65679726485E+02 -0.15785631083E+02  0.24169129323E+03  0.25095356910E+03  0.00000000000E+00 0.  1.
</event>
<event>
 8    1  0.7048627E-009  0.8500846E+02  0.7561462E-02  0.1315410E+00
         -2   -1    0    0    0  501 -0.00000000000E+00  0.00000000000E+00  0.73682696677E+02  0.73682696677E+02  0.00000000000E+00 0.  1.
          2   -1    0    0  501    0  0.00000000000E+00 -0.00000000000E+00 -0.19420642383E+03  0.19420642383E+03  0.00000000000E+00 0. -1.
         25    2    1    2    0    0 -0.43072678386E+02 -0.30300983132E+01 -0.96201487765E+02  0.16361252915E+03  0.12509954568E+03 0.  0.
         23    2    1    2    0    0  0.43072678386E+02  0.30300983132E+01 -0.24322239389E+02  0.10427659136E+03  0.91747474389E+02 0.  0.
          5    1    3    3  502    0 -0.64478463905E+02  0.19007437701E+01  0.20988001116E+00  0.64642103803E+02  0.41800000000E+01 0.  1.
         -5    1    3    3    0  502  0.21405785520E+02 -0.49308420833E+01 -0.96411367777E+02  0.98970425350E+02  0.41800000000E+01 0.  1.
        -11    1    4    4    0    0  0.24184074302E+02 -0.33836667603E+02 -0.42117762277E+02  0.59192021620E+02  0.00000000000E+00 0. -1.
         11    1    4    4    0    0  0.18888604084E+02  0.36866765916E+02  0.17795522889E+02  0.45084569735E+02  0.00000000000E+00 0.  1.
</event>
<event>
 8    1  0.7048627E-009  0.1103930E+03  0.7561462E-02  0.1259844E+00
          3   -1    0    0  501    0  0.00000000000E+00  0.00000000000E+00  0.34626464780E+02  0.34626464780E+02  0.00000000000E+00 0. -1.
         -3   -1    0    0    0  501 -0.00000000000E+00 -0.00000000000E+00 -0.49723345000E+03  0.49723345000E+03  0.00000000000E+00 0.  1.
         25    2    1    2    0    0 -0.65990934939E+02 -0.22237885975E+02 -0.21988505930E+03  0.26238373903E+03  0.12508581110E+03 0.  0.
         23    2    1    2    0    0  0.65990934939E+02  0.22237885975E+02 -0.24272192593E+03  0.26947617575E+03  0.94096487211E+02 0.  0.
          5    1    3    3  502    0 -0.29030080883E+01 -0.61372106612E+02 -0.59645750098E+02  0.85732437448E+02  0.41800000000E+01 0.  1.
         -5    1    3    3    0  502 -0.63087926851E+02  0.39134220637E+02 -0.16023930920E+03  0.17665130158E+03  0.41800000000E+01 0.  1.
        -11    1    4    4    0    0  0.58068599352E+02  0.36459917465E+02 -0.24370501828E+03  0.25316679037E+03  0.00000000000E+00 0.  1.
         11    1    4    4    0    0  0.79223355873E+01 -0.14222031491E+02  0.98309235386E+00  0.16309385379E+02  0.00000000000E+00 0. -1.
</event>
<event>
 8    1  0.7048627E-009  0.1035061E+03  0.7561462E-02  0.1273091E+00
          2   -1    0    0  501    0  0.00000000000E+00  0.00000000000E+00  0.89164892688E+03  0.89164892688E+03  0.00000000000E+00 0. -1.
         -2   -1    0    0    0  501 -0.00000000000E+00 -0.00000000000E+00 -0.22490178841E+02  0.22490178841E+02  0.00000000000E+00 0.  1.
         25    2    1    2    0    0 -0.63942947500E+02 -0.51792268073E+02  0.35525446396E+03  0.38551832486E+03  0.12508998787E+03 0.  0.
         23    2    1    2    0    0  0.63942947500E+02  0.51792268073E+02  0.51390428408E+03  0.52862078087E+03  0.92580652433E+02 0.  0.
          5    1    3    3  502    0 -0.48591609610E+01 -0.21720709735E+02  0.29489557302E+03  0.29576387890E+03  0.41800000000E+01 0.  1.
         -5    1    3    3    0  502 -0.59083786539E+02 -0.30071558338E+02  0.60358890948E+02  0.89754445957E+02  0.41800000000E+01 0.  1.
        -11    1    4    4    0    0  0.71716210731E+01  0.60131003736E+02  0.18247466712E+03  0.19226069255E+03  0.00000000000E+00 0.  1.
         11    1    4    4    0    0  0.56771326426E+02 -0.83387356632E+01  0.33142961696E+03  0.33636008832E+03  0.00000000000E+00 0. -1.
</event>
<event>
 8    1  0.7048627E-009  0.1026832E+03  0.7561462E-02  0.1274753E+00
         -2   -1    0    0    0  501 -0.00000000000E+00  0.00000000000E+00  0.52033031710E+02  0.52033031710E+02  0.00000000000E+00 0.  1.
          2   -1    0    0  501    0  0.00000000000E+00 -0.00000000000E+00 -0.42013712598E+03  0.42013712598E+03  0.00000000000E+00 0. -1.
         25    2    1    2    0    0  0.15945817962E+02  0.66096186992E+02 -0.82428518377E+02  0.16451429990E+03  0.12509004430E+03 0.  0.
         23    2    1    2    0    0 -0.15945817962E+02 -0.66096186992E+02 -0.28567557589E+03  0.30765585779E+03  0.91753022446E+02 0.  0.
          5    1    3    3  502    0  0.58742808839E+02  0.59964470764E+02 -0.86844413983E+02  0.12085478883E+03  0.41800000000E+01 0.  1.
         -5    1    3    3    0  502 -0.42796990877E+02  0.61317162283E+01  0.44158956058E+01  0.43659511060E+02  0.41800000000E+01 0.  1.
        -11    1    4    4    0    0 -0.16477712681E+02 -0.56268282152E+01 -0.19076681454E+01  0.17516147085E+02  0.00000000000E+00 0.  1.
         11    1    4    4    0    0  0.53189471924E+00 -0.60469358777E+02 -0.28376790774E+03  0.29013971071E+03  0.00000000000E+00 0. -1.
</event>
<event>
 8    1  0.7048627E-009  0.1293053E+03  0.7561462E-02  0.1228490E+00
         -1   -1    0    0    0  501 -0.00000000000E+00  0.00000000000E+00  0.35736096658E+02  0.35736096658E+02  0.00000000000E+00 0.  1.
          1   -1    0    0  501    0  0.00000000000E+00 -0.00000000000E+00 -0.48934270830E+03  0.48934270830E+03  0.00000000000E+00 0. -1.
         25    2    1    2    0    0  0.72987520604E+00 -0.69699857659E+02 -0.28854287936E+03  0.32212348671E+03  0.12509174467E+03 0.  0.
         23    2    1    2    0    0 -0.72987520604E+00  0.69699857659E+02 -0.16506373228E+03  0.20295531825E+03  0.95321679671E+02 0.  0.
          5    1    3    3  502    0 -0.26077287739E+02  0.28444555364E+02 -0.10915481758E+03  0.11585061185E+03  0.41800000000E+01 0.  1.
         -5    1    3    3    0  502  0.26807162945E+02 -0.98144413024E+02 -0.17938806179E+03  0.20627287486E+03  0.41800000000E+01 0.  1.
        -11    1    4    4    0    0  0.43863598315E+02  0.56373366015E+02 -0.95474540966E+02  0.11923657000E+03  0.00000000000E+00 0.  1.
         11    1    4    4    0    0 -0.44593473521E+02  0.13326491644E+02 -0.69589191315E+02  0.83718748247E+02  0.00000000000E+00 0. -1.
</event>
<event>
 8    1  0.7048627E-009  0.9774007E+02  0.7561462E-02  0.1285121E+00
         -2   -1    0    0    0  501 -0.00000000000E+00  0.00000000000E+00  0.55359078638E+02  0.55359078638E+02  0.00000000000E+00 0. -1.
          2   -1    0    0  501    0  0.00000000000E+00 -0.00000000000E+00 -0.27288133271E+03  0.27288133271E+03  0.00000000000E+00 0.  1.
         25    2    1    2    0    0  0.38835384127E+02 -0.23483845852E+02 -0.16393072093E+03  0.21113905549E+03  0.12508693542E+03 0.  0.
         23    2    1    2    0    0 -0.38835384127E+02  0.23483845852E+02 -0.53591533150E+02  0.11710135586E+03  0.93706974360E+02 0.  0.
          5    1    3    3  502    0 -0.41346981816E+02  0.14479938316E+02 -0.48407665409E+02  0.65421831137E+02  0.41800000000E+01 0.  1.
         -5    1    3    3    0  502  0.80182365943E+02 -0.37963784168E+02 -0.11552305552E+03  0.14571722435E+03  0.41800000000E+01 0.  1.
        -11    1    4    4    0    0 -0.89047841087E+01 -0.12818518821E+02  0.22652280789E+02  0.27508824579E+02  0.00000000000E+00 0. -1.
         11    1    4    4    0    0 -0.29930600018E+02  0.36302364673E+02 -0.76243813939E+02  0.89592531286E+02  0.00000000000E+00 0.  1.
</event>
<event>
 8    1  0.7048627E-009  0.7977444E+02  0.7561462E-02  0.1329693E+00
          2   -1    0    0  501    0  0.00000000000E+00  0.00000000000E+00  0.26591281604E+03  0.26591281604E+03  0.00000000000E+00 0. -1.
         -2   -1    0    0    0  501 -0.00000000000E+00 -0.00000000000E+00 -0.51193658583E+02  0.51193658583E+02  0.00000000000E+00 0.  1.
         25    2    1    2    0    0 -0.31546987075E+02  0.12872274307E+02  0.89647695404E+02  0.15762157888E+03  0.12508774919E+03 0.  0.
         23    2    1    2    0    0  0.31546987075E+02 -0.12872274307E+02  0.12507146205E+03  0.15948489575E+03  0.92906692501E+02 0.  0.
          5    1    3    3  502    0  0.28811560904E+01  0.23955230191E+02 -0.26393075935E+02  0.36003068914E+02  0.41800000000E+01 0.  1.
         -5    1    3    3    0  502 -0.34428143165E+02 -0.11082955884E+02  0.11604077134E+03  0.12161850996E+03  0.41800000000E+01 0.  1.
        -11    1    4    4    0    0 -0.11579444251E+02 -0.43979342717E+02  0.51454331061E+02  0.68671786782E+02  0.00000000000E+00 0. -1.
         11    1    4    4    0    0  0.43126431326E+02  0.31107068410E+02  0.73617130992E+02  0.90813108963E+02  0.00000000000E+00 0.  1.
</event>
<event>
 8    1  0.7048627E-009  0.9295310E+02  0.7561462E-02  0.1295854E+00
         -2   -1    0    0    0  501 -0.00000000000E+00  0.00000000000E+00  0.54023894679E+02  0.54023894679E+02  0.00000000000E+00 0.  1.
          2   -1    0    0  501    0  0.00000000000E+00 -0.00000000000E+00 -0.22695623733E+03  0.22695623733E+03  0.00000000000E+00 0. -1.
         25    2    1    2    0    0  0.12393316149E+02 -0.52270883189E+01 -0.11828396231E+03  0.17268424624E+03  0.12509131234E+03 0.  0.
         23    2    1    2    0    0 -0.12393316149E+02  0.52270883189E+01 -0.54648380346E+02  0.10829588577E+03  0.92523708656E+02 0.  0.
          5    1    3    3  502    0  0.20088228302E+02 -0.50953627144E+02 -0.11399763689E+02  0.56100232153E+02  0.41800000000E+01 0.  1.
         -5    1    3    3    0  502 -0.76949121537E+01  0.45726538825E+02 -0.10688419862E+03  0.11658401408E+03  0.41800000000E+01 0.  1.
        -11    1    4    4    0    0  0.22654306428E+02  0.32773765107E+02 -0.49318715152E+02  0.63400890713E+02  0.00000000000E+00 0. -1.
         11    1    4    4    0    0 -0.35047622576E+02 -0.27546676788E+02 -0.53296651934E+01  0.44894995059E+02  0.00000000000E+00 0.  1.
</event>
<event>
 8    1  0.7048627E-009  0.1422815E+03  0.7561462E-02  0.1210292E+00
         -2   -1    0    0    0  501 -0.00000000000E+00  0.00000000000E+00  0.77483354759E+02  0.77483354759E+02  0.00000000000E+00 0.  1.
          2   -1    0    0  501    0  0.00000000000E+00 -0.00000000000E+00 -0.39524668741E+03  0.39524668741E+03  0.00000000000E+00 0. -1.
         25    2    1    2    0    0 -0.93918284650E+02 -0.53378613472E+01 -0.30646677078E+03  0.34411997906E+03  0.12509013326E+03 0.  0.
         23    2    1    2    0    0  0.93918284650E+02  0.53378613472E+01 -0.11296561867E+02  0.12861006311E+03  0.86970104446E+02 0.  0.
          5    1    3    3  502    0  0.27450739117E+02 -0.19885343611E+02 -0.63299033123E+02  0.71925030156E+02  0.41800000000E+01 0. -1.
         -5    1    3    3    0  502 -0.12136902377E+03  0.14547482264E+02 -0.24316773766E+03  0.27219494890E+03  0.41800000000E+01 0. -1.
        -11    1    4    4    0    0 -0.66151905110E+01 -0.22770209537E+02 -0.13964425369E+01  0.23752752254E+02  0.00000000000E+00 0.  1.
         11    1    4    4    0    0  0.10053347516E+03  0.28108070885E+02 -0.99001193306E+01  0.10485731085E+03  0.00000000000E+00 0. -1.
</event>
<event>
 8    1  0.7048627E-009  0.1507281E+03  0.7561462E-02  0.1199581E+00
          1   -1    0    0  501    0  0.00000000000E+00  0.00000000000E+00  0.32764225809E+03  0.32764225809E+03  0.00000000000E+00 0. -1.
         -1   -1    0    0    0  501 -0.00000000000E+00 -0.00000000000E+00 -0.70838890983E+02  0.70838890983E+02  0.00000000000E+00 0.  1.
         25    2    1    2    0    0  0.21829889356E+02  0.10483491652E+03  0.13698332796E+03  0.21419494224E+03  0.12509251518E+03 0.  0.
         23    2    1    2    0    0 -0.21829889356E+02 -0.10483491652E+03  0.11982003914E+03  0.18428620683E+03  0.90208982124E+02 0.  0.
          5    1    3    3  502    0  0.46934645476E+02 -0.68690210737E+01  0.57987492868E+02  0.75033766569E+02  0.41800000000E+01 0. -1.
         -5    1    3    3    0  502 -0.25104756120E+02  0.11170393759E+03  0.78995835093E+02  0.13916117567E+03  0.41800000000E+01 0. -1.
        -11    1    4    4    0    0  0.34521039321E+02 -0.49033297621E+02  0.61082159364E+02  0.85597877450E+02  0.00000000000E+00 0. -1.
         11    1    4    4    0    0 -0.56350928677E+02 -0.55801618894E+02  0.58737879778E+02  0.98688329375E+02  0.00000000000E+00 0.  1.
</event>
<event>
 8    1  0.7048627E-009  0.2894309E+03  0.7561462E-02  0.1090647E+00
         -1   -1    0    0    0  501 -0.00000000000E+00  0.00000000000E+00  0.13288927554E+03  0.13288927554E+03  0.00000000000E+00 0.  1.
          1   -1    0    0  501    0  0.00000000000E+00 -0.00000000000E+00 -0.86211890486E+03  0.86211890486E+03  0.00000000000E+00 0. -1.
         25    2    1    2    0    0  0.82463209368E+02  0.26495264546E+03 -0.13528113254E+03  0.33308938385E+03  0.12508983802E+03 0.  0.
         23    2    1    2    0    0 -0.82463209368E+02 -0.26495264546E+03 -0.59394849678E+03  0.66191879655E+03  0.91441736482E+02 0.  0.
          5    1    3    3  502    0  0.35802065883E+02  0.77679963000E+01 -0.41121413800E+02  0.55231990377E+02  0.41800000000E+01 0.  1.
         -5    1    3    3    0  502  0.46661143485E+02  0.25718464916E+03 -0.94159718741E+02  0.27785739347E+03  0.41800000000E+01 0.  1.
        -11    1    4    4    0    0 -0.80433541616E+02 -0.19972144399E+03 -0.52264484696E+03  0.56525732712E+03  0.00000000000E+00 0. -1.
         11    1    4    4    0    0 -0.20296677522E+01 -0.65231201465E+02 -0.71303649817E+02  0.96661469433E+02  0.00000000000E+00 0.  1.
</event>
<event>
 8    1  0.7048627E-009  0.1079710E+03  0.7561462E-02  0.1264374E+00
          4   -1    0    0  501    0  0.00000000000E+00  0.00000000000E+00  0.11372615534E+03  0.11372615534E+03  0.00000000000E+00 0. -1.
         -4   -1    0    0    0  501 -0.00000000000E+00 -0.00000000000E+00 -0.18925922548E+03  0.18925922548E+03  0.00000000000E+00 0.  1.
         25    2    1    2    0    0 -0.70267429543E+02 -0.18928461839E+02 -0.11077256368E+03  0.18224857390E+03  0.12509269964E+03 0.  0.
         23    2    1    2    0    0  0.70267429543E+02  0.18928461839E+02  0.35239493540E+02  0.12073680692E+03  0.89664688250E+02 0.  0.
          5    1    3    3  502    0  0.23238708490E+02 -0.40715411013E+02 -0.24298342594E+02  0.52968520076E+02  0.41800000000E+01 0. -1.
         -5    1    3    3    0  502 -0.93506138034E+02  0.21786949174E+02 -0.86474221088E+02  0.12928005383E+03  0.41800000000E+01 0. -1.
        -11    1    4    4    0    0  0.32099813297E+02  0.88855880865E+01 -0.29778493084E+02  0.44677850661E+02  0.00000000000E+00 0.  1.
         11    1    4    4    0    0  0.38167616246E+02  0.10042873752E+02  0.65017986624E+02  0.76058956262E+02  0.00000000000E+00 0. -1.
</event>
<event>
 8    1  0.7048627E-009  0.7724400E+02  0.7561462E-02  0.1337060E+00
          3   -1    0    0  501    0  0.00000000000E+00  0.00000000000E+00  0.87726997947E+02  0.87726997947E+02  0.00000000000E+00 0. -1.
         -3   -1    0    0    0  501 -0.00000000000E+00 -0.00000000000E+00 -0.18350110035E+03  0.18350110035E+03  0.00000000000E+00 0.  1.
         25    2    1    2    0    0  0.12836779479E+02 -0.19657706425E+02 -0.12016183279E+03  0.17503783895E+03  0.12509264838E+03 0.  0.
         23    2    1    2    0    0 -0.12836779479E+02  0.19657706425E+02  0.24387730384E+02  0.96190259344E+02  0.90036638487E+02 0.  0.
          5    1    3    3  502    0 -0.11051065245E+02  0.34592440259E+02  0.46040871969E+01  0.36843357407E+02  0.41800000000E+01 0. -1.
         -5    1    3    3    0  502  0.23887844724E+02 -0.54250146683E+02 -0.12476591998E+03  0.13819448155E+03  0.41800000000E+01 0. -1.
        -11    1    4    4    0    0  0.19379730610E+02  0.17679702946E+02  0.49013294394E+02  0.55591805890E+02  0.00000000000E+00 0. -1.
         11    1    4    4    0    0 -0.32216510089E+02  0.19780034788E+01 -0.24625564010E+02  0.40598453454E+02  0.00000000000E+00 0.  1.
</event>
<event>
 8    1  0.7048627E-009  0.1122976E+03  0.7561462E-02  0.1256373E+00
         -2   -1    0    0    0  501 -0.00000000000E+00  0.00000000000E+00  0.41320950810E+02  0.41320950810E+02  0.00000000000E+00 0.  1.
          2   -1    0    0  501    0  0.00000000000E+00 -0.00000000000E+00 -0.35120180787E+03  0.35120180787E+03  0.00000000000E+00 0. -1.
         25    2    1    2    0    0 -0.36447958258E+02 -0.30364035473E+02 -0.14438020073E+03  0.19683485307E+03  0.12509152133E+03 0.  0.
         23    2    1    2    0    0  0.36447958258E+02  0.30364035473E+02 -0.16550065633E+03  0.19568790561E+03  0.93020754911E+02 0.  0.
          5    1    3    3  502    0 -0.51884007258E+02 -0.67107637212E+02 -0.12784719459E+03  0.15348538284E+03  0.41800000000E+01 0. -1.
         -5    1    3    3    0  502  0.15436049000E+02  0.36743601739E+02 -0.16533006145E+02  0.43349470235E+02  0.41800000000E+01 0. -1.
        -11    1    4    4    0    0 -0.27999719093E+02  0.19782551167E+02 -0.87369195917E+02  0.93854728145E+02  0.00000000000E+00 0.  1.
         11    1    4    4    0    0  0.64447677351E+02  0.10581484307E+02 -0.78131460415E+02  0.10183317746E+03  0.00000000000E+00 0. -1.
</event>
<event>
 8    1  0.7048627E-009  0.1054184E+03  0.7561462E-02  0.1269298E+00
         -1   -1    0    0    0  501 -0.00000000000E+00  0.00000000000E+00  0.63017647828E+02  0.63017647828E+02  0.00000000000E+00 0.  1.
          1   -1    0    0  501    0  0.00000000000E+00 -0.00000000000E+00 -0.45201695726E+03  0.45201695726E+03  0.00000000000E+00 0. -1.
         25    2    1    2    0    0 -0.21118834434E+02 -0.10206972720E+03 -0.91761090369E+02  0.18690990554E+03  0.12510387965E+03 0.  0.
         23    2    1    2    0    0  0.21118834434E+02  0.10206972720E+03 -0.29723821906E+03  0.32812469955E+03  0.91929457764E+02 0.  0.
          5    1    3    3  502    0 -0.24227415700E+02 -0.72110776169E+02  0.13474501110E+02  0.77369026692E+02  0.41800000000E+01 0. -1.
         -5    1    3    3    0  502  0.31085812656E+01 -0.29958951031E+02 -0.10523559148E+03  0.10954087885E+03  0.41800000000E+01 0. -1.
        -11    1    4    4    0    0  0.21107903297E+01  0.12530266319E+02  0.39721251023E+01  0.13313180975E+02  0.00000000000E+00 0.  1.
         11    1    4    4    0    0  0.19008044104E+02  0.89539460881E+02 -0.30121034417E+03  0.31481151858E+03  0.00000000000E+00 0. -1.
</event>
<event>
 8    1  0.7048627E-009  0.1889269E+03  0.7561462E-02  0.1159433E+00
          3   -1    0    0  501    0  0.00000000000E+00  0.00000000000E+00  0.64692884127E+02  0.64692884127E+02  0.00000000000E+00 0. -1.
         -3   -1    0    0    0  501 -0.00000000000E+00 -0.00000000000E+00 -0.66303375172E+03  0.66303375172E+03  0.00000000000E+00 0.  1.
         25    2    1    2    0    0 -0.16298516385E+03  0.33112483478E+02 -0.20880231910E+03  0.29479944401E+03  0.12509078117E+03 0.  0.
         23    2    1    2    0    0  0.16298516385E+03 -0.33112483478E+02 -0.38953854849E+03  0.43292719183E+03  0.89582768820E+02 0.  0.
          5    1    3    3  502    0 -0.92873630051E+02  0.72292410036E+02 -0.78018859367E+02  0.14126612660E+03  0.41800000000E+01 0.  1.
         -5    1    3    3    0  502 -0.70111533796E+02 -0.39179926558E+02 -0.13078345973E+03  0.15353331741E+03  0.41800000000E+01 0.  1.
        -11    1    4    4    0    0  0.13217922677E+03 -0.53633806160E+02 -0.35380258668E+03  0.38147634723E+03  0.00000000000E+00 0.  1.
         11    1    4    4    0    0  0.30805937077E+02  0.20521322682E+02 -0.35735961811E+02  0.51450844603E+02  0.00000000000E+00 0. -1.
</event>
<event>
 8    1  0.7048627E-009  0.8693146E+02  0.7561462E-02  0.1310457E+00
         -1   -1    0    0    0  501 -0.00000000000E+00  0.00000000000E+00  0.13319202462E+03  0.13319202462E+03  0.00000000000E+00 0.  1.
          1   -1    0    0  501    0  0.00000000000E+00 -0.00000000000E+00 -0.95178715727E+02  0.95178715727E+02  0.00000000000E+00 0. -1.
         25    2    1    2    0    0 -0.27647227132E+02 -0.17426929804E+01  0.34603761441E+02  0.13271455194E+03  0.12509326857E+03 0.  0.
         23    2    1    2    0    0  0.27647227132E+02  0.17426929804E+01  0.34095474527E+01  0.95656188413E+02  0.91493580217E+02 0.  0.
          5    1    3    3  502    0 -0.93523435011E+01  0.41894103287E+02  0.63761933676E+02  0.76978170966E+02  0.41800000000E+01 0.  1.
         -5    1    3    3    0  502 -0.18294883631E+02 -0.43636796267E+02 -0.29158172235E+02  0.55736380970E+02  0.41800000000E+01 0.  1.
        -11    1    4    4    0    0 -0.45519616589E+01  0.35960803778E+02  0.24912908877E+02  0.43983551380E+02  0.00000000000E+00 0.  1.
         11    1    4    4    0    0  0.32199188791E+02 -0.34218110798E+02 -0.21503361424E+02  0.51672637033E+02  0.00000000000E+00 0. -1.
</event>
<event>
 8    1  0.7048627E-009  0.1317848E+03  0.7561462E-02  0.1224831E+00
          2   -1    0    0  501    0  0.00000000000E+00  0.00000000000E+00  0.34280413692E+02  0.34280413692E+02  0.00000000000E+00 0.  1.
         -2   -1    0    0    0  501 -0.00000000000E+00 -0.00000000000E+00 -0.58170826764E+03  0.58170826764E+03  0.00000000000E+00 0. -1.
         25    2    1    2    0    0 -0.76834220898E+02  0.11226937498E+02 -0.20164778608E+03  0.24967770234E+03  0.12509030254E+03 0.  0.
         23    2    1    2    0    0  0.76834220898E+02 -0.11226937498E+02 -0.34578006786E+03  0.36631097899E+03  0.92684067495E+02 0.  0.
          5    1    3    3  502    0 -0.11052057883E+03  0.94598609906E+01 -0.17123930664E+03  0.20407023265E+03  0.41800000000E+01 0. -1.
         -5    1    3    3    0  502  0.33686357930E+02  0.17670765075E+01 -0.30408479440E+02  0.45607469693E+02  0.41800000000E+01 0. -1.
        -11    1    4    4    0    0  0.34441548212E+02 -0.50274175767E+02 -0.14170048945E+03  0.15424896013E+03  0.00000000000E+00 0.  1.
         11    1    4    4    0    0  0.42392672686E+02  0.39047238269E+02 -0.20407957841E+03  0.21206201885E+03  0.00000000000E+00 0. -1.
</event>
<event>
 8    1  0.7048627E-009  0.1361786E+03  0.7561462E-02  0.1218565E+00
          1   -1    0    0  501    0  0.00000000000E+00  0.00000000000E+00  0.13418266683E+03  0.13418266683E+03  0.00000000000E+00 0. -1.
         -1   -1    0    0    0  501 -0.00000000000E+00 -0.00000000000E+00 -0.20821219228E+03  0.20821219228E+03  0.00000000000E+00 0.  1.
         25    2    1    2    0    0 -0.15470720558E+02 -0.12640845872E+03 -0.40412958299E+02  0.18302542011E+03  0.12508659232E+03 0.  0.
         23    2    1    2    0    0  0.15470720558E+02  0.12640845872E+03 -0.33616567149E+02  0.15936943901E+03  0.89722365499E+02 0.  0.
          5    1    3    3  502    0 -0.27450519043E+02 -0.98539670996E+02 -0.82148796703E+02  0.13126117078E+03  0.41800000000E+01 0.  1.
         -5    1    3    3    0  502  0.11979798486E+02 -0.27868787727E+02  0.41735838404E+02  0.51764249328E+02  0.41800000000E+01 0.  1.
        -11    1    4    4    0    0  0.36911494308E+02  0.86733285269E+02  0.12240407230E+02  0.95052347444E+02  0.00000000000E+00 0. -1.
         11    1    4    4    0    0 -0.21440773750E+02  0.39675173455E+02 -0.45856974379E+02  0.64317091561E+02  0.00000000000E+00 0.  1.
</event>
<event>
 8    1  0.7048627E-009  0.2186363E+03  0.7561462E-02  0.1134904E+00
          2   -1    0    0  501    0  0.00000000000E+00  0.00000000000E+00  0.50115064696E+03  0.50115064696E+03  0.00000000000E+00 0. -1.
         -2   -1    0    0    0  501 -0.00000000000E+00 -0.00000000000E+00 -0.10148666965E+03  0.10148666965E+03  0.00000000000E+00 0.  1.
         25    2    1    2    0    0 -0.19587238688E+03  0.17567203504E+02  0.22970876037E+03  0.32724269453E+03  0.12508824067E+03 0.  0.
         23    2    1    2    0    0  0.19587238688E+03 -0.17567203504E+02  0.16995521694E+03  0.27539462208E+03  0.91010018820E+02 0.  0.
          5    1    3    3  502    0 -0.17775492874E+03 -0.27106968023E+02  0.15095871348E+03  0.23481398592E+03  0.41800000000E+01 0. -1.
         -5    1    3    3    0  502 -0.18117458138E+02  0.44674171527E+02  0.78750046891E+02  0.92428708615E+02  0.41800000000E+01 0. -1.
        -11    1    4    4    0    0  0.46748286739E+02 -0.35674912231E+02  0.17473897769E+02  0.61346872609E+02  0.00000000000E+00 0.  1.
         11    1    4    4    0    0  0.14912410014E+03  0.18107708726E+02  0.15248131917E+03  0.21404774947E+03  0.00000000000E+00 0. -1.
</event>
<event>
 8    1  0.7048627E-009  0.1332718E+03  0.7561462E-02  0.1222680E+00
          2   -1    0    0  501    0  0.00000000000E+00  0.00000000000E+00  0.12983673146E+03  0.12983673146E+03  0.00000000000E+00 0. -1.
         -2   -1    0    0    0  501 -0.00000000000E+00 -0.00000000000E+00 -0.14157831839E+03  0.14157831839E+03  0.00000000000E+00 0.  1.
         25    2    1    2    0    0 -0.71750868586E+02 -0.31124158298E+02  0.50367143915E+01  0.14761463772E+03  0.12509121634E+03 0.  0.
         23    2    1    2    0    0  0.71750868586E+02  0.31124158298E+02 -0.16778301327E+02  0.12380041213E+03  0.94488783858E+02 0.  0.
          5    1    3    3  502    0 -0.44538641882E+01 -0.67925721101E+02  0.15914880734E+02  0.70032109222E+02  0.41800000000E+01 0. -1.
         -5    1    3    3    0  502 -0.67297004398E+02  0.36801562803E+02 -0.10878166343E+02  0.77582528501E+02  0.41800000000E+01 0. -1.
        -11    1    4    4    0    0 -0.18797604609E+02  0.24300736726E+02  0.29920040940E+01  0.30867909437E+02  0.00000000000E+00 0. -1.
         11    1    4    4    0    0  0.90548473195E+02  0.68234215712E+01 -0.19770305421E+02  0.92932502691E+02  0.00000000000E+00 0.  1.
</event>
<event>
 8    1  0.7048627E-009  0.1815979E+03  0.7561462E-02  0.1166266E+00
         -1   -1    0    0    0  501 -0.00000000000E+00  0.00000000000E+00  0.51938699421E+02  0.51938699421E+02  0.00000000000E+00 0.  1.
          1   -1    0    0  501    0  0.00000000000E+00 -0.00000000000E+00 -0.82401970627E+03  0.82401970627E+03  0.00000000000E+00 0. -1.
         25    2    1    2    0    0 -0.14435930631E+03  0.69581886691E+02 -0.25153020521E+03  0.32340558624E+03  0.12506990367E+03 0.  0.
         23    2    1    2    0    0  0.14435930631E+03 -0.69581886691E+02 -0.52055080164E+03  0.55255281945E+03  0.93060372442E+02 0.  0.
          5    1    3    3  502    0 -0.55888877244E+02 -0.31115680906E+02 -0.49833551512E+02  0.81194873324E+02  0.41800000000E+01 0. -1.
         -5    1    3    3    0  502 -0.88470429068E+02  0.10069756760E+03 -0.20169665369E+03  0.24221071292E+03  0.41800000000E+01 0. -1.
        -11    1    4    4    0    0  0.13495473031E+02  0.49638382821E+01 -0.46414891234E+01  0.15109960427E+02  0.00000000000E+00 0.  1.
         11    1    4    4    0    0  0.13086383328E+03 -0.74545724973E+02 -0.51590931251E+03  0.53744285902E+03  0.00000000000E+00 0. -1.
</event>
<event>
 8    1  0.7048627E-009  0.2082295E+03  0.7561462E-02  0.1142976E+00
          2   -1    0    0  501    0  0.00000000000E+00  0.00000000000E+00  0.12557132012E+04  0.12557132012E+04  0.00000000000E+00 0. -1.
         -2   -1    0    0    0  501 -0.00000000000E+00 -0.00000000000E+00 -0.50754830317E+02  0.50754830317E+02  0.00000000000E+00 0.  1.
         25    2    1    2    0    0  0.18232115005E+03 -0.90181720817E+02  0.88179849371E+03  0.91355874099E+03  0.12508894914E+03 0.  0.
         23    2    1    2    0    0 -0.18232115005E+03  0.90181720817E+02  0.32315987720E+03  0.39290929056E+03  0.92583259014E+02 0.  0.
          5    1    3    3  502    0  0.16264420403E+02 -0.30764785988E+02  0.38750731844E+02  0.52250311447E+02  0.41800000000E+01 0. -1.
         -5    1    3    3    0  502  0.16605672965E+03 -0.59416934829E+02  0.84304776187E+03  0.86130842954E+03  0.41800000000E+01 0. -1.
        -11    1    4    4    0    0 -0.51745199365E+02  0.38779861551E+02  0.18502606651E+03  0.19600022604E+03  0.00000000000E+00 0.  1.
         11    1    4    4    0    0 -0.13057595069E+03  0.51401859266E+02  0.13813381069E+03  0.19690906452E+03  0.00000000000E+00 0. -1.
</event>
<event>
 8    1  0.7048627E-009  0.1691980E+03  0.7561462E-02  0.1178687E+00
         -2   -1    0    0    0  501 -0.00000000000E+00  0.00000000000E+00  0.39983458730E+02  0.39983458730E+02  0.00000000000E+00 0.  1.
          2   -1    0    0  501    0  0.00000000000E+00 -0.00000000000E+00 -0.10022564202E+04  0.10022564202E+04  0.00000000000E+00 0. -1.
         25    2    1    2    0    0 -0.83374882855E+01 -0.14820782591E+03 -0.70643802568E+03  0.73262375085E+03  0.12509117797E+03 0.  0.
         23    2    1    2    0    0  0.83374882855E+01  0.14820782591E+03 -0.25583493576E+03  0.30961612805E+03  0.91518080300E+02 0.  0.
          5    1    3    3  502    0 -0.48227053916E+02 -0.62268272945E+02 -0.16426619457E+03  0.18221976189E+03  0.41800000000E+01 0. -1.
         -5    1    3    3    0  502  0.39889565630E+02 -0.85939552968E+02 -0.54217183112E+03  0.55040398896E+03  0.41800000000E+01 0. -1.
        -11    1    4    4    0    0 -0.17045080139E+02  0.30367836137E+01 -0.39072119965E+01  0.17748890592E+02  0.00000000000E+00 0. -1.
         11    1    4    4    0    0  0.25382568424E+02  0.14517104230E+03 -0.25192772376E+03  0.29186723746E+03  0.00000000000E+00 0.  1.
</event>
<event>
 8    1  0.7048627E-009  0.1039697E+03  0.7561462E-02  0.1272163E+00
          2   -1    0    0  501    0  0.00000000000E+00  0.00000000000E+00  0.49061409574E+03  0.49061409574E+03  0.00000000000E+00 0.  1.
         -2   -1    0    0    0  501 -0.00000000000E+00 -0.00000000000E+00 -0.41966979696E+02  0.41966979696E+02  0.00000000000E+00 0. -1.
         25    2    1    2    0    0 -0.81223496716E+02  0.42481484590E+01  0.15315823649E+03  0.21382267444E+03  0.12508951801E+03 0.  0.
         23    2    1    2    0    0  0.81223496716E+02 -0.42481484590E+01  0.29548887956E+03  0.31875840100E+03  0.87623838548E+02 0.  0.
          5    1    3    3  502    0 -0.44426515956E+02 -0.17672106986E+02 -0.65303795572E+01  0.48436937790E+02  0.41800000000E+01 0. -1.
         -5    1    3    3    0  502 -0.36796980759E+02  0.21920255445E+02  0.15968861605E+03  0.16538573665E+03  0.41800000000E+01 0. -1.
        -11    1    4    4    0    0  0.47500321215E+02  0.39426397753E+02  0.12237694584E+03  0.13706508756E+03  0.00000000000E+00 0. -1.
         11    1    4    4    0    0  0.33723175501E+02 -0.43674546212E+02  0.17311193372E+03  0.18169331344E+03  0.00000000000E+00 0.  1.
</event>
<event>
 8    1  0.7048627E-009  0.1005264E+03  0.7561462E-02  0.1279193E+00
         -1   -1    0    0    0  501 -0.00000000000E+00  0.00000000000E+00  0.87903306211E+01  0.87903306211E+01  0.00000000000E+00 0.  1.
          1   -1    0    0  501    0  0.00000000000E+00 -0.00000000000E+00 -0.15297955627E+04  0.15297955627E+04  0.00000000000E+00 0. -1.
         25    2    1    2    0    0  0.72024995103E+01 -0.35898174219E+02 -0.11580595731E+04  0.11653712919E+04  0.12509083992E+03 0.  0.
         23    2    1    2    0    0 -0.72024995103E+01  0.35898174219E+02 -0.36294565898E+03  0.37321460142E+03  0.78860842172E+02 0.  0.
          5    1    3    3  502    0  0.56454154111E+02 -0.64099296921E+01 -0.85491453149E+03  0.85681064843E+03  0.41800000000E+01 0. -1.
         -5    1    3    3    0  502 -0.49251654601E+02 -0.29488244526E+02 -0.30314504158E+03  0.30856064344E+03  0.41800000000E+01 0. -1.
        -11    1    4    4    0    0 -0.28016472363E+02  0.52761006428E+02 -0.23295908058E+03  0.24049652751E+03  0.00000000000E+00 0. -1.
         11    1    4    4    0    0  0.20813972852E+02 -0.16862832209E+02 -0.12998657841E+03  0.13271807391E+03  0.00000000000E+00 0.  1.
</event>
<event>
 8    1  0.7048627E-009  0.1964378E+03  0.7561462E-02  0.1152780E+00
          2   -1    0    0  501    0  0.00000000000E+00  0.00000000000E+00  0.17298606644E+04  0.17298606644E+04  0.00000000000E+00 0. -1.
         -2   -1    0    0    0  501 -0.00000000000E+00 -0.00000000000E+00 -0.57004017066E+02  0.57004017066E+02  0.00000000000E+00 0.  1.
         25    2    1    2    0    0 -0.11609993374E+03  0.12146107611E+03  0.15384819551E+04  0.15526770385E+04  0.12508905761E+03 0.  0.
         23    2    1    2    0    0  0.11609993374E+03 -0.12146107611E+03  0.13437469229E+03  0.23418764294E+03  0.92494900154E+02 0.  0.
          5    1    3    3  502    0 -0.11083720311E-02 -0.22970133725E+02  0.13432005860E+03  0.13633406612E+03  0.41800000000E+01 0. -1.
         -5    1    3    3    0  502 -0.11609882537E+03  0.14443120984E+03  0.14041618965E+04  0.14163429724E+04  0.41800000000E+01 0. -1.
        -11    1    4    4    0    0  0.34646210005E+02  0.36970769497E+01  0.54908311468E+02  0.65030384544E+02  0.00000000000E+00 0. -1.
         11    1    4    4    0    0  0.81453723736E+02 -0.12515815306E+03  0.79466380822E+02  0.16915725840E+03  0.00000000000E+00 0.  1.
</event>
<event>
 8    1  0.7048627E-009  0.1131203E+03  0.7561462E-02  0.1254898E+00
         -1   -1    0    0    0  501 -0.00000000000E+00  0.00000000000E+00  0.18700850628E+02  0.18700850628E+02  0.00000000000E+00 0.  1.
          1   -1    0    0  501    0  0.00000000000E+00 -0.00000000000E+00 -0.93069036519E+03  0.93069036519E+03  0.00000000000E+00 0. -1.
         25    2    1    2    0    0 -0.54141331327E+02  0.41786626582E+02 -0.61880513350E+03  0.63501565438E+03  0.12509069567E+03 0.  0.
         23    2    1    2    0    0  0.54141331327E+02 -0.41786626582E+02 -0.29318438107E+03  0.31437556144E+03  0.90540081794E+02 0.  0.
          5    1    3    3  502    0  0.15920829034E+02 -0.15891971923E+02 -0.36005108608E+03  0.36077733376E+03  0.41800000000E+01 0. -1.
         -5    1    3    3    0  502 -0.70062160361E+02  0.57678598506E+02 -0.25875404742E+03  0.27423832062E+03  0.41800000000E+01 0. -1.
        -11    1    4    4    0    0 -0.86541446297E+00  0.25551037363E+02 -0.50856444696E+02  0.56920843455E+02  0.00000000000E+00 0. -1.
         11    1    4    4    0    0  0.55006745790E+02 -0.67337663945E+02 -0.24232793637E+03  0.25745471799E+03  0.00000000000E+00 0.  1.
</event>
<event>
 8    1  0.7048627E-009  0.1437718E+03  0.7561462E-02  0.1208342E+00
          2   -1    0    0  501    0  0.00000000000E+00  0.00000000000E+00  0.63237523207E+03  0.63237523207E+03  0.00000000000E+00 0. -1.
         -2   -1    0    0    0  501 -0.00000000000E+00 -0.00000000000E+00 -0.51935963659E+02  0.51935963659E+02  0.00000000000E+00 0.  1.
         25    2    1    2    0    0  0.11873796395E+03 -0.44731125882E+02  0.17150731451E+03  0.24731032580E+03  0.12509220845E+03 0.  0.
         23    2    1    2    0    0 -0.11873796395E+03  0.44731125882E+02  0.40893195389E+03  0.43700086992E+03  0.87434773922E+02 0.  0.
          5    1    3    3  502    0 -0.12778233154E+02  0.10623245971E+02  0.70207367807E+02  0.72268136076E+02  0.41800000000E+01 0.  1.
         -5    1    3    3    0  502  0.13151619710E+03 -0.55354371853E+02  0.10129994670E+03  0.17504218973E+03  0.41800000000E+01 0.  1.
        -11    1    4    4    0    0 -0.63166074665E+02  0.31247230871E+02  0.97152528819E+02  0.12002064940E+03  0.00000000000E+00 0.  1.
         11    1    4    4    0    0 -0.55571889280E+02  0.13483895011E+02  0.31177942508E+03  0.31698022052E+03  0.00000000000E+00 0. -1.
</event>
<event>
 8    1  0.7048627E-009  0.9978269E+02  0.7561462E-02  0.1280754E+00
         -2   -1    0    0    0  501 -0.00000000000E+00  0.00000000000E+00  0.58125137047E+02  0.58125137047E+02  0.00000000000E+00 0.  1.
          2   -1    0    0  501    0  0.00000000000E+00 -0.00000000000E+00 -0.32053049552E+03  0.32053049552E+03  0.00000000000E+00 0. -1.
         25    2    1    2    0    0  0.61340812903E+02  0.52600414891E+02 -0.11834155518E+03  0.19021672818E+03  0.12509268973E+03 0.  0.
         23    2    1    2    0    0 -0.61340812903E+02 -0.52600414891E+02 -0.14406380329E+03  0.18843890438E+03  0.90693672827E+02 0.  0.
          5    1    3    3  502    0  0.53273678030E+02  0.37041308230E+02  0.53312643145E+01  0.65238317463E+02  0.41800000000E+01 0. -1.
         -5    1    3    3    0  502  0.80671348731E+01  0.15559106661E+02 -0.12367281949E+03  0.12497841072E+03  0.41800000000E+01 0. -1.
        -11    1    4    4    0    0 -0.13752560356E+02 -0.65736435852E+02 -0.10846785809E+03  0.12757620528E+03  0.00000000000E+00 0. -1.
         11    1    4    4    0    0 -0.47588252547E+02  0.13136020961E+02 -0.35595945204E+02  0.60862699103E+02  0.00000000000E+00 0.  1.
</event>
<event>
 8    1  0.7048627E-009  0.9431239E+02  0.7561462E-02  0.1292732E+00
          1   -1    0    0  501    0  0.00000000000E+00  0.00000000000E+00  0.35994840663E+03  0.35994840663E+03  0.00000000000E+00 0. -1.
         -1   -1    0    0    0  501 -0.00000000000E+00 -0.00000000000E+00 -0.53896660101E+02  0.53896660101E+02  0.00000000000E+00 0.  1.
         25    2    1    2    0    0 -0.17242221644E+01  0.43375697786E+02  0.56214585020E+02  0.14384893273E+03  0.12509201324E+03 0.  0.
         23    2    1    2    0    0  0.17242221644E+01 -0.43375697786E+02  0.24983716151E+03  0.26999613400E+03  0.92708581075E+02 0.  0.
          5    1    3    3  502    0 -0.16719517014E+02 -0.18268636568E+02  0.73738881095E+02  0.77898525765E+02  0.41800000000E+01 0.  1.
         -5    1    3    3    0  502  0.14995294849E+02  0.61644334354E+02 -0.17524296075E+02  0.65950406962E+02  0.41800000000E+01 0.  1.
        -11    1    4    4    0    0 -0.39707255576E+02  0.32890065370E+00  0.12917653655E+03  0.13514196948E+03  0.00000000000E+00 0.  1.
         11    1    4    4    0    0  0.41431477740E+02 -0.43704598440E+02  0.12066062496E+03  0.13485416452E+03  0.00000000000E+00 0. -1.
</event>
<event>
 8    1  0.7048627E-009  0.9945904E+02  0.7561462E-02  0.1281438E+00
          2   -1    0    0  501    0  0.00000000000E+00  0.00000000000E+00  0.45835919625E+02  0.45835919625E+02  0.00000000000E+00 0. -1.
         -2   -1    0    0    0  501 -0.00000000000E+00 -0.00000000000E+00 -0.43037063242E+03  0.43037063242E+03  0.00000000000E+00 0.  1.
         25    2    1    2    0    0  0.21424181051E+02  0.86320118547E+01 -0.35501200909E+03  0.37711421539E+03  0.12509235665E+03 0.  0.
         23    2    1    2    0    0 -0.21424181051E+02 -0.86320118547E+01 -0.29522703708E+02  0.99092336653E+02  0.91728915761E+02 0.  0.
          5    1    3    3  502    0 -0.41545295602E+02  0.82881136735E+01 -0.25727469962E+03  0.26077278976E+03  0.41800000000E+01 0. -1.
         -5    1    3    3    0  502  0.62969476653E+02  0.34389818124E+00 -0.97737309468E+02  0.11634142563E+03  0.41800000000E+01 0. -1.
        -11    1    4    4    0    0 -0.50016558634E+02  0.18974436898E+02 -0.25137357576E+02  0.59106447526E+02  0.00000000000E+00 0.  1.
         11    1    4    4    0    0  0.28592377583E+02 -0.27606448753E+02 -0.43853461318E+01  0.39985889127E+02  0.00000000000E+00 0. -1.
</event>
<event>
 8    1  0.7048627E-009  0.8322399E+02  0.7561462E-02  0.1320143E+00
          1   -1    0    0  501    0  0.00000000000E+00  0.00000000000E+00  0.51809777043E+03  0.51809777043E+03  0.00000000000E+00 0. -1.
         -1   -1    0    0    0  501 -0.00000000000E+00 -0.00000000000E+00 -0.23688874874E+02  0.23688874874E+02  0.00000000000E+00 0.  1.
         25    2    1    2    0    0 -0.16715202418E+02 -0.50700403313E+01  0.31085986759E+03  0.33553837201E+03  0.12508812299E+03 0.  0.
         23    2    1    2    0    0  0.16715202418E+02  0.50700403313E+01  0.18354902797E+03  0.20624827330E+03  0.92428357494E+02 0.  0.
          5    1    3    3  502    0 -0.29748428554E+01 -0.42126076772E+02  0.28495823965E+03  0.28810089687E+03  0.41800000000E+01 0. -1.
         -5    1    3    3    0  502 -0.13740359563E+02  0.37056036441E+02  0.25901627942E+02  0.47437475140E+02  0.41800000000E+01 0. -1.
        -11    1    4    4    0    0 -0.29394353121E+02  0.20284401947E+02  0.35158549444E+02  0.50115951121E+02  0.00000000000E+00 0.  1.
         11    1    4    4    0    0  0.46109555539E+02 -0.15214361616E+02  0.14839047852E+03  0.15613232218E+03  0.00000000000E+00 0. -1.
</event>
<event>
 8    1  0.7048627E-009  0.1167970E+03  0.7561462E-02  0.1248477E+00
          2   -1    0    0  501    0  0.00000000000E+00  0.00000000000E+00  0.42555886613E+02  0.42555886613E+02  0.00000000000E+00 0. -1.
         -2   -1    0    0    0  501 -0.00000000000E+00 -0.00000000000E+00 -0.43794832039E+03  0.43794832039E+03  0.00000000000E+00 0.  1.
         25    2    1    2    0    0  0.66184992714E+02  0.22402566226E+02 -0.13971647193E+03  0.20012769983E+03  0.12509226785E+03 0.  0.
         23    2    1    2    0    0 -0.66184992714E+02 -0.22402566226E+02 -0.25567596184E+03  0.28037650718E+03  0.91424614176E+02 0.  0.
          5    1    3    3  502    0  0.69004608641E+02  0.67890342486E+02 -0.10339904521E+03  0.14170239789E+03  0.41800000000E+01 0.  1.
         -5    1    3    3    0  502 -0.28196159269E+01 -0.45487776260E+02 -0.36317426720E+02  0.58425301939E+02  0.41800000000E+01 0.  1.
        -11    1    4    4    0    0 -0.53808379841E+02  0.11343252418E+02 -0.59843472760E+02  0.81272703588E+02  0.00000000000E+00 0. -1.
         11    1    4    4    0    0 -0.12376612872E+02 -0.33745818644E+02 -0.19583248908E+03  0.19910380359E+03  0.00000000000E+00 0.  1.
</event>
<event>
 8    1  0.7048627E-009  0.1561671E+03  0.7561462E-02  0.1193093E+00
          3   -1    0    0  501    0  0.00000000000E+00  0.00000000000E+00  0.95496937753E+02  0.95496937753E+02  0.00000000000E+00 0. -1.
         -3   -1    0    0    0  501 -0.00000000000E+00 -0.00000000000E+00 -0.30291990630E+03  0.30291990630E+03  0.00000000000E+00 0.  1.
         25    2    1    2    0    0 -0.41448595660E+02  0.11147869728E+03 -0.46105615862E+02  0.17866559607E+03  0.12510068495E+03 0.  0.
         23    2    1    2    0    0  0.41448595660E+02 -0.11147869728E+03 -0.16131735269E+03  0.21975124798E+03  0.90121233251E+02 0.  0.
          5    1    3    3  502    0  0.88242033687E+01  0.12081324905E+03 -0.35223348597E+02  0.12622148945E+03  0.41800000000E+01 0. -1.
         -5    1    3    3    0  502 -0.50272799029E+02 -0.93345517676E+01 -0.10882267265E+02  0.52444106625E+02  0.41800000000E+01 0. -1.
        -11    1    4    4    0    0 -0.17955741152E+02 -0.54998919470E+02 -0.30573276450E+02  0.65437107333E+02  0.00000000000E+00 0. -1.
         11    1    4    4    0    0  0.59404336812E+02 -0.56479777813E+02 -0.13074407624E+03  0.15431414065E+03  0.00000000000E+00 0.  1.
</event>
<event>
 8    1  0.7048627E-009  0.1960868E+03  0.7561462E-02  0.1153083E+00
         -1   -1    0    0    0  501 -0.00000000000E+00  0.00000000000E+00  0.41747801398E+02  0.41747801398E+02  0.00000000000E+00 0.  1.
          1   -1    0    0  501    0  0.00000000000E+00 -0.00000000000E+00 -0.10393329054E+04  0.10393329054E+04  0.00000000000E+00 0. -1.
         25    2    1    2    0    0 -0.51504408010E+02 -0.16955950773E+03 -0.50992352745E+03  0.55414133915E+03  0.12508992444E+03 0.  0.
         23    2    1    2    0    0  0.51504408010E+02  0.16955950773E+03 -0.48766157660E+03  0.52693936770E+03  0.91913835931E+02 0.  0.
          5    1    3    3  502    0  0.89097275323E+01  0.10467451801E+02 -0.59274266781E+01  0.15542122729E+02  0.41800000000E+01 0. -1.
         -5    1    3    3    0  502 -0.60414135542E+02 -0.18002695953E+03 -0.50399610077E+03  0.53859921642E+03  0.41800000000E+01 0. -1.
        -11    1    4    4    0    0 -0.59812985652E+01  0.87336330651E+02 -0.31805016569E+03  0.32987773262E+03  0.00000000000E+00 0. -1.
         11    1    4    4    0    0  0.57485706575E+02  0.82223177079E+02 -0.16961141091E+03  0.19706163508E+03  0.00000000000E+00 0.  1.
</event>
<event>
 8    1  0.7048627E-009  0.1048161E+03  0.7561462E-02  0.1270482E+00
          2   -1    0    0  501    0  0.00000000000E+00  0.00000000000E+00  0.15429051583E+04  0.15429051583E+04  0.00000000000E+00 0. -1.
         -2   -1    0    0    0  501 -0.00000000000E+00 -0.00000000000E+00 -0.17325652913E+02  0.17325652913E+02  0.00000000000E+00 0.  1.
         25    2    1    2    0    0 -0.63549636056E+02 -0.66266443582E+02  0.11985747956E+04  0.12085769553E+04  0.12508764227E+03 0.  0.
         23    2    1    2    0    0  0.63549636056E+02  0.66266443582E+02  0.32700470973E+03  0.35165385594E+03  0.91096412787E+02 0.  0.
          5    1    3    3  502    0 -0.48979394474E+02 -0.32277048695E+02  0.11209532178E+04  0.11224947118E+04  0.41800000000E+01 0.  1.
         -5    1    3    3    0  502 -0.14570241582E+02 -0.33989394887E+02  0.77621577806E+02  0.86082243498E+02  0.41800000000E+01 0.  1.
        -11    1    4    4    0    0  0.51143484917E+02  0.53276584886E+01  0.23528927169E+03  0.24084244096E+03  0.00000000000E+00 0. -1.
         11    1    4    4    0    0  0.12406151139E+02  0.60938785093E+02  0.91715438033E+02  0.11081141497E+03  0.00000000000E+00 0.  1.
</event>
<event>
 8    1  0.7048627E-009  0.1093280E+03  0.7561462E-02  0.1261819E+00
         -2   -1    0    0    0  501 -0.00000000000E+00  0.00000000000E+00  0.33387708988E+02  0.33387708988E+02  0.00000000000E+00 0.  1.
          2   -1    0    0  501    0  0.00000000000E+00 -0.00000000000E+00 -0.57231429628E+03  0.57231429628E+03  0.00000000000E+00 0. -1.
         25    2    1    2    0    0 -0.78667587091E+02 -0.26765796542E+02 -0.23939044939E+03  0.28259607291E+03  0.12509099105E+03 0.  0.
         23    2    1    2    0    0  0.78667587091E+02  0.26765796542E+02 -0.29953613790E+03  0.32310593235E+03  0.88150714654E+02 0.  0.
          5    1    3    3  502    0 -0.25885985494E+02 -0.35376212394E+02 -0.22182130063E+03  0.22614977882E+03  0.41800000000E+01 0.  1.
         -5    1    3    3    0  502 -0.52781601597E+02  0.86104158524E+01 -0.17569148767E+02  0.56446294092E+02  0.41800000000E+01 0.  1.
        -11    1    4    4    0    0  0.90908488709E+02 -0.69768566799E+00 -0.23214303229E+03  0.24930950147E+03  0.00000000000E+00 0. -1.
         11    1    4    4    0    0 -0.12240901617E+02  0.27463482210E+02 -0.67393105605E+02  0.73796430880E+02  0.00000000000E+00 0.  1.
</event>
<event>
 8    1  0.7048627E-009  0.1114730E+03  0.7561462E-02  0.1257866E+00
         -1   -1    0    0    0  501 -0.00000000000E+00  0.00000000000E+00  0.45551830286E+02  0.45551830286E+02  0.00000000000E+00 0.  1.
          1   -1    0    0  501    0  0.00000000000E+00 -0.00000000000E+00 -0.35440291736E+03  0.35440291736E+03  0.00000000000E+00 0. -1.
         25    2    1    2    0    0  0.58394412319E+02 -0.21492358580E+02 -0.12912957354E+03  0.19025135491E+03  0.12509717190E+03 0.  0.
         23    2    1    2    0    0 -0.58394412319E+02  0.21492358580E+02 -0.17972151353E+03  0.20970339273E+03  0.88339468130E+02 0.  0.
          5    1    3    3  502    0  0.78563208211E+02 -0.56399783777E+02 -0.74104764232E+02  0.12191022015E+03  0.41800000000E+01 0.  1.
         -5    1    3    3    0  502 -0.20168795892E+02  0.34907425197E+02 -0.55024809310E+02  0.68341134767E+02  0.41800000000E+01 0.  1.
        -11    1    4    4    0    0 -0.12250500299E+02  0.35366667958E+02 -0.14642684477E+03  0.15113469764E+03  0.00000000000E+00 0. -1.
         11    1    4    4    0    0 -0.46143912020E+02 -0.13874309378E+02 -0.33294668760E+02  0.58568695094E+02  0.00000000000E+00 0.  1.
</event>
<event>
 8    1  0.7048627E-009  0.1192823E+03  0.7561462E-02  0.1244286E+00
          2   -1    0    0  501    0  0.00000000000E+00  0.00000000000E+00  0.47551362388E+03  0.47551362388E+03  0.00000000000E+00 0. -1.
         -2   -1    0    0    0  501 -0.00000000000E+00 -0.00000000000E+00 -0.45661941967E+02  0.45661941967E+02  0.00000000000E+00 0.  1.
         25    2    1    2    0    0  0.95084653805E+00  0.96850766630E+02  0.27384955538E+03  0.31626258137E+03  0.12508983287E+03 0.  0.
         23    2    1    2    0    0 -0.95084653805E+00 -0.96850766630E+02  0.15600212653E+03  0.20491298447E+03  0.90948846165E+02 0.  0.
          5    1    3    3  502    0  0.35066593904E+02  0.84012590036E+02  0.26248063142E+03  0.27785128318E+03  0.41800000000E+01 0. -1.
         -5    1    3    3    0  502 -0.34115747366E+02  0.12838176594E+02  0.11368923957E+02  0.38411298189E+02  0.41800000000E+01 0. -1.
        -11    1    4    4    0    0 -0.22202208252E+02 -0.81645219534E+02  0.55785139057E+02  0.10134525970E+03  0.00000000000E+00 0.  1.
         11    1    4    4    0    0  0.21251361714E+02 -0.15205547097E+02  0.10021698747E+03  0.10356772477E+03  0.00000000000E+00 0. -1.
</event>
<event>
 8    1  0.7048627E-009  0.1204489E+03  0.7561462E-02  0.1242358E+00
         -1   -1    0    0    0  501 -0.00000000000E+00  0.00000000000E+00  0.21220912118E+03  0.21220912118E+03  0.00000000000E+00 0.  1.
          1   -1    0    0  501    0  0.00000000000E+00 -0.00000000000E+00 -0.11321894454E+03  0.11321894454E+03  0.00000000000E+00 0. -1.
         25    2    1    2    0    0 -0.95937373558E+02 -0.55366578350E+02  0.48037592820E+02  0.17385463935E+03  0.12509351564E+03 0.  0.
         23    2    1    2    0    0  0.95937373558E+02  0.55366578350E+02  0.50952583822E+02  0.15157342636E+03  0.90049431638E+02 0.  0.
          5    1    3    3  502    0 -0.46655915788E+02 -0.35332864275E+02 -0.39926573155E+02  0.70970341832E+02  0.41800000000E+01 0. -1.
         -5    1    3    3    0  502 -0.49281457770E+02 -0.20033714075E+02  0.87964165974E+02  0.10288429752E+03  0.41800000000E+01 0. -1.
        -11    1    4    4    0    0  0.58695630828E+02 -0.39443579692E+01  0.56180389525E+02  0.81344767534E+02  0.00000000000E+00 0.  1.
         11    1    4    4    0    0  0.37241742730E+02  0.59310936319E+02 -0.52278057021E+01  0.70228658830E+02  0.00000000000E+00 0. -1.
</event>
<event>
 8    1  0.7048627E-009  0.2279802E+03  0.7561462E-02  0.1128069E+00
         -2   -1    0    0    0  501 -0.00000000000E+00  0.00000000000E+00  0.73800637074E+02  0.73800637074E+02  0.00000000000E+00 0.  1.
          2   -1    0    0  501    0  0.00000000000E+00 -0.00000000000E+00 -0.76680123125E+03  0.76680123125E+03  0.00000000000E+00 0. -1.
         25    2    1    2    0    0 -0.13927964995E+03 -0.15924848930E+03 -0.36356802674E+03  0.43884603913E+03  0.12508090885E+03 0.  0.
         23    2    1    2    0    0  0.13927964995E+03  0.15924848930E+03 -0.32943256743E+03  0.40175582919E+03  0.90127840128E+02 0.  0.
          5    1    3    3  502    0 -0.38504662320E+02  0.15455033092E+02 -0.87491739313E+02  0.96921328490E+02  0.41800000000E+01 0. -1.
         -5    1    3    3    0  502 -0.10077498763E+03 -0.17470352239E+03 -0.27607628743E+03  0.34192471064E+03  0.41800000000E+01 0. -1.
        -11    1    4    4    0    0  0.57750723922E+02  0.81392855858E+02 -0.23274735804E+03  0.25324153643E+03  0.00000000000E+00 0. -1.
         11    1    4    4    0    0  0.81528926026E+02  0.77855633445E+02 -0.96685209389E+02  0.14851429276E+03  0.00000000000E+00 0.  1.
</event>
<event>
 8    1  0.7048627E-009  0.1196925E+03  0.7561462E-02  0.1243605E+00
         -1   -1    0    0    0  501 -0.00000000000E+00  0.00000000000E+00  0.28995878355E+03  0.28995878355E+03  0.00000000000E+00 0.  1.
          1   -1    0    0  501    0  0.00000000000E+00 -0.00000000000E+00 -0.72758517653E+02  0.72758517653E+02  0.00000000000E+00 0. -1.
         25    2    1    2    0    0  0.68885247746E+02 -0.42355565585E+02  0.18054886349E+03  0.23406185586E+03  0.12509152237E+03 0.  0.
         23    2    1    2    0    0 -0.68885247746E+02  0.42355565585E+02  0.36651402401E+02  0.12865544534E+03  0.93111368930E+02 0.  0.
          5    1    3    3  502    0  0.74687211617E+02  0.21764105014E+02  0.63899810912E+02  0.10075968480E+03  0.41800000000E+01 0. -1.
         -5    1    3    3    0  502 -0.58019638707E+01 -0.64119670599E+02  0.11664905258E+03  0.13330217106E+03  0.41800000000E+01 0. -1.
        -11    1    4    4    0    0 -0.70041763643E+02  0.17652617674E+02  0.60558279229E+02  0.94259051280E+02  0.00000000000E+00 0.  1.
         11    1    4    4    0    0  0.11565158968E+01  0.24702947910E+02 -0.23906876828E+02  0.34396394058E+02  0.00000000000E+00 0. -1.
</event>
<event>
 8    1  0.7048627E-009  0.8911562E+02  0.7561462E-02  0.1305008E+00
         -1   -1    0    0    0  501 -0.00000000000E+00  0.00000000000E+00  0.26400726296E+02  0.26400726296E+02  0.00000000000E+00 0.  1.
          1   -1    0    0  501    0  0.00000000000E+00 -0.00000000000E+00 -0.55601207133E+03  0.55601207133E+03  0.00000000000E+00 0. -1.
         25    2    1    2    0    0 -0.15200241859E+02  0.42157664731E+02 -0.23862591485E+03  0.27312578383E+03  0.12508817092E+03 0.  0.
         23    2    1    2    0    0  0.15200241859E+02 -0.42157664731E+02 -0.29098543018E+03  0.30928701380E+03  0.94750304904E+02 0.  0.
          5    1    3    3  502    0  0.56504815624E+01  0.51233160930E+02 -0.24397379832E+03  0.24939416871E+03  0.41800000000E+01 0. -1.
         -5    1    3    3    0  502 -0.20850723421E+02 -0.90754961990E+01  0.53478834655E+01  0.23731615116E+02  0.41800000000E+01 0. -1.
        -11    1    4    4    0    0  0.54348946448E+02 -0.31524617610E+02 -0.20074084950E+03  0.21034376186E+03  0.00000000000E+00 0. -1.
         11    1    4    4    0    0 -0.39148704589E+02 -0.10633047121E+02 -0.90244580678E+02  0.98943251937E+02  0.00000000000E+00 0.  1.
</event>
<event>
 8    1  0.7048627E-009  0.1851090E+03  0.7561462E-02  0.1162948E+00
         -1   -1    0    0    0  501 -0.00000000000E+00  0.00000000000E+00  0.24582070921E+03  0.24582070921E+03  0.00000000000E+00 0.  1.
          1   -1    0    0  501    0  0.00000000000E+00 -0.00000000000E+00 -0.16309936497E+03  0.16309936497E+03  0.00000000000E+00 0. -1.
         25    2    1    2    0    0  0.13929483910E+03  0.90056660283E+02  0.19209203472E+02  0.20863754812E+03  0.12508948286E+03 0.  0.
         23    2    1    2    0    0 -0.13929483910E+03 -0.90056660283E+02  0.63512140771E+02  0.20028252607E+03  0.92552925190E+02 0.  0.
          5    1    3    3  502    0  0.12134818024E+03  0.30411495620E+02 -0.30504720494E+02  0.12883419688E+03  0.41800000000E+01 0. -1.
         -5    1    3    3    0  502  0.17946658864E+02  0.59645164663E+02  0.49713923966E+02  0.79803351234E+02  0.41800000000E+01 0. -1.
        -11    1    4    4    0    0 -0.11703122040E+03 -0.10382132991E+03  0.72739179505E+02  0.17252873189E+03  0.00000000000E+00 0.  1.
         11    1    4    4    0    0 -0.22263618701E+02  0.13764669624E+02 -0.92270387347E+01  0.27753794179E+02  0.00000000000E+00 0. -1.
</event>
<event>
 8    1  0.7048627E-009  0.1261127E+03  0.7561462E-02  0.1233341E+00
         -1   -1    0    0    0  501 -0.00000000000E+00  0.00000000000E+00  0.38018683073E+02  0.38018683073E+02  0.00000000000E+00 0.  1.
          1   -1    0    0  501    0  0.00000000000E+00 -0.00000000000E+00 -0.45990432585E+03  0.45990432585E+03  0.00000000000E+00 0. -1.
         25    2    1    2    0    0 -0.22899498247E+02 -0.71861851702E+02 -0.22397368759E+03  0.26739646532E+03  0.12509254248E+03 0.  0.
         23    2    1    2    0    0  0.22899498247E+02  0.71861851702E+02 -0.19791195519E+03  0.23052654360E+03  0.91021055520E+02 0.  0.
          5    1    3    3  502    0  0.21930366156E+02 -0.84390906747E+02 -0.19158539711E+03  0.21053551455E+03  0.41800000000E+01 0.  1.
         -5    1    3    3    0  502 -0.44829864402E+02  0.12529055045E+02 -0.32388290480E+02  0.56860950773E+02  0.41800000000E+01 0.  1.
        -11    1    4    4    0    0  0.29706634260E+02  0.92137699516E+02 -0.16078828373E+03  0.18768247648E+03  0.00000000000E+00 0.  1.
         11    1    4    4    0    0 -0.68071360137E+01 -0.20275847814E+02 -0.37123671451E+02  0.42844067119E+02  0.00000000000E+00 0. -1.
</event>
<event>
 8    1  0.7048627E-009  0.1280173E+03  0.7561462E-02  0.1230428E+00
          1   -1    0    0  501    0  0.00000000000E+00  0.00000000000E+00  0.52221962842E+02  0.52221962842E+02  0.00000000000E+00 0. -1.
         -1   -1    0    0    0  501 -0.00000000000E+00 -0.00000000000E+00 -0.58533941923E+03  0.58533941923E+03  0.00000000000E+00 0.  1.
         25    2    1    2    0    0 -0.94158708827E+02  0.46657583275E+02 -0.44353614210E+03  0.47266682154E+03  0.12508725882E+03 0.  0.
         23    2    1    2    0    0  0.94158708827E+02 -0.46657583275E+02 -0.89581314292E+02  0.16489456053E+03  0.90125532990E+02 0.  0.
          5    1    3    3  502    0 -0.99268123280E+02  0.56890465071E+02 -0.21309532876E+03  0.24190447878E+03  0.41800000000E+01 0.  1.
         -5    1    3    3    0  502  0.51094144527E+01 -0.10232881796E+02 -0.23044081334E+03  0.23076234277E+03  0.41800000000E+01 0.  1.
        -11    1    4    4    0    0  0.19753905311E+02 -0.51144060198E+02 -0.97735427136E+01  0.55690697659E+02  0.00000000000E+00 0. -1.
         11    1    4    4    0    0  0.74404803516E+02  0.44864769229E+01 -0.79807771579E+02  0.10920386287E+03  0.00000000000E+00 0.  1.
</event>
<event>
 8    1  0.7048627E-009  0.1093181E+03  0.7561462E-02  0.1261838E+00
          2   -1    0    0  501    0  0.00000000000E+00  0.00000000000E+00  0.19485825507E+03  0.19485825507E+03  0.00000000000E+00 0. -1.
         -2   -1    0    0    0  501 -0.00000000000E+00 -0.00000000000E+00 -0.12418942049E+03  0.12418942049E+03  0.00000000000E+00 0.  1.
         25    2    1    2    0    0 -0.66894482389E+02 -0.10567195824E+02  0.12792453383E+03  0.19131006858E+03  0.12509323956E+03 0.  0.
         23    2    1    2    0    0  0.66894482389E+02  0.10567195824E+02 -0.57255699252E+02  0.12773760697E+03  0.91935541207E+02 0.  0.
          5    1    3    3  502    0  0.20170610996E+02  0.36370532401E+02  0.26028230083E+02  0.49240332415E+02  0.41800000000E+01 0. -1.
         -5    1    3    3    0  502 -0.87065093385E+02 -0.46937728225E+02  0.10189630375E+03  0.14206973617E+03  0.41800000000E+01 0. -1.
        -11    1    4    4    0    0  0.39324095636E+02  0.25119485904E+02 -0.77573201796E+02  0.90526099588E+02  0.00000000000E+00 0.  1.
         11    1    4    4    0    0  0.27570386754E+02 -0.14552290080E+02  0.20317502545E+02  0.37211507386E+02  0.00000000000E+00 0. -1.
</event>
<event>
 8    1  0.7048627E-009  0.1105328E+03  0.7561462E-02  0.1259586E+00
         -2   -1    0    0    0  501 -0.00000000000E+00  0.00000000000E+00  0.83021830423E+02  0.83021830423E+02  0.00000000000E+00 0.  1.
          2   -1    0    0  501    0  0.00000000000E+00 -0.00000000000E+00 -0.18045300399E+03  0.18045300399E+03  0.00000000000E+00 0. -1.
         25    2    1    2    0    0  0.12481861689E+02  0.22155859013E+01 -0.10912760432E+03  0.16648319207E+03  0.12508842282E+03 0.  0.
         23    2    1    2    0    0 -0.12481861689E+02 -0.22155859013E+01  0.11696430759E+02  0.96991642346E+02  0.95445620645E+02 0.  0.
          5    1    3    3  502    0 -0.10884794260E+02  0.60958132666E+02 -0.59831120571E+02  0.86206775099E+02  0.41800000000E+01 0. -1.
         -5    1    3    3    0  502  0.23366655948E+02 -0.58742546765E+02 -0.49296483752E+02  0.80276416966E+02  0.41800000000E+01 0. -1.
        -11    1    4    4    0    0 -0.19071656446E+02 -0.46820581170E+02  0.60998760616E+00  0.50559539016E+02  0.00000000000E+00 0. -1.
         11    1    4    4    0    0  0.65897947578E+01  0.44604995268E+02  0.11086443153E+02  0.46432103330E+02  0.00000000000E+00 0.  1.
</event>
<event>
 8    1  0.7048627E-009  0.1656885E+03  0.7561462E-02  0.1182420E+00
          2   -1    0    0  501    0  0.00000000000E+00  0.00000000000E+00  0.11349519771E+04  0.11349519771E+04  0.00000000000E+00 0. -1.
         -2   -1    0    0    0  501 -0.00000000000E+00 -0.00000000000E+00 -0.30987181680E+02  0.30987181680E+02  0.00000000000E+00 0.  1.
         25    2    1    2    0    0  0.56155001789E+02  0.11689404391E+03  0.32034940060E+03  0.36754444724E+03  0.12509028942E+03 0.  0.
         23    2    1    2    0    0 -0.56155001789E+02 -0.11689404391E+03  0.78361539485E+03  0.79839471156E+03  0.81014978140E+02 0.  0.
          5    1    3    3  502    0  0.95294249213E+02  0.89778344905E+02  0.25378568777E+03  0.28559725640E+03  0.41800000000E+01 0. -1.
         -5    1    3    3    0  502 -0.39139247423E+02  0.27115699005E+02  0.66563712827E+02  0.81947190841E+02  0.41800000000E+01 0. -1.
        -11    1    4    4    0    0 -0.70979553346E+02 -0.57427071299E+02  0.49387035914E+03  0.50223888455E+03  0.00000000000E+00 0.  1.
         11    1    4    4    0    0  0.14824551556E+02 -0.59466972611E+02  0.28974503571E+03  0.29615582702E+03  0.00000000000E+00 0. -1.
</event>
<event>
 8    1  0.7048627E-009  0.1172700E+03  0.7561462E-02  0.1247670E+00
          1   -1    0    0  501    0  0.00000000000E+00  0.00000000000E+00  0.14371497783E+03  0.14371497783E+03  0.00000000000E+00 0. -1.
         -1   -1    0    0    0  501 -0.00000000000E+00 -0.00000000000E+00 -0.11295594808E+03  0.11295594808E+03  0.00000000000E+00 0.  1.
         25    2    1    2    0    0  0.52229086576E+02 -0.27155475558E+02  0.24481318481E+02  0.14039729923E+03  0.12508704705E+03 0.  0.
         23    2    1    2    0    0 -0.52229086576E+02  0.27155475558E+02  0.62777112750E+01  0.11627362668E+03  0.10007421878E+03 0.  0.
          5    1    3    3  502    0  0.22220429421E+02 -0.73335145605E+02  0.34710241217E+02  0.84226268527E+02  0.41800000000E+01 0. -1.
         -5    1    3    3    0  502  0.30008657155E+02  0.46179670047E+02 -0.10228922737E+02  0.56171030703E+02  0.41800000000E+01 0. -1.
        -11    1    4    4    0    0 -0.75562160278E+02  0.20088248786E+02 -0.19717540907E+02  0.80634727163E+02  0.00000000000E+00 0.  1.
         11    1    4    4    0    0  0.23333073702E+02  0.70672267715E+01  0.25995252182E+02  0.35638899515E+02  0.00000000000E+00 0. -1.
</event>
<event>
 8    1  0.7048627E-009  0.9254450E+02  0.7561462E-02  0.1296804E+00
          2   -1    0    0  501    0  0.00000000000E+00  0.00000000000E+00  0.28807897766E+02  0.28807897766E+02  0.00000000000E+00 0. -1.
         -2   -1    0    0    0  501 -0.00000000000E+00 -0.00000000000E+00 -0.71754993372E+03  0.71754993372E+03  0.00000000000E+00 0.  1.
         25    2    1    2    0    0  0.46368964464E+02 -0.61141976053E+02 -0.51749719438E+03  0.53790134877E+03  0.12508434243E+03 0.  0.
         23    2    1    2    0    0 -0.46368964464E+02  0.61141976053E+02 -0.17124484157E+03  0.20845648271E+03  0.90779333096E+02 0.  0.
          5    1    3    3  502    0  0.65192986331E+02 -0.38861159130E+02 -0.14040883871E+03  0.15966348845E+03  0.41800000000E+01 0.  1.
         -5    1    3    3    0  502 -0.18824021867E+02 -0.22280816923E+02 -0.37708835567E+03  0.37823786032E+03  0.41800000000E+01 0.  1.
        -11    1    4    4    0    0 -0.18833455645E+02  0.42135349684E+02 -0.14790999822E+02  0.48465043281E+02  0.00000000000E+00 0. -1.
         11    1    4    4    0    0 -0.27535508820E+02  0.19006626370E+02 -0.15645384175E+03  0.15999143943E+03  0.00000000000E+00 0.  1.
</event>
<event>
 8    1  0.7048627E-009  0.8011064E+02  0.7561462E-02  0.1328738E+00
          1   -1    0    0  501    0  0.00000000000E+00  0.00000000000E+00  0.22817972462E+03  0.22817972462E+03  0.00000000000E+00 0. -1.
         -1   -1    0    0    0  501 -0.00000000000E+00 -0.00000000000E+00 -0.66183966698E+02  0.66183966698E+02  0.00000000000E+00 0.  1.
         25    2    1    2    0    0  0.21409503074E+02  0.53852184610E+02  0.86095655468E+02  0.16252534354E+03  0.12507438105E+03 0.  0.
         23    2    1    2    0    0 -0.21409503074E+02 -0.53852184610E+02  0.75900102457E+02  0.13183834778E+03  0.90896093328E+02 0.  0.
          5    1    3    3  502    0  0.21612749520E+02  0.68636227678E+02 -0.29729192911E+01  0.72141204182E+02  0.41800000000E+01 0.  1.
         -5    1    3    3    0  502 -0.20324644667E+00 -0.14784043069E+02  0.89068574759E+02  0.90384139361E+02  0.41800000000E+01 0.  1.
        -11    1    4    4    0    0 -0.11285642771E+02  0.55087644303E+01 -0.16995772389E+02  0.21132167362E+02  0.00000000000E+00 0.  1.
         11    1    4    4    0    0 -0.10123860302E+02 -0.59360949040E+02  0.92895874847E+02  0.11070618041E+03  0.00000000000E+00 0. -1.
</event>
<event>
 8    1  0.7048627E-009  0.1063148E+03  0.7561462E-02  0.1267551E+00
         -3   -1    0    0    0  501 -0.00000000000E+00  0.00000000000E+00  0.75234225567E+03  0.75234225567E+03  0.00000000000E+00 0.  1.
          3   -1    0    0  501    0  0.00000000000E+00 -0.00000000000E+00 -0.39502979117E+02  0.39502979117E+02  0.00000000000E+00 0. -1.
         25    2    1    2    0    0  0.45908649026E+02 -0.16086626986E+02  0.66526199105E+03  0.67866575048E+03  0.12508917023E+03 0.  0.
         23    2    1    2    0    0 -0.45908649026E+02  0.16086626986E+02  0.47577285502E+02  0.11317948431E+03  0.90441218203E+02 0.  0.
          5    1    3    3  502    0  0.53694701739E+02 -0.64101547923E+02  0.36652124389E+03  0.37596199817E+03  0.41800000000E+01 0.  1.
         -5    1    3    3    0  502 -0.77860527134E+01  0.48014920938E+02  0.29874074716E+03  0.30270375231E+03  0.41800000000E+01 0.  1.
        -11    1    4    4    0    0 -0.33007972603E+02  0.40635626780E+02  0.62627027202E+02  0.81626741668E+02  0.00000000000E+00 0.  1.
         11    1    4    4    0    0 -0.12900676423E+02 -0.24548999794E+02 -0.15049741700E+02  0.31552742643E+02  0.00000000000E+00 0. -1.
</event>
<event>
 8    1  0.7048627E-009  0.1027098E+03  0.7561462E-02  0.1274699E+00
         -1   -1    0    0    0  501 -0.00000000000E+00  0.00000000000E+00  0.50187000238E+03  0.50187000238E+03  0.00000000000E+00 0.  1.
          1   -1    0    0  501    0  0.00000000000E+00 -0.00000000000E+00 -0.32758835548E+02  0.32758835548E+02  0.00000000000E+00 0. -1.
         25    2    1    2    0    0 -0.51139997555E+02  0.72040880798E+01  0.36030174074E+03  0.38487960269E+03  0.12509103065E+03 0.  0.
         23    2    1    2    0    0  0.51139997555E+02 -0.72040880798E+01  0.10880942609E+03  0.14974923524E+03  0.88983953687E+02 0.  0.
          5    1    3    3  502    0 -0.19677004357E+02  0.58611815349E+02  0.99879938446E+02  0.11754149864E+03  0.41800000000E+01 0.  1.
         -5    1    3    3    0  502 -0.31462993198E+02 -0.51407727269E+02  0.26042180230E+03  0.26733810405E+03  0.41800000000E+01 0.  1.
        -11    1    4    4    0    0  0.21099503185E+02  0.29080768071E+02  0.93583027563E+02  0.10024302048E+03  0.00000000000E+00 0.  1.
         11    1    4    4    0    0  0.30040494370E+02 -0.36284856151E+02  0.15226398522E+02  0.49506214760E+02  0.00000000000E+00 0. -1.
</event>
<event>
 8    1  0.7048627E-009  0.1342112E+03  0.7561462E-02  0.1221337E+00
          2   -1    0    0  501    0  0.00000000000E+00  0.00000000000E+00  0.22125048073E+03  0.22125048073E+03  0.00000000000E+00 0. -1.
         -2   -1    0    0    0  501 -0.00000000000E+00 -0.00000000000E+00 -0.11145864139E+03  0.11145864139E+03  0.00000000000E+00 0.  1.
         25    2    1    2    0    0  0.74757010817E+02 -0.79762593454E+02  0.92345241745E+02  0.19007133751E+03  0.12509511457E+03 0.  0.
         23    2    1    2    0    0 -0.74757010817E+02  0.79762593454E+02  0.17446597594E+02  0.14263778462E+03  0.89947050268E+02 0.  0.
          5    1    3    3  502    0  0.77794903727E+02 -0.93994435216E+02  0.11171692855E+03  0.16548457760E+03  0.41800000000E+01 0.  1.
         -5    1    3    3    0  502 -0.30378929100E+01  0.14231841762E+02 -0.19371686808E+02  0.24586759914E+02  0.41800000000E+01 0.  1.
        -11    1    4    4    0    0  0.11869857325E+02  0.27684404814E+02  0.27855312598E+02  0.41027286319E+02  0.00000000000E+00 0.  1.
         11    1    4    4    0    0 -0.86626868142E+02  0.52078188640E+02 -0.10408715004E+02  0.10161049830E+03  0.00000000000E+00 0. -1.
</event>
<event>
 8    1  0.7048627E-009  0.9884038E+02  0.7561462E-02  0.1282754E+00
          2   -1    0    0  501    0  0.00000000000E+00  0.00000000000E+00  0.21647005246E+03  0.21647005246E+03  0.00000000000E+00 0. -1.
         -2   -1    0    0    0  501 -0.00000000000E+00 -0.00000000000E+00 -0.89336031589E+02  0.89336031589E+02  0.00000000000E+00 0.  1.
         25    2    1    2    0    0 -0.71194072138E+02 -0.51709573772E+02  0.98792524040E+02  0.18207142603E+03  0.12509022920E+03 0.  0.
         23    2    1    2    0    0  0.71194072138E+02  0.51709573772E+02  0.28341496830E+02  0.12373465802E+03  0.82246879730E+02 0.  0.
          5    1    3    3  502    0 -0.62894751303E+02 -0.48825031236E+02 -0.30261862043E+01  0.79788869021E+02  0.41800000000E+01 0.  1.
         -5    1    3    3    0  502 -0.82993208350E+01 -0.28845425363E+01  0.10181871024E+03  0.10228255701E+03  0.41800000000E+01 0.  1.
        -11    1    4    4    0    0  0.72509848494E+02  0.18299447295E+02 -0.69666838417E+01  0.75107140697E+02  0.00000000000E+00 0.  1.
         11    1    4    4    0    0 -0.13157763560E+01  0.33410126477E+02  0.35308180671E+02  0.48627517323E+02  0.00000000000E+00 0. -1.
</event>
<event>
 8    1  0.7048627E-009  0.1215853E+03  0.7561462E-02  0.1240505E+00
          2   -1    0    0  501    0  0.00000000000E+00  0.00000000000E+00  0.10142161070E+03  0.10142161070E+03  0.00000000000E+00 0.  1.
         -2   -1    0    0    0  501 -0.00000000000E+00 -0.00000000000E+00 -0.22323303499E+03  0.22323303499E+03  0.00000000000E+00 0. -1.
         25    2    1    2    0    0  0.88069563442E+02  0.53189543928E+02 -0.85514347170E+02  0.18315512934E+03  0.12509085596E+03 0.  0.
         23    2    1    2    0    0 -0.88069563442E+02 -0.53189543928E+02 -0.36297077127E+02  0.14149951635E+03  0.90106934978E+02 0.  0.
          5    1    3    3  502    0  0.69742158020E+02  0.10132002492E+02 -0.10959170971E+03  0.13036272979E+03  0.41800000000E+01 0. -1.
         -5    1    3    3    0  502  0.18327405422E+02  0.43057541436E+02  0.24077362542E+02  0.52792399557E+02  0.41800000000E+01 0. -1.
        -11    1    4    4    0    0 -0.32051855793E+02  0.16603403018E+02  0.14145059900E+02  0.38769539218E+02  0.00000000000E+00 0.  1.
         11    1    4    4    0    0 -0.56017707649E+02 -0.69792946947E+02 -0.50442137027E+02  0.10272997713E+03  0.00000000000E+00 0. -1.
</event>
<event>
 8    1  0.7048627E-009  0.1040557E+03  0.7561462E-02  0.1271991E+00
         -1   -1    0    0    0  501 -0.00000000000E+00  0.00000000000E+00  0.77099144080E+02  0.77099144080E+02  0.00000000000E+00 0.  1.
          1   -1    0    0  501    0  0.00000000000E+00 -0.00000000000E+00 -0.48383016962E+03  0.48383016962E+03  0.00000000000E+00 0. -1.
         25    2    1    2    0    0  0.25560700370E+02 -0.65115648828E+02 -0.42879394306E+03  0.45211201216E+03  0.12509048251E+03 0.  0.
         23    2    1    2    0    0 -0.25560700370E+02  0.65115648828E+02  0.22062917518E+02  0.10881730154E+03  0.80380567669E+02 0.  0.
          5    1    3    3  502    0  0.25204543948E+02  0.92972822288E+01 -0.31444500986E+03  0.31561819517E+03  0.41800000000E+01 0. -1.
         -5    1    3    3    0  502  0.35615642163E+00 -0.74412931057E+02 -0.11434893320E+03  0.13649381700E+03  0.41800000000E+01 0. -1.
        -11    1    4    4    0    0  0.19411804640E+02  0.57616902821E+02  0.96099704815E+01  0.61553855953E+02  0.00000000000E+00 0.  1.
         11    1    4    4    0    0 -0.44972505010E+02  0.74987460070E+01  0.12452947036E+02  0.47263445584E+02  0.00000000000E+00 0. -1.
</event>
<event>
 8    1  0.7048627E-009  0.1471906E+03  0.7561462E-02  0.1203968E+00
          1   -1    0    0  501    0  0.00000000000E+00  0.00000000000E+00  0.51826965683E+03  0.51826965683E+03  0.00000000000E+00 0. -1.
         -1   -1    0    0    0  501 -0.00000000000E+00 -0.00000000000E+00 -0.73497477214E+02  0.73497477214E+02  0.00000000000E+00 0.  1.
         25    2    1    2    0    0  0.11244779261E+03  0.33405817762E+02  0.64193064565E+02  0.18310921744E+03  0.12509109181E+03 0.  0.
         23    2    1    2    0    0 -0.11244779261E+03 -0.33405817762E+02  0.38057911505E+03  0.40865791660E+03  0.91653561098E+02 0.  0.
          5    1    3    3  502    0  0.10211819253E+03  0.75409296943E+02  0.38937710017E+02  0.13284692308E+03  0.41800000000E+01 0. -1.
         -5    1    3    3    0  502  0.10329600085E+02 -0.42003479181E+02  0.25255354548E+02  0.50262294363E+02  0.41800000000E+01 0. -1.
        -11    1    4    4    0    0 -0.69562924813E+02 -0.18232010357E-01  0.93829307520E+02  0.11680299564E+03  0.00000000000E+00 0.  1.
         11    1    4    4    0    0 -0.42884867802E+02 -0.33387585751E+02  0.28674980753E+03  0.29185492096E+03  0.00000000000E+00 0. -1.
</event>
<event>
 8    1  0.7048627E-009  0.9891662E+02  0.7561462E-02  0.1282591E+00
          1   -1    0    0  501    0  0.00000000000E+00  0.00000000000E+00  0.22493552805E+03  0.22493552805E+03  0.00000000000E+00 0. -1.
         -1   -1    0    0    0  501 -0.00000000000E+00 -0.00000000000E+00 -0.65423856052E+02  0.65423856052E+02  0.00000000000E+00 0.  1.
         25    2    1    2    0    0 -0.16908248965E+02  0.48278154566E+02  0.62822339934E+02  0.14903039070E+03  0.12508693723E+03 0.  0.
         23    2    1    2    0    0  0.16908248965E+02 -0.48278154566E+02  0.96689332065E+02  0.14132899341E+03  0.89489599119E+02 0.  0.
          5    1    3    3  502    0  0.22999047170E+02  0.68099921872E+02  0.12731041761E+00  0.72000306510E+02  0.41800000000E+01 0. -1.
         -5    1    3    3    0  502 -0.39907296135E+02 -0.19821767305E+02  0.62695029516E+02  0.77030084188E+02  0.41800000000E+01 0. -1.
        -11    1    4    4    0    0  0.37631372807E+02 -0.12356905237E+02  0.91285565001E+02  0.99508128833E+02  0.00000000000E+00 0. -1.
         11    1    4    4    0    0 -0.20723123842E+02 -0.35921249329E+02  0.54037670644E+01  0.41820864573E+02  0.00000000000E+00 0.  1.
</event>
<event>
 8    1  0.7048627E-009  0.1245475E+03  0.7561462E-02  0.1235778E+00
         -1   -1    0    0    0  501 -0.00000000000E+00  0.00000000000E+00  0.54796985997E+03  0.54796985997E+03  0.00000000000E+00 0.  1.
          1   -1    0    0  501    0  0.00000000000E+00 -0.00000000000E+00 -0.37219018371E+02  0.37219018371E+02  0.00000000000E+00 0. -1.
         25    2    1    2    0    0 -0.74909797846E+02 -0.19378019551E+02  0.18175600724E+03  0.23381743042E+03  0.12509340168E+03 0.  0.
         23    2    1    2    0    0  0.74909797846E+02  0.19378019551E+02  0.32899483436E+03  0.35137144792E+03  0.96110914699E+02 0.  0.
          5    1    3    3  502    0  0.24481796161E+02 -0.61938720105E+01  0.10334134444E+03  0.10646421119E+03  0.41800000000E+01 0. -1.
         -5    1    3    3    0  502 -0.99391594007E+02 -0.13184147540E+02  0.78414662796E+02  0.12735321923E+03  0.41800000000E+01 0. -1.
        -11    1    4    4    0    0  0.59925939358E+02  0.56967808690E+02  0.23091584537E+03  0.24527245479E+03  0.00000000000E+00 0.  1.
         11    1    4    4    0    0  0.14983858488E+02 -0.37589789139E+02  0.98078988985E+02  0.10609899313E+03  0.00000000000E+00 0. -1.
</event>
<event>
 8    1  0.7048627E-009  0.9103433E+02  0.7561462E-02  0.1300366E+00
         -1   -1    0    0    0  501 -0.00000000000E+00  0.00000000000E+00  0.11934739622E+04  0.11934739622E+04  0.00000000000E+00 0.  1.
          1   -1    0    0  501    0  0.00000000000E+00 -0.00000000000E+00 -0.13906621237E+02  0.13906621237E+02  0.00000000000E+00 0. -1.
         25    2    1    2    0    0  0.69341943937E+02 -0.12258664437E+02  0.67118358229E+03  0.68636221004E+03  0.12508837755E+03 0.  0.
         23    2    1    2    0    0 -0.69341943937E+02  0.12258664437E+02  0.50838375868E+03  0.52101837339E+03  0.89707966688E+02 0.  0.
          5    1    3    3  502    0  0.48736539750E+02 -0.82025051785E+01  0.66063123814E+03  0.66249048039E+03  0.41800000000E+01 0. -1.
         -5    1    3    3    0  502  0.20605404187E+02 -0.40561592589E+01  0.10552344147E+02  0.23871729654E+02  0.41800000000E+01 0. -1.
        -11    1    4    4    0    0 -0.45563551874E+02 -0.35464290295E+02  0.32297126026E+03  0.32809173732E+03  0.00000000000E+00 0.  1.
         11    1    4    4    0    0 -0.23778392064E+02  0.47722954733E+02  0.18541249842E+03  0.19292663608E+03  0.00000000000E+00 0. -1.
</event>
<event>
 8    1  0.7048627E-009  0.1116271E+03  0.7561462E-02  0.1257586E+00
         -1   -1    0    0    0  501 -0.00000000000E+00  0.00000000000E+00  0.75512746502E+02  0.75512746502E+02  0.00000000000E+00 0.  1.
          1   -1    0    0  501    0  0.00000000000E+00 -0.00000000000E+00 -0.36130810165E+03  0.36130810165E+03  0.00000000000E+00 0. -1.
         25    2    1    2    0    0 -0.64633825518E+02  0.61916019328E+01 -0.12516007287E+02  0.14149411625E+03  0.12509223461E+03 0.  0.
         23    2    1    2    0    0  0.64633825518E+02 -0.61916019328E+01 -0.27327934787E+03  0.29532673191E+03  0.91216277466E+02 0.  0.
          5    1    3    3  502    0 -0.38445320810E+01  0.40816280536E+02 -0.47732334277E+02  0.63060267358E+02  0.41800000000E+01 0. -1.
         -5    1    3    3    0  502 -0.60789293437E+02 -0.34624678604E+02  0.35216326990E+02  0.78433848889E+02  0.41800000000E+01 0. -1.
        -11    1    4    4    0    0  0.78920382353E+02  0.20629995255E+02 -0.19797410329E+03  0.21412092151E+03  0.00000000000E+00 0. -1.
         11    1    4    4    0    0 -0.14286556836E+02 -0.26821597188E+02 -0.75305244578E+02  0.81205810401E+02  0.00000000000E+00 0.  1.
</event>
<event>
 8    1  0.7048627E-009  0.2705756E+03  0.7561462E-02  0.1100951E+00
          1   -1    0    0  501    0  0.00000000000E+00  0.00000000000E+00  0.66018229896E+03  0.66018229896E+03  0.00000000000E+00 0. -1.
         -1   -1    0    0    0  501 -0.00000000000E+00 -0.00000000000E+00 -0.11914739869E+03  0.11914739869E+03  0.00000000000E+00 0.  1.
         25    2    1    2    0    0 -0.69291538772E+02  0.24880843191E+03  0.28318381280E+03  0.40317245816E+03  0.12509199037E+03 0.  0.
         23    2    1    2    0    0  0.69291538772E+02 -0.24880843191E+03  0.25785108748E+03  0.37615723949E+03  0.91105062289E+02 0.  0.
          5    1    3    3  502    0  0.24018705550E+02  0.91476555498E+02  0.50914138143E+02  0.10749223360E+03  0.41800000000E+01 0. -1.
         -5    1    3    3    0  502 -0.93310244323E+02  0.15733187641E+03  0.23226967466E+03  0.29568022456E+03  0.41800000000E+01 0. -1.
        -11    1    4    4    0    0  0.72827048511E+02 -0.17406844849E+03  0.13389444050E+03  0.23136837500E+03  0.00000000000E+00 0.  1.
         11    1    4    4    0    0 -0.35355097389E+01 -0.74739983418E+02  0.12395664697E+03  0.14478886449E+03  0.00000000000E+00 0. -1.
</event>
<event>
 8    1  0.7048627E-009  0.9891348E+02  0.7561462E-02  0.1282597E+00
          1   -1    0    0  501    0  0.00000000000E+00  0.00000000000E+00  0.82721331231E+02  0.82721331231E+02  0.00000000000E+00 0. -1.
         -1   -1    0    0    0  501 -0.00000000000E+00 -0.00000000000E+00 -0.24715557227E+03  0.24715557227E+03  0.00000000000E+00 0.  1.
         25    2    1    2    0    0  0.36558500690E+02  0.85233618113E+02 -0.74678507636E+02  0.17269765254E+03  0.12508519520E+03 0.  0.
         23    2    1    2    0    0 -0.36558500690E+02 -0.85233618113E+02 -0.89755733399E+02  0.15717925096E+03  0.89710264883E+02 0.  0.
          5    1    3    3  502    0  0.38532964780E+02  0.35299786539E+02  0.27262702573E+02  0.59089691622E+02  0.41800000000E+01 0.  1.
         -5    1    3    3    0  502 -0.19744640900E+01  0.49933831574E+02 -0.10194121021E+03  0.11360796091E+03  0.41800000000E+01 0.  1.
        -11    1    4    4    0    0 -0.62312724318E+01 -0.41914044722E+02 -0.95017145748E+02  0.10403784834E+03  0.00000000000E+00 0.  1.
         11    1    4    4    0    0 -0.30327228258E+02 -0.43319573391E+02  0.52614123496E+01  0.53141402621E+02  0.00000000000E+00 0. -1.
</event>
<event>
 8    1  0.7048627E-009  0.1624197E+03  0.7561462E-02  0.1185992E+00
          1   -1    0    0  501    0  0.00000000000E+00  0.00000000000E+00  0.40264266187E+03  0.40264266187E+03  0.00000000000E+00 0. -1.
         -1   -1    0    0    0  501 -0.00000000000E+00 -0.00000000000E+00 -0.80555350534E+02  0.80555350534E+02  0.00000000000E+00 0.  1.
         25    2    1    2    0    0 -0.12563183801E+03  0.20340284606E+02  0.81304554523E+02  0.19609934407E+03  0.12508971284E+03 0.  0.
         23    2    1    2    0    0  0.12563183801E+03 -0.20340284606E+02  0.24078275682E+03  0.28709866834E+03  0.90841749661E+02 0.  0.
          5    1    3    3  502    0 -0.20647691802E+02  0.57475865248E+02  0.57938402890E+01  0.61488561929E+02  0.41800000000E+01 0.  1.
         -5    1    3    3    0  502 -0.10498414621E+03 -0.37135580642E+02  0.75510714235E+02  0.13461078214E+03  0.41800000000E+01 0.  1.
        -11    1    4    4    0    0  0.21484051222E+02  0.29688733107E+02  0.32819666341E+02  0.49194672772E+02  0.00000000000E+00 0.  1.
         11    1    4    4    0    0  0.10414778679E+03 -0.50029017713E+02  0.20796309048E+03  0.23790399557E+03  0.00000000000E+00 0. -1.
</event>
<event>
 8    1  0.7048627E-009  0.1783691E+03  0.7561462E-02  0.1169391E+00
         -2   -1    0    0    0  501 -0.00000000000E+00  0.00000000000E+00  0.15915424215E+03  0.15915424215E+03  0.00000000000E+00 0.  1.
          2   -1    0    0  501    0  0.00000000000E+00 -0.00000000000E+00 -0.27527673389E+03  0.27527673389E+03  0.00000000000E+00 0. -1.
         25    2    1    2    0    0  0.44549299477E+02 -0.17191512919E+03 -0.39492045359E+02  0.22078290724E+03  0.12508404676E+03 0.  0.
         23    2    1    2    0    0 -0.44549299477E+02  0.17191512919E+03 -0.76630446378E+02  0.21364806880E+03  0.90740400378E+02 0.  0.
          5    1    3    3  502    0  0.18421891533E+02 -0.99876508153E+02  0.40967157637E+02  0.10959225964E+03  0.41800000000E+01 0.  1.
         -5    1    3    3    0  502  0.26127407944E+02 -0.72038621034E+02 -0.80459202996E+02  0.11119064760E+03  0.41800000000E+01 0.  1.
        -11    1    4    4    0    0 -0.25668429798E+02  0.67046396108E+02  0.14731732824E+02  0.73287867150E+02  0.00000000000E+00 0.  1.
         11    1    4    4    0    0 -0.18880869679E+02  0.10486873308E+03 -0.91362179202E+02  0.14036020165E+03  0.00000000000E+00 0. -1.
</event>
<event>
 8    1  0.7048627E-009  0.1085341E+03  0.7561462E-02  0.1263309E+00
         -1   -1    0    0    0  501 -0.00000000000E+00  0.00000000000E+00  0.54954547292E+02  0.54954547292E+02  0.00000000000E+00 0.  1.
          1   -1    0    0  501    0  0.00000000000E+00 -0.00000000000E+00 -0.35619779938E+03  0.35619779938E+03  0.00000000000E+00 0. -1.
         25    2    1    2    0    0 -0.37626262634E+02 -0.48862815003E+02 -0.25569822507E+03  0.29126359218E+03  0.12509831133E+03 0.  0.
         23    2    1    2    0    0  0.37626262634E+02  0.48862815003E+02 -0.45545027021E+02  0.11988875449E+03  0.92171870096E+02 0.  0.
          5    1    3    3  502    0 -0.82459643480E+02 -0.17085715407E+02 -0.15090337914E+03  0.17286068584E+03  0.41800000000E+01 0. -1.
         -5    1    3    3    0  502  0.44833380846E+02 -0.31777099596E+02 -0.10479484593E+03  0.11840290634E+03  0.41800000000E+01 0. -1.
        -11    1    4    4    0    0  0.44818229346E+02  0.22179213402E+02  0.15934625724E+02  0.52483363895E+02  0.00000000000E+00 0.  1.
         11    1    4    4    0    0 -0.71919667116E+01  0.26683601601E+02 -0.61479652745E+02  0.67405390595E+02  0.00000000000E+00 0. -1.
</event>
<event>
 8    1  0.7048627E-009  0.1136880E+03  0.7561462E-02  0.1253889E+00
         -2   -1    0    0    0  501 -0.00000000000E+00  0.00000000000E+00  0.32878742627E+02  0.32878742627E+02  0.00000000000E+00 0. -1.
          2   -1    0    0  501    0  0.00000000000E+00 -0.00000000000E+00 -0.59438296066E+03  0.59438296066E+03  0.00000000000E+00 0.  1.
         25    2    1    2    0    0  0.42065641746E+02  0.41886118793E+02 -0.16037769122E+03  0.21187861339E+03  0.12509027863E+03 0.  0.
         23    2    1    2    0    0 -0.42065641746E+02 -0.41886118793E+02 -0.40112652680E+03  0.41538308989E+03  0.90092484141E+02 0.  0.
          5    1    3    3  502    0 -0.39710954198E+02  0.23802426669E+02 -0.94231241089E+02  0.10507385305E+03  0.41800000000E+01 0.  1.
         -5    1    3    3    0  502  0.81776595944E+02  0.18083692124E+02 -0.66146450136E+02  0.10680476034E+03  0.41800000000E+01 0.  1.
        -11    1    4    4    0    0 -0.91719104272E+00 -0.54101864314E+02 -0.30958177663E+03  0.31427492643E+03  0.00000000000E+00 0. -1.
         11    1    4    4    0    0 -0.41148450704E+02  0.12215745521E+02 -0.91544750175E+02  0.10110816346E+03  0.00000000000E+00 0.  1.
</event>
<event>
 8    1  0.7048627E-009  0.1075883E+03  0.7561462E-02  0.1265102E+00
         -4   -1    0    0    0  501 -0.00000000000E+00  0.00000000000E+00  0.80498617614E+02  0.80498617614E+02  0.00000000000E+00 0.  1.
          4   -1    0    0  501    0  0.00000000000E+00 -0.00000000000E+00 -0.26687491392E+03  0.26687491392E+03  0.00000000000E+00 0. -1.
         25    2    1    2    0    0  0.20424666743E+02 -0.94111366808E+02 -0.11516850551E+03  0.19541121704E+03  0.12509053805E+03 0.  0.
         23    2    1    2    0    0 -0.20424666743E+02  0.94111366808E+02 -0.71207790797E+02  0.15196231449E+03  0.93530097730E+02 0.  0.
          5    1    3    3  502    0 -0.13634531047E+01 -0.96461219513E+02 -0.13471677578E+03  0.16574893046E+03  0.41800000000E+01 0.  1.
         -5    1    3    3    0  502  0.21788119848E+02  0.23498527058E+01  0.19548270272E+02  0.29662286575E+02  0.41800000000E+01 0.  1.
        -11    1    4    4    0    0 -0.56762848332E+01  0.24488879930E+02  0.22879432144E+02  0.33991085081E+02  0.00000000000E+00 0.  1.
         11    1    4    4    0    0 -0.14748381910E+02  0.69622486877E+02 -0.94087222940E+02  0.11797122941E+03  0.00000000000E+00 0. -1.
</event>
<event>
 8    1  0.7048627E-009  0.9066514E+02  0.7561462E-02  0.1301249E+00
          1   -1    0    0  501    0  0.00000000000E+00  0.00000000000E+00  0.14244974144E+03  0.14244974144E+03  0.00000000000E+00 0. -1.
         -1   -1    0    0    0  501 -0.00000000000E+00 -0.00000000000E+00 -0.12793670297E+03  0.12793670297E+03  0.00000000000E+00 0.  1.
         25    2    1    2    0    0 -0.85079692732E+01  0.76570708951E+02  0.25625259334E+02  0.14912329137E+03  0.12508254516E+03 0.  0.
         23    2    1    2    0    0  0.85079692732E+01 -0.76570708951E+02 -0.11112220862E+02  0.12126315303E+03  0.92982857673E+02 0.  0.
          5    1    3    3  502    0 -0.80944118345E+01  0.89687509941E+02  0.62543080528E+02  0.10971999938E+03  0.41800000000E+01 0.  1.
         -5    1    3    3    0  502 -0.41355743874E+00 -0.13116800990E+02 -0.36917821194E+02  0.39403291990E+02  0.41800000000E+01 0.  1.
        -11    1    4    4    0    0  0.99164876742E+01 -0.64968819434E+02 -0.48765775452E+02  0.81837553005E+02  0.00000000000E+00 0.  1.
         11    1    4    4    0    0 -0.14085184010E+01 -0.11601889517E+02  0.37653554590E+02  0.39425600030E+02  0.00000000000E+00 0. -1.
</event>
<event>
 8    1  0.7048627E-009  0.8764143E+02  0.7561462E-02  0.1308666E+00
         -2   -1    0    0    0  501 -0.00000000000E+00  0.00000000000E+00  0.11270393066E+03  0.11270393066E+03  0.00000000000E+00 0.  1.
          2   -1    0    0  501    0  0.00000000000E+00 -0.00000000000E+00 -0.18339289629E+03  0.18339289629E+03  0.00000000000E+00 0. -1.
         25    2    1    2    0    0  0.34775898555E+02  0.18070726455E+01 -0.12827016098E+03  0.18251991459E+03  0.12509059274E+03 0.  0.
         23    2    1    2    0    0 -0.34775898555E+02 -0.18070726455E+01  0.57581195345E+02  0.11357691237E+03  0.91495859651E+02 0.  0.
          5    1    3    3  502    0  0.55923865250E+02  0.25609280926E+01 -0.38787528889E+01  0.56272143919E+02  0.41800000000E+01 0. -1.
         -5    1    3    3    0  502 -0.21147966695E+02 -0.75385544719E+00 -0.12439140809E+03  0.12624777067E+03  0.41800000000E+01 0. -1.
        -11    1    4    4    0    0  0.12635139906E+02 -0.36630516582E+02  0.18385688489E+02  0.42889101724E+02  0.00000000000E+00 0. -1.
         11    1    4    4    0    0 -0.47411038461E+02  0.34823443936E+02  0.39195506856E+02  0.70687810641E+02  0.00000000000E+00 0.  1.
</event>
<event>
 8    1  0.7048627E-009  0.8894651E+02  0.7561462E-02  0.1305423E+00
          1   -1    0    0  501    0  0.00000000000E+00  0.00000000000E+00  0.28463241900E+03  0.28463241900E+03  0.00000000000E+00 0. -1.
         -1   -1    0    0    0  501 -0.00000000000E+00 -0.00000000000E+00 -0.58632741353E+02  0.58632741353E+02  0.00000000000E+00 0.  1.
         25    2    1    2    0    0 -0.13425178799E+02  0.30379836537E+02  0.44861080045E+02  0.13697426079E+03  0.12508501798E+03 0.  0.
         23    2    1    2    0    0  0.13425178799E+02 -0.30379836537E+02  0.18113859761E+03  0.20629089957E+03  0.92960065662E+02 0.  0.
          5    1    3    3  502    0 -0.51097848368E+02 -0.40916401718E+00  0.66158292403E+02  0.83699161147E+02  0.41800000000E+01 0.  1.
         -5    1    3    3    0  502  0.37672669569E+02  0.30789000554E+02 -0.21297212358E+02  0.53275099642E+02  0.41800000000E+01 0.  1.
        -11    1    4    4    0    0 -0.26645089763E+02  0.13482489093E+01  0.13443137108E+03  0.13705317258E+03  0.00000000000E+00 0. -1.
         11    1    4    4    0    0  0.40070268561E+02 -0.31728085446E+02  0.46707226524E+02  0.69237726986E+02  0.00000000000E+00 0.  1.
</event>
<event>
 8    1  0.7048627E-009  0.1316688E+03  0.7561462E-02  0.1225000E+00
         -1   -1    0    0    0  501 -0.00000000000E+00  0.00000000000E+00  0.16132868807E+03  0.16132868807E+03  0.00000000000E+00 0.  1.
          1   -1    0    0  501    0  0.00000000000E+00 -0.00000000000E+00 -0.24930489478E+03  0.24930489478E+03  0.00000000000E+00 0. -1.
         25    2    1    2    0    0  0.86437552579E+02  0.66541541137E+02  0.85601815587E+02  0.18674972374E+03  0.12509420967E+03 0.  0.
         23    2    1    2    0    0 -0.86437552579E+02 -0.66541541137E+02 -0.17357802230E+03  0.22388385910E+03  0.89974581687E+02 0.  0.
          5    1    3    3  502    0  0.62929945850E+01  0.73026471444E+02  0.62143568679E+01  0.73678748250E+02  0.41800000000E+01 0. -1.
         -5    1    3    3    0  502  0.80144557994E+02 -0.64849303069E+01  0.79387458719E+02  0.11307097549E+03  0.41800000000E+01 0. -1.
        -11    1    4    4    0    0 -0.16038618016E+02 -0.16667094850E+02 -0.12025623555E+03  0.12246057124E+03  0.00000000000E+00 0. -1.
         11    1    4    4    0    0 -0.70398934563E+02 -0.49874446286E+02 -0.53321786746E+02  0.10142328787E+03  0.00000000000E+00 0.  1.
</event>
<event>
 8    1  0.7048627E-009  0.1512045E+03  0.7561462E-02  0.1199001E+00
         -2   -1    0    0    0  501 -0.00000000000E+00  0.00000000000E+00  0.24390590474E+02  0.24390590474E+02  0.00000000000E+00 0.  1.
          2   -1    0    0  501    0  0.00000000000E+00 -0.00000000000E+00 -0.10673158638E+04  0.10673158638E+04  0.00000000000E+00 0. -1.
         25    2    1    2    0    0 -0.11285402122E+03 -0.96226296926E+01 -0.68350471082E+03  0.70402806654E+03  0.12509278021E+03 0.  0.
         23    2    1    2    0    0  0.11285402122E+03  0.96226296926E+01 -0.35942056252E+03  0.38767838774E+03  0.91009705262E+02 0.  0.
          5    1    3    3  502    0 -0.13370801633E+03 -0.17103767947E+02 -0.45923374122E+03  0.47862665406E+03  0.41800000000E+01 0. -1.
         -5    1    3    3    0  502  0.20853995107E+02  0.74811382541E+01 -0.22427096960E+03  0.22540141248E+03  0.41800000000E+01 0. -1.
        -11    1    4    4    0    0  0.41734408498E+02 -0.40372718838E+02 -0.13193750708E+03  0.14415000192E+03  0.00000000000E+00 0. -1.
         11    1    4    4    0    0  0.71119612727E+02  0.49995348531E+02 -0.22748305544E+03  0.24352838582E+03  0.00000000000E+00 0.  1.
</event>
<event>
 8    1  0.7048627E-009  0.1306773E+03  0.7561462E-02  0.1226454E+00
          1   -1    0    0  501    0  0.00000000000E+00  0.00000000000E+00  0.90404115285E+03  0.90404115285E+03  0.00000000000E+00 0. -1.
         -1   -1    0    0    0  501 -0.00000000000E+00 -0.00000000000E+00 -0.21934388160E+02  0.21934388160E+02  0.00000000000E+00 0.  1.
         25    2    1    2    0    0  0.30009943025E+02  0.75562324890E+02  0.61846391746E+03  0.63620269202E+03  0.12508391786E+03 0.  0.
         23    2    1    2    0    0 -0.30009943025E+02 -0.75562324890E+02  0.26364284724E+03  0.28977284900E+03  0.88602999357E+02 0.  0.
          5    1    3    3  502    0  0.73054382322E+02  0.15527521743E+02  0.33396985608E+03  0.34224462579E+03  0.41800000000E+01 0.  1.
         -5    1    3    3    0  502 -0.43044439296E+02  0.60034803146E+02  0.28449406138E+03  0.29395806623E+03  0.41800000000E+01 0.  1.
        -11    1    4    4    0    0 -0.47109887778E+02 -0.81769953603E+02  0.17053765481E+03  0.19490705104E+03  0.00000000000E+00 0.  1.
         11    1    4    4    0    0  0.17099944753E+02  0.62076287129E+01  0.93105192429E+02  0.94865797957E+02  0.00000000000E+00 0. -1.
</event>
<event>
 8    1  0.7048627E-009  0.1186188E+03  0.7561462E-02  0.1245393E+00
         -2   -1    0    0    0  501 -0.00000000000E+00  0.00000000000E+00  0.34279101388E+02  0.34279101388E+02  0.00000000000E+00 0.  1.
          2   -1    0    0  501    0  0.00000000000E+00 -0.00000000000E+00 -0.48971685007E+03  0.48971685007E+03  0.00000000000E+00 0. -1.
         25    2    1    2    0    0 -0.37525025064E+02 -0.54583686871E+02 -0.30015699027E+03  0.33186380586E+03  0.12510739568E+03 0.  0.
         23    2    1    2    0    0  0.37525025064E+02  0.54583686871E+02 -0.15528075841E+03  0.19213214560E+03  0.91734077969E+02 0.  0.
          5    1    3    3  502    0 -0.78157073929E+02 -0.56958981439E+02 -0.24300588191E+03  0.26157634605E+03  0.41800000000E+01 0.  1.
         -5    1    3    3    0  502  0.40632048865E+02  0.23752945678E+01 -0.57151108362E+02  0.70287459808E+02  0.41800000000E+01 0.  1.
        -11    1    4    4    0    0  0.41807338574E+02  0.71088271276E+02 -0.79831185276E+02  0.11477985021E+03  0.00000000000E+00 0.  1.
         11    1    4    4    0    0 -0.42823135104E+01 -0.16504584405E+02 -0.75449573138E+02  0.77352295390E+02  0.00000000000E+00 0. -1.
</event>
<event>
 8    1  0.7048627E-009  0.1290616E+03  0.7561462E-02  0.1228855E+00
          2   -1    0    0  501    0  0.00000000000E+00  0.00000000000E+00  0.66536156419E+03  0.66536156419E+03  0.00000000000E+00 0. -1.
         -2   -1    0    0    0  501 -0.00000000000E+00 -0.00000000000E+00 -0.30706929934E+02  0.30706929934E+02  0.00000000000E+00 0.  1.
         25    2    1    2    0    0 -0.49634451098E+02  0.63859674974E+02  0.45176905904E+03  0.47569339151E+03  0.12508910103E+03 0.  0.
         23    2    1    2    0    0  0.49634451098E+02 -0.63859674974E+02  0.18288557521E+03  0.22037510261E+03  0.92608938046E+02 0.  0.
          5    1    3    3  502    0  0.15974999251E+02 -0.26375094048E+02  0.16597136333E+03  0.16886329391E+03  0.41800000000E+01 0. -1.
         -5    1    3    3    0  502 -0.65609450349E+02  0.90234769022E+02  0.28579769571E+03  0.30683009760E+03  0.41800000000E+01 0. -1.
        -11    1    4    4    0    0 -0.22353213537E+02 -0.25069741318E+02  0.22745825075E+02  0.40565140743E+02  0.00000000000E+00 0.  1.
         11    1    4    4    0    0  0.71987664634E+02 -0.38789933656E+02  0.16013975014E+03  0.17980996187E+03  0.00000000000E+00 0. -1.
</event>
<event>
 8    1  0.7048627E-009  0.2963238E+03  0.7561462E-02  0.1087093E+00
         -1   -1    0    0    0  501 -0.00000000000E+00  0.00000000000E+00  0.20675086305E+03  0.20675086305E+03  0.00000000000E+00 0.  1.
          1   -1    0    0  501    0  0.00000000000E+00 -0.00000000000E+00 -0.49392313279E+03  0.49392313279E+03  0.00000000000E+00 0. -1.
         25    2    1    2    0    0  0.17707224605E+01 -0.29070665933E+03 -0.22848192688E+03  0.39033812171E+03  0.12508541527E+03 0.  0.
         23    2    1    2    0    0 -0.17707224605E+01  0.29070665933E+03 -0.58690342863E+02  0.31033587413E+03  0.91379982430E+02 0.  0.
          5    1    3    3  502    0  0.88056463946E+01 -0.18522588871E+03 -0.21457521860E+03  0.28363033352E+03  0.41800000000E+01 0. -1.
         -5    1    3    3    0  502 -0.70349239342E+01 -0.10548077062E+03 -0.13906708278E+02  0.10670778819E+03  0.41800000000E+01 0. -1.
        -11    1    4    4    0    0 -0.36328143161E+02  0.80209253576E+02 -0.38387923152E+02  0.96056707151E+02  0.00000000000E+00 0. -1.
         11    1    4    4    0    0  0.34557420700E+02  0.21049740575E+03 -0.20302419711E+02  0.21427916698E+03  0.00000000000E+00 0.  1.
</event>
<event>
 8    1  0.7048627E-009  0.1915481E+03  0.7561462E-02  0.1157072E+00
         -2   -1    0    0    0  501 -0.00000000000E+00  0.00000000000E+00  0.44443519768E+02  0.44443519768E+02  0.00000000000E+00 0.  1.
          2   -1    0    0  501    0  0.00000000000E+00 -0.00000000000E+00 -0.99813773165E+03  0.99813773165E+03  0.00000000000E+00 0. -1.
         25    2    1    2    0    0 -0.17679561903E+03  0.12852296175E+02 -0.58095743939E+03  0.62014644003E+03  0.12509271873E+03 0.  0.
         23    2    1    2    0    0  0.17679561903E+03 -0.12852296175E+02 -0.37273677249E+03  0.42243481139E+03  0.89981086208E+02 0.  0.
          5    1    3    3  502    0 -0.44469291847E+02 -0.18559563154E+02 -0.34001313859E+03  0.34343613979E+03  0.41800000000E+01 0. -1.
         -5    1    3    3    0  502 -0.13232632718E+03  0.31411859329E+02 -0.24094430080E+03  0.27671030024E+03  0.41800000000E+01 0. -1.
        -11    1    4    4    0    0  0.45208108157E+02 -0.44377686504E+02 -0.11177833941E+03  0.12848170790E+03  0.00000000000E+00 0.  1.
         11    1    4    4    0    0  0.13158751087E+03  0.31525390329E+02 -0.26095843308E+03  0.29395310349E+03  0.00000000000E+00 0. -1.
</event>
<event>
 8    1  0.7048627E-009  0.1478591E+03  0.7561462E-02  0.1203129E+00
         -2   -1    0    0    0  501 -0.00000000000E+00  0.00000000000E+00  0.32198140187E+02  0.32198140187E+02  0.00000000000E+00 0.  1.
          2   -1    0    0  501    0  0.00000000000E+00 -0.00000000000E+00 -0.82721272346E+03  0.82721272346E+03  0.00000000000E+00 0. -1.
         25    2    1    2    0    0  0.93787743605E+01 -0.12118231253E+03 -0.44667713061E+03  0.47952231369E+03  0.12509227012E+03 0.  0.
         23    2    1    2    0    0 -0.93787743605E+01  0.12118231253E+03 -0.34833745267E+03  0.37988854996E+03  0.90571602495E+02 0.  0.
          5    1    3    3  502    0  0.20906107201E+02 -0.14501151344E+03 -0.35671115438E+03  0.38564974317E+03  0.41800000000E+01 0.  1.
         -5    1    3    3    0  502 -0.11527332840E+02  0.23829200909E+02 -0.89965976227E+02  0.93872570524E+02  0.41800000000E+01 0.  1.
        -11    1    4    4    0    0 -0.13105979288E+02  0.91625302421E+02 -0.33444683864E+03  0.34701822807E+03  0.00000000000E+00 0. -1.
         11    1    4    4    0    0  0.37272049274E+01  0.29557010106E+02 -0.13890614033E+02  0.32870321890E+02  0.00000000000E+00 0.  1.
</event>
<event>
 8    1  0.7048627E-009  0.1145523E+03  0.7561462E-02  0.1252365E+00
         -2   -1    0    0    0  501 -0.00000000000E+00  0.00000000000E+00  0.90825485525E+02  0.90825485525E+02  0.00000000000E+00 0. -1.
          2   -1    0    0  501    0  0.00000000000E+00 -0.00000000000E+00 -0.18443015892E+03  0.18443015892E+03  0.00000000000E+00 0.  1.
         25    2    1    2    0    0  0.29513085976E+02  0.43867716496E+02 -0.10008557960E+03  0.16870035933E+03  0.12508912503E+03 0.  0.
         23    2    1    2    0    0 -0.29513085976E+02 -0.43867716496E+02  0.64809061980E+01  0.10655528512E+03  0.92285577675E+02 0.  0.
          5    1    3    3  502    0  0.47470263622E+02 -0.24701323075E+02 -0.11019219258E+02  0.54794861831E+02  0.41800000000E+01 0.  1.
         -5    1    3    3    0  502 -0.17957177646E+02  0.68569039571E+02 -0.89066360338E+02  0.11390549750E+03  0.41800000000E+01 0.  1.
        -11    1    4    4    0    0  0.32590518648E+02 -0.17005730579E+02  0.11992172082E+02  0.38667156212E+02  0.00000000000E+00 0.  1.
         11    1    4    4    0    0 -0.62103604624E+02 -0.26861985917E+02 -0.55112658843E+01  0.67888128905E+02  0.00000000000E+00 0. -1.
</event>
<event>
 8    1  0.7048627E-009  0.1003260E+03  0.7561462E-02  0.1279612E+00
         -3   -1    0    0    0  501 -0.00000000000E+00  0.00000000000E+00  0.46686004476E+02  0.46686004476E+02  0.00000000000E+00 0.  1.
          3   -1    0    0  501    0  0.00000000000E+00 -0.00000000000E+00 -0.39395915856E+03  0.39395915856E+03  0.00000000000E+00 0. -1.
         25    2    1    2    0    0  0.16612922570E+02  0.78808872464E+02 -0.16682236093E+03  0.22352721695E+03  0.12509152265E+03 0.  0.
         23    2    1    2    0    0 -0.16612922570E+02 -0.78808872464E+02 -0.18045079316E+03  0.21711794608E+03  0.89949353439E+02 0.  0.
          5    1    3    3  502    0  0.27196879004E+02  0.30523572636E+02 -0.16894735693E+03  0.17387363379E+03  0.41800000000E+01 0. -1.
         -5    1    3    3    0  502 -0.10583956433E+02  0.48285299829E+02  0.21249960001E+01  0.49653583167E+02  0.41800000000E+01 0. -1.
        -11    1    4    4    0    0 -0.46240215654E+02 -0.40123331202E+02 -0.54110674038E+02  0.81706819148E+02  0.00000000000E+00 0.  1.
         11    1    4    4    0    0  0.29627293084E+02 -0.38685541263E+02 -0.12634011912E+03  0.13541112693E+03  0.00000000000E+00 0. -1.
</event>
<event>
 8    1  0.7048627E-009  0.1361111E+03  0.7561462E-02  0.1218660E+00
         -1   -1    0    0    0  501 -0.00000000000E+00  0.00000000000E+00  0.93867232956E+02  0.93867232956E+02  0.00000000000E+00 0.  1.
          1   -1    0    0  501    0  0.00000000000E+00 -0.00000000000E+00 -0.30130404423E+03  0.30130404423E+03  0.00000000000E+00 0. -1.
         25    2    1    2    0    0  0.11974297150E+03  0.42559028965E+02 -0.12333040256E+03  0.21681276184E+03  0.12509090827E+03 0.  0.
         23    2    1    2    0    0 -0.11974297150E+03 -0.42559028965E+02 -0.84106408709E+02  0.17835851534E+03  0.92672659615E+02 0.  0.
          5    1    3    3  502    0  0.19990783519E+02  0.26748101082E+02  0.21691107612E+02  0.40038342706E+02  0.41800000000E+01 0.  1.
         -5    1    3    3    0  502  0.99752187977E+02  0.15810927883E+02 -0.14502151017E+03  0.17677441913E+03  0.41800000000E+01 0.  1.
        -11    1    4    4    0    0 -0.10129645328E+03 -0.54971079049E+02 -0.28865028529E+02  0.11881069334E+03  0.00000000000E+00 0.  1.
         11    1    4    4    0    0 -0.18446518216E+02  0.12412050084E+02 -0.55241380180E+02  0.59547822007E+02  0.00000000000E+00 0. -1.
</event>
<event>
 8    1  0.7048627E-009  0.1016805E+03  0.7561462E-02  0.1276801E+00
         -1   -1    0    0    0  501 -0.00000000000E+00  0.00000000000E+00  0.26536781609E+03  0.26536781609E+03  0.00000000000E+00 0.  1.
          1   -1    0    0  501    0  0.00000000000E+00 -0.00000000000E+00 -0.58849334382E+02  0.58849334382E+02  0.00000000000E+00 0. -1.
         25    2    1    2    0    0 -0.12309441385E+02  0.63540092402E+01  0.37554864343E+02  0.13133976653E+03  0.12509144917E+03 0.  0.
         23    2    1    2    0    0  0.12309441385E+02 -0.63540092402E+01  0.16896361736E+03  0.19287738394E+03  0.91984158765E+02 0.  0.
          5    1    3    3  502    0 -0.11540663444E+01  0.64070412363E+02  0.33081695367E+02  0.72237252009E+02  0.41800000000E+01 0. -1.
         -5    1    3    3    0  502 -0.11155375041E+02 -0.57716403122E+02  0.44731689755E+01  0.59102514518E+02  0.41800000000E+01 0. -1.
        -11    1    4    4    0    0  0.42761167911E+02  0.12306245014E+02  0.13998000416E+03  0.14688213884E+03  0.00000000000E+00 0.  1.
         11    1    4    4    0    0 -0.30451726526E+02 -0.18660254255E+02  0.28983613207E+02  0.45995245100E+02  0.00000000000E+00 0. -1.
</event>
<event>
 8    1  0.7048627E-009  0.8186615E+02  0.7561462E-02  0.1323837E+00
          2   -1    0    0  501    0  0.00000000000E+00  0.00000000000E+00  0.91201782665E+02  0.91201782665E+02  0.00000000000E+00 0. -1.
         -2   -1    0    0    0  501 -0.00000000000E+00 -0.00000000000E+00 -0.13297650894E+03  0.13297650894E+03  0.00000000000E+00 0.  1.
         25    2    1    2    0    0 -0.85327525639E+00 -0.19661460253E+02 -0.19817260886E+02  0.12816782531E+03  0.12508783521E+03 0.  0.
         23    2    1    2    0    0  0.85327525639E+00  0.19661460253E+02 -0.21957465393E+02  0.96010466296E+02  0.91370554633E+02 0.  0.
          5    1    3    3  502    0  0.49542150041E+02 -0.45936800108E+02 -0.21890610515E+02  0.71142711950E+02  0.41800000000E+01 0.  1.
         -5    1    3    3    0  502 -0.50395425297E+02  0.26275339856E+02  0.20733496298E+01  0.57025113363E+02  0.41800000000E+01 0.  1.
        -11    1    4    4    0    0 -0.16434684919E+02  0.88957271954E+01 -0.54503080728E+02  0.57617867364E+02  0.00000000000E+00 0.  1.
         11    1    4    4    0    0  0.17287960175E+02  0.10765733057E+02  0.32545615334E+02  0.38392598932E+02  0.00000000000E+00 0. -1.
</event>
<event>
 8    1  0.7048627E-009  0.9380426E+02  0.7561462E-02  0.1293892E+00
         -2   -1    0    0    0  501 -0.00000000000E+00  0.00000000000E+00  0.15093509471E+02  0.15093509471E+02  0.00000000000E+00 0.  1.
          2   -1    0    0  501    0  0.00000000000E+00 -0.00000000000E+00 -0.15060246721E+04  0.15060246721E+04  0.00000000000E+00 0. -1.
         25    2    1    2    0    0  0.49297296562E+02  0.25848580721E+01 -0.12726364774E+04  0.12797217427E+04  0.12508888912E+03 0.  0.
         23    2    1    2    0    0 -0.49297296562E+02 -0.25848580721E+01 -0.21829468522E+03  0.24139643887E+03  0.90458643382E+02 0.  0.
          5    1    3    3  502    0  0.73241888641E+02  0.15323910469E+02 -0.41936012634E+03  0.42600420707E+03  0.41800000000E+01 0. -1.
         -5    1    3    3    0  502 -0.23944592079E+02 -0.12739052397E+02 -0.85327635108E+03  0.85371753564E+03  0.41800000000E+01 0. -1.
        -11    1    4    4    0    0 -0.13139952801E+01 -0.29953013186E+02 -0.15281529614E+03  0.15572868817E+03  0.00000000000E+00 0. -1.
         11    1    4    4    0    0 -0.47983301282E+02  0.27368155113E+02 -0.65479389077E+02  0.85667750701E+02  0.00000000000E+00 0.  1.
</event>
<event>
 8    1  0.7048627E-009  0.1236749E+03  0.7561462E-02  0.1237155E+00
          1   -1    0    0  501    0  0.00000000000E+00  0.00000000000E+00  0.11173232891E+03  0.11173232891E+03  0.00000000000E+00 0. -1.
         -1   -1    0    0    0  501 -0.00000000000E+00 -0.00000000000E+00 -0.21595323713E+03  0.21595323713E+03  0.00000000000E+00 0.  1.
         25    2    1    2    0    0 -0.10469331233E+03  0.29902216471E+02 -0.55357938724E+02  0.17483028689E+03  0.12508515354E+03 0.  0.
         23    2    1    2    0    0  0.10469331233E+03 -0.29902216471E+02 -0.48862969492E+02  0.15285527915E+03  0.95510807662E+02 0.  0.
          5    1    3    3  502    0 -0.99246742204E+02  0.53025899541E+02  0.19864530704E+01  0.11261918245E+03  0.41800000000E+01 0.  1.
         -5    1    3    3    0  502 -0.54465701264E+01 -0.23123683070E+02 -0.57344391794E+02  0.62211104436E+02  0.41800000000E+01 0.  1.
        -11    1    4    4    0    0  0.56320136515E+02 -0.26188503702E+02 -0.75294716662E+02  0.97606812572E+02  0.00000000000E+00 0.  1.
         11    1    4    4    0    0  0.48373175815E+02 -0.37137127688E+01  0.26431747169E+02  0.55248466580E+02  0.00000000000E+00 0. -1.
</event>
<event>
 8    1  0.7048627E-009  0.1297137E+03  0.7561462E-02  0.1227881E+00
          2   -1    0    0  501    0  0.00000000000E+00  0.00000000000E+00  0.22177270139E+04  0.22177270139E+04  0.00000000000E+00 0. -1.
         -2   -1    0    0    0  501 -0.00000000000E+00 -0.00000000000E+00 -0.10495014862E+02  0.10495014862E+02  0.00000000000E+00 0.  1.
         25    2    1    2    0    0 -0.58820235261E+02 -0.56673313114E+02  0.17525567470E+04  0.17589124614E+04  0.12508481514E+03 0.  0.
         23    2    1    2    0    0  0.58820235261E+02  0.56673313114E+02  0.45467525206E+03  0.46930956737E+03  0.82765939201E+02 0.  0.
          5    1    3    3  502    0 -0.95302291765E+02 -0.52432089627E+02  0.11202615947E+04  0.11255377221E+04  0.41800000000E+01 0. -1.
         -5    1    3    3    0  502  0.36482056505E+02 -0.42412234868E+01  0.63229515222E+03  0.63337473927E+03  0.41800000000E+01 0. -1.
        -11    1    4    4    0    0  0.68958229840E+02  0.14803567405E+02  0.23114297034E+03  0.24166393155E+03  0.00000000000E+00 0.  1.
         11    1    4    4    0    0 -0.10137994579E+02  0.41869745708E+02  0.22353228172E+03  0.22764563582E+03  0.00000000000E+00 0. -1.
</event>
<event>
 8    1  0.7048627E-009  0.1090399E+03  0.7561462E-02  0.1262358E+00
         -1   -1    0    0    0  501 -0.00000000000E+00  0.00000000000E+00  0.30860805317E+02  0.30860805317E+02  0.00000000000E+00 0.  1.
          1   -1    0    0  501    0  0.00000000000E+00 -0.00000000000E+00 -0.46675069657E+03  0.46675069657E+03  0.00000000000E+00 0. -1.
         25    2    1    2    0    0 -0.37099939251E+02  0.29373389227E+02 -0.28487442000E+03  0.31470546185E+03  0.12508753359E+03 0.  0.
         23    2    1    2    0    0  0.37099939251E+02 -0.29373389227E+02 -0.15101547126E+03  0.18290604004E+03  0.91704664205E+02 0.  0.
          5    1    3    3  502    0 -0.18492042611E+02  0.69294224471E+02 -0.91492412343E+02  0.11632703513E+03  0.41800000000E+01 0. -1.
         -5    1    3    3    0  502 -0.18607896640E+02 -0.39920835244E+02 -0.19338200766E+03  0.19837842672E+03  0.41800000000E+01 0. -1.
        -11    1    4    4    0    0  0.29927633888E+02  0.29891869265E+02 -0.76616215502E+02  0.87517036034E+02  0.00000000000E+00 0. -1.
         11    1    4    4    0    0  0.71723053633E+01 -0.59265258492E+02 -0.74399255754E+02  0.95389004005E+02  0.00000000000E+00 0.  1.
</event>
<event>
 8    1  0.7048627E-009  0.1364124E+03  0.7561462E-02  0.1218240E+00
         -2   -1    0    0    0  501 -0.00000000000E+00  0.00000000000E+00  0.53956909651E+02  0.53956909651E+02  0.00000000000E+00 0.  1.
          2   -1    0    0  501    0  0.00000000000E+00 -0.00000000000E+00 -0.60599806373E+03  0.60599806373E+03  0.00000000000E+00 0. -1.
         25    2    1    2    0    0  0.83300502069E+02 -0.62487743495E+02 -0.10943361572E+03  0.19612555793E+03  0.12508327822E+03 0.  0.
         23    2    1    2    0    0 -0.83300502069E+02  0.62487743495E+02 -0.44260753836E+03  0.46382941545E+03  0.91611145032E+02 0.  0.
          5    1    3    3  502    0 -0.27586701387E+02  0.69938297930E+01 -0.35769373073E+02  0.45900546823E+02  0.41800000000E+01 0. -1.
         -5    1    3    3    0  502  0.11088720346E+03 -0.69481573288E+02 -0.73664242647E+02  0.15022501111E+03  0.41800000000E+01 0. -1.
        -11    1    4    4    0    0 -0.32291078779E+02 -0.23214959392E+00 -0.32446879741E+02  0.45777370688E+02  0.00000000000E+00 0.  1.
         11    1    4    4    0    0 -0.51009423289E+02  0.62719893089E+02 -0.41016065861E+03  0.41805204476E+03  0.00000000000E+00 0. -1.
</event>
<event>
 8    1  0.7048627E-009  0.8769024E+02  0.7561462E-02  0.1308543E+00
          1   -1    0    0  501    0  0.00000000000E+00  0.00000000000E+00  0.31273071250E+03  0.31273071250E+03  0.00000000000E+00 0. -1.
         -1   -1    0    0    0  501 -0.00000000000E+00 -0.00000000000E+00 -0.43412258764E+02  0.43412258764E+02  0.00000000000E+00 0.  1.
         25    2    1    2    0    0  0.45240511148E+02  0.11128027126E+02  0.16302148107E+03  0.21069452359E+03  0.12508254131E+03 0.  0.
         23    2    1    2    0    0 -0.45240511148E+02 -0.11128027126E+02  0.10629697267E+03  0.14544844768E+03  0.87667939970E+02 0.  0.
          5    1    3    3  502    0  0.86495688929E+02  0.65291162412E+01  0.13470564159E+03  0.16027231776E+03  0.41800000000E+01 0.  1.
         -5    1    3    3    0  502 -0.41255177781E+02  0.45989108844E+01  0.28315839479E+02  0.50422205827E+02  0.41800000000E+01 0.  1.
        -11    1    4    4    0    0 -0.20048411017E+02 -0.25756214653E+01 -0.12461996572E+02  0.23746030590E+02  0.00000000000E+00 0.  1.
         11    1    4    4    0    0 -0.25192100132E+02 -0.85524056603E+01  0.11875896924E+03  0.12170241709E+03  0.00000000000E+00 0. -1.
</event>
<event>
 8    1  0.7048627E-009  0.1122649E+03  0.7561462E-02  0.1256432E+00
          2   -1    0    0  501    0  0.00000000000E+00  0.00000000000E+00  0.31651052531E+02  0.31651052531E+02  0.00000000000E+00 0. -1.
         -2   -1    0    0    0  501 -0.00000000000E+00 -0.00000000000E+00 -0.61958566346E+03  0.61958566346E+03  0.00000000000E+00 0.  1.
         25    2    1    2    0    0  0.57078709008E+02  0.62098197244E+02 -0.27282959706E+03  0.31176527638E+03  0.12508970142E+03 0.  0.
         23    2    1    2    0    0 -0.57078709008E+02 -0.62098197244E+02 -0.31510501387E+03  0.33947143961E+03  0.93997464979E+02 0.  0.
          5    1    3    3  502    0 -0.19922734793E+02  0.75277670350E+01  0.13709504193E+01  0.21747058266E+02  0.41800000000E+01 0. -1.
         -5    1    3    3    0  502  0.77001443802E+02  0.54570430209E+02 -0.27420054748E+03  0.29001821812E+03  0.41800000000E+01 0. -1.
        -11    1    4    4    0    0 -0.42488661226E+02  0.20805452364E+01 -0.21833552141E+03  0.22244103693E+03  0.00000000000E+00 0.  1.
         11    1    4    4    0    0 -0.14590047783E+02 -0.64178742480E+02 -0.96769492460E+02  0.11703040268E+03  0.00000000000E+00 0. -1.
</event>
<event>
 8    1  0.7048627E-009  0.9384451E+02  0.7561462E-02  0.1293800E+00
          1   -1    0    0  501    0  0.00000000000E+00  0.00000000000E+00  0.97780063429E+02  0.97780063429E+02  0.00000000000E+00 0. -1.
         -1   -1    0    0    0  501 -0.00000000000E+00 -0.00000000000E+00 -0.12119486307E+03  0.12119486307E+03  0.00000000000E+00 0.  1.
         25    2    1    2    0    0 -0.21870349647E+02 -0.22372794127E+01 -0.83913530061E+01  0.12728273904E+03  0.12508862155E+03 0.  0.
         23    2    1    2    0    0  0.21870349647E+02  0.22372794127E+01 -0.15023446637E+02  0.91692187456E+02  0.87740729874E+02 0.  0.
          5    1    3    3  502    0 -0.57794407806E+02 -0.35881709103E+02  0.19061312203E+02  0.70770732967E+02  0.41800000000E+01 0.  1.
         -5    1    3    3    0  502  0.35924058159E+02  0.33644429690E+02 -0.27452665209E+02  0.56512006077E+02  0.41800000000E+01 0.  1.
        -11    1    4    4    0    0  0.30293785575E+02  0.29087232418E+02  0.20204453436E+02  0.46604725864E+02  0.00000000000E+00 0. -1.
         11    1    4    4    0    0 -0.84234359277E+01 -0.26849953006E+02 -0.35227900073E+02  0.45087461592E+02  0.00000000000E+00 0.  1.
</event>
<event>
 8    1  0.7048627E-009  0.1027245E+03  0.7561462E-02  0.1274669E+00
         -1   -1    0    0    0  501 -0.00000000000E+00  0.00000000000E+00  0.55823141266E+02  0.55823141266E+02  0.00000000000E+00 0.  1.
          1   -1    0    0  501    0  0.00000000000E+00 -0.00000000000E+00 -0.27902463133E+03  0.27902463133E+03  0.00000000000E+00 0. -1.
         25    2    1    2    0    0 -0.28276985515E+02  0.43607430004E+02 -0.82249655453E+02  0.15847465967E+03  0.12509203042E+03 0.  0.
         23    2    1    2    0    0  0.28276985515E+02 -0.43607430004E+02 -0.14095183461E+03  0.17637311292E+03  0.92405949055E+02 0.  0.
          5    1    3    3  502    0 -0.49204234172E+02  0.60419050182E+02 -0.68523839167E+01  0.78332278472E+02  0.41800000000E+01 0. -1.
         -5    1    3    3    0  502  0.20927248657E+02 -0.16811620178E+02 -0.75397271536E+02  0.80142381200E+02  0.41800000000E+01 0. -1.
        -11    1    4    4    0    0  0.48666138603E+02 -0.57686025268E+02 -0.77139919888E+02  0.10791958950E+03  0.00000000000E+00 0.  1.
         11    1    4    4    0    0 -0.20389153089E+02  0.14078595265E+02 -0.63811914723E+02  0.68453523422E+02  0.00000000000E+00 0. -1.
</event>
<event>
 8    1  0.7048627E-009  0.1015351E+03  0.7561462E-02  0.1277101E+00
          2   -1    0    0  501    0  0.00000000000E+00  0.00000000000E+00  0.13425685953E+03  0.13425685953E+03  0.00000000000E+00 0. -1.
         -2   -1    0    0    0  501 -0.00000000000E+00 -0.00000000000E+00 -0.13995930658E+03  0.13995930658E+03  0.00000000000E+00 0.  1.
         25    2    1    2    0    0  0.93364469288E+01 -0.68031973884E+02  0.43251417418E+02  0.14911287049E+03  0.12509374215E+03 0.  0.
         23    2    1    2    0    0 -0.93364469288E+01  0.68031973884E+02 -0.48953864467E+02  0.12510329562E+03  0.92405817011E+02 0.  0.
          5    1    3    3  502    0 -0.11926802879E+02 -0.92063637924E+02  0.62003067644E+02  0.11171309168E+03  0.41800000000E+01 0. -1.
         -5    1    3    3    0  502  0.21263249808E+02  0.24031664040E+02 -0.18751650226E+02  0.37399778811E+02  0.41800000000E+01 0. -1.
        -11    1    4    4    0    0 -0.23422758121E+02  0.46270165992E+02  0.16727112831E+02  0.54491743985E+02  0.00000000000E+00 0. -1.
         11    1    4    4    0    0  0.14086311193E+02  0.21761807892E+02 -0.65680977298E+02  0.70611551637E+02  0.00000000000E+00 0.  1.
</event>
<event>
 8    1  0.7048627E-009  0.8377927E+02  0.7561462E-02  0.1318656E+00
         -1   -1    0    0    0  501 -0.00000000000E+00  0.00000000000E+00  0.38373365969E+03  0.38373365969E+03  0.00000000000E+00 0.  1.
          1   -1    0    0  501    0  0.00000000000E+00 -0.00000000000E+00 -0.41929372244E+02  0.41929372244E+02  0.00000000000E+00 0. -1.
         25    2    1    2    0    0 -0.18822805830E+02 -0.57435382530E+02  0.23474227609E+03  0.27277183584E+03  0.12508963610E+03 0.  0.
         23    2    1    2    0    0  0.18822805830E+02  0.57435382530E+02  0.10706201136E+03  0.15289119609E+03  0.90886315698E+02 0.  0.
          5    1    3    3  502    0 -0.45041878004E+02 -0.44454308707E+02  0.38238664891E+02  0.74058248895E+02  0.41800000000E+01 0.  1.
         -5    1    3    3    0  502  0.26219072175E+02 -0.12981073823E+02  0.19650361120E+03  0.19871358695E+03  0.41800000000E+01 0.  1.
        -11    1    4    4    0    0  0.14982253448E+01  0.57236916247E+02  0.14966702095E+02  0.59180329774E+02  0.00000000000E+00 0. -1.
         11    1    4    4    0    0  0.17324580485E+02  0.19846628313E+00  0.92095309265E+02  0.93710866320E+02  0.00000000000E+00 0.  1.
</event>
<event>
 8    1  0.7048627E-009  0.1059587E+03  0.7561462E-02  0.1268242E+00
         -1   -1    0    0    0  501 -0.00000000000E+00  0.00000000000E+00  0.36919722147E+02  0.36919722147E+02  0.00000000000E+00 0.  1.
          1   -1    0    0  501    0  0.00000000000E+00 -0.00000000000E+00 -0.35849571643E+03  0.35849571643E+03  0.00000000000E+00 0. -1.
         25    2    1    2    0    0 -0.36404268348E+02  0.11085048509E+01 -0.16204568497E+03  0.20792617714E+03  0.12509193253E+03 0.  0.
         23    2    1    2    0    0  0.36404268348E+02 -0.11085048509E+01 -0.15953030931E+03  0.18748926144E+03  0.91519418859E+02 0.  0.
          5    1    3    3  502    0 -0.58832966903E+02  0.43643428102E+02 -0.13214312215E+03  0.15114676293E+03  0.41800000000E+01 0. -1.
         -5    1    3    3    0  502  0.22428698555E+02 -0.42534923251E+02 -0.29902562813E+02  0.56779414207E+02  0.41800000000E+01 0. -1.
        -11    1    4    4    0    0  0.19657616296E+02  0.40722415069E+02 -0.11738104926E+03  0.12578969629E+03  0.00000000000E+00 0. -1.
         11    1    4    4    0    0  0.16746652052E+02 -0.41830919920E+02 -0.42149260049E+02  0.61699565144E+02  0.00000000000E+00 0.  1.
</event>
<event>
 8    1  0.7048627E-009  0.6759173E+02  0.7561462E-02  0.1368479E+00
         -4   -1    0    0    0  501 -0.00000000000E+00  0.00000000000E+00  0.31120620836E+02  0.31120620836E+02  0.00000000000E+00 0.  1.
          4   -1    0    0  501    0  0.00000000000E+00 -0.00000000000E+00 -0.43618433082E+03  0.43618433082E+03  0.00000000000E+00 0. -1.
         25    2    1    2    0    0  0.38701434271E+02  0.10604685170E+02 -0.17994152040E+03  0.22279335938E+03  0.12509064656E+03 0.  0.
         23    2    1    2    0    0 -0.38701434271E+02 -0.10604685170E+02 -0.22512218958E+03  0.24451159228E+03  0.86577469091E+02 0.  0.
          5    1    3    3  502    0  0.17579991685E+02  0.14469619374E+02  0.14374896380E+02  0.27249514462E+02  0.41800000000E+01 0. -1.
         -5    1    3    3    0  502  0.21121442586E+02 -0.38649342033E+01 -0.19431641678E+03  0.19554384492E+03  0.41800000000E+01 0. -1.
        -11    1    4    4    0    0 -0.54269022767E+02  0.18347472190E+02 -0.10105151469E+03  0.11616008432E+03  0.00000000000E+00 0.  1.
         11    1    4    4    0    0  0.15567588496E+02 -0.28952157361E+02 -0.12407067488E+03  0.12835150795E+03  0.00000000000E+00 0. -1.
</event>
<event>
 8    1  0.7048627E-009  0.1476995E+03  0.7561462E-02  0.1203329E+00
         -2   -1    0    0    0  501 -0.00000000000E+00  0.00000000000E+00  0.55151973318E+02  0.55151973318E+02  0.00000000000E+00 0.  1.
          2   -1    0    0  501    0  0.00000000000E+00 -0.00000000000E+00 -0.59096669139E+03  0.59096669139E+03  0.00000000000E+00 0. -1.
         25    2    1    2    0    0  0.12748500151E+03 -0.30960282726E+02 -0.38970480531E+03  0.42980064103E+03  0.12509113093E+03 0.  0.
         23    2    1    2    0    0 -0.12748500151E+03  0.30960282726E+02 -0.14610991276E+03  0.21631802367E+03  0.90743683205E+02 0.  0.
          5    1    3    3  502    0  0.10347655294E+03  0.53594576787E+01 -0.36526006465E+03  0.37969528312E+03  0.41800000000E+01 0.  1.
         -5    1    3    3    0  502  0.24008448575E+02 -0.36319740404E+02 -0.24444740658E+02  0.50105357916E+02  0.41800000000E+01 0.  1.
        -11    1    4    4    0    0 -0.40004727765E+02 -0.22044149223E+02 -0.86791614562E+02  0.98077046840E+02  0.00000000000E+00 0. -1.
         11    1    4    4    0    0 -0.87480273745E+02  0.53004431949E+02 -0.59318298197E+02  0.11824097683E+03  0.00000000000E+00 0.  1.
</event>
<event>
 8    1  0.7048627E-009  0.1186246E+03  0.7561462E-02  0.1245383E+00
         -1   -1    0    0    0  501 -0.00000000000E+00  0.00000000000E+00  0.11840790789E+02  0.11840790789E+02  0.00000000000E+00 0.  1.
          1   -1    0    0  501    0  0.00000000000E+00 -0.00000000000E+00 -0.19781885085E+04  0.19781885085E+04  0.00000000000E+00 0. -1.
         25    2    1    2    0    0 -0.50904411861E+02 -0.35574683281E+02 -0.16360312605E+04  0.16419812840E+04  0.12508970511E+03 0.  0.
         23    2    1    2    0    0  0.50904411861E+02  0.35574683281E+02 -0.33031645719E+03  0.34804801530E+03  0.90397133958E+02 0.  0.
          5    1    3    3  502    0 -0.59839027781E+02  0.25988336261E+02 -0.50218506603E+03  0.50642217153E+03  0.41800000000E+01 0.  1.
         -5    1    3    3    0  502  0.89346159199E+01 -0.61563019542E+02 -0.11338461945E+04  0.11355591124E+04  0.41800000000E+01 0.  1.
        -11    1    4    4    0    0  0.45769584180E+02  0.65089259894E+02 -0.24777312293E+03  0.26023640605E+03  0.00000000000E+00 0. -1.
         11    1    4    4    0    0  0.51348276814E+01 -0.29514576613E+02 -0.82543334260E+02  0.87811609248E+02  0.00000000000E+00 0.  1.
</event>
<event>
 8    1  0.7048627E-009  0.1205668E+03  0.7561462E-02  0.1242165E+00
          1   -1    0    0  501    0  0.00000000000E+00  0.00000000000E+00  0.24612038644E+03  0.24612038644E+03  0.00000000000E+00 0. -1.
         -1   -1    0    0    0  501 -0.00000000000E+00 -0.00000000000E+00 -0.64609959377E+02  0.64609959377E+02  0.00000000000E+00 0.  1.
         25    2    1    2    0    0 -0.49966105294E+02 -0.30935614780E+02  0.72505826406E+02  0.15607283484E+03  0.12509201003E+03 0.  0.
         23    2    1    2    0    0  0.49966105294E+02  0.30935614780E+02  0.10900460066E+03  0.15465751097E+03  0.92646202277E+02 0.  0.
          5    1    3    3  502    0 -0.14857595730E+01 -0.69478567188E+02  0.61776642729E+02  0.93076875576E+02  0.41800000000E+01 0.  1.
         -5    1    3    3    0  502 -0.48480345721E+02  0.38542952408E+02  0.10729183677E+02  0.62995959267E+02  0.41800000000E+01 0.  1.
        -11    1    4    4    0    0  0.58046026596E+02  0.57480503003E+02  0.76467369425E+02  0.11189552277E+03  0.00000000000E+00 0.  1.
         11    1    4    4    0    0 -0.80799213019E+01 -0.26544888223E+02  0.32537231230E+02  0.42761988204E+02  0.00000000000E+00 0. -1.
</event>
<event>
 8    1  0.7048627E-009  0.8782920E+02  0.7561462E-02  0.1308195E+00
         -2   -1    0    0    0  501 -0.00000000000E+00  0.00000000000E+00  0.87556856649E+02  0.87556856649E+02  0.00000000000E+00 0.  1.
          2   -1    0    0  501    0  0.00000000000E+00 -0.00000000000E+00 -0.16933742185E+03  0.16933742185E+03  0.00000000000E+00 0. -1.
         25    2    1    2    0    0  0.39030227538E+02 -0.13051322994E+01 -0.72050377233E+02  0.14954406652E+03  0.12508840450E+03 0.  0.
         23    2    1    2    0    0 -0.39030227538E+02  0.13051322994E+01 -0.97301879691E+01  0.10735021198E+03  0.99520497493E+02 0.  0.
          5    1    3    3  502    0  0.52261900388E+02 -0.11900388137E+02 -0.10175730496E+03  0.11508669333E+03  0.41800000000E+01 0. -1.
         -5    1    3    3    0  502 -0.13231672850E+02  0.10595255838E+02  0.29706927723E+02  0.34457373194E+02  0.41800000000E+01 0. -1.
        -11    1    4    4    0    0 -0.65360428811E+02  0.24048664674E+02 -0.17261410295E+02  0.71751517143E+02  0.00000000000E+00 0.  1.
         11    1    4    4    0    0  0.26330201273E+02 -0.22743532375E+02  0.75312223263E+01  0.35598694832E+02  0.00000000000E+00 0. -1.
</event>
<event>
 8    1  0.7048627E-009  0.1142692E+03  0.7561462E-02  0.1252862E+00
         -1   -1    0    0    0  501 -0.00000000000E+00  0.00000000000E+00  0.11404948870E+02  0.11404948870E+02  0.00000000000E+00 0.  1.
          1   -1    0    0  501    0  0.00000000000E+00 -0.00000000000E+00 -0.15048095296E+04  0.15048095296E+04  0.00000000000E+00 0. -1.
         25    2    1    2    0    0  0.33272515951E+02 -0.10986412446E+02 -0.11807992260E+04  0.11879236960E+04  0.12509250148E+03 0.  0.
         23    2    1    2    0    0 -0.33272515951E+02  0.10986412446E+02 -0.31260535477E+03  0.32829078247E+03  0.93941303186E+02 0.  0.
          5    1    3    3  502    0 -0.11908033369E+01 -0.64529620773E+02 -0.50674058910E+03  0.51085123765E+03  0.41800000000E+01 0. -1.
         -5    1    3    3    0  502  0.34463319288E+02  0.53543208328E+02 -0.67405863690E+03  0.67707245839E+03  0.41800000000E+01 0. -1.
        -11    1    4    4    0    0 -0.35305679742E+02 -0.37509226414E+02 -0.15022428409E+03  0.15881048019E+03  0.00000000000E+00 0. -1.
         11    1    4    4    0    0  0.20331637915E+01  0.48495638860E+02 -0.16238107068E+03  0.16948030227E+03  0.00000000000E+00 0.  1.
</event>
<event>
 8    1  0.7048627E-009  0.9377594E+02  0.7561462E-02  0.1293957E+00
          2   -1    0    0  501    0  0.00000000000E+00  0.00000000000E+00  0.30015023846E+03  0.30015023846E+03  0.00000000000E+00 0. -1.
         -2   -1    0    0    0  501 -0.00000000000E+00 -0.00000000000E+00 -0.64021134660E+02  0.64021134660E+02  0.00000000000E+00 0.  1.
         25    2    1    2    0    0  0.44265188422E+02  0.70519326005E+02  0.10040976730E+03  0.18072519696E+03  0.12508834159E+03 0.  0.
         23    2    1    2    0    0 -0.44265188422E+02 -0.70519326005E+02  0.13571933650E+03  0.18344617616E+03  0.91106415804E+02 0.  0.
          5    1    3    3  502    0  0.48543952017E+02  0.23409370565E+02 -0.14856564373E+02  0.56059823516E+02  0.41800000000E+01 0.  1.
         -5    1    3    3    0  502 -0.42787635947E+01  0.47109955440E+02  0.11526633167E+03  0.12466537345E+03  0.41800000000E+01 0.  1.
        -11    1    4    4    0    0 -0.31751411054E+02 -0.30306792242E+02  0.27644748917E+01  0.43980633026E+02  0.00000000000E+00 0.  1.
         11    1    4    4    0    0 -0.12513777368E+02 -0.40212533762E+02  0.13295486161E+03  0.13946554313E+03  0.00000000000E+00 0. -1.
</event>
<event>
 8    1  0.7048627E-009  0.1868058E+03  0.7561462E-02  0.1161374E+00
          2   -1    0    0  501    0  0.00000000000E+00  0.00000000000E+00  0.13588182835E+04  0.13588182835E+04  0.00000000000E+00 0.  1.
         -2   -1    0    0    0  501 -0.00000000000E+00 -0.00000000000E+00 -0.37532797057E+02  0.37532797057E+02  0.00000000000E+00 0. -1.
         25    2    1    2    0    0 -0.14077982068E+03 -0.65065767828E+02  0.30466908162E+03  0.36403795433E+03  0.12509144994E+03 0.  0.
         23    2    1    2    0    0  0.14077982068E+03  0.65065767828E+02  0.10166164048E+04  0.10323131262E+04  0.90049786020E+02 0.  0.
          5    1    3    3  502    0  0.48525089006E+01 -0.47128651650E+02  0.11310579012E+03  0.12269901714E+03  0.41800000000E+01 0.  1.
         -5    1    3    3    0  502 -0.14563232958E+03 -0.17937116178E+02  0.19156329150E+03  0.24133893719E+03  0.41800000000E+01 0.  1.
        -11    1    4    4    0    0  0.71012460534E+02  0.80972052275E+02  0.59571857423E+03  0.60537580269E+03  0.00000000000E+00 0.  1.
         11    1    4    4    0    0  0.69767360144E+02 -0.15906284447E+02  0.42089783060E+03  0.42693732354E+03  0.00000000000E+00 0. -1.
</event>
<event>
 8    1  0.7048627E-009  0.1106521E+03  0.7561462E-02  0.1259367E+00
         -1   -1    0    0    0  501 -0.00000000000E+00  0.00000000000E+00  0.72012953045E+02  0.72012953045E+02  0.00000000000E+00 0.  1.
          1   -1    0    0  501    0  0.00000000000E+00 -0.00000000000E+00 -0.23973310102E+03  0.23973310102E+03  0.00000000000E+00 0. -1.
         25    2    1    2    0    0 -0.29612990162E+02 -0.54594177853E+02 -0.49061097914E+02  0.14802800971E+03  0.12509135417E+03 0.  0.
         23    2    1    2    0    0  0.29612990162E+02  0.54594177853E+02 -0.11865905006E+03  0.16371804436E+03  0.94160365581E+02 0.  0.
          5    1    3    3  502    0 -0.56229578662E+02 -0.81238369200E+02 -0.21569759810E+02  0.10121346296E+03  0.41800000000E+01 0. -1.
         -5    1    3    3    0  502  0.26616588500E+02  0.26644191347E+02 -0.27491338104E+02  0.46814546742E+02  0.41800000000E+01 0. -1.
        -11    1    4    4    0    0  0.32724658646E+02  0.30291225714E+01  0.15271359285E+01  0.32900015367E+02  0.00000000000E+00 0.  1.
         11    1    4    4    0    0 -0.31116684839E+01  0.51565055281E+02 -0.12018618599E+03  0.13081802900E+03  0.00000000000E+00 0. -1.
</event>
<event>
 8    1  0.7048627E-009  0.1021480E+03  0.7561462E-02  0.1275843E+00
         -2   -1    0    0    0  501 -0.00000000000E+00  0.00000000000E+00  0.45587424046E+02  0.45587424046E+02  0.00000000000E+00 0. -1.
          2   -1    0    0  501    0  0.00000000000E+00 -0.00000000000E+00 -0.25368442143E+03  0.25368442143E+03  0.00000000000E+00 0.  1.
         25    2    1    2    0    0  0.86738596096E+00  0.27718219583E+01 -0.94994705245E+02  0.15709729931E+03  0.12508849695E+03 0.  0.
         23    2    1    2    0    0 -0.86738596096E+00 -0.27718219583E+01 -0.11310229214E+03  0.14217454617E+03  0.86098999627E+02 0.  0.
          5    1    3    3  502    0  0.19209542937E+01  0.62642029612E+02 -0.63478926186E+02  0.89301514035E+02  0.41800000000E+01 0. -1.
         -5    1    3    3    0  502 -0.10535683328E+01 -0.59870207653E+02 -0.31515779059E+02  0.67795785270E+02  0.41800000000E+01 0. -1.
        -11    1    4    4    0    0 -0.18566017000E+02 -0.37856477675E+02 -0.35213836144E+02  0.54934726223E+02  0.00000000000E+00 0. -1.
         11    1    4    4    0    0  0.17698631039E+02  0.35084655717E+02 -0.77888455998E+02  0.87239819951E+02  0.00000000000E+00 0.  1.
</event>
<event>
 8    1  0.7048627E-009  0.1561137E+03  0.7561462E-02  0.1193155E+00
          4   -1    0    0  501    0  0.00000000000E+00  0.00000000000E+00  0.21948669189E+03  0.21948669189E+03  0.00000000000E+00 0.  1.
         -4   -1    0    0    0  501 -0.00000000000E+00 -0.00000000000E+00 -0.22696279678E+03  0.22696279678E+03  0.00000000000E+00 0. -1.
         25    2    1    2    0    0 -0.48254814959E+02 -0.13577810712E+03  0.12791171243E+03  0.22972323838E+03  0.12508852280E+03 0.  0.
         23    2    1    2    0    0  0.48254814959E+02  0.13577810712E+03 -0.13538781732E+03  0.21672625029E+03  0.88747872913E+02 0.  0.
          5    1    3    3  502    0  0.24834807173E+01 -0.97663803468E+02  0.13394532265E+03  0.16584091185E+03  0.41800000000E+01 0. -1.
         -5    1    3    3    0  502 -0.50738295677E+02 -0.38114303648E+02 -0.60336102148E+01  0.63882326530E+02  0.41800000000E+01 0. -1.
        -11    1    4    4    0    0 -0.58929281249E+01  0.43163524308E+02  0.53354568333E+00  0.43567202154E+02  0.00000000000E+00 0. -1.
         11    1    4    4    0    0  0.54147743084E+02  0.92614582808E+02 -0.13592136301E+03  0.17315904814E+03  0.00000000000E+00 0.  1.
</event>
<event>
 8    1  0.7048627E-009  0.9332906E+02  0.7561462E-02  0.1294984E+00
         -2   -1    0    0    0  501 -0.00000000000E+00  0.00000000000E+00  0.94854412401E+02  0.94854412401E+02  0.00000000000E+00 0. -1.
          2   -1    0    0  501    0  0.00000000000E+00 -0.00000000000E+00 -0.29039663447E+03  0.29039663447E+03  0.00000000000E+00 0.  1.
         25    2    1    2    0    0 -0.10427397230E+02 -0.13656944806E+01 -0.24877717218E+03  0.27865154100E+03  0.12508398847E+03 0.  0.
         23    2    1    2    0    0  0.10427397230E+02  0.13656944806E+01  0.53234950104E+02  0.10659950587E+03  0.91754558501E+02 0.  0.
          5    1    3    3  502    0 -0.24490056140E+02  0.54429384310E+02 -0.77430727949E+02  0.97853516834E+02  0.41800000000E+01 0.  1.
         -5    1    3    3    0  502  0.14062658910E+02 -0.55795078790E+02 -0.17134644423E+03  0.18079802416E+03  0.41800000000E+01 0.  1.
        -11    1    4    4    0    0  0.23403813291E+02 -0.28318872305E+02  0.62855233114E+02  0.72804377169E+02  0.00000000000E+00 0. -1.
         11    1    4    4    0    0 -0.12976416061E+02  0.29684566785E+02 -0.96202830102E+01  0.33795128706E+02  0.00000000000E+00 0.  1.
</event>
<event>
 8    1  0.7048627E-009  0.1099700E+03  0.7561462E-02  0.1260625E+00
          1   -1    0    0  501    0  0.00000000000E+00  0.00000000000E+00  0.65464444469E+02  0.65464444469E+02  0.00000000000E+00 0. -1.
         -1   -1    0    0    0  501 -0.00000000000E+00 -0.00000000000E+00 -0.39843052992E+03  0.39843052992E+03  0.00000000000E+00 0.  1.
         25    2    1    2    0    0  0.23355765080E+02 -0.13100213469E+02 -0.11267635191E+02  0.12841991105E+03  0.12509039370E+03 0.  0.
         23    2    1    2    0    0 -0.23355765080E+02  0.13100213469E+02 -0.32169845026E+03  0.33547506334E+03  0.91304533660E+02 0.  0.
          5    1    3    3  502    0  0.73485695304E+02 -0.62627454703E+00  0.58489248637E+01  0.73839162754E+02  0.41800000000E+01 0.  1.
         -5    1    3    3    0  502 -0.50129930224E+02 -0.12473938922E+02 -0.17116560055E+02  0.54580748296E+02  0.41800000000E+01 0.  1.
        -11    1    4    4    0    0 -0.20717481390E+02  0.51761841830E+02 -0.17021181225E+03  0.17911047802E+03  0.00000000000E+00 0. -1.
         11    1    4    4    0    0 -0.26382836905E+01 -0.38661628361E+02 -0.15148663801E+03  0.15636458532E+03  0.00000000000E+00 0.  1.
</event>
<event>
 8    1  0.7048627E-009  0.1663359E+03  0.7561462E-02  0.1181724E+00
         -4   -1    0    0    0  501 -0.00000000000E+00  0.00000000000E+00  0.12056872539E+04  0.12056872539E+04  0.00000000000E+00 0.  1.
          4   -1    0    0  501    0  0.00000000000E+00 -0.00000000000E+00 -0.24741677894E+02  0.24741677894E+02  0.00000000000E+00 0. -1.
         25    2    1    2    0    0  0.11975706406E+03  0.48051770176E+02  0.49678032858E+03  0.52828619528E+03  0.12507950370E+03 0.  0.
         23    2    1    2    0    0 -0.11975706406E+03 -0.48051770176E+02  0.68416524742E+03  0.70214273651E+03  0.90948390033E+02 0.  0.
          5    1    3    3  502    0 -0.23702344003E+02  0.24139368812E+00  0.11772175520E+03  0.12015716137E+03  0.41800000000E+01 0. -1.
         -5    1    3    3    0  502  0.14345940806E+03  0.47810376488E+02  0.37905857338E+03  0.40812903391E+03  0.41800000000E+01 0. -1.
        -11    1    4    4    0    0 -0.11285180224E+03 -0.41935447177E+01  0.51620854552E+03  0.52841685964E+03  0.00000000000E+00 0.  1.
         11    1    4    4    0    0 -0.69052618225E+01 -0.43858225458E+02  0.16795670190E+03  0.17372587687E+03  0.00000000000E+00 0. -1.
</event>
<event>
 8    1  0.7048627E-009  0.1181741E+03  0.7561462E-02  0.1246140E+00
         -1   -1    0    0    0  501 -0.00000000000E+00  0.00000000000E+00  0.63875004603E+02  0.63875004603E+02  0.00000000000E+00 0.  1.
          1   -1    0    0  501    0  0.00000000000E+00 -0.00000000000E+00 -0.29381252302E+03  0.29381252302E+03  0.00000000000E+00 0. -1.
         25    2    1    2    0    0 -0.72788776554E+02  0.36200504218E+02 -0.10169132956E+03  0.18054777258E+03  0.12509072378E+03 0.  0.
         23    2    1    2    0    0  0.72788776554E+02 -0.36200504218E+02 -0.12824618885E+03  0.17713975504E+03  0.91228972174E+02 0.  0.
          5    1    3    3  502    0 -0.82873616587E+02 -0.89185563180E+01 -0.18807692974E+02  0.85549860829E+02  0.41800000000E+01 0.  1.
         -5    1    3    3    0  502  0.10084840032E+02  0.45119060536E+02 -0.82883636589E+02  0.94997911747E+02  0.41800000000E+01 0.  1.
        -11    1    4    4    0    0  0.20637661255E+02 -0.48656486284E+02 -0.20311403350E+02  0.56620842678E+02  0.00000000000E+00 0. -1.
         11    1    4    4    0    0  0.52151115300E+02  0.12455982066E+02 -0.10793478550E+03  0.12051891237E+03  0.00000000000E+00 0.  1.
</event>
<event>
 8    1  0.7048627E-009  0.1073524E+03  0.7561462E-02  0.1265553E+00
         -3   -1    0    0    0  501 -0.00000000000E+00  0.00000000000E+00  0.95231492332E+02  0.95231492332E+02  0.00000000000E+00 0. -1.
          3   -1    0    0  501    0  0.00000000000E+00 -0.00000000000E+00 -0.17241066803E+03  0.17241066803E+03  0.00000000000E+00 0.  1.
         25    2    1    2    0    0 -0.10005143282E+02  0.67167622386E+02 -0.20753841881E+02  0.14384050300E+03  0.12509107067E+03 0.  0.
         23    2    1    2    0    0  0.10005143282E+02 -0.67167622386E+02 -0.56425333819E+02  0.12380165736E+03  0.86783867624E+02 0.  0.
          5    1    3    3  502    0 -0.63660088960E+02  0.55573934665E+02  0.10843721378E+01  0.84615113327E+02  0.41800000000E+01 0. -1.
         -5    1    3    3    0  502  0.53654945678E+02  0.11593687721E+02 -0.21838214019E+02  0.59225389675E+02  0.41800000000E+01 0. -1.
        -11    1    4    4    0    0  0.20654990288E+02 -0.30306305624E+02  0.17405402469E+02  0.40596167546E+02  0.00000000000E+00 0. -1.
         11    1    4    4    0    0 -0.10649847006E+02 -0.36861316762E+02 -0.73830736288E+02  0.83205489816E+02  0.00000000000E+00 0.  1.
</event>
<event>
 8    1  0.7048627E-009  0.1135088E+03  0.7561462E-02  0.1254207E+00
         -1   -1    0    0    0  501 -0.00000000000E+00  0.00000000000E+00  0.73104406159E+02  0.73104406159E+02  0.00000000000E+00 0.  1.
          1   -1    0    0  501    0  0.00000000000E+00 -0.00000000000E+00 -0.21846717450E+03  0.21846717450E+03  0.00000000000E+00 0. -1.
         25    2    1    2    0    0  0.51475469437E+02  0.37912771398E+02 -0.73995890713E+02  0.15877569654E+03  0.12508887952E+03 0.  0.
         23    2    1    2    0    0 -0.51475469437E+02 -0.37912771398E+02 -0.71366877627E+02  0.13279588412E+03  0.91947884304E+02 0.  0.
          5    1    3    3  502    0  0.38586649658E+01  0.63853929517E+02  0.33832659331E+01  0.64196047374E+02  0.41800000000E+01 0.  1.
         -5    1    3    3    0  502  0.47616804471E+02 -0.25941158119E+02 -0.77379156646E+02  0.94579649163E+02  0.41800000000E+01 0.  1.
        -11    1    4    4    0    0 -0.34098359633E+02  0.25625220706E+02 -0.12484608207E+02  0.44443396674E+02  0.00000000000E+00 0. -1.
         11    1    4    4    0    0 -0.17377109804E+02 -0.63537992103E+02 -0.58882269420E+02  0.88352487445E+02  0.00000000000E+00 0.  1.
</event>
<event>
 8    1  0.7048627E-009  0.1608792E+03  0.7561462E-02  0.1187708E+00
          2   -1    0    0  501    0  0.00000000000E+00  0.00000000000E+00  0.10281508896E+04  0.10281508896E+04  0.00000000000E+00 0. -1.
         -2   -1    0    0    0  501 -0.00000000000E+00 -0.00000000000E+00 -0.31039524654E+02  0.31039524654E+02  0.00000000000E+00 0.  1.
         25    2    1    2    0    0  0.10200417687E+03  0.77261374264E+02  0.34340440350E+03  0.38723172415E+03  0.12509057437E+03 0.  0.
         23    2    1    2    0    0 -0.10200417687E+03 -0.77261374264E+02  0.65370696143E+03  0.67195869009E+03  0.88439344792E+02 0.  0.
          5    1    3    3  502    0  0.58314434424E+02  0.10448294763E+03  0.18272523035E+03  0.21845649868E+03  0.41800000000E+01 0.  1.
         -5    1    3    3    0  502  0.43689742443E+02 -0.27221573363E+02  0.16067917315E+03  0.16877522547E+03  0.41800000000E+01 0.  1.
        -11    1    4    4    0    0 -0.91307102206E+02 -0.21762814785E+02  0.31937270087E+03  0.33288065291E+03  0.00000000000E+00 0.  1.
         11    1    4    4    0    0 -0.10697074662E+02 -0.55498559478E+02  0.33433426056E+03  0.33907803718E+03  0.00000000000E+00 0. -1.
</event>
<event>
 8    1  0.7048627E-009  0.1720015E+03  0.7561462E-02  0.1175777E+00
         -2   -1    0    0    0  501 -0.00000000000E+00  0.00000000000E+00  0.82147156521E+02  0.82147156521E+02  0.00000000000E+00 0.  1.
          2   -1    0    0  501    0  0.00000000000E+00 -0.00000000000E+00 -0.45363284076E+03  0.45363284076E+03  0.00000000000E+00 0. -1.
         25    2    1    2    0    0 -0.14785970025E+03  0.52846961045E+01 -0.11353865049E+03  0.22456267391E+03  0.12508777073E+03 0.  0.
         23    2    1    2    0    0  0.14785970025E+03 -0.52846961045E+01 -0.25794703375E+03  0.31121732337E+03  0.91810299943E+02 0.  0.
          5    1    3    3  502    0 -0.16070261497E+03 -0.27556429934E+01 -0.12618830584E+03  0.20438660660E+03  0.41800000000E+01 0.  1.
         -5    1    3    3    0  502  0.12842914723E+02  0.80403390978E+01  0.12649655350E+02  0.20176067304E+02  0.41800000000E+01 0.  1.
        -11    1    4    4    0    0  0.12133009155E+03  0.28417012322E+02 -0.14967368252E+03  0.19475812934E+03  0.00000000000E+00 0.  1.
         11    1    4    4    0    0  0.26529608706E+02 -0.33701708427E+02 -0.10827335123E+03  0.11645919404E+03  0.00000000000E+00 0. -1.
</event>
<event>
 8    1  0.7048627E-009  0.9317330E+02  0.7561462E-02  0.1295344E+00
         -3   -1    0    0    0  501 -0.00000000000E+00  0.00000000000E+00  0.11605765393E+03  0.11605765393E+03  0.00000000000E+00 0.  1.
          3   -1    0    0  501    0  0.00000000000E+00 -0.00000000000E+00 -0.10378518276E+03  0.10378518276E+03  0.00000000000E+00 0. -1.
         25    2    1    2    0    0  0.17324842293E+02 -0.25580434519E+02  0.27425241507E+02  0.13173420649E+03  0.12508896233E+03 0.  0.
         23    2    1    2    0    0 -0.17324842293E+02  0.25580434519E+02 -0.15152770336E+02  0.88108630194E+02  0.81111130402E+02 0.  0.
          5    1    3    3  502    0 -0.25614598224E+02 -0.49892589610E+02 -0.23272098707E+02  0.60864120123E+02  0.41800000000E+01 0. -1.
         -5    1    3    3    0  502  0.42939440517E+02  0.24312155091E+02  0.50697340213E+02  0.70870086368E+02  0.41800000000E+01 0. -1.
        -11    1    4    4    0    0 -0.22517064915E+02  0.50414836691E+02 -0.25360962875E+02  0.60760615606E+02  0.00000000000E+00 0. -1.
         11    1    4    4    0    0  0.51922226215E+01 -0.24834402171E+02  0.10208192540E+02  0.27348014588E+02  0.00000000000E+00 0.  1.
</event>
<event>
 8    1  0.7048627E-009  0.9593375E+02  0.7561462E-02  0.1289087E+00
         -4   -1    0    0    0  501 -0.00000000000E+00  0.00000000000E+00  0.13663920842E+03  0.13663920842E+03  0.00000000000E+00 0.  1.
          4   -1    0    0  501    0  0.00000000000E+00 -0.00000000000E+00 -0.10408949741E+03  0.10408949741E+03  0.00000000000E+00 0. -1.
         25    2    1    2    0    0  0.29731012684E+02  0.33371052271E+02  0.31258655855E+02  0.13646233174E+03  0.12508918488E+03 0.  0.
         23    2    1    2    0    0 -0.29731012684E+02 -0.33371052271E+02  0.12910551565E+01  0.10426637409E+03  0.94192620188E+02 0.  0.
          5    1    3    3  502    0  0.73135275969E+02  0.26768663168E+02  0.45281736729E+02  0.90184466512E+02  0.41800000000E+01 0. -1.
         -5    1    3    3    0  502 -0.43404263285E+02  0.66023891023E+01 -0.14023080874E+02  0.46277865232E+02  0.41800000000E+01 0. -1.
        -11    1    4    4    0    0 -0.14866050847E+02  0.13819151295E+02  0.37714279383E+02  0.42829140544E+02  0.00000000000E+00 0.  1.
         11    1    4    4    0    0 -0.14864961837E+02 -0.47190203565E+02 -0.36423224227E+02  0.61437233548E+02  0.00000000000E+00 0. -1.
</event>
<event>
 8    1  0.7048627E-009  0.1492875E+03  0.7561462E-02  0.1201351E+00
          1   -1    0    0  501    0  0.00000000000E+00  0.00000000000E+00  0.36875445324E+03  0.36875445324E+03  0.00000000000E+00 0. -1.
         -1   -1    0    0    0  501 -0.00000000000E+00 -0.00000000000E+00 -0.82979312364E+02  0.82979312364E+02  0.00000000000E+00 0.  1.
         25    2    1    2    0    0 -0.85513985885E+02 -0.66389469678E+02  0.50512305044E+02  0.17297153124E+03  0.12508978453E+03 0.  0.
         23    2    1    2    0    0  0.85513985885E+02  0.66389469678E+02  0.23526283583E+03  0.27876223436E+03  0.10314832968E+03 0.  0.
          5    1    3    3  502    0  0.39187727602E+01  0.22377069280E+02  0.40340580571E+02  0.46485748895E+02  0.41800000000E+01 0. -1.
         -5    1    3    3    0  502 -0.89432758645E+02 -0.88766538958E+02  0.10171724473E+02  0.12648578235E+03  0.41800000000E+01 0. -1.
        -11    1    4    4    0    0  0.53048411825E+01  0.68946274149E+02  0.11474488171E+03  0.13397058609E+03  0.00000000000E+00 0.  1.
         11    1    4    4    0    0  0.80209144702E+02 -0.25568044707E+01  0.12051795412E+03  0.14479164827E+03  0.00000000000E+00 0. -1.
</event>
<event>
 8    1  0.7048627E-009  0.1094180E+03  0.7561462E-02  0.1261652E+00
         -2   -1    0    0    0  501 -0.00000000000E+00  0.00000000000E+00  0.29218296692E+02  0.29218296692E+02  0.00000000000E+00 0. -1.
          2   -1    0    0  501    0  0.00000000000E+00 -0.00000000000E+00 -0.79713045209E+03  0.79713045209E+03  0.00000000000E+00 0.  1.
         25    2    1    2    0    0  0.78575556742E+02  0.70909822359E+02 -0.37763306765E+03  0.41165115524E+03  0.12509044251E+03 0.  0.
         23    2    1    2    0    0 -0.78575556742E+02 -0.70909822359E+02 -0.39027908775E+03  0.41469759354E+03  0.91945672697E+02 0.  0.
          5    1    3    3  502    0  0.22049284075E+02  0.10144921821E+01 -0.27181972146E+03  0.27274646377E+03  0.41800000000E+01 0. -1.
         -5    1    3    3    0  502  0.56526272667E+02  0.69895330177E+02 -0.10581334618E+03  0.13890469147E+03  0.41800000000E+01 0. -1.
        -11    1    4    4    0    0 -0.39741512845E+02 -0.43042459308E+02 -0.34118567522E+03  0.34617871992E+03  0.00000000000E+00 0.  1.
         11    1    4    4    0    0 -0.38834043897E+02 -0.27867363051E+02 -0.49093412529E+02  0.68518873623E+02  0.00000000000E+00 0. -1.
</event>
<event>
 8    1  0.7048627E-009  0.1244446E+03  0.7561462E-02  0.1235940E+00
          1   -1    0    0  501    0  0.00000000000E+00  0.00000000000E+00  0.21914419556E+03  0.21914419556E+03  0.00000000000E+00 0. -1.
         -1   -1    0    0    0  501 -0.00000000000E+00 -0.00000000000E+00 -0.75900174854E+02  0.75900174854E+02  0.00000000000E+00 0.  1.
         25    2    1    2    0    0 -0.69904603826E+00  0.68685581922E+02  0.63829986262E+02  0.15633030578E+03  0.12508676800E+03 0.  0.
         23    2    1    2    0    0  0.69904603826E+00 -0.68685581922E+02  0.79414034446E+02  0.13871406464E+03  0.90646594155E+02 0.  0.
          5    1    3    3  502    0 -0.40418312523E+02  0.88469027479E+02  0.51244042095E+02  0.11001742162E+03  0.41800000000E+01 0.  1.
         -5    1    3    3    0  502  0.39719266485E+02 -0.19783445557E+02  0.12585944167E+02  0.46312884156E+02  0.41800000000E+01 0.  1.
        -11    1    4    4    0    0 -0.38620466810E+02 -0.17447190186E+02  0.55528691446E+02  0.69852562413E+02  0.00000000000E+00 0. -1.
         11    1    4    4    0    0  0.39319512848E+02 -0.51238391737E+02  0.23885343000E+02  0.68861502224E+02  0.00000000000E+00 0.  1.
</event>
<event>
 8    1  0.7048627E-009  0.1090234E+03  0.7561462E-02  0.1262389E+00
          2   -1    0    0  501    0  0.00000000000E+00  0.00000000000E+00  0.33276110911E+03  0.33276110911E+03  0.00000000000E+00 0.  1.
         -2   -1    0    0    0  501 -0.00000000000E+00 -0.00000000000E+00 -0.43670052147E+02  0.43670052147E+02  0.00000000000E+00 0. -1.
         25    2    1    2    0    0  0.49689866670E+02 -0.15968059760E+01  0.15211134859E+03  0.20311928676E+03  0.12509176489E+03 0.  0.
         23    2    1    2    0    0 -0.49689866670E+02  0.15968059760E+01  0.13697970837E+03  0.17331187450E+03  0.93818615948E+02 0.  0.
          5    1    3    3  502    0  0.88497021190E+02 -0.98918051094E+00  0.13260340108E+03  0.15947989094E+03  0.41800000000E+01 0. -1.
         -5    1    3    3    0  502 -0.38807154520E+02 -0.60762546501E+00  0.19507947511E+02  0.43639395810E+02  0.41800000000E+01 0. -1.
        -11    1    4    4    0    0 -0.41468456953E+02  0.36075301171E+02  0.12387549236E+03  0.13552194613E+03  0.00000000000E+00 0.  1.
         11    1    4    4    0    0 -0.82214097166E+01 -0.34478495195E+02  0.13104216012E+02  0.37789928367E+02  0.00000000000E+00 0. -1.
</event>
<event>
 8    1  0.7048627E-009  0.1903599E+03  0.7561462E-02  0.1158137E+00
          1   -1    0    0  501    0  0.00000000000E+00  0.00000000000E+00  0.63934433392E+03  0.63934433392E+03  0.00000000000E+00 0. -1.
         -1   -1    0    0    0  501 -0.00000000000E+00 -0.00000000000E+00 -0.64407892079E+02  0.64407892079E+02  0.00000000000E+00 0.  1.
         25    2    1    2    0    0  0.16289181108E+03  0.48132051580E+02  0.33499525461E+03  0.39587815878E+03  0.12508900625E+03 0.  0.
         23    2    1    2    0    0 -0.16289181108E+03 -0.48132051580E+02  0.23994118723E+03  0.30787406722E+03  0.91456172180E+02 0.  0.
          5    1    3    3  502    0  0.11343739541E+03 -0.30516534746E+02  0.19906715044E+03  0.23118067470E+03  0.41800000000E+01 0.  1.
         -5    1    3    3    0  502  0.49454415664E+02  0.78648586326E+02  0.13592810417E+03  0.16469748408E+03  0.41800000000E+01 0.  1.
        -11    1    4    4    0    0 -0.80412625316E+02 -0.29214779617E+02  0.19298256273E+03  0.21109704682E+03  0.00000000000E+00 0. -1.
         11    1    4    4    0    0 -0.82479185759E+02 -0.18917271963E+02  0.46958624506E+02  0.96777020400E+02  0.00000000000E+00 0.  1.
</event>
<event>
 8    1  0.7048627E-009  0.1169704E+03  0.7561462E-02  0.1248180E+00
          4   -1    0    0  501    0  0.00000000000E+00  0.00000000000E+00  0.29524183215E+03  0.29524183215E+03  0.00000000000E+00 0. -1.
         -4   -1    0    0    0  501 -0.00000000000E+00 -0.00000000000E+00 -0.86810244824E+02  0.86810244824E+02  0.00000000000E+00 0.  1.
         25    2    1    2    0    0  0.23094885750E+02  0.76420820653E+02  0.21412811400E+03  0.26051495485E+03  0.12507468537E+03 0.  0.
         23    2    1    2    0    0 -0.23094885750E+02 -0.76420820653E+02 -0.56965266739E+01  0.12153712212E+03  0.91462047100E+02 0.  0.
          5    1    3    3  502    0 -0.18650834004E+02  0.98805993430E+02  0.13914242335E+03  0.17172234660E+03  0.41800000000E+01 0.  1.
         -5    1    3    3    0  502  0.41745719754E+02 -0.22385172777E+02  0.74985690647E+02  0.88792608250E+02  0.41800000000E+01 0.  1.
        -11    1    4    4    0    0 -0.22434276004E+02 -0.22322359955E+02 -0.44751293278E+02  0.54811155287E+02  0.00000000000E+00 0.  1.
         11    1    4    4    0    0 -0.66060974572E+00 -0.54098460698E+02  0.39054766604E+02  0.66725966832E+02  0.00000000000E+00 0. -1.
</event>
<event>
 8    1  0.7048627E-009  0.1280749E+03  0.7561462E-02  0.1230341E+00
         -3   -1    0    0    0  501 -0.00000000000E+00  0.00000000000E+00  0.16500561122E+03  0.16500561122E+03  0.00000000000E+00 0.  1.
          3   -1    0    0  501    0  0.00000000000E+00 -0.00000000000E+00 -0.11159369219E+03  0.11159369219E+03  0.00000000000E+00 0. -1.
         25    2    1    2    0    0 -0.48399698626E+02 -0.64880669590E+02  0.39324781377E+02  0.15409670382E+03  0.12508926247E+03 0.  0.
         23    2    1    2    0    0  0.48399698626E+02  0.64880669590E+02  0.14087137659E+02  0.12250259959E+03  0.90864775054E+02 0.  0.
          5    1    3    3  502    0 -0.94427396492E+01 -0.92725764444E+02  0.21371772964E+01  0.93323483918E+02  0.41800000000E+01 0. -1.
         -5    1    3    3    0  502 -0.38956958977E+02  0.27845094854E+02  0.37187604081E+02  0.60773219903E+02  0.41800000000E+01 0. -1.
        -11    1    4    4    0    0 -0.16139450010E+01  0.64749514215E+02  0.28040466938E+02  0.70578836741E+02  0.00000000000E+00 0.  1.
         11    1    4    4    0    0  0.50013643627E+02  0.13115537445E+00 -0.13953329279E+02  0.51923762850E+02  0.00000000000E+00 0. -1.
</event>
<event>
 8    1  0.7048627E-009  0.1161677E+03  0.7561462E-02  0.1249556E+00
          1   -1    0    0  501    0  0.00000000000E+00  0.00000000000E+00  0.81486071140E+03  0.81486071140E+03  0.00000000000E+00 0.  1.
         -1   -1    0    0    0  501 -0.00000000000E+00 -0.00000000000E+00 -0.32839141826E+02  0.32839141826E+02  0.00000000000E+00 0. -1.
         25    2    1    2    0    0  0.47125206155E+02  0.67450875492E+02  0.64368868373E+03  0.66087288201E+03  0.12508972360E+03 0.  0.
         23    2    1    2    0    0 -0.47125206155E+02 -0.67450875492E+02  0.13833288584E+03  0.18682697122E+03  0.94857388794E+02 0.  0.
          5    1    3    3  502    0  0.52446100941E+02  0.10612632608E+02  0.94251341747E+02  0.10846201776E+03  0.41800000000E+01 0. -1.
         -5    1    3    3    0  502 -0.53208947861E+01  0.56838242884E+02  0.54943734199E+03  0.55241086425E+03  0.41800000000E+01 0. -1.
        -11    1    4    4    0    0  0.14956213872E+02 -0.56421471392E+02  0.90467556979E+02  0.10766359474E+03  0.00000000000E+00 0.  1.
         11    1    4    4    0    0 -0.62081420027E+02 -0.11029404100E+02  0.47865328861E+02  0.79163376472E+02  0.00000000000E+00 0. -1.
</event>
<event>
 8    1  0.7048627E-009  0.1127862E+03  0.7561462E-02  0.1255496E+00
         -1   -1    0    0    0  501 -0.00000000000E+00  0.00000000000E+00  0.10520996286E+03  0.10520996286E+03  0.00000000000E+00 0.  1.
          1   -1    0    0  501    0  0.00000000000E+00 -0.00000000000E+00 -0.15213674024E+03  0.15213674024E+03  0.00000000000E+00 0. -1.
         25    2    1    2    0    0  0.69706130351E+02 -0.14829474420E+02 -0.11417053749E+02  0.14442284653E+03  0.12509497017E+03 0.  0.
         23    2    1    2    0    0 -0.69706130351E+02  0.14829474420E+02 -0.35509723623E+02  0.11292385657E+03  0.80074958578E+02 0.  0.
          5    1    3    3  502    0  0.67539156987E+02  0.36234311854E+02 -0.39103964494E+02  0.86145548470E+02  0.41800000000E+01 0. -1.
         -5    1    3    3    0  502  0.21669733646E+01 -0.51063786274E+02  0.27686910745E+02  0.58277298057E+02  0.41800000000E+01 0. -1.
        -11    1    4    4    0    0 -0.47453121388E+02  0.41330155845E+02  0.57083454351E+00  0.62930965063E+02  0.00000000000E+00 0.  1.
         11    1    4    4    0    0 -0.22253008964E+02 -0.26500681425E+02 -0.36080558166E+02  0.49992891510E+02  0.00000000000E+00 0. -1.
</event>
<event>
 8    1  0.7048627E-009  0.2019411E+03  0.7561462E-02  0.1148112E+00
         -2   -1    0    0    0  501 -0.00000000000E+00  0.00000000000E+00  0.19942723818E+03  0.19942723818E+03  0.00000000000E+00 0. -1.
          2   -1    0    0  501    0  0.00000000000E+00 -0.00000000000E+00 -0.22505821845E+03  0.22505821845E+03  0.00000000000E+00 0.  1.
         25    2    1    2    0    0  0.17441265936E+03 -0.14324616222E+02 -0.60818665858E+02  0.22354244857E+03  0.12508935135E+03 0.  0.
         23    2    1    2    0    0 -0.17441265936E+03  0.14324616222E+02  0.35187685596E+02  0.20094300806E+03  0.92276480746E+02 0.  0.
          5    1    3    3  502    0  0.18953523633E+03 -0.16221398795E+02 -0.35291663287E+02  0.19351928453E+03  0.41800000000E+01 0. -1.
         -5    1    3    3    0  502 -0.15122576972E+02  0.18967825730E+01 -0.25527002571E+02  0.30023164034E+02  0.41800000000E+01 0. -1.
        -11    1    4    4    0    0 -0.69289458021E+02  0.51466658422E+02  0.13512008331E+02  0.87363724115E+02  0.00000000000E+00 0.  1.
         11    1    4    4    0    0 -0.10512320133E+03 -0.37142042201E+02  0.21675677266E+02  0.11357928395E+03  0.00000000000E+00 0. -1.
</event>
<event>
 8    1  0.7048627E-009  0.1480647E+03  0.7561462E-02  0.1202872E+00
         -1   -1    0    0    0  501 -0.00000000000E+00  0.00000000000E+00  0.11305714096E+03  0.11305714096E+03  0.00000000000E+00 0.  1.
          1   -1    0    0  501    0  0.00000000000E+00 -0.00000000000E+00 -0.20920782654E+03  0.20920782654E+03  0.00000000000E+00 0. -1.
         25    2    1    2    0    0  0.28998388054E+02  0.10450266642E+03 -0.42546745215E+02  0.17092530228E+03  0.12507405659E+03 0.  0.
         23    2    1    2    0    0 -0.28998388054E+02 -0.10450266642E+03 -0.53603940362E+02  0.15133966521E+03  0.90931831856E+02 0.  0.
          5    1    3    3  502    0 -0.47693780034E+02  0.28631703707E+02 -0.26567783503E+02  0.61788272604E+02  0.41800000000E+01 0.  1.
         -5    1    3    3    0  502  0.76692168089E+02  0.75870962717E+02 -0.15978961712E+02  0.10913702968E+03  0.41800000000E+01 0.  1.
        -11    1    4    4    0    0  0.18905316523E+02 -0.17169838033E+01 -0.30011204866E+02  0.35511004544E+02  0.00000000000E+00 0. -1.
         11    1    4    4    0    0 -0.47903704577E+02 -0.10278568262E+03 -0.23592735496E+02  0.11582866067E+03  0.00000000000E+00 0.  1.
</event>
<event>
 8    1  0.7048627E-009  0.2472232E+03  0.7561462E-02  0.1115072E+00
         -1   -1    0    0    0  501 -0.00000000000E+00  0.00000000000E+00  0.18979354305E+03  0.18979354305E+03  0.00000000000E+00 0.  1.
          1   -1    0    0  501    0  0.00000000000E+00 -0.00000000000E+00 -0.38156708940E+03  0.38156708940E+03  0.00000000000E+00 0. -1.
         25    2    1    2    0    0  0.51336624444E+02 -0.22557795578E+03 -0.93142697333E+01  0.26316582616E+03  0.12509449746E+03 0.  0.
         23    2    1    2    0    0 -0.51336624444E+02  0.22557795578E+03 -0.18245927662E+03  0.30819480630E+03  0.90397941691E+02 0.  0.
          5    1    3    3  502    0 -0.40002427255E+02 -0.43746016907E+02  0.13302348750E-01  0.59425421820E+02  0.41800000000E+01 0.  1.
         -5    1    3    3    0  502  0.91339051698E+02 -0.18183193887E+03 -0.93275720821E+01  0.20374040434E+03  0.41800000000E+01 0.  1.
        -11    1    4    4    0    0 -0.30205229957E+02  0.15038838035E+03 -0.63783355299E+02  0.16612446320E+03  0.00000000000E+00 0.  1.
         11    1    4    4    0    0 -0.21131394486E+02  0.75189575429E+02 -0.11867592132E+03  0.14207034310E+03  0.00000000000E+00 0. -1.
</event>
<event>
 8    1  0.7048627E-009  0.1750137E+03  0.7561462E-02  0.1172718E+00
         -1   -1    0    0    0  501 -0.00000000000E+00  0.00000000000E+00  0.37777911312E+02  0.37777911312E+02  0.00000000000E+00 0.  1.
          1   -1    0    0  501    0  0.00000000000E+00 -0.00000000000E+00 -0.10344131791E+04  0.10344131791E+04  0.00000000000E+00 0. -1.
         25    2    1    2    0    0 -0.25731851178E+02 -0.15583932034E+03 -0.65277150767E+03  0.68315911376E+03  0.12509081321E+03 0.  0.
         23    2    1    2    0    0  0.25731851178E+02  0.15583932034E+03 -0.34386376015E+03  0.38903197669E+03  0.90308202379E+02 0.  0.
          5    1    3    3  502    0 -0.12301013985E+02 -0.16880915611E+03 -0.47330870851E+03  0.50267927357E+03  0.41800000000E+01 0.  1.
         -5    1    3    3    0  502 -0.13430837193E+02  0.12969835773E+02 -0.17946279916E+03  0.18047984018E+03  0.41800000000E+01 0.  1.
        -11    1    4    4    0    0  0.55956284025E+01  0.12256770679E+03 -0.16290663311E+03  0.20394294525E+03  0.00000000000E+00 0.  1.
         11    1    4    4    0    0  0.20136222776E+02  0.33271613550E+02 -0.18095712703E+03  0.18508903144E+03  0.00000000000E+00 0. -1.
</event>
<event>
 8    1  0.7048627E-009  0.8593601E+02  0.7561462E-02  0.1313003E+00
         -1   -1    0    0    0  501 -0.00000000000E+00  0.00000000000E+00  0.24361569886E+03  0.24361569886E+03  0.00000000000E+00 0.  1.
          1   -1    0    0  501    0  0.00000000000E+00 -0.00000000000E+00 -0.92215775000E+02  0.92215775000E+02  0.00000000000E+00 0. -1.
         25    2    1    2    0    0  0.60177663647E+02 -0.69809624391E+01 -0.76521536410E+01  0.13919415308E+03  0.12508545782E+03 0.  0.
         23    2    1    2    0    0 -0.60177663647E+02  0.69809624391E+01  0.15905207750E+03  0.19663732078E+03  0.98481407017E+02 0.  0.
          5    1    3    3  502    0  0.65809787160E+02  0.22269212855E+02  0.41890612461E+02  0.81235101647E+02  0.41800000000E+01 0.  1.
         -5    1    3    3    0  502 -0.56321235139E+01 -0.29250175294E+02 -0.49542766102E+02  0.57959051433E+02  0.41800000000E+01 0.  1.
        -11    1    4    4    0    0 -0.39036089949E+02 -0.14883686763E+02  0.16083354252E+03  0.16617090254E+03  0.00000000000E+00 0.  1.
         11    1    4    4    0    0 -0.21141573698E+02  0.21864649202E+02 -0.17814650176E+01  0.30466418246E+02  0.00000000000E+00 0. -1.
</event>
<event>
 8    1  0.7048627E-009  0.1394016E+03  0.7561462E-02  0.1214136E+00
         -3   -1    0    0    0  501 -0.00000000000E+00  0.00000000000E+00  0.12800695153E+03  0.12800695153E+03  0.00000000000E+00 0.  1.
          3   -1    0    0  501    0  0.00000000000E+00 -0.00000000000E+00 -0.21986448841E+03  0.21986448841E+03  0.00000000000E+00 0. -1.
         25    2    1    2    0    0  0.33439085543E+02  0.12048538761E+03 -0.19839845137E+02  0.17797957629E+03  0.12509280175E+03 0.  0.
         23    2    1    2    0    0 -0.33439085543E+02 -0.12048538761E+03 -0.72017691743E+02  0.16989186364E+03  0.89676063355E+02 0.  0.
          5    1    3    3  502    0  0.37291881661E+02  0.46902646025E+01  0.33353449742E+02  0.50424280159E+02  0.41800000000E+01 0.  1.
         -5    1    3    3    0  502 -0.38527961180E+01  0.11579512301E+03 -0.53193294879E+02  0.12755529613E+03  0.41800000000E+01 0.  1.
        -11    1    4    4    0    0 -0.19501008930E+02 -0.73384037097E+02  0.76321426197E+01  0.76313536485E+02  0.00000000000E+00 0. -1.
         11    1    4    4    0    0 -0.13938076614E+02 -0.47101350515E+02 -0.79649834362E+02  0.93578327159E+02  0.00000000000E+00 0.  1.
</event>
<event>
 8    1  0.7048627E-009  0.1460010E+03  0.7561462E-02  0.1205475E+00
          3   -1    0    0  501    0  0.00000000000E+00  0.00000000000E+00  0.17021610541E+03  0.17021610541E+03  0.00000000000E+00 0. -1.
         -3   -1    0    0    0  501 -0.00000000000E+00 -0.00000000000E+00 -0.21122866515E+03  0.21122866515E+03  0.00000000000E+00 0.  1.
         25    2    1    2    0    0  0.59021062190E+02  0.83122553431E+02  0.99022989374E+02  0.18932937623E+03  0.12508883087E+03 0.  0.
         23    2    1    2    0    0 -0.59021062190E+02 -0.83122553431E+02 -0.14003554911E+03  0.19211539433E+03  0.83099488874E+02 0.  0.
          5    1    3    3  502    0 -0.38492436569E+02  0.33077830726E+02  0.40113493937E+02  0.64825730650E+02  0.41800000000E+01 0.  1.
         -5    1    3    3    0  502  0.97513498759E+02  0.50044722706E+02  0.58909495437E+02  0.12450364558E+03  0.41800000000E+01 0.  1.
        -11    1    4    4    0    0  0.13390276042E+02 -0.50006222836E+02 -0.51020057214E+02  0.72684028871E+02  0.00000000000E+00 0.  1.
         11    1    4    4    0    0 -0.72411338232E+02 -0.33116330595E+02 -0.89015491898E+02  0.11943136546E+03  0.00000000000E+00 0. -1.
</event>
<event>
 8    1  0.7048627E-009  0.1171104E+03  0.7561462E-02  0.1247942E+00
          1   -1    0    0  501    0  0.00000000000E+00  0.00000000000E+00  0.11256135062E+03  0.11256135062E+03  0.00000000000E+00 0. -1.
         -1   -1    0    0    0  501 -0.00000000000E+00 -0.00000000000E+00 -0.17678566834E+03  0.17678566834E+03  0.00000000000E+00 0.  1.
         25    2    1    2    0    0 -0.81404376808E+02 -0.21897896116E+02 -0.22255162012E+01  0.15085980146E+03  0.12509011294E+03 0.  0.
         23    2    1    2    0    0  0.81404376808E+02  0.21897896116E+02 -0.61998801513E+02  0.13848721750E+03  0.90712003635E+02 0.  0.
          5    1    3    3  502    0 -0.20788383695E+02  0.50739838319E+02 -0.97961746859E+01  0.55858083818E+02  0.41800000000E+01 0. -1.
         -5    1    3    3    0  502 -0.60615993113E+02 -0.72637734435E+02  0.75706584847E+01  0.95001717642E+02  0.41800000000E+01 0. -1.
        -11    1    4    4    0    0  0.44038431961E+02  0.15060560903E+02 -0.82943311919E+02  0.95109394785E+02  0.00000000000E+00 0. -1.
         11    1    4    4    0    0  0.37365944848E+02  0.68373352131E+01  0.20944510406E+02  0.43377822713E+02  0.00000000000E+00 0.  1.
</event>
<event>
 8    1  0.7048627E-009  0.1055075E+03  0.7561462E-02  0.1269123E+00
         -1   -1    0    0    0  501 -0.00000000000E+00  0.00000000000E+00  0.15352237867E+02  0.15352237867E+02  0.00000000000E+00 0.  1.
          1   -1    0    0  501    0  0.00000000000E+00 -0.00000000000E+00 -0.12226796041E+04  0.12226796041E+04  0.00000000000E+00 0. -1.
         25    2    1    2    0    0  0.31291078819E+02  0.34608779489E+01 -0.10064977164E+04  0.10147292948E+04  0.12508708691E+03 0.  0.
         23    2    1    2    0    0 -0.31291078819E+02 -0.34608779489E+01 -0.20082964977E+03  0.22330254711E+03  0.92414122449E+02 0.  0.
          5    1    3    3  502    0  0.27013776683E+02 -0.55417663143E+02 -0.33679335118E+03  0.34241509213E+03  0.41800000000E+01 0. -1.
         -5    1    3    3    0  502  0.42773021353E+01  0.58878541092E+02 -0.66970436526E+03  0.67231420271E+03  0.41800000000E+01 0. -1.
        -11    1    4    4    0    0  0.15522605044E+02 -0.31751489723E+02 -0.12435570175E+03  0.12928050481E+03  0.00000000000E+00 0.  1.
         11    1    4    4    0    0 -0.46813683863E+02  0.28290611774E+02 -0.76473948018E+02  0.94022042293E+02  0.00000000000E+00 0. -1.
</event>
<event>
 8    1  0.7048627E-009  0.9929494E+02  0.7561462E-02  0.1281786E+00
         -2   -1    0    0    0  501 -0.00000000000E+00  0.00000000000E+00  0.37318331155E+03  0.37318331155E+03  0.00000000000E+00 0.  1.
          2   -1    0    0  501    0  0.00000000000E+00 -0.00000000000E+00 -0.45893033857E+02  0.45893033857E+02  0.00000000000E+00 0. -1.
         25    2    1    2    0    0  0.34096240216E+02  0.32699131784E+02  0.91272268543E+02  0.16189482285E+03  0.12509004695E+03 0.  0.
         23    2    1    2    0    0 -0.34096240216E+02 -0.32699131784E+02  0.23601800915E+03  0.25718152255E+03  0.90587240180E+02 0.  0.
          5    1    3    3  502    0 -0.37633184751E+01  0.55749600015E+02  0.10174918771E+03  0.11615743656E+03  0.41800000000E+01 0. -1.
         -5    1    3    3    0  502  0.37859558691E+02 -0.23050468231E+02 -0.10476919167E+02  0.45737386296E+02  0.41800000000E+01 0. -1.
        -11    1    4    4    0    0 -0.24390484267E+02  0.27673655732E+02  0.12627535366E+03  0.13155300029E+03  0.00000000000E+00 0.  1.
         11    1    4    4    0    0 -0.97057559494E+01 -0.60372787517E+02  0.10974265549E+03  0.12562852226E+03  0.00000000000E+00 0. -1.
</event>
<event>
 8    1  0.7048627E-009  0.9598773E+02  0.7561462E-02  0.1288967E+00
          2   -1    0    0  501    0  0.00000000000E+00  0.00000000000E+00  0.50622306219E+03  0.50622306219E+03  0.00000000000E+00 0. -1.
         -2   -1    0    0    0  501 -0.00000000000E+00 -0.00000000000E+00 -0.28905042160E+02  0.28905042160E+02  0.00000000000E+00 0.  1.
         25    2    1    2    0    0  0.34945998728E+02  0.45470323202E+02  0.26514346691E+03  0.29872591627E+03  0.12508933563E+03 0.  0.
         23    2    1    2    0    0 -0.34945998728E+02 -0.45470323202E+02  0.21217455312E+03  0.23640218808E+03  0.87058488482E+02 0.  0.
          5    1    3    3  502    0  0.68802849747E+02  0.34752018190E+02  0.83985769260E+02  0.11407285716E+03  0.41800000000E+01 0.  1.
         -5    1    3    3    0  502 -0.33856851019E+02  0.10718305012E+02  0.18115769765E+03  0.18465305912E+03  0.41800000000E+01 0.  1.
        -11    1    4    4    0    0 -0.34219529385E+02 -0.67972905969E+00  0.17463134031E+03  0.17795376715E+03  0.00000000000E+00 0. -1.
         11    1    4    4    0    0 -0.72646934320E+00 -0.44790594143E+02  0.37543212813E+02  0.58448420934E+02  0.00000000000E+00 0.  1.
</event>
<event>
 8    1  0.7048627E-009  0.9649739E+02  0.7561462E-02  0.1287839E+00
         -2   -1    0    0    0  501 -0.00000000000E+00  0.00000000000E+00  0.40011456939E+02  0.40011456939E+02  0.00000000000E+00 0.  1.
          2   -1    0    0  501    0  0.00000000000E+00 -0.00000000000E+00 -0.37632603080E+03  0.37632603080E+03  0.00000000000E+00 0. -1.
         25    2    1    2    0    0 -0.27530378065E+02 -0.43148285827E+02 -0.14547147302E+03  0.19856754541E+03  0.12508966521E+03 0.  0.
         23    2    1    2    0    0  0.27530378065E+02  0.43148285827E+02 -0.19084310084E+03  0.21776994233E+03  0.91558518758E+02 0.  0.
          5    1    3    3  502    0  0.32837878051E+02 -0.38456566025E+02 -0.12291059959E+02  0.52208967239E+02  0.41800000000E+01 0. -1.
         -5    1    3    3    0  502 -0.60368256116E+02 -0.46917198020E+01 -0.13318041306E+03  0.14635857817E+03  0.41800000000E+01 0. -1.
        -11    1    4    4    0    0  0.32548042723E+02 -0.51913622323E+01 -0.16653741869E+02  0.36927935836E+02  0.00000000000E+00 0.  1.
         11    1    4    4    0    0 -0.50176646572E+01  0.48339648059E+02 -0.17418935897E+03  0.18084200649E+03  0.00000000000E+00 0. -1.
</event>
<event>
 8    1  0.7048627E-009  0.1926481E+03  0.7561462E-02  0.1156094E+00
          1   -1    0    0  501    0  0.00000000000E+00  0.00000000000E+00  0.60764800499E+02  0.60764800499E+02  0.00000000000E+00 0. -1.
         -1   -1    0    0    0  501 -0.00000000000E+00 -0.00000000000E+00 -0.72520454478E+03  0.72520454478E+03  0.00000000000E+00 0.  1.
         25    2    1    2    0    0 -0.22798026283E+02  0.15841710371E+03 -0.19365962036E+03  0.28065542448E+03  0.12509072702E+03 0.  0.
         23    2    1    2    0    0  0.22798026283E+02 -0.15841710371E+03 -0.47078012392E+03  0.50531392079E+03  0.89958349899E+02 0.  0.
          5    1    3    3  502    0 -0.68664377580E+02  0.13144526272E+03 -0.15634763961E+03  0.21553354878E+03  0.41800000000E+01 0. -1.
         -5    1    3    3    0  502  0.45866351297E+02  0.26971840991E+02 -0.37311980751E+02  0.65121875704E+02  0.41800000000E+01 0. -1.
        -11    1    4    4    0    0  0.48569377053E+02 -0.41632078012E+02 -0.15953239258E+03  0.17188018672E+03  0.00000000000E+00 0. -1.
         11    1    4    4    0    0 -0.25771350769E+02 -0.11678502570E+03 -0.31124773135E+03  0.33343373407E+03  0.00000000000E+00 0.  1.
</event>
<event>
 8    1  0.7048627E-009  0.8887769E+02  0.7561462E-02  0.1305593E+00
          1   -1    0    0  501    0  0.00000000000E+00  0.00000000000E+00  0.12413312759E+04  0.12413312759E+04  0.00000000000E+00 0. -1.
         -1   -1    0    0    0  501 -0.00000000000E+00 -0.00000000000E+00 -0.14681685315E+02  0.14681685315E+02  0.00000000000E+00 0.  1.
         25    2    1    2    0    0  0.10987399184E+02 -0.40255207012E+02  0.99582654895E+03  0.10045194759E+04  0.12509059640E+03 0.  0.
         23    2    1    2    0    0 -0.10987399184E+02  0.40255207012E+02  0.23082304167E+03  0.25149348531E+03  0.90711035478E+02 0.  0.
          5    1    3    3  502    0 -0.21418628423E+01  0.31060523578E+02  0.66819894004E+03  0.66893694738E+03  0.41800000000E+01 0. -1.
         -5    1    3    3    0  502  0.13129262026E+02 -0.71315730589E+02  0.32762760891E+03  0.33558252855E+03  0.41800000000E+01 0. -1.
        -11    1    4    4    0    0  0.20384563228E+02  0.36900181972E+02  0.20880850859E+03  0.21302147100E+03  0.00000000000E+00 0.  1.
         11    1    4    4    0    0 -0.31371962412E+02  0.33550250394E+01  0.22014533077E+02  0.38472014311E+02  0.00000000000E+00 0. -1.
</event>
<event>
 8    1  0.7048627E-009  0.1366581E+03  0.7561462E-02  0.1217898E+00
         -1   -1    0    0    0  501 -0.00000000000E+00  0.00000000000E+00  0.58375183636E+02  0.58375183636E+02  0.00000000000E+00 0.  1.
          1   -1    0    0  501    0  0.00000000000E+00 -0.00000000000E+00 -0.47424351685E+03  0.47424351685E+03  0.00000000000E+00 0. -1.
         25    2    1    2    0    0 -0.38043872736E+02  0.11277566334E+03 -0.15709724980E+03  0.23343111611E+03  0.12507938910E+03 0.  0.
         23    2    1    2    0    0  0.38043872736E+02 -0.11277566334E+03 -0.25877108342E+03  0.29918758438E+03  0.91569921583E+02 0.  0.
          5    1    3    3  502    0 -0.51976583389E+02  0.11371481246E+03 -0.66515801326E+02  0.14168432524E+03  0.41800000000E+01 0.  1.
         -5    1    3    3    0  502  0.13932710653E+02 -0.93914911078E+00 -0.90581448472E+02  0.91746790868E+02  0.41800000000E+01 0.  1.
        -11    1    4    4    0    0  0.50712850498E+02 -0.56353830527E+02 -0.75436980599E+02  0.10694992035E+03  0.00000000000E+00 0.  1.
         11    1    4    4    0    0 -0.12668977762E+02 -0.56421832817E+02 -0.18333410282E+03  0.19223766403E+03  0.00000000000E+00 0. -1.
</event>
<event>
 8    1  0.7048627E-009  0.1093394E+03  0.7561462E-02  0.1261798E+00
          2   -1    0    0  501    0  0.00000000000E+00  0.00000000000E+00  0.21557711963E+03  0.21557711963E+03  0.00000000000E+00 0. -1.
         -2   -1    0    0    0  501 -0.00000000000E+00 -0.00000000000E+00 -0.11544749856E+03  0.11544749856E+03  0.00000000000E+00 0.  1.
         25    2    1    2    0    0 -0.19088872679E+02  0.41513892989E+02 -0.56337141624E+02  0.14458252255E+03  0.12506975626E+03 0.  0.
         23    2    1    2    0    0  0.19088872679E+02 -0.41513892989E+02  0.15646676270E+03  0.18644209564E+03  0.90504247554E+02 0.  0.
          5    1    3    3  502    0  0.42999196879E+02  0.54539827761E+02 -0.29598594989E+02  0.75611328316E+02  0.41800000000E+01 0. -1.
         -5    1    3    3    0  502 -0.62088069558E+02 -0.13025934772E+02 -0.26738546635E+02  0.68971194235E+02  0.41800000000E+01 0. -1.
        -11    1    4    4    0    0  0.34888927146E+02  0.60456153054E+01  0.11819336981E+03  0.12338338368E+03  0.00000000000E+00 0. -1.
         11    1    4    4    0    0 -0.15800054467E+02 -0.47559508294E+02  0.38273392889E+02  0.63058711956E+02  0.00000000000E+00 0.  1.
</event>
<event>
 8    1  0.7048627E-009  0.1566729E+03  0.7561462E-02  0.1192505E+00
          1   -1    0    0  501    0  0.00000000000E+00  0.00000000000E+00  0.76358221167E+03  0.76358221167E+03  0.00000000000E+00 0. -1.
         -1   -1    0    0    0  501 -0.00000000000E+00 -0.00000000000E+00 -0.35213922624E+02  0.35213922624E+02  0.00000000000E+00 0.  1.
         25    2    1    2    0    0  0.11840102647E+03  0.38117283478E+02  0.39969313051E+03  0.43688904200E+03  0.12508279687E+03 0.  0.
         23    2    1    2    0    0 -0.11840102647E+03 -0.38117283478E+02  0.32867515853E+03  0.36190709229E+03  0.86473425092E+02 0.  0.
          5    1    3    3  502    0 -0.10694673983E+02 -0.26696193845E+02  0.41693384144E+02  0.50821978502E+02  0.41800000000E+01 0.  1.
         -5    1    3    3    0  502  0.12909570045E+03  0.64813477323E+02  0.35799974637E+03  0.38606706350E+03  0.41800000000E+01 0.  1.
        -11    1    4    4    0    0 -0.90238987696E+02  0.25859097336E+01  0.13794512726E+03  0.16485939453E+03  0.00000000000E+00 0.  1.
         11    1    4    4    0    0 -0.28162038774E+02 -0.40703193211E+02  0.19073003127E+03  0.19704769776E+03  0.00000000000E+00 0. -1.
</event>
<event>
 8    1  0.7048627E-009  0.9371013E+02  0.7561462E-02  0.1294108E+00
          1   -1    0    0  501    0  0.00000000000E+00  0.00000000000E+00  0.67646979115E+02  0.67646979115E+02  0.00000000000E+00 0. -1.
         -1   -1    0    0    0  501 -0.00000000000E+00 -0.00000000000E+00 -0.26259735126E+03  0.26259735126E+03  0.00000000000E+00 0.  1.
         25    2    1    2    0    0 -0.31194845287E+02 -0.40266843475E+02 -0.33234089524E+02  0.13909215308E+03  0.12509030852E+03 0.  0.
         23    2    1    2    0    0  0.31194845287E+02  0.40266843475E+02 -0.16171628262E+03  0.19115217729E+03  0.88274921497E+02 0.  0.
          5    1    3    3  502    0  0.37004801559E+02  0.21431636325E+02 -0.91059772860E+01  0.43921083733E+02  0.41800000000E+01 0. -1.
         -5    1    3    3    0  502 -0.68199646846E+02 -0.61698479801E+02 -0.24128112238E+02  0.95171069342E+02  0.41800000000E+01 0. -1.
        -11    1    4    4    0    0  0.13823781791E+02  0.27679802882E+02 -0.16635221164E+03  0.16920498440E+03  0.00000000000E+00 0.  1.
         11    1    4    4    0    0  0.17371063496E+02  0.12587040593E+02  0.46359290214E+01  0.21947192890E+02  0.00000000000E+00 0. -1.
</event>
<event>
 8    1  0.7048627E-009  0.1255654E+03  0.7561462E-02  0.1234188E+00
          1   -1    0    0  501    0  0.00000000000E+00  0.00000000000E+00  0.73484170534E+02  0.73484170534E+02  0.00000000000E+00 0. -1.
         -1   -1    0    0    0  501 -0.00000000000E+00 -0.00000000000E+00 -0.29903485023E+03  0.29903485023E+03  0.00000000000E+00 0.  1.
         25    2    1    2    0    0 -0.21829378165E+02  0.97205679629E+02 -0.14503427076E+03  0.21588775762E+03  0.12508844188E+03 0.  0.
         23    2    1    2    0    0  0.21829378165E+02 -0.97205679629E+02 -0.80516408935E+02  0.15663126314E+03  0.90138751833E+02 0.  0.
          5    1    3    3  502    0 -0.29691707089E+02 -0.10421098422E+02 -0.88436467397E+02  0.93961044736E+02  0.41800000000E+01 0. -1.
         -5    1    3    3    0  502  0.78623289231E+01  0.10762677805E+03 -0.56597803362E+02  0.12192671289E+03  0.41800000000E+01 0. -1.
        -11    1    4    4    0    0  0.37961116642E+02 -0.73408796338E+02 -0.13539641342E+02  0.83744967873E+02  0.00000000000E+00 0. -1.
         11    1    4    4    0    0 -0.16131738476E+02 -0.23796883291E+02 -0.66976767592E+02  0.72886295267E+02  0.00000000000E+00 0.  1.
</event>
<event>
 8    1  0.7048627E-009  0.3114251E+03  0.7561462E-02  0.1079665E+00
         -1   -1    0    0    0  501 -0.00000000000E+00  0.00000000000E+00  0.59017789317E+02  0.59017789317E+02  0.00000000000E+00 0.  1.
          1   -1    0    0  501    0  0.00000000000E+00 -0.00000000000E+00 -0.17892730837E+04  0.17892730837E+04  0.00000000000E+00 0. -1.
         25    2    1    2    0    0 -0.19240803794E+03 -0.22712897033E+03 -0.10756505849E+04  0.11230683111E+04  0.12509927412E+03 0.  0.
         23    2    1    2    0    0  0.19240803794E+03  0.22712897033E+03 -0.65460470949E+03  0.72522256191E+03  0.93978808240E+02 0.  0.
          5    1    3    3  502    0 -0.44181269854E+02 -0.64249488456E+01 -0.72236161607E+02  0.85022350105E+02  0.41800000000E+01 0.  1.
         -5    1    3    3    0  502 -0.14822676809E+03 -0.22070402149E+03 -0.10034144233E+04  0.10380459610E+04  0.41800000000E+01 0.  1.
        -11    1    4    4    0    0  0.13157069549E+03  0.82715607423E+02 -0.33162163132E+03  0.36623165617E+03  0.00000000000E+00 0.  1.
         11    1    4    4    0    0  0.60837342451E+02  0.14441336291E+03 -0.32298307816E+03  0.35899090574E+03  0.00000000000E+00 0. -1.
</event>
<event>
 8    1  0.7048627E-009  0.9904989E+02  0.7561462E-02  0.1282307E+00
         -2   -1    0    0    0  501 -0.00000000000E+00  0.00000000000E+00  0.14711094580E+03  0.14711094580E+03  0.00000000000E+00 0.  1.
          2   -1    0    0  501    0  0.00000000000E+00 -0.00000000000E+00 -0.12252437524E+03  0.12252437524E+03  0.00000000000E+00 0. -1.
         25    2    1    2    0    0 -0.68886419098E+02  0.23630563084E+01  0.43730089274E+02  0.14938480237E+03  0.12511025417E+03 0.  0.
         23    2    1    2    0    0  0.68886419098E+02 -0.23630563084E+01 -0.19143518723E+02  0.12025051867E+03  0.96658109646E+02 0.  0.
          5    1    3    3  502    0 -0.26064470757E+02  0.52484370336E+02 -0.15395647137E+02  0.60732726896E+02  0.41800000000E+01 0. -1.
         -5    1    3    3    0  502 -0.42821948340E+02 -0.50121314028E+02  0.59125736411E+02  0.88652075473E+02  0.41800000000E+01 0. -1.
        -11    1    4    4    0    0  0.53229117593E+02 -0.12455660312E+02  0.33700007208E+02  0.64219723756E+02  0.00000000000E+00 0.  1.
         11    1    4    4    0    0  0.15657301505E+02  0.10092604003E+02 -0.52843525931E+02  0.56030794915E+02  0.00000000000E+00 0. -1.
</event>
<event>
 8    1  0.7048627E-009  0.1078228E+03  0.7561462E-02  0.1264656E+00
         -2   -1    0    0    0  501 -0.00000000000E+00  0.00000000000E+00  0.15242937510E+02  0.15242937510E+02  0.00000000000E+00 0.  1.
          2   -1    0    0  501    0  0.00000000000E+00 -0.00000000000E+00 -0.81972037132E+03  0.81972037132E+03  0.00000000000E+00 0. -1.
         25    2    1    2    0    0 -0.17332412289E+02 -0.52715285413E+00 -0.38372316739E+03  0.40396870651E+03  0.12508619525E+03 0.  0.
         23    2    1    2    0    0  0.17332412289E+02  0.52715285413E+00 -0.42075426642E+03  0.43099460232E+03  0.91768753457E+02 0.  0.
          5    1    3    3  502    0  0.52804888875E+02 -0.10737014648E+01 -0.12261453452E+03  0.13357135022E+03  0.41800000000E+01 0.  1.
         -5    1    3    3    0  502 -0.70137301164E+02  0.54654861068E+00 -0.26110863287E+03  0.27039735629E+03  0.41800000000E+01 0.  1.
        -11    1    4    4    0    0  0.18313592289E+02  0.44653734649E+02 -0.25086609837E+03  0.25546652029E+03  0.00000000000E+00 0. -1.
         11    1    4    4    0    0 -0.98117999967E+00 -0.44126581795E+02 -0.16988816805E+03  0.17552808202E+03  0.00000000000E+00 0.  1.
</event>
<event>
 8    1  0.7048627E-009  0.8921905E+02  0.7561462E-02  0.1304754E+00
          2   -1    0    0  501    0  0.00000000000E+00  0.00000000000E+00  0.49889351981E+03  0.49889351981E+03  0.00000000000E+00 0. -1.
         -2   -1    0    0    0  501 -0.00000000000E+00 -0.00000000000E+00 -0.32003851878E+02  0.32003851878E+02  0.00000000000E+00 0.  1.
         25    2    1    2    0    0  0.35752110364E+02  0.50908088344E+02  0.27820702539E+03  0.31131287380E+03  0.12508680810E+03 0.  0.
         23    2    1    2    0    0 -0.35752110364E+02 -0.50908088344E+02  0.18868264254E+03  0.21958449789E+03  0.93522004169E+02 0.  0.
          5    1    3    3  502    0  0.20563485847E+02  0.10055685491E+02  0.26437270722E+03  0.26539475218E+03  0.41800000000E+01 0.  1.
         -5    1    3    3    0  502  0.15188624517E+02  0.40852402854E+02  0.13834318169E+02  0.45918121617E+02  0.41800000000E+01 0.  1.
        -11    1    4    4    0    0  0.30895895759E+02 -0.73280267516E+01  0.41658675134E+02  0.52380354760E+02  0.00000000000E+00 0.  1.
         11    1    4    4    0    0 -0.66648006123E+02 -0.43580061593E+02  0.14702396741E+03  0.16720414313E+03  0.00000000000E+00 0. -1.
</event>
<event>
 8    1  0.7048627E-009  0.3446801E+03  0.7561462E-02  0.1064820E+00
          1   -1    0    0  501    0  0.00000000000E+00  0.00000000000E+00  0.11400023902E+04  0.11400023902E+04  0.00000000000E+00 0. -1.
         -1   -1    0    0    0  501 -0.00000000000E+00 -0.00000000000E+00 -0.12811177600E+03  0.12811177600E+03  0.00000000000E+00 0.  1.
         25    2    1    2    0    0 -0.22734017358E+03 -0.24062820223E+03  0.25246798665E+03  0.43470768540E+03  0.12508077882E+03 0.  0.
         23    2    1    2    0    0  0.22734017358E+03  0.24062820223E+03  0.75942262756E+03  0.83340648081E+03  0.90874357069E+02 0.  0.
          5    1    3    3  502    0 -0.57155573074E+02 -0.14518434698E+03  0.13867390581E+03  0.20878979547E+03  0.41800000000E+01 0. -1.
         -5    1    3    3    0  502 -0.17018460051E+03 -0.95443855252E+02  0.11379408084E+03  0.22591788993E+03  0.41800000000E+01 0. -1.
        -11    1    4    4    0    0  0.20685982269E+03  0.18032766693E+03  0.66620241376E+03  0.72051003450E+03  0.00000000000E+00 0.  1.
         11    1    4    4    0    0  0.20480350890E+02  0.60300535302E+02  0.93220213801E+02  0.11289644632E+03  0.00000000000E+00 0. -1.
</event>
<event>
 8    1  0.7048627E-009  0.1710835E+03  0.7561462E-02  0.1176723E+00
         -1   -1    0    0    0  501 -0.00000000000E+00  0.00000000000E+00  0.26822243660E+03  0.26822243660E+03  0.00000000000E+00 0.  1.
          1   -1    0    0  501    0  0.00000000000E+00 -0.00000000000E+00 -0.22460568811E+03  0.22460568811E+03  0.00000000000E+00 0. -1.
         25    2    1    2    0    0  0.71034325420E+02  0.11154092955E+03  0.19871908583E+03  0.26948897355E+03  0.12509107658E+03 0.  0.
         23    2    1    2    0    0 -0.71034325420E+02 -0.11154092955E+03 -0.15510233734E+03  0.22333915116E+03  0.91303817216E+02 0.  0.
          5    1    3    3  502    0  0.98888742302E+01 -0.27755921420E+02  0.35646062793E+02  0.46435925748E+02  0.41800000000E+01 0.  1.
         -5    1    3    3    0  502  0.61145451190E+02  0.13929685097E+03  0.16307302304E+03  0.22305304780E+03  0.41800000000E+01 0.  1.
        -11    1    4    4    0    0 -0.57729219113E+02 -0.10952644509E+02 -0.48740987380E+02  0.76343349493E+02  0.00000000000E+00 0. -1.
         11    1    4    4    0    0 -0.13305106308E+02 -0.10058828504E+03 -0.10636134996E+03  0.14699580166E+03  0.00000000000E+00 0.  1.
</event>
<event>
 8    1  0.7048627E-009  0.1349809E+03  0.7561462E-02  0.1220247E+00
         -1   -1    0    0    0  501 -0.00000000000E+00  0.00000000000E+00  0.12481883134E+03  0.12481883134E+03  0.00000000000E+00 0.  1.
          1   -1    0    0  501    0  0.00000000000E+00 -0.00000000000E+00 -0.15812674295E+03  0.15812674295E+03  0.00000000000E+00 0. -1.
         25    2    1    2    0    0  0.87766122110E+02  0.24549888139E+01 -0.33252965122E+02  0.15640520046E+03  0.12509159796E+03 0.  0.
         23    2    1    2    0    0 -0.87766122110E+02 -0.24549888139E+01 -0.54946489067E-01  0.12654037384E+03  0.91123784117E+02 0.  0.
          5    1    3    3  502    0  0.64908212010E+02  0.60414980230E+02 -0.30621588248E+02  0.93905270828E+02  0.41800000000E+01 0.  1.
         -5    1    3    3    0  502  0.22857910101E+02 -0.57959991416E+02 -0.26313768730E+01  0.62499929627E+02  0.41800000000E+01 0.  1.
        -11    1    4    4    0    0 -0.79846274623E+01  0.31163171007E+02 -0.19756113244E+02  0.37751841192E+02  0.00000000000E+00 0. -1.
         11    1    4    4    0    0 -0.79781494648E+02 -0.33618159820E+02  0.19701166755E+02  0.88788532646E+02  0.00000000000E+00 0.  1.
</event>
<event>
 8    1  0.7048627E-009  0.1274313E+03  0.7561462E-02  0.1231318E+00
          1   -1    0    0  501    0  0.00000000000E+00  0.00000000000E+00  0.13332750786E+03  0.13332750786E+03  0.00000000000E+00 0. -1.
         -1   -1    0    0    0  501 -0.00000000000E+00 -0.00000000000E+00 -0.16428006769E+03  0.16428006769E+03  0.00000000000E+00 0.  1.
         25    2    1    2    0    0  0.23944054288E+02  0.70775015952E+02 -0.83134439446E+02  0.16775242406E+03  0.12508844926E+03 0.  0.
         23    2    1    2    0    0 -0.23944054288E+02 -0.70775015952E+02  0.52181879614E+02  0.12985515149E+03  0.92504006346E+02 0.  0.
          5    1    3    3  502    0 -0.33114800398E+02  0.71975828587E+02 -0.76382441581E+02  0.11013110227E+03  0.41800000000E+01 0.  1.
         -5    1    3    3    0  502  0.57058854686E+02 -0.12008126357E+01 -0.67519978647E+01  0.57621321785E+02  0.41800000000E+01 0.  1.
        -11    1    4    4    0    0 -0.51801424371E+02 -0.73921901011E+02  0.34081699507E+02  0.96485217817E+02  0.00000000000E+00 0. -1.
         11    1    4    4    0    0  0.27857370083E+02  0.31468850595E+01  0.18100180107E+02  0.33369933674E+02  0.00000000000E+00 0.  1.
</event>
<event>
 8    1  0.7048627E-009  0.1690800E+03  0.7561462E-02  0.1178811E+00
         -1   -1    0    0    0  501 -0.00000000000E+00  0.00000000000E+00  0.25526974651E+02  0.25526974651E+02  0.00000000000E+00 0.  1.
          1   -1    0    0  501    0  0.00000000000E+00 -0.00000000000E+00 -0.13094909161E+04  0.13094909161E+04  0.00000000000E+00 0. -1.
         25    2    1    2    0    0  0.14273557438E+03  0.56855677561E+01 -0.56799960650E+03  0.59889624695E+03  0.12508953495E+03 0.  0.
         23    2    1    2    0    0 -0.14273557438E+03 -0.56855677561E+01 -0.71596433495E+03  0.73612164380E+03  0.94150813455E+02 0.  0.
          5    1    3    3  502    0  0.98740440542E+02  0.44553257863E+02 -0.21246739998E+03  0.23852575509E+03  0.41800000000E+01 0. -1.
         -5    1    3    3    0  502  0.43995133841E+02 -0.38867690107E+02 -0.35553220652E+03  0.36037049187E+03  0.41800000000E+01 0. -1.
        -11    1    4    4    0    0 -0.11329795376E+03 -0.44895274045E+02 -0.52575155675E+03  0.53969131120E+03  0.00000000000E+00 0.  1.
         11    1    4    4    0    0 -0.29437620623E+02  0.39209706289E+02 -0.19021277820E+03  0.19643033260E+03  0.00000000000E+00 0. -1.
</event>
<event>
 8    1  0.7048627E-009  0.1071703E+03  0.7561462E-02  0.1265902E+00
         -1   -1    0    0    0  501 -0.00000000000E+00  0.00000000000E+00  0.20713243783E+02  0.20713243783E+02  0.00000000000E+00 0.  1.
          1   -1    0    0  501    0  0.00000000000E+00 -0.00000000000E+00 -0.77849157643E+03  0.77849157643E+03  0.00000000000E+00 0. -1.
         25    2    1    2    0    0  0.48116845091E+02 -0.46807523973E+02 -0.42485467238E+03  0.44794494701E+03  0.12508800031E+03 0.  0.
         23    2    1    2    0    0 -0.48116845091E+02  0.46807523973E+02 -0.33292366027E+03  0.35125987321E+03  0.89661362239E+02 0.  0.
          5    1    3    3  502    0 -0.18052277233E+02 -0.43861191366E+02 -0.32224165431E+03  0.32574045649E+03  0.41800000000E+01 0. -1.
         -5    1    3    3    0  502  0.66169122324E+02 -0.29463326066E+01 -0.10261301807E+03  0.12220449052E+03  0.41800000000E+01 0. -1.
        -11    1    4    4    0    0 -0.49655342453E+02  0.65170563911E+02 -0.31526488857E+03  0.32573732577E+03  0.00000000000E+00 0. -1.
         11    1    4    4    0    0  0.15384973620E+01 -0.18363039938E+02 -0.17658771699E+02  0.25522547440E+02  0.00000000000E+00 0.  1.
</event>
<event>
 8    1  0.7048627E-009  0.2156773E+03  0.7561462E-02  0.1137147E+00
         -2   -1    0    0    0  501 -0.00000000000E+00  0.00000000000E+00  0.73222354024E+02  0.73222354024E+02  0.00000000000E+00 0. -1.
          2   -1    0    0  501    0  0.00000000000E+00 -0.00000000000E+00 -0.76668477731E+03  0.76668477731E+03  0.00000000000E+00 0.  1.
         25    2    1    2    0    0  0.14086760475E+03  0.15038137992E+03 -0.43349141121E+03  0.49600430573E+03  0.12508887324E+03 0.  0.
         23    2    1    2    0    0 -0.14086760475E+03 -0.15038137992E+03 -0.25997101207E+03  0.34390282561E+03  0.90697215201E+02 0.  0.
          5    1    3    3  502    0  0.25990013438E+02  0.42856105867E+02 -0.21004038354E+02  0.54504757919E+02  0.41800000000E+01 0. -1.
         -5    1    3    3    0  502  0.11487759132E+03  0.10752527406E+03 -0.41248737286E+03  0.44149954781E+03  0.41800000000E+01 0. -1.
        -11    1    4    4    0    0 -0.17750050465E+02 -0.79781266239E+02 -0.76518039728E+02  0.11196037307E+03  0.00000000000E+00 0.  1.
         11    1    4    4    0    0 -0.12311755429E+03 -0.70600113685E+02 -0.18345297235E+03  0.23194245254E+03  0.00000000000E+00 0. -1.
</event>
<event>
 8    1  0.7048627E-009  0.1322678E+03  0.7561462E-02  0.1224129E+00
          1   -1    0    0  501    0  0.00000000000E+00  0.00000000000E+00  0.87659784225E+02  0.87659784225E+02  0.00000000000E+00 0. -1.
         -1   -1    0    0    0  501 -0.00000000000E+00 -0.00000000000E+00 -0.30784239215E+03  0.30784239215E+03  0.00000000000E+00 0.  1.
         25    2    1    2    0    0 -0.12524309052E+00  0.11832137014E+03 -0.78465034549E+02  0.18921932763E+03  0.12508888833E+03 0.  0.
         23    2    1    2    0    0  0.12524309052E+00 -0.11832137014E+03 -0.14171757338E+03  0.20628284875E+03  0.92025978759E+02 0.  0.
          5    1    3    3  502    0 -0.31284512495E+01  0.82581842926E+02 -0.11246299375E+03  0.13962430072E+03  0.41800000000E+01 0.  1.
         -5    1    3    3    0  502  0.30032081590E+01  0.35739527211E+02  0.33997959199E+02  0.49595026910E+02  0.41800000000E+01 0.  1.
        -11    1    4    4    0    0  0.42060155779E+02 -0.70347361929E+02 -0.55133614350E+02  0.98780177494E+02  0.00000000000E+00 0. -1.
         11    1    4    4    0    0 -0.41934912689E+02 -0.47974008208E+02 -0.86583959027E+02  0.10750267125E+03  0.00000000000E+00 0.  1.
</event>
<event>
 8    1  0.7048627E-009  0.1190049E+03  0.7561462E-02  0.1244748E+00
          2   -1    0    0  501    0  0.00000000000E+00  0.00000000000E+00  0.26848052712E+04  0.26848052712E+04  0.00000000000E+00 0. -1.
         -2   -1    0    0    0  501 -0.00000000000E+00 -0.00000000000E+00 -0.20633534625E+02  0.20633534625E+02  0.00000000000E+00 0.  1.
         25    2    1    2    0    0  0.58291784334E+02 -0.39048590922E+02  0.25158108884E+04  0.25198958472E+04  0.12509168641E+03 0.  0.
         23    2    1    2    0    0 -0.58291784334E+02  0.39048590922E+02  0.14836084815E+03  0.18554295860E+03  0.86559364866E+02 0.  0.
          5    1    3    3  502    0 -0.30641338965E+02  0.93324479946E+01  0.10949988086E+04  0.10954751706E+04  0.41800000000E+01 0. -1.
         -5    1    3    3    0  502  0.88933123299E+02 -0.48381038917E+02  0.14208120798E+04  0.14244206766E+04  0.41800000000E+01 0. -1.
        -11    1    4    4    0    0 -0.17202782587E+02  0.57000665434E+02  0.51169825727E+02  0.78507086646E+02  0.00000000000E+00 0.  1.
         11    1    4    4    0    0 -0.41089001747E+02 -0.17952074512E+02  0.97191022427E+02  0.10703587195E+03  0.00000000000E+00 0. -1.
</event>
<event>
 8    1  0.7048627E-009  0.1715047E+03  0.7561462E-02  0.1176288E+00
          1   -1    0    0  501    0  0.00000000000E+00  0.00000000000E+00  0.25375607195E+03  0.25375607195E+03  0.00000000000E+00 0.  1.
         -1   -1    0    0    0  501 -0.00000000000E+00 -0.00000000000E+00 -0.15123610034E+03  0.15123610034E+03  0.00000000000E+00 0. -1.
         25    2    1    2    0    0 -0.61983292996E+02  0.14953700888E+03  0.71873173027E+02  0.21683543326E+03  0.12509439030E+03 0.  0.
         23    2    1    2    0    0  0.61983292996E+02 -0.14953700888E+03  0.30646798582E+02  0.18815673903E+03  0.90887218829E+02 0.  0.
          5    1    3    3  502    0 -0.29428408089E+02  0.13579490459E+03  0.10019623921E+03  0.17135648825E+03  0.41800000000E+01 0.  1.
         -5    1    3    3    0  502 -0.32554884907E+02  0.13742104286E+02 -0.28323066179E+02  0.45478945011E+02  0.41800000000E+01 0.  1.
        -11    1    4    4    0    0  0.22238245633E+02 -0.11047002122E+03  0.57257954121E+02  0.12639872811E+03  0.00000000000E+00 0.  1.
         11    1    4    4    0    0  0.39745047363E+02 -0.39066987656E+02 -0.26611155539E+02  0.61758010926E+02  0.00000000000E+00 0. -1.
</event>
<event>
 8    1  0.7048627E-009  0.9495615E+02  0.7561462E-02  0.1291275E+00
          2   -1    0    0  501    0  0.00000000000E+00  0.00000000000E+00  0.66163986439E+03  0.66163986439E+03  0.00000000000E+00 0. -1.
         -2   -1    0    0    0  501 -0.00000000000E+00 -0.00000000000E+00 -0.30107831675E+02  0.30107831675E+02  0.00000000000E+00 0.  1.
         25    2    1    2    0    0  0.37586824463E+02  0.16861905371E+02  0.53553270167E+03  0.55148865800E+03  0.12508945647E+03 0.  0.
         23    2    1    2    0    0 -0.37586824463E+02 -0.16861905371E+02  0.95999331045E+02  0.14025903806E+03  0.93592910906E+02 0.  0.
          5    1    3    3  502    0 -0.39858966049E+02  0.69567141696E+01  0.31273971137E+03  0.31537395662E+03  0.41800000000E+01 0.  1.
         -5    1    3    3    0  502  0.77445790512E+02  0.99051912015E+01  0.22279299029E+03  0.23611470137E+03  0.41800000000E+01 0.  1.
        -11    1    4    4    0    0  0.78157505328E+01  0.14079748852E+02 -0.11325867473E+02  0.19687573699E+02  0.00000000000E+00 0.  1.
         11    1    4    4    0    0 -0.45402574996E+02 -0.30941654223E+02  0.10732519852E+03  0.12057146437E+03  0.00000000000E+00 0. -1.
</event>
<event>
 8    1  0.7048627E-009  0.2461410E+03  0.7561462E-02  0.1115768E+00
          2   -1    0    0  501    0  0.00000000000E+00  0.00000000000E+00  0.86650869553E+03  0.86650869553E+03  0.00000000000E+00 0. -1.
         -2   -1    0    0    0  501 -0.00000000000E+00 -0.00000000000E+00 -0.82588515605E+02  0.82588515605E+02  0.00000000000E+00 0.  1.
         25    2    1    2    0    0  0.19539615588E+03  0.14440758523E+03  0.37327481690E+03  0.46261698285E+03  0.12508867048E+03 0.  0.
         23    2    1    2    0    0 -0.19539615588E+03 -0.14440758523E+03  0.41064536302E+03  0.48648022829E+03  0.94869330850E+02 0.  0.
          5    1    3    3  502    0  0.11528782857E+03  0.64470769078E+02  0.96703161314E+02  0.16375816709E+03  0.41800000000E+01 0.  1.
         -5    1    3    3    0  502  0.80108327312E+02  0.79936816153E+02  0.27657165559E+03  0.29885881576E+03  0.41800000000E+01 0.  1.
        -11    1    4    4    0    0 -0.15823645061E+03 -0.93312279210E+02  0.22551289843E+03  0.29086426923E+03  0.00000000000E+00 0. -1.
         11    1    4    4    0    0 -0.37159705267E+02 -0.51095306020E+02  0.18513246459E+03  0.19561595906E+03  0.00000000000E+00 0.  1.
</event>
<event>
 8    1  0.7048627E-009  0.9928023E+02  0.7561462E-02  0.1281817E+00
          3   -1    0    0  501    0  0.00000000000E+00  0.00000000000E+00  0.65548202883E+02  0.65548202883E+02  0.00000000000E+00 0. -1.
         -3   -1    0    0    0  501 -0.00000000000E+00 -0.00000000000E+00 -0.23003858382E+03  0.23003858382E+03  0.00000000000E+00 0.  1.
         25    2    1    2    0    0  0.32112209132E+02  0.38726351192E+02 -0.80205274826E+02  0.15687907311E+03  0.12508890126E+03 0.  0.
         23    2    1    2    0    0 -0.32112209132E+02 -0.38726351192E+02 -0.84285106115E+02  0.13870771360E+03  0.98004726652E+02 0.  0.
          5    1    3    3  502    0  0.37110520556E+02 -0.11442898000E+02  0.20550563849E+02  0.44135345530E+02  0.41800000000E+01 0.  1.
         -5    1    3    3    0  502 -0.49983114238E+01  0.50169249193E+02 -0.10075583868E+03  0.11274372758E+03  0.41800000000E+01 0.  1.
        -11    1    4    4    0    0  0.34837135548E+02 -0.13848074701E+02 -0.39228001958E+02  0.54260771500E+02  0.00000000000E+00 0.  1.
         11    1    4    4    0    0 -0.66949344680E+02 -0.24878276491E+02 -0.45057104156E+02  0.84446942095E+02  0.00000000000E+00 0. -1.
</event>
<event>
 8    1  0.7048627E-009  0.1173284E+03  0.7561462E-02  0.1247570E+00
          1   -1    0    0  501    0  0.00000000000E+00  0.00000000000E+00  0.13704658906E+04  0.13704658906E+04  0.00000000000E+00 0. -1.
         -1   -1    0    0    0  501 -0.00000000000E+00 -0.00000000000E+00 -0.17401160681E+02  0.17401160681E+02  0.00000000000E+00 0.  1.
         25    2    1    2    0    0  0.54301914387E+02  0.46331992713E+02  0.10979617400E+04  0.11073674184E+04  0.12508902959E+03 0.  0.
         23    2    1    2    0    0 -0.54301914387E+02 -0.46331992713E+02  0.25510298987E+03  0.28049963286E+03  0.92234251428E+02 0.  0.
          5    1    3    3  502    0  0.88495960189E+02  0.26371932538E+02  0.93726356439E+03  0.94181074284E+03  0.41800000000E+01 0.  1.
         -5    1    3    3    0  502 -0.34194045803E+02  0.19960060175E+02  0.16069817561E+03  0.16555667554E+03  0.41800000000E+01 0.  1.
        -11    1    4    4    0    0  0.30220049245E+01  0.16836696514E+02  0.76158326280E+01  0.18724523222E+02  0.00000000000E+00 0.  1.
         11    1    4    4    0    0 -0.57323919311E+02 -0.63168689227E+02  0.24748715725E+03  0.26177510964E+03  0.00000000000E+00 0. -1.
</event>
<event>
 8    1  0.7048627E-009  0.9777403E+02  0.7561462E-02  0.1285048E+00
          3   -1    0    0  501    0  0.00000000000E+00  0.00000000000E+00  0.60850365589E+03  0.60850365589E+03  0.00000000000E+00 0. -1.
         -3   -1    0    0    0  501 -0.00000000000E+00 -0.00000000000E+00 -0.22761391934E+02  0.22761391934E+02  0.00000000000E+00 0.  1.
         25    2    1    2    0    0  0.51912068991E+01 -0.38935615568E+02  0.39406054812E+03  0.41529784800E+03  0.12508259744E+03 0.  0.
         23    2    1    2    0    0 -0.51912068991E+01  0.38935615568E+02  0.19168171583E+03  0.21596719982E+03  0.91416740396E+02 0.  0.
          5    1    3    3  502    0 -0.35072337696E+02 -0.45584850688E+02  0.35145014583E+03  0.35614986296E+03  0.41800000000E+01 0. -1.
         -5    1    3    3    0  502  0.40263544595E+02  0.66492351197E+01  0.42610402289E+02  0.59147985039E+02  0.41800000000E+01 0. -1.
        -11    1    4    4    0    0  0.21028595060E+02 -0.22053319118E+02  0.85209491653E+02  0.90494243806E+02  0.00000000000E+00 0. -1.
         11    1    4    4    0    0 -0.26219801959E+02  0.60988934686E+02  0.10647222418E+03  0.12547295601E+03  0.00000000000E+00 0.  1.
</event>
<event>
 8    1  0.7048627E-009  0.1254211E+03  0.7561462E-02  0.1234413E+00
         -2   -1    0    0    0  501 -0.00000000000E+00  0.00000000000E+00  0.92652333703E+03  0.92652333703E+03  0.00000000000E+00 0. -1.
          2   -1    0    0  501    0  0.00000000000E+00 -0.00000000000E+00 -0.45771461120E+02  0.45771461120E+02  0.00000000000E+00 0.  1.
         25    2    1    2    0    0  0.75190025820E+02  0.10521128899E+02  0.82920812330E+03  0.84202028230E+03  0.12509120643E+03 0.  0.
         23    2    1    2    0    0 -0.75190025820E+02 -0.10521128899E+02  0.51543752614E+02  0.13027451585E+03  0.92468680702E+02 0.  0.
          5    1    3    3  502    0  0.94418270129E+02  0.37396825982E+02  0.44922249521E+03  0.46057752326E+03  0.41800000000E+01 0. -1.
         -5    1    3    3    0  502 -0.19228244309E+02 -0.26875697083E+02  0.37998562809E+03  0.38144275904E+03  0.41800000000E+01 0. -1.
        -11    1    4    4    0    0 -0.36582771689E+02  0.38754512054E+02  0.76957645136E+01  0.53846412884E+02  0.00000000000E+00 0. -1.
         11    1    4    4    0    0 -0.38607254131E+02 -0.49275640953E+02  0.43847988101E+02  0.76428102969E+02  0.00000000000E+00 0.  1.
</event>
<event>
 8    1  0.7048627E-009  0.3366451E+03  0.7561462E-02  0.1068234E+00
         -1   -1    0    0    0  501 -0.00000000000E+00  0.00000000000E+00  0.29912980273E+03  0.29912980273E+03  0.00000000000E+00 0.  1.
          1   -1    0    0  501    0  0.00000000000E+00 -0.00000000000E+00 -0.40310219933E+03  0.40310219933E+03  0.00000000000E+00 0. -1.
         25    2    1    2    0    0  0.21119144359E+03 -0.24960864315E+03 -0.10624121322E+03  0.36584236852E+03  0.12508853919E+03 0.  0.
         23    2    1    2    0    0 -0.21119144359E+03  0.24960864315E+03  0.22688166210E+01  0.33638963353E+03  0.79035039259E+02 0.  0.
          5    1    3    3  502    0  0.21205827943E+03 -0.20544966464E+03 -0.59170303892E+02  0.30115922008E+03  0.41800000000E+01 0.  1.
         -5    1    3    3    0  502 -0.86683583763E+00 -0.44158978511E+02 -0.47070909328E+02  0.64683148443E+02  0.41800000000E+01 0.  1.
        -11    1    4    4    0    0 -0.12654396582E+03  0.98218015951E+02  0.22519934466E+02  0.16176310269E+03  0.00000000000E+00 0.  1.
         11    1    4    4    0    0 -0.84647477770E+02  0.15139062720E+03 -0.20251117845E+02  0.17462653084E+03  0.00000000000E+00 0. -1.
</event>
<event>
 8    1  0.7048627E-009  0.1370223E+03  0.7561462E-02  0.1217393E+00
          1   -1    0    0  501    0  0.00000000000E+00  0.00000000000E+00  0.15868899841E+03  0.15868899841E+03  0.00000000000E+00 0. -1.
         -1   -1    0    0    0  501 -0.00000000000E+00 -0.00000000000E+00 -0.12503228480E+03  0.12503228480E+03  0.00000000000E+00 0.  1.
         25    2    1    2    0    0  0.88941496230E+02  0.64434922511E+01  0.12695186583E+02  0.15414566850E+03  0.12509041135E+03 0.  0.
         23    2    1    2    0    0 -0.88941496230E+02 -0.64434922511E+01  0.20961527033E+02  0.12957561471E+03  0.91642489966E+02 0.  0.
          5    1    3    3  502    0  0.12848859671E+02  0.56596132883E+02 -0.12471930626E+02  0.59508292748E+02  0.41800000000E+01 0. -1.
         -5    1    3    3    0  502  0.76092636559E+02 -0.50152640632E+02  0.25167117209E+02  0.94637375753E+02  0.41800000000E+01 0. -1.
        -11    1    4    4    0    0 -0.51577080767E+01 -0.35558003614E+02  0.19466810506E+02  0.40864780495E+02  0.00000000000E+00 0.  1.
         11    1    4    4    0    0 -0.83783788153E+02  0.29114511363E+02  0.14947165271E+01  0.88710834212E+02  0.00000000000E+00 0. -1.
</event>
<event>
 8    1  0.7048627E-009  0.1021120E+03  0.7561462E-02  0.1275916E+00
         -1   -1    0    0    0  501 -0.00000000000E+00  0.00000000000E+00  0.17474907260E+03  0.17474907260E+03  0.00000000000E+00 0.  1.
          1   -1    0    0  501    0  0.00000000000E+00 -0.00000000000E+00 -0.12497135137E+03  0.12497135137E+03  0.00000000000E+00 0. -1.
         25    2    1    2    0    0 -0.17472745323E+02 -0.61900511295E+02 -0.52976370741E+02  0.15030187407E+03  0.12508871797E+03 0.  0.
         23    2    1    2    0    0  0.17472745323E+02  0.61900511295E+02  0.10275409197E+03  0.14941854990E+03  0.87352902134E+02 0.  0.
          5    1    3    3  502    0  0.52289917506E+02 -0.12696038160E+02 -0.11007607209E+02  0.55082344487E+02  0.41800000000E+01 0. -1.
         -5    1    3    3    0  502 -0.69762662829E+02 -0.49204473134E+02 -0.41968763532E+02  0.95219529582E+02  0.41800000000E+01 0. -1.
        -11    1    4    4    0    0  0.17648786306E+01  0.19237517939E+02  0.10214076868E+03  0.10395159219E+03  0.00000000000E+00 0.  1.
         11    1    4    4    0    0  0.15707866693E+02  0.42662993356E+02  0.61332329131E+00  0.45466957712E+02  0.00000000000E+00 0. -1.
</event>
<event>
 8    1  0.7048627E-009  0.2349967E+03  0.7561462E-02  0.1123171E+00
         -2   -1    0    0    0  501 -0.00000000000E+00  0.00000000000E+00  0.39930339271E+02  0.39930339271E+02  0.00000000000E+00 0.  1.
          2   -1    0    0  501    0  0.00000000000E+00 -0.00000000000E+00 -0.15031569450E+04  0.15031569450E+04  0.00000000000E+00 0. -1.
         25    2    1    2    0    0  0.56172996154E+02 -0.20458940248E+03 -0.57781092177E+03  0.62811227966E+03  0.12508934983E+03 0.  0.
         23    2    1    2    0    0 -0.56172996154E+02  0.20458940248E+03 -0.88541568391E+03  0.91497500457E+03  0.90587507731E+02 0.  0.
          5    1    3    3  502    0 -0.10721291302E+02 -0.16750540804E+03 -0.43034108666E+03  0.46193498577E+03  0.41800000000E+01 0. -1.
         -5    1    3    3    0  502  0.66894287456E+02 -0.37083994435E+02 -0.14746983511E+03  0.16617729389E+03  0.41800000000E+01 0. -1.
        -11    1    4    4    0    0 -0.53823896707E+02  0.58913554883E+02 -0.41164034637E+03  0.41930370087E+03  0.00000000000E+00 0. -1.
         11    1    4    4    0    0 -0.23490994471E+01  0.14567584759E+03 -0.47377533754E+03  0.49567130369E+03  0.00000000000E+00 0.  1.
</event>
<event>
 8    1  0.7048627E-009  0.9960080E+02  0.7561462E-02  0.1281138E+00
         -2   -1    0    0    0  501 -0.00000000000E+00  0.00000000000E+00  0.25901178004E+02  0.25901178004E+02  0.00000000000E+00 0.  1.
          2   -1    0    0  501    0  0.00000000000E+00 -0.00000000000E+00 -0.50104280471E+03  0.50104280471E+03  0.00000000000E+00 0. -1.
         25    2    1    2    0    0  0.29875557705E+02 -0.89599666107E+01 -0.24247985792E+03  0.27462059746E+03  0.12508861299E+03 0.  0.
         23    2    1    2    0    0 -0.29875557705E+02  0.89599666107E+01 -0.23266176878E+03  0.25232338526E+03  0.92535194087E+02 0.  0.
          5    1    3    3  502    0 -0.56811434292E+01  0.40156888733E+02 -0.22854802178E+02  0.46740405283E+02  0.41800000000E+01 0.  1.
         -5    1    3    3    0  502  0.35556701134E+02 -0.49116855344E+02 -0.21962505574E+03  0.22788019217E+03  0.41800000000E+01 0.  1.
        -11    1    4    4    0    0  0.24068490496E+02 -0.24360247048E+02 -0.81238213384E+02  0.88160995825E+02  0.00000000000E+00 0. -1.
         11    1    4    4    0    0 -0.53944048201E+02  0.33320213659E+02 -0.15142355540E+03  0.16416238943E+03  0.00000000000E+00 0.  1.
</event>
<event>
 8    1  0.7048627E-009  0.1207005E+03  0.7561462E-02  0.1241946E+00
          1   -1    0    0  501    0  0.00000000000E+00  0.00000000000E+00  0.10517973832E+04  0.10517973832E+04  0.00000000000E+00 0. -1.
         -1   -1    0    0    0  501 -0.00000000000E+00 -0.00000000000E+00 -0.14238936773E+02  0.14238936773E+02  0.00000000000E+00 0.  1.
         25    2    1    2    0    0  0.24534042669E+02  0.49267827896E+02  0.58258263139E+03  0.59839826503E+03  0.12509485630E+03 0.  0.
         23    2    1    2    0    0 -0.24534042669E+02 -0.49267827896E+02  0.45497581506E+03  0.46763805497E+03  0.93022148176E+02 0.  0.
          5    1    3    3  502    0 -0.15173573815E+02 -0.37048898030E+02  0.13764941830E+03  0.14341440983E+03  0.41800000000E+01 0.  1.
         -5    1    3    3    0  502  0.39707616483E+02  0.86316725926E+02  0.44493321309E+03  0.45498385520E+03  0.41800000000E+01 0.  1.
        -11    1    4    4    0    0 -0.48631218405E+02  0.27569027266E+01  0.16459527687E+03  0.17165139407E+03  0.00000000000E+00 0.  1.
         11    1    4    4    0    0  0.24097175737E+02 -0.52024730622E+02  0.29038053818E+03  0.29598666090E+03  0.00000000000E+00 0. -1.
</event>
<event>
 8    1  0.7048627E-009  0.1165992E+03  0.7561462E-02  0.1248815E+00
          2   -1    0    0  501    0  0.00000000000E+00  0.00000000000E+00  0.62257146909E+02  0.62257146909E+02  0.00000000000E+00 0.  1.
         -2   -1    0    0    0  501 -0.00000000000E+00 -0.00000000000E+00 -0.37614392739E+03  0.37614392739E+03  0.00000000000E+00 0. -1.
         25    2    1    2    0    0  0.54302571389E+02 -0.78641605157E+02 -0.10607328629E+03  0.18982304845E+03  0.12509187158E+03 0.  0.
         23    2    1    2    0    0 -0.54302571389E+02  0.78641605157E+02 -0.20781349420E+03  0.24857802586E+03  0.97320682532E+02 0.  0.
          5    1    3    3  502    0  0.39459117923E+02 -0.74019490529E+02 -0.14793204744E+01  0.83997427071E+02  0.41800000000E+01 0. -1.
         -5    1    3    3    0  502  0.14843453466E+02 -0.46221146276E+01 -0.10459396581E+03  0.10582562137E+03  0.41800000000E+01 0. -1.
        -11    1    4    4    0    0 -0.11981904543E+02  0.88790191803E+02 -0.11264857591E+03  0.14393389403E+03  0.00000000000E+00 0.  1.
         11    1    4    4    0    0 -0.42320666846E+02 -0.10148586646E+02 -0.95164918283E+02  0.10464413182E+03  0.00000000000E+00 0. -1.
</event>
<event>
 8    1  0.7048627E-009  0.1363578E+03  0.7561462E-02  0.1218316E+00
          2   -1    0    0  501    0  0.00000000000E+00  0.00000000000E+00  0.21255732805E+02  0.21255732805E+02  0.00000000000E+00 0. -1.
         -2   -1    0    0    0  501 -0.00000000000E+00 -0.00000000000E+00 -0.11524184922E+04  0.11524184922E+04  0.00000000000E+00 0.  1.
         25    2    1    2    0    0 -0.96865978179E+02  0.42896304365E+02 -0.48119989526E+03  0.50835423119E+03  0.12509026546E+03 0.  0.
         23    2    1    2    0    0  0.96865978179E+02 -0.42896304365E+02 -0.64996286414E+03  0.66531999382E+03  0.94741008854E+02 0.  0.
          5    1    3    3  502    0 -0.65075439221E+02  0.64668386595E+02 -0.15732608722E+03  0.18216965481E+03  0.41800000000E+01 0. -1.
         -5    1    3    3    0  502 -0.31790538958E+02 -0.21772082230E+02 -0.32387380804E+03  0.32618457637E+03  0.41800000000E+01 0. -1.
        -11    1    4    4    0    0  0.83486440074E+02  0.13134833133E+02 -0.38428585569E+03  0.39346934874E+03  0.00000000000E+00 0. -1.
         11    1    4    4    0    0  0.13379538105E+02 -0.56031137498E+02 -0.26567700845E+03  0.27185064508E+03  0.00000000000E+00 0.  1.
</event>
<event>
 8    1  0.7048627E-009  0.1513173E+03  0.7561462E-02  0.1198864E+00
          2   -1    0    0  501    0  0.00000000000E+00  0.00000000000E+00  0.48271125104E+03  0.48271125104E+03  0.00000000000E+00 0. -1.
         -2   -1    0    0    0  501 -0.00000000000E+00 -0.00000000000E+00 -0.70640347445E+02  0.70640347445E+02  0.00000000000E+00 0.  1.
         25    2    1    2    0    0  0.47525433774E+02 -0.12716747151E+03  0.31903673347E+03  0.36859430694E+03  0.12508834134E+03 0.  0.
         23    2    1    2    0    0 -0.47525433774E+02  0.12716747151E+03  0.93034170123E+02  0.18475729154E+03  0.83962296909E+02 0.  0.
          5    1    3    3  502    0  0.19751051454E+02  0.59250817649E+01 -0.77799640325E+00  0.21054412979E+02  0.41800000000E+01 0. -1.
         -5    1    3    3    0  502  0.27774382319E+02 -0.13309255328E+03  0.31981472988E+03  0.34753989396E+03  0.41800000000E+01 0. -1.
        -11    1    4    4    0    0 -0.18530911630E+02  0.38970557384E+01  0.45870032092E+02  0.49625009556E+02  0.00000000000E+00 0. -1.
         11    1    4    4    0    0 -0.28994522144E+02  0.12327041577E+03  0.47164138031E+02  0.13513228199E+03  0.00000000000E+00 0.  1.
</event>
<event>
 8    1  0.7048627E-009  0.9273902E+02  0.7561462E-02  0.1296351E+00
         -1   -1    0    0    0  501 -0.00000000000E+00  0.00000000000E+00  0.19632675693E+03  0.19632675693E+03  0.00000000000E+00 0.  1.
          1   -1    0    0  501    0  0.00000000000E+00 -0.00000000000E+00 -0.87974316485E+02  0.87974316485E+02  0.00000000000E+00 0. -1.
         25    2    1    2    0    0 -0.56203862837E+02  0.47012880039E+02  0.70871507058E+02  0.16136734551E+03  0.12509022583E+03 0.  0.
         23    2    1    2    0    0  0.56203862837E+02 -0.47012880039E+02  0.37480933388E+02  0.12293372790E+03  0.91317008282E+02 0.  0.
          5    1    3    3  502    0 -0.17833018759E+02 -0.24662351397E+02  0.73767677444E+02  0.79908640146E+02  0.41800000000E+01 0.  1.
         -5    1    3    3    0  502 -0.38370844078E+02  0.71675231436E+02 -0.28961703863E+01  0.81458705364E+02  0.41800000000E+01 0.  1.
        -11    1    4    4    0    0  0.11051295974E+02 -0.11033662885E+02  0.59218298522E+02  0.61242793366E+02  0.00000000000E+00 0.  1.
         11    1    4    4    0    0  0.45152566863E+02 -0.35979217154E+02 -0.21737365135E+02  0.61690934539E+02  0.00000000000E+00 0. -1.
</event>
<event>
 8    1  0.7048627E-009  0.9531094E+02  0.7561462E-02  0.1290477E+00
         -1   -1    0    0    0  501 -0.00000000000E+00  0.00000000000E+00  0.21479303936E+03  0.21479303936E+03  0.00000000000E+00 0.  1.
          1   -1    0    0  501    0  0.00000000000E+00 -0.00000000000E+00 -0.70711990710E+02  0.70711990710E+02  0.00000000000E+00 0. -1.
         25    2    1    2    0    0 -0.56730898532E+02  0.15499298632E+02  0.95846667779E+02  0.16819954628E+03  0.12508349426E+03 0.  0.
         23    2    1    2    0    0  0.56730898532E+02 -0.15499298632E+02  0.48234380875E+02  0.11730548380E+03  0.89305083416E+02 0.  0.
          5    1    3    3  502    0 -0.72047487021E+02  0.20228486683E+02  0.41999286359E+01  0.75067595273E+02  0.41800000000E+01 0.  1.
         -5    1    3    3    0  502  0.15316588488E+02 -0.47291880509E+01  0.91646739143E+02  0.93131951006E+02  0.41800000000E+01 0.  1.
        -11    1    4    4    0    0  0.56944005762E+02  0.22410646744E+02  0.50479291224E+02  0.79328530317E+02  0.00000000000E+00 0.  1.
         11    1    4    4    0    0 -0.21310722918E+00 -0.37909945376E+02 -0.22449103492E+01  0.37976953480E+02  0.00000000000E+00 0. -1.
</event>
<event>
 8    1  0.7048627E-009  0.1099788E+03  0.7561462E-02  0.1260609E+00
         -2   -1    0    0    0  501 -0.00000000000E+00  0.00000000000E+00  0.10851965649E+03  0.10851965649E+03  0.00000000000E+00 0.  1.
          2   -1    0    0  501    0  0.00000000000E+00 -0.00000000000E+00 -0.15518709440E+03  0.15518709440E+03  0.00000000000E+00 0. -1.
         25    2    1    2    0    0 -0.69252347172E+02 -0.15941769764E+02 -0.35699116451E+02  0.14823009170E+03  0.12509078927E+03 0.  0.
         23    2    1    2    0    0  0.69252347172E+02  0.15941769764E+02 -0.10968321460E+02  0.11547665918E+03  0.90357772921E+02 0.  0.
          5    1    3    3  502    0  0.32094481812E+02 -0.28623689525E+01  0.12948319593E+02  0.34976853762E+02  0.41800000000E+01 0.  1.
         -5    1    3    3    0  502 -0.10134682898E+03 -0.13079400812E+02 -0.48647436044E+02  0.11325323794E+03  0.41800000000E+01 0.  1.
        -11    1    4    4    0    0  0.33105288833E+02  0.31631506894E+02 -0.44415143565E+02  0.63790417423E+02  0.00000000000E+00 0. -1.
         11    1    4    4    0    0  0.36147058340E+02 -0.15689737130E+02  0.33446822105E+02  0.51686241755E+02  0.00000000000E+00 0.  1.
</event>
<event>
 8    1  0.7048627E-009  0.9545720E+02  0.7561462E-02  0.1290150E+00
         -2   -1    0    0    0  501 -0.00000000000E+00  0.00000000000E+00  0.13260182212E+02  0.13260182212E+02  0.00000000000E+00 0.  1.
          2   -1    0    0  501    0  0.00000000000E+00 -0.00000000000E+00 -0.11842269557E+04  0.11842269557E+04  0.00000000000E+00 0. -1.
         25    2    1    2    0    0 -0.65855785328E+01  0.15306597450E+01 -0.95313637663E+03  0.96133357716E+03  0.12509029281E+03 0.  0.
         23    2    1    2    0    0  0.65855785328E+01 -0.15306597450E+01 -0.21783039689E+03  0.23615356079E+03  0.90954437486E+02 0.  0.
          5    1    3    3  502    0  0.43351910556E+02 -0.18414742177E+02 -0.73892402816E+03  0.74043546827E+03  0.41800000000E+01 0.  1.
         -5    1    3    3    0  502 -0.49937489089E+02  0.19945401923E+02 -0.21421234847E+03  0.22089810889E+03  0.41800000000E+01 0.  1.
        -11    1    4    4    0    0 -0.39829155763E+02  0.11550190784E+02 -0.12234093215E+03  0.12917845112E+03  0.00000000000E+00 0.  1.
         11    1    4    4    0    0  0.46414734296E+02 -0.13080850529E+02 -0.95489464744E+02  0.10697510966E+03  0.00000000000E+00 0. -1.
</event>
<event>
 8    1  0.7048627E-009  0.1112624E+03  0.7561462E-02  0.1258250E+00
         -3   -1    0    0    0  501 -0.00000000000E+00  0.00000000000E+00  0.10345441211E+03  0.10345441211E+03  0.00000000000E+00 0.  1.
          3   -1    0    0  501    0  0.00000000000E+00 -0.00000000000E+00 -0.18401485110E+03  0.18401485110E+03  0.00000000000E+00 0. -1.
         25    2    1    2    0    0 -0.42233367668E+02 -0.44204422043E+02  0.18811625859E+02  0.14049514914E+03  0.12508925370E+03 0.  0.
         23    2    1    2    0    0  0.42233367668E+02  0.44204422043E+02 -0.99372064847E+02  0.14697411406E+03  0.89380616805E+02 0.  0.
          5    1    3    3  502    0 -0.38516744700E+01 -0.83726792411E+02  0.93269924473E+01  0.84436226537E+02  0.41800000000E+01 0. -1.
         -5    1    3    3    0  502 -0.38381693198E+02  0.39522370368E+02  0.94846334115E+01  0.56058922601E+02  0.41800000000E+01 0. -1.
        -11    1    4    4    0    0  0.52629893419E+02  0.18769205541E+02 -0.14446478777E+02  0.57713858881E+02  0.00000000000E+00 0.  1.
         11    1    4    4    0    0 -0.10396525750E+02  0.25435216502E+02 -0.84925586070E+02  0.89260255184E+02  0.00000000000E+00 0. -1.
</event>
<event>
 8    1  0.7048627E-009  0.1194778E+03  0.7561462E-02  0.1243961E+00
          1   -1    0    0  501    0  0.00000000000E+00  0.00000000000E+00  0.19190008813E+03  0.19190008813E+03  0.00000000000E+00 0. -1.
         -1   -1    0    0    0  501 -0.00000000000E+00 -0.00000000000E+00 -0.19180275442E+03  0.19180275442E+03  0.00000000000E+00 0.  1.
         25    2    1    2    0    0  0.99054873746E+02  0.16651340393E+02  0.12146042391E+03  0.20122132369E+03  0.12509297094E+03 0.  0.
         23    2    1    2    0    0 -0.99054873746E+02 -0.16651340393E+02 -0.12136309021E+03  0.18248151886E+03  0.92094353316E+02 0.  0.
          5    1    3    3  502    0 -0.83756423097E-02  0.11336512368E+02 -0.22968734416E+02  0.25952875438E+02  0.41800000000E+01 0.  1.
         -5    1    3    3    0  502  0.99063249388E+02  0.53148280245E+01  0.14442915833E+03  0.17526844825E+03  0.41800000000E+01 0.  1.
        -11    1    4    4    0    0  0.91970615867E+00 -0.27049689712E+02 -0.30502696424E+01  0.27236661282E+02  0.00000000000E+00 0. -1.
         11    1    4    4    0    0 -0.99974579905E+02  0.10398349319E+02 -0.11831282056E+03  0.15524485758E+03  0.00000000000E+00 0.  1.
</event>
<event>
 8    1  0.7048627E-009  0.4498650E+03  0.7561462E-02  0.1027762E+00
         -2   -1    0    0    0  501 -0.00000000000E+00  0.00000000000E+00  0.91584760493E+02  0.91584760493E+02  0.00000000000E+00 0.  1.
          2   -1    0    0  501    0  0.00000000000E+00 -0.00000000000E+00 -0.22857497050E+04  0.22857497050E+04  0.00000000000E+00 0. -1.
         25    2    1    2    0    0  0.10193290699E+03  0.43209566433E+03 -0.11554519334E+04  0.12441116384E+04  0.12509043825E+03 0.  0.
         23    2    1    2    0    0 -0.10193290699E+03 -0.43209566433E+03 -0.10387130111E+04  0.11332228271E+04  0.90400640158E+02 0.  0.
          5    1    3    3  502    0  0.84589698902E+02  0.24618057855E+03 -0.51621095932E+03  0.57814489649E+03  0.41800000000E+01 0.  1.
         -5    1    3    3    0  502  0.17343208084E+02  0.18591508578E+03 -0.63924097403E+03  0.66596674186E+03  0.41800000000E+01 0.  1.
        -11    1    4    4    0    0 -0.28099120977E+02 -0.29980763693E+03 -0.66694434756E+03  0.73177109980E+03  0.00000000000E+00 0.  1.
         11    1    4    4    0    0 -0.73833786009E+02 -0.13228802740E+03 -0.37176866357E+03  0.40145172732E+03  0.00000000000E+00 0. -1.
</event>
<event>
 8    1  0.7048627E-009  0.1789491E+03  0.7561462E-02  0.1168824E+00
          2   -1    0    0  501    0  0.00000000000E+00  0.00000000000E+00  0.40742998238E+03  0.40742998238E+03  0.00000000000E+00 0. -1.
         -2   -1    0    0    0  501 -0.00000000000E+00 -0.00000000000E+00 -0.12300528096E+03  0.12300528096E+03  0.00000000000E+00 0.  1.
         25    2    1    2    0    0  0.16884396263E+03 -0.30575590153E+02  0.26023421836E+03  0.33587376002E+03  0.12508470664E+03 0.  0.
         23    2    1    2    0    0 -0.16884396263E+03  0.30575590153E+02  0.24190483061E+02  0.19456150332E+03  0.88463826937E+02 0.  0.
          5    1    3    3  502    0  0.33715201564E+02 -0.34199608086E+02  0.16118689889E+03  0.16824094860E+03  0.41800000000E+01 0. -1.
         -5    1    3    3    0  502  0.13512876106E+03  0.36240179328E+01  0.99047319463E+02  0.16763281142E+03  0.41800000000E+01 0. -1.
        -11    1    4    4    0    0 -0.12011339823E+03  0.36066854357E+02 -0.21845374628E+02  0.12729990892E+03  0.00000000000E+00 0.  1.
         11    1    4    4    0    0 -0.48730564394E+02 -0.54912642035E+01  0.46035857689E+02  0.67261594405E+02  0.00000000000E+00 0. -1.
</event>
<event>
 8    1  0.7048627E-009  0.2433752E+03  0.7561462E-02  0.1117565E+00
          1   -1    0    0  501    0  0.00000000000E+00  0.00000000000E+00  0.57807578757E+03  0.57807578757E+03  0.00000000000E+00 0. -1.
         -1   -1    0    0    0  501 -0.00000000000E+00 -0.00000000000E+00 -0.11263994836E+03  0.11263994836E+03  0.00000000000E+00 0.  1.
         25    2    1    2    0    0 -0.16589235722E+03  0.16049986176E+03  0.24596046883E+03  0.35975469712E+03  0.12508561095E+03 0.  0.
         23    2    1    2    0    0  0.16589235722E+03 -0.16049986176E+03  0.21947537038E+03  0.33096103880E+03  0.89918247275E+02 0.  0.
          5    1    3    3  502    0 -0.12955389205E+03  0.55674388465E+02  0.86597261273E+02  0.16553068155E+03  0.41800000000E+01 0. -1.
         -5    1    3    3    0  502 -0.36338465176E+02  0.10482547329E+03  0.15936320756E+03  0.19422401557E+03  0.41800000000E+01 0. -1.
        -11    1    4    4    0    0  0.94324457691E+01 -0.28269869986E+02  0.73808700536E+02  0.79598246570E+02  0.00000000000E+00 0.  1.
         11    1    4    4    0    0  0.15645991145E+03 -0.13222999177E+03  0.14566666985E+03  0.25136279223E+03  0.00000000000E+00 0. -1.
</event>
<event>
 8    1  0.7048627E-009  0.8495803E+02  0.7561462E-02  0.1315542E+00
          2   -1    0    0  501    0  0.00000000000E+00  0.00000000000E+00  0.16740665366E+02  0.16740665366E+02  0.00000000000E+00 0. -1.
         -2   -1    0    0    0  501 -0.00000000000E+00 -0.00000000000E+00 -0.82638758005E+03  0.82638758005E+03  0.00000000000E+00 0.  1.
         25    2    1    2    0    0 -0.30041522247E+02 -0.13136544809E+02 -0.56710697976E+03  0.58166400915E+03  0.12509049196E+03 0.  0.
         23    2    1    2    0    0  0.30041522247E+02  0.13136544809E+02 -0.24253993492E+03  0.26146423626E+03  0.91993831012E+02 0.  0.
          5    1    3    3  502    0  0.21438043171E+02  0.21862496970E+02 -0.42907771341E+03  0.43018916190E+03  0.41800000000E+01 0.  1.
         -5    1    3    3    0  502 -0.51479565417E+02 -0.34999041779E+02 -0.13802926634E+03  0.15147484725E+03  0.41800000000E+01 0.  1.
        -11    1    4    4    0    0 -0.16791655151E+02  0.23279165568E+02 -0.23073991570E+02  0.36827819909E+02  0.00000000000E+00 0. -1.
         11    1    4    4    0    0  0.46833177398E+02 -0.10142620760E+02 -0.21946594335E+03  0.22463641635E+03  0.00000000000E+00 0.  1.
</event>
<event>
 8    1  0.7048627E-009  0.1863448E+03  0.7561462E-02  0.1161800E+00
          2   -1    0    0  501    0  0.00000000000E+00  0.00000000000E+00  0.16285679813E+04  0.16285679813E+04  0.00000000000E+00 0. -1.
         -2   -1    0    0    0  501 -0.00000000000E+00 -0.00000000000E+00 -0.23942468043E+02  0.23942468043E+02  0.00000000000E+00 0.  1.
         25    2    1    2    0    0 -0.13539679559E+03  0.89381076934E+02  0.94621474963E+03  0.96813911903E+03  0.12509888971E+03 0.  0.
         23    2    1    2    0    0  0.13539679559E+03 -0.89381076934E+02  0.65841076361E+03  0.68437133030E+03  0.92401920575E+02 0.  0.
          5    1    3    3  502    0 -0.47399822511E+02 -0.18454842745E+02  0.12200809577E+03  0.13225268326E+03  0.41800000000E+01 0.  1.
         -5    1    3    3    0  502 -0.87996973079E+02  0.10783591968E+03  0.82420665386E+03  0.83588643577E+03  0.41800000000E+01 0.  1.
        -11    1    4    4    0    0  0.13412369828E+03 -0.50209294644E+02  0.44775517677E+03  0.47010088070E+03  0.00000000000E+00 0.  1.
         11    1    4    4    0    0  0.12730973094E+01 -0.39171782291E+02  0.21065558684E+03  0.21427044960E+03  0.00000000000E+00 0. -1.
</event>
<event>
 8    1  0.7048627E-009  0.9553868E+02  0.7561462E-02  0.1289967E+00
          1   -1    0    0  501    0  0.00000000000E+00  0.00000000000E+00  0.47417972015E+03  0.47417972015E+03  0.00000000000E+00 0. -1.
         -1   -1    0    0    0  501 -0.00000000000E+00 -0.00000000000E+00 -0.30868388984E+02  0.30868388984E+02  0.00000000000E+00 0.  1.
         25    2    1    2    0    0 -0.11694393741E+02 -0.80473670426E+01  0.34619914311E+03  0.36837891482E+03  0.12509060409E+03 0.  0.
         23    2    1    2    0    0  0.11694393741E+02  0.80473670426E+01  0.97112188057E+02  0.13666919432E+03  0.95111369693E+02 0.  0.
          5    1    3    3  502    0 -0.48258774358E+02 -0.25227416288E+02  0.67934948256E+02  0.87166286083E+02  0.41800000000E+01 0.  1.
         -5    1    3    3    0  502  0.36564380617E+02  0.17180049245E+02  0.27826419485E+03  0.28121262873E+03  0.41800000000E+01 0.  1.
        -11    1    4    4    0    0  0.50549633927E+02  0.21215666562E+02  0.60990866165E+02  0.82007656675E+02  0.00000000000E+00 0.  1.
         11    1    4    4    0    0 -0.38855240186E+02 -0.13168299520E+02  0.36121321892E+02  0.54661537642E+02  0.00000000000E+00 0. -1.
</event>
<event>
 8    1  0.7048627E-009  0.1081113E+03  0.7561462E-02  0.1264108E+00
         -2   -1    0    0    0  501 -0.00000000000E+00  0.00000000000E+00  0.23114473891E+02  0.23114473891E+02  0.00000000000E+00 0.  1.
          2   -1    0    0  501    0  0.00000000000E+00 -0.00000000000E+00 -0.89881897030E+03  0.89881897030E+03  0.00000000000E+00 0. -1.
         25    2    1    2    0    0 -0.84095886288E+02  0.39114381751E+02 -0.52700970390E+03  0.54953362634E+03  0.12508367407E+03 0.  0.
         23    2    1    2    0    0  0.84095886288E+02 -0.39114381751E+02 -0.34869479250E+03  0.37239981785E+03  0.92149406208E+02 0.  0.
          5    1    3    3  502    0 -0.63989348284E+02  0.21586865343E+02 -0.51593256529E+03  0.52035037598E+03  0.41800000000E+01 0. -1.
         -5    1    3    3    0  502 -0.20106538003E+02  0.17527516408E+02 -0.11077138609E+02  0.29183250362E+02  0.41800000000E+01 0. -1.
        -11    1    4    4    0    0 -0.64989988733E-01  0.19182193382E+02 -0.18318666648E+02  0.26524221278E+02  0.00000000000E+00 0.  1.
         11    1    4    4    0    0  0.84160876276E+02 -0.58296575133E+02 -0.33037612586E+03  0.34587559657E+03  0.00000000000E+00 0. -1.
</event>
<event>
 8    1  0.7048627E-009  0.9723315E+02  0.7561462E-02  0.1286224E+00
          1   -1    0    0  501    0  0.00000000000E+00  0.00000000000E+00  0.44416037722E+03  0.44416037722E+03  0.00000000000E+00 0. -1.
         -1   -1    0    0    0  501 -0.00000000000E+00 -0.00000000000E+00 -0.32288100642E+02  0.32288100642E+02  0.00000000000E+00 0.  1.
         25    2    1    2    0    0  0.11369082816E+02  0.15058635905E+02  0.32565010937E+03  0.34935771316E+03  0.12508716743E+03 0.  0.
         23    2    1    2    0    0 -0.11369082816E+02 -0.15058635905E+02  0.86222167207E+02  0.12709076469E+03  0.91442778793E+02 0.  0.
          5    1    3    3  502    0  0.50516282488E+02 -0.35531400179E+02  0.17545721952E+03  0.18605666738E+03  0.41800000000E+01 0.  1.
         -5    1    3    3    0  502 -0.39147199672E+02  0.50590036084E+02  0.15019288985E+03  0.16330104578E+03  0.41800000000E+01 0.  1.
        -11    1    4    4    0    0 -0.37021498194E+02  0.29177328361E+01  0.19524496933E+01  0.37187586010E+02  0.00000000000E+00 0.  1.
         11    1    4    4    0    0  0.25652415378E+02 -0.17976368742E+02  0.84269717513E+02  0.89903178685E+02  0.00000000000E+00 0. -1.
</event>
<event>
 8    1  0.7048627E-009  0.1084731E+03  0.7561462E-02  0.1263424E+00
          1   -1    0    0  501    0  0.00000000000E+00  0.00000000000E+00  0.20425593966E+03  0.20425593966E+03  0.00000000000E+00 0. -1.
         -1   -1    0    0    0  501 -0.00000000000E+00 -0.00000000000E+00 -0.77355377014E+02  0.77355377014E+02  0.00000000000E+00 0.  1.
         25    2    1    2    0    0  0.75800256340E+01 -0.40966923783E+02  0.16948804473E+02  0.13292590555E+03  0.12508512606E+03 0.  0.
         23    2    1    2    0    0 -0.75800256340E+01  0.40966923783E+02  0.10995175817E+03  0.14868541112E+03  0.91006685041E+02 0.  0.
          5    1    3    3  502    0  0.47692348072E+02  0.18431130675E+02  0.30757616687E+02  0.59814463358E+02  0.41800000000E+01 0. -1.
         -5    1    3    3    0  502 -0.40112322438E+02 -0.59398054458E+02 -0.13808812214E+02  0.73111442193E+02  0.41800000000E+01 0. -1.
        -11    1    4    4    0    0  0.36724036716E+02  0.31863713046E+02  0.82545674363E+02  0.95800518985E+02  0.00000000000E+00 0. -1.
         11    1    4    4    0    0 -0.44304062350E+02  0.91032107370E+01  0.27406083809E+02  0.52884892135E+02  0.00000000000E+00 0.  1.
</event>
<event>
 8    1  0.7048627E-009  0.1385512E+03  0.7561462E-02  0.1215292E+00
         -1   -1    0    0    0  501 -0.00000000000E+00  0.00000000000E+00  0.22133920837E+03  0.22133920837E+03  0.00000000000E+00 0.  1.
          1   -1    0    0  501    0  0.00000000000E+00 -0.00000000000E+00 -0.99325312899E+02  0.99325312899E+02  0.00000000000E+00 0. -1.
         25    2    1    2    0    0  0.97338961066E+02 -0.29808159311E+01  0.98935256949E+02  0.18686859066E+03  0.12509167240E+03 0.  0.
         23    2    1    2    0    0 -0.97338961066E+02  0.29808159311E+01  0.23078638525E+02  0.13379593061E+03  0.88797347296E+02 0.  0.
          5    1    3    3  502    0  0.12064846948E+03  0.20757538866E+02  0.63090520582E+02  0.13778539398E+03  0.41800000000E+01 0.  1.
         -5    1    3    3    0  502 -0.23309508415E+02 -0.23738354797E+02  0.35844736367E+02  0.49083196679E+02  0.41800000000E+01 0.  1.
        -11    1    4    4    0    0 -0.10778753384E+03  0.10364930548E+02  0.10132508352E+01  0.10828947739E+03  0.00000000000E+00 0. -1.
         11    1    4    4    0    0  0.10448572777E+02 -0.73841146165E+01  0.22065387690E+02  0.25506453216E+02  0.00000000000E+00 0.  1.
</event>
<event>
 8    1  0.7048627E-009  0.1643660E+03  0.7561462E-02  0.1183854E+00
          1   -1    0    0  501    0  0.00000000000E+00  0.00000000000E+00  0.25920529609E+03  0.25920529609E+03  0.00000000000E+00 0. -1.
         -1   -1    0    0    0  501 -0.00000000000E+00 -0.00000000000E+00 -0.11733130075E+03  0.11733130075E+03  0.00000000000E+00 0.  1.
         25    2    1    2    0    0  0.10528404652E+03 -0.73185073701E+02  0.26549487884E+02  0.18109282773E+03  0.12509576925E+03 0.  0.
         23    2    1    2    0    0 -0.10528404652E+03  0.73185073701E+02  0.11532450745E+03  0.19544376911E+03  0.91965968709E+02 0.  0.
          5    1    3    3  502    0 -0.24735780461E+02 -0.15073248571E+02  0.25182620974E+02  0.38609564316E+02  0.41800000000E+01 0. -1.
         -5    1    3    3    0  502  0.13001982698E+03 -0.58111825130E+02  0.13668669102E+01  0.14248326341E+03  0.41800000000E+01 0. -1.
        -11    1    4    4    0    0 -0.73185124900E+02 -0.41029824936E+01  0.63716225022E+02  0.97121852860E+02  0.00000000000E+00 0.  1.
         11    1    4    4    0    0 -0.32098921617E+02  0.77288056195E+02  0.51608282431E+02  0.98321916249E+02  0.00000000000E+00 0. -1.
</event>
<event>
 8    1  0.7048627E-009  0.1160394E+03  0.7561462E-02  0.1249778E+00
          2   -1    0    0  501    0  0.00000000000E+00  0.00000000000E+00  0.15240588968E+03  0.15240588968E+03  0.00000000000E+00 0.  1.
         -2   -1    0    0    0  501 -0.00000000000E+00 -0.00000000000E+00 -0.11123251306E+03  0.11123251306E+03  0.00000000000E+00 0. -1.
         25    2    1    2    0    0 -0.67094902617E+02 -0.19899557836E+02  0.83542020453E+01  0.14357649712E+03  0.12508676778E+03 0.  0.
         23    2    1    2    0    0  0.67094902617E+02  0.19899557836E+02  0.32819174575E+02  0.12006190562E+03  0.91869715374E+02 0.  0.
          5    1    3    3  502    0 -0.51928420089E+02  0.33542373199E+02 -0.36624986291E+02  0.71975785050E+02  0.41800000000E+01 0. -1.
         -5    1    3    3    0  502 -0.15166482528E+02 -0.53441931035E+02  0.44979188336E+02  0.71600712067E+02  0.41800000000E+01 0. -1.
        -11    1    4    4    0    0  0.78269398084E+02 -0.13288993848E+02  0.30218563206E+02  0.84946204131E+02  0.00000000000E+00 0.  1.
         11    1    4    4    0    0 -0.11174495467E+02  0.33188551684E+02  0.26006113688E+01  0.35115701493E+02  0.00000000000E+00 0. -1.
</event>
<event>
 8    1  0.7048627E-009  0.1517794E+03  0.7561462E-02  0.1198303E+00
         -1   -1    0    0    0  501 -0.00000000000E+00  0.00000000000E+00  0.27872689540E+02  0.27872689540E+02  0.00000000000E+00 0.  1.
          1   -1    0    0  501    0  0.00000000000E+00 -0.00000000000E+00 -0.17870090687E+04  0.17870090687E+04  0.00000000000E+00 0. -1.
         25    2    1    2    0    0 -0.27195349070E+02 -0.11784093308E+03 -0.15327645585E+04  0.15426084168E+04  0.12508982063E+03 0.  0.
         23    2    1    2    0    0  0.27195349070E+02  0.11784093308E+03 -0.22637182060E+03  0.27227334140E+03  0.90898287954E+02 0.  0.
          5    1    3    3  502    0 -0.54916273870E+02 -0.23661779504E+01 -0.50084114892E+03  0.50386578052E+03  0.41800000000E+01 0.  1.
         -5    1    3    3    0  502  0.27720924799E+02 -0.11547475513E+03 -0.10319234096E+04  0.10387426363E+04  0.41800000000E+01 0.  1.
        -11    1    4    4    0    0  0.61949042212E+01  0.10458759974E+03 -0.22404470970E+03  0.24733171007E+03  0.00000000000E+00 0. -1.
         11    1    4    4    0    0  0.21000444849E+02  0.13253333340E+02 -0.23271109013E+01  0.24941631335E+02  0.00000000000E+00 0.  1.
</event>
<event>
 8    1  0.7048627E-009  0.1186021E+03  0.7561462E-02  0.1245421E+00
         -1   -1    0    0    0  501 -0.00000000000E+00  0.00000000000E+00  0.29043539577E+02  0.29043539577E+02  0.00000000000E+00 0.  1.
          1   -1    0    0  501    0  0.00000000000E+00 -0.00000000000E+00 -0.51048583282E+03  0.51048583282E+03  0.00000000000E+00 0. -1.
         25    2    1    2    0    0  0.50801285102E+02 -0.13985785435E+02 -0.28332049183E+03  0.31415665704E+03  0.12509009276E+03 0.  0.
         23    2    1    2    0    0 -0.50801285102E+02  0.13985785435E+02 -0.19812180141E+03  0.22537271536E+03  0.93617519043E+02 0.  0.
          5    1    3    3  502    0 -0.39952500159E+02 -0.12224432457E+02 -0.61713079758E+02  0.74643255764E+02  0.41800000000E+01 0. -1.
         -5    1    3    3    0  502  0.90753785260E+02 -0.17613529780E+01 -0.22160741207E+03  0.23951340127E+03  0.41800000000E+01 0. -1.
        -11    1    4    4    0    0 -0.15303381374E+02 -0.38246578948E+02 -0.53170845346E+02  0.67261676142E+02  0.00000000000E+00 0. -1.
         11    1    4    4    0    0 -0.35497903728E+02  0.52232364382E+02 -0.14495095607E+03  0.15811103922E+03  0.00000000000E+00 0.  1.
</event>
<event>
 8    1  0.7048627E-009  0.1177936E+03  0.7561462E-02  0.1246782E+00
         -2   -1    0    0    0  501 -0.00000000000E+00  0.00000000000E+00  0.27744919041E+02  0.27744919041E+02  0.00000000000E+00 0.  1.
          2   -1    0    0  501    0  0.00000000000E+00 -0.00000000000E+00 -0.64571956274E+03  0.64571956274E+03  0.00000000000E+00 0. -1.
         25    2    1    2    0    0 -0.44032174853E+01 -0.74284663709E+02 -0.39971929879E+03  0.42539416105E+03  0.12508826822E+03 0.  0.
         23    2    1    2    0    0  0.44032174853E+01  0.74284663709E+02 -0.21825534491E+03  0.24807032073E+03  0.91465233059E+02 0.  0.
          5    1    3    3  502    0  0.47171879132E+02 -0.50800908547E+02 -0.10952332497E+03  0.12968712196E+03  0.41800000000E+01 0. -1.
         -5    1    3    3    0  502 -0.51575096618E+02 -0.23483755161E+02 -0.29019597382E+03  0.29570703909E+03  0.41800000000E+01 0. -1.
        -11    1    4    4    0    0 -0.15226409517E+02  0.85405252268E+02 -0.12519600606E+03  0.15231526711E+03  0.00000000000E+00 0.  1.
         11    1    4    4    0    0  0.19629627002E+02 -0.11120588559E+02 -0.93059338857E+02  0.95755053625E+02  0.00000000000E+00 0. -1.
</event>
<event>
 8    1  0.7048627E-009  0.9274242E+02  0.7561462E-02  0.1296343E+00
          1   -1    0    0  501    0  0.00000000000E+00  0.00000000000E+00  0.48450068241E+03  0.48450068241E+03  0.00000000000E+00 0. -1.
         -1   -1    0    0    0  501 -0.00000000000E+00 -0.00000000000E+00 -0.34879376676E+02  0.34879376676E+02  0.00000000000E+00 0.  1.
         25    2    1    2    0    0 -0.37614516136E+02 -0.61355566304E+02  0.20194776713E+03  0.24821291599E+03  0.12508954262E+03 0.  0.
         23    2    1    2    0    0  0.37614516136E+02  0.61355566304E+02  0.24767353860E+03  0.27116714310E+03  0.83726223075E+02 0.  0.
          5    1    3    3  502    0  0.10690987424E+02  0.12095270258E+02  0.13902715744E+03  0.14002362544E+03  0.41800000000E+01 0.  1.
         -5    1    3    3    0  502 -0.48305503560E+02 -0.73450836562E+02  0.62920609689E+02  0.10818929055E+03  0.41800000000E+01 0.  1.
        -11    1    4    4    0    0  0.51474750016E+01  0.43386430700E+02  0.22147391329E+03  0.22574227148E+03  0.00000000000E+00 0.  1.
         11    1    4    4    0    0  0.32467041135E+02  0.17969135604E+02  0.26199625316E+02  0.45424871614E+02  0.00000000000E+00 0. -1.
</event>
<event>
 8    1  0.7048627E-009  0.1675800E+03  0.7561462E-02  0.1180395E+00
         -2   -1    0    0    0  501 -0.00000000000E+00  0.00000000000E+00  0.12259907275E+03  0.12259907275E+03  0.00000000000E+00 0. -1.
          2   -1    0    0  501    0  0.00000000000E+00 -0.00000000000E+00 -0.25262940162E+03  0.25262940162E+03  0.00000000000E+00 0.  1.
         25    2    1    2    0    0  0.11815676700E+03 -0.68243780719E+02 -0.47498908165E+02  0.19110801751E+03  0.12509153802E+03 0.  0.
         23    2    1    2    0    0 -0.11815676700E+03  0.68243780719E+02 -0.82531420705E+02  0.18412045686E+03  0.92036253923E+02 0.  0.
          5    1    3    3  502    0 -0.64728884037E+01  0.17850644751E+02 -0.33753595625E+02  0.38952810167E+02  0.41800000000E+01 0. -1.
         -5    1    3    3    0  502  0.12462965541E+03 -0.86094425470E+02 -0.13745312540E+02  0.15215520734E+03  0.41800000000E+01 0. -1.
        -11    1    4    4    0    0 -0.35317136377E+02 -0.22059290185E+02 -0.26635931159E+02  0.49430610294E+02  0.00000000000E+00 0.  1.
         11    1    4    4    0    0 -0.82839630628E+02  0.90303070905E+02 -0.55895489547E+02  0.13468984657E+03  0.00000000000E+00 0. -1.
</event>
<event>
 8    1  0.7048627E-009  0.5938559E+02  0.7561462E-02  0.1400428E+00
         -2   -1    0    0    0  501 -0.00000000000E+00  0.00000000000E+00  0.16615633454E+03  0.16615633454E+03  0.00000000000E+00 0.  1.
          2   -1    0    0  501    0  0.00000000000E+00 -0.00000000000E+00 -0.81177133380E+02  0.81177133380E+02  0.00000000000E+00 0. -1.
         25    2    1    2    0    0  0.17706152574E+02  0.30559652808E+01  0.88163703184E+02  0.15409080873E+03  0.12509313335E+03 0.  0.
         23    2    1    2    0    0 -0.17706152574E+02 -0.30559652808E+01 -0.31845020212E+01  0.93242659195E+02  0.91439628596E+02 0.  0.
          5    1    3    3  502    0  0.15847581431E-01 -0.85830032567E+01  0.11737923127E+03  0.11776682270E+03  0.41800000000E+01 0. -1.
         -5    1    3    3    0  502  0.17690304993E+02  0.11638968537E+02 -0.29215528086E+02  0.36323986025E+02  0.41800000000E+01 0. -1.
        -11    1    4    4    0    0 -0.47488549916E+02  0.18405486296E+02  0.13840112350E+02  0.52777580551E+02  0.00000000000E+00 0.  1.
         11    1    4    4    0    0  0.29782397342E+02 -0.21461451577E+02 -0.17024614371E+02  0.40465078644E+02  0.00000000000E+00 0. -1.
</event>
<event>
 8    1  0.7048627E-009  0.1482813E+03  0.7561462E-02  0.1202601E+00
         -2   -1    0    0    0  501 -0.00000000000E+00  0.00000000000E+00  0.43257336099E+02  0.43257336099E+02  0.00000000000E+00 0.  1.
          2   -1    0    0  501    0  0.00000000000E+00 -0.00000000000E+00 -0.74804891611E+03  0.74804891611E+03  0.00000000000E+00 0. -1.
         25    2    1    2    0    0  0.77688761984E+02  0.11804366500E+03 -0.42208372839E+03  0.46235535651E+03  0.12509177168E+03 0.  0.
         23    2    1    2    0    0 -0.77688761984E+02 -0.11804366500E+03 -0.28270785162E+03  0.32895089569E+03  0.91187234990E+02 0.  0.
          5    1    3    3  502    0  0.83515347222E+02  0.11861634581E+03 -0.42868937002E+03  0.45258888529E+03  0.41800000000E+01 0. -1.
         -5    1    3    3    0  502 -0.58265852384E+01 -0.57268081129E+00  0.66056416338E+01  0.97664712279E+01  0.41800000000E+01 0. -1.
        -11    1    4    4    0    0 -0.49214304475E+02 -0.48511829305E+02 -0.22153005117E+03  0.23205820158E+03  0.00000000000E+00 0.  1.
         11    1    4    4    0    0 -0.28474457509E+02 -0.69531835690E+02 -0.61177800444E+02  0.96892694110E+02  0.00000000000E+00 0. -1.
</event>
<event>
 8    1  0.7048627E-009  0.1147665E+03  0.7561462E-02  0.1251989E+00
          2   -1    0    0  501    0  0.00000000000E+00  0.00000000000E+00  0.13480327224E+04  0.13480327224E+04  0.00000000000E+00 0.  1.
         -2   -1    0    0    0  501 -0.00000000000E+00 -0.00000000000E+00 -0.11232222012E+02  0.11232222012E+02  0.00000000000E+00 0. -1.
         25    2    1    2    0    0 -0.36884394065E+02  0.38748474489E+02  0.89109392231E+03  0.90141735187E+03  0.12507182362E+03 0.  0.
         23    2    1    2    0    0  0.36884394065E+02 -0.38748474489E+02  0.44570657811E+03  0.45784759258E+03  0.90045330023E+02 0.  0.
          5    1    3    3  502    0 -0.55494707810E+02 -0.23660140402E+02  0.25911354869E+03  0.26607662121E+03  0.41800000000E+01 0.  1.
         -5    1    3    3    0  502  0.18610313745E+02  0.62408614890E+02  0.63198037362E+03  0.63534073066E+03  0.41800000000E+01 0.  1.
        -11    1    4    4    0    0 -0.12087634575E+02  0.22404389989E+02  0.13768517436E+03  0.14001883745E+03  0.00000000000E+00 0.  1.
         11    1    4    4    0    0  0.48972028640E+02 -0.61152864477E+02  0.30802140374E+03  0.31782875513E+03  0.00000000000E+00 0. -1.
</event>
<event>
 8    1  0.7048627E-009  0.1057316E+03  0.7561462E-02  0.1268685E+00
         -1   -1    0    0    0  501 -0.00000000000E+00  0.00000000000E+00  0.37566723709E+03  0.37566723709E+03  0.00000000000E+00 0.  1.
          1   -1    0    0  501    0  0.00000000000E+00 -0.00000000000E+00 -0.40524139530E+02  0.40524139530E+02  0.00000000000E+00 0. -1.
         25    2    1    2    0    0  0.53203265164E+02 -0.65497597721E+01  0.14878636738E+03  0.20164032025E+03  0.12509176173E+03 0.  0.
         23    2    1    2    0    0 -0.53203265164E+02  0.65497597721E+01  0.18635673018E+03  0.21455105637E+03  0.91814149949E+02 0.  0.
          5    1    3    3  502    0  0.84197053009E+02 -0.33145789189E+02  0.12441516945E+03  0.15389734846E+03  0.41800000000E+01 0. -1.
         -5    1    3    3    0  502 -0.30993787845E+02  0.26596029417E+02  0.24371197934E+02  0.47742971781E+02  0.41800000000E+01 0. -1.
        -11    1    4    4    0    0 -0.62849848144E+02 -0.69512084911E+01  0.18754242204E+03  0.19791559508E+03  0.00000000000E+00 0.  1.
         11    1    4    4    0    0  0.96465829797E+01  0.13500968263E+02 -0.11856918622E+01  0.16635461293E+02  0.00000000000E+00 0. -1.
</event>
<event>
 8    1  0.7048627E-009  0.1147351E+03  0.7561462E-02  0.1252044E+00
         -1   -1    0    0    0  501 -0.00000000000E+00  0.00000000000E+00  0.12577464868E+03  0.12577464868E+03  0.00000000000E+00 0.  1.
          1   -1    0    0  501    0  0.00000000000E+00 -0.00000000000E+00 -0.13864586027E+03  0.13864586027E+03  0.00000000000E+00 0. -1.
         25    2    1    2    0    0 -0.68759501318E+01  0.42424524491E+02 -0.65207470520E+02  0.14746854609E+03  0.12509132226E+03 0.  0.
         23    2    1    2    0    0  0.68759501318E+01 -0.42424524491E+02  0.52336258931E+02  0.11695196286E+03  0.95349665176E+02 0.  0.
          5    1    3    3  502    0 -0.42634881061E+02  0.68835641093E+02 -0.63151829124E+02  0.10277015369E+03  0.41800000000E+01 0.  1.
         -5    1    3    3    0  502  0.35758930930E+02 -0.26411116602E+02 -0.20556413955E+01  0.44698392398E+02  0.41800000000E+01 0.  1.
        -11    1    4    4    0    0 -0.35065907533E+02  0.10132651026E+02  0.11442479430E+02  0.38252043389E+02  0.00000000000E+00 0. -1.
         11    1    4    4    0    0  0.41941857665E+02 -0.52557175516E+02  0.40893779500E+02  0.78699919469E+02  0.00000000000E+00 0.  1.
</event>
<event>
 8    1  0.7048627E-009  0.1371400E+03  0.7561462E-02  0.1217230E+00
          2   -1    0    0  501    0  0.00000000000E+00  0.00000000000E+00  0.13450180076E+03  0.13450180076E+03  0.00000000000E+00 0. -1.
         -2   -1    0    0    0  501 -0.00000000000E+00 -0.00000000000E+00 -0.19542611322E+03  0.19542611322E+03  0.00000000000E+00 0.  1.
         25    2    1    2    0    0  0.99528567746E+02 -0.58787547989E+02 -0.73058780834E+02  0.18532869164E+03  0.12508887597E+03 0.  0.
         23    2    1    2    0    0 -0.99528567746E+02  0.58787547989E+02  0.12134468369E+02  0.14459922235E+03  0.86021963384E+02 0.  0.
          5    1    3    3  502    0 -0.34123408764E+01 -0.37399319134E+02  0.21830872396E+02  0.43639575290E+02  0.41800000000E+01 0. -1.
         -5    1    3    3    0  502  0.10294090862E+03 -0.21388228854E+02 -0.94889653230E+02  0.14168911635E+03  0.41800000000E+01 0. -1.
        -11    1    4    4    0    0 -0.26723812480E+02  0.51603416449E+02  0.35137572338E+02  0.67909673335E+02  0.00000000000E+00 0. -1.
         11    1    4    4    0    0 -0.72804755266E+02  0.71841315395E+01 -0.23003103969E+02  0.76689549011E+02  0.00000000000E+00 0.  1.
</event>
<event>
 8    1  0.7048627E-009  0.7447692E+02  0.7561462E-02  0.1345499E+00
         -1   -1    0    0    0  501 -0.00000000000E+00  0.00000000000E+00  0.30909580737E+03  0.30909580737E+03  0.00000000000E+00 0.  1.
          1   -1    0    0  501    0  0.00000000000E+00 -0.00000000000E+00 -0.44429453646E+02  0.44429453646E+02  0.00000000000E+00 0. -1.
         25    2    1    2    0    0 -0.41062037600E+02 -0.26452484394E+02  0.13137945095E+03  0.18786772805E+03  0.12509155947E+03 0.  0.
         23    2    1    2    0    0  0.41062037600E+02  0.26452484394E+02  0.13328690277E+03  0.16565753296E+03  0.85388494034E+02 0.  0.
          5    1    3    3  502    0 -0.33699260773E+02 -0.11381073053E+02  0.15472662587E+03  0.15881741137E+03  0.41800000000E+01 0. -1.
         -5    1    3    3    0  502 -0.73627768261E+01 -0.15071411341E+02 -0.23347174923E+02  0.29050316682E+02  0.41800000000E+01 0. -1.
        -11    1    4    4    0    0 -0.29601967538E+01 -0.26685267236E+02  0.55642457392E+02  0.61781464186E+02  0.00000000000E+00 0.  1.
         11    1    4    4    0    0  0.44022234353E+02  0.53137751630E+02  0.77644445377E+02  0.10387606877E+03  0.00000000000E+00 0. -1.
</event>
<event>
 8    1  0.7048627E-009  0.1160374E+03  0.7561462E-02  0.1249781E+00
          2   -1    0    0  501    0  0.00000000000E+00  0.00000000000E+00  0.18776632672E+03  0.18776632672E+03  0.00000000000E+00 0. -1.
         -2   -1    0    0    0  501 -0.00000000000E+00 -0.00000000000E+00 -0.82941875473E+02  0.82941875473E+02  0.00000000000E+00 0.  1.
         25    2    1    2    0    0  0.50537158634E+02  0.27898149427E+02  0.30943088454E+02  0.14119903748E+03  0.12508949723E+03 0.  0.
         23    2    1    2    0    0 -0.50537158634E+02 -0.27898149427E+02  0.73881362797E+02  0.12950916472E+03  0.89341238143E+02 0.  0.
          5    1    3    3  502    0 -0.36638161353E+02  0.33464447444E+02  0.53780780406E+01  0.50086128154E+02  0.41800000000E+01 0. -1.
         -5    1    3    3    0  502  0.87175319987E+02 -0.55662980171E+01  0.25565010414E+02  0.91112909326E+02  0.41800000000E+01 0. -1.
        -11    1    4    4    0    0 -0.70176671384E+02 -0.26915646294E+02  0.29095168583E+02  0.80596191330E+02  0.00000000000E+00 0.  1.
         11    1    4    4    0    0  0.19639512750E+02 -0.98250313298E+00  0.44786194214E+02  0.48912973388E+02  0.00000000000E+00 0. -1.
</event>
<event>
 8    1  0.7048627E-009  0.2180871E+03  0.7561462E-02  0.1135317E+00
          2   -1    0    0  501    0  0.00000000000E+00  0.00000000000E+00  0.42213892964E+02  0.42213892964E+02  0.00000000000E+00 0. -1.
         -2   -1    0    0    0  501 -0.00000000000E+00 -0.00000000000E+00 -0.13099105671E+04  0.13099105671E+04  0.00000000000E+00 0.  1.
         25    2    1    2    0    0  0.14478573398E+03  0.13602574435E+03 -0.47517259150E+03  0.53000296251E+03  0.12509291211E+03 0.  0.
         23    2    1    2    0    0 -0.14478573398E+03 -0.13602574435E+03 -0.79252408261E+03  0.82212149753E+03  0.91232797286E+02 0.  0.
          5    1    3    3  502    0  0.14259402119E+03  0.84296596834E+02 -0.25741322111E+03  0.30613397381E+03  0.41800000000E+01 0. -1.
         -5    1    3    3    0  502  0.21917127883E+01  0.51729147519E+02 -0.21775937039E+03  0.22386898870E+03  0.41800000000E+01 0. -1.
        -11    1    4    4    0    0 -0.66028246857E+02 -0.12173229986E+03 -0.51269407110E+03  0.53106844451E+03  0.00000000000E+00 0.  1.
         11    1    4    4    0    0 -0.78757487120E+02 -0.14293444489E+02 -0.27983001150E+03  0.29105305302E+03  0.00000000000E+00 0. -1.
</event>
<event>
 8    1  0.7048627E-009  0.1271672E+03  0.7561462E-02  0.1231721E+00
          3   -1    0    0  501    0  0.00000000000E+00  0.00000000000E+00  0.15682262378E+03  0.15682262378E+03  0.00000000000E+00 0. -1.
         -3   -1    0    0    0  501 -0.00000000000E+00 -0.00000000000E+00 -0.15673064001E+03  0.15673064001E+03  0.00000000000E+00 0.  1.
         25    2    1    2    0    0 -0.79964228815E+02 -0.11135153409E+02 -0.76794918932E+02  0.16752090324E+03  0.12509006322E+03 0.  0.
         23    2    1    2    0    0  0.79964228815E+02  0.11135153409E+02  0.76886902709E+02  0.14603236055E+03  0.94316408902E+02 0.  0.
          5    1    3    3  502    0 -0.54304338691E+02  0.55188227060E+02 -0.43189466642E+02  0.88755304268E+02  0.41800000000E+01 0. -1.
         -5    1    3    3    0  502 -0.25659890124E+02 -0.66323380470E+02 -0.33605452289E+02  0.78765598973E+02  0.41800000000E+01 0. -1.
        -11    1    4    4    0    0  0.58290075618E+02  0.39091986929E+02  0.84501869151E+02  0.10984754093E+03  0.00000000000E+00 0. -1.
         11    1    4    4    0    0  0.21674153197E+02 -0.27956833520E+02 -0.76149664422E+01  0.36184819623E+02  0.00000000000E+00 0.  1.
</event>
<event>
 8    1  0.7048627E-009  0.1091166E+03  0.7561462E-02  0.1262215E+00
         -2   -1    0    0    0  501 -0.00000000000E+00  0.00000000000E+00  0.11201995194E+02  0.11201995194E+02  0.00000000000E+00 0. -1.
          2   -1    0    0  501    0  0.00000000000E+00 -0.00000000000E+00 -0.11789166977E+04  0.11789166977E+04  0.00000000000E+00 0.  1.
         25    2    1    2    0    0  0.19358234104E+02 -0.77099806259E+01 -0.84170897885E+03  0.85120756828E+03  0.12508450820E+03 0.  0.
         23    2    1    2    0    0 -0.19358234104E+02  0.77099806259E+01 -0.32600572361E+03  0.33891112456E+03  0.90259811102E+02 0.  0.
          5    1    3    3  502    0  0.10179933733E+02 -0.66122126236E+02 -0.40879816955E+03  0.41425738672E+03  0.41800000000E+01 0.  1.
         -5    1    3    3    0  502  0.91783003714E+01  0.58412145610E+02 -0.43291080930E+03  0.43695018156E+03  0.41800000000E+01 0.  1.
        -11    1    4    4    0    0 -0.76984473100E+01  0.48702178862E+02 -0.15381589378E+03  0.16152553203E+03  0.00000000000E+00 0.  1.
         11    1    4    4    0    0 -0.11659786794E+02 -0.40992198237E+02 -0.17218982983E+03  0.17738559254E+03  0.00000000000E+00 0. -1.
</event>
<event>
 8    1  0.7048627E-009  0.1299381E+03  0.7561462E-02  0.1227548E+00
          2   -1    0    0  501    0  0.00000000000E+00  0.00000000000E+00  0.96969655358E+03  0.96969655358E+03  0.00000000000E+00 0.  1.
         -2   -1    0    0    0  501 -0.00000000000E+00 -0.00000000000E+00 -0.26570612052E+02  0.26570612052E+02  0.00000000000E+00 0. -1.
         25    2    1    2    0    0  0.75855099278E+02  0.62559265705E+02  0.70586747357E+03  0.72357711164E+03  0.12508912195E+03 0.  0.
         23    2    1    2    0    0 -0.75855099278E+02 -0.62559265705E+02  0.23725846796E+03  0.27269005399E+03  0.91654935038E+02 0.  0.
          5    1    3    3  502    0 -0.15176671719E+02  0.55516350490E+02  0.40627951851E+03  0.41035705928E+03  0.41800000000E+01 0.  1.
         -5    1    3    3    0  502  0.91031770997E+02  0.70429152154E+01  0.29958795506E+03  0.31322005236E+03  0.41800000000E+01 0.  1.
        -11    1    4    4    0    0 -0.63117174108E+02 -0.19791504175E+02  0.21052137258E+03  0.22066882339E+03  0.00000000000E+00 0.  1.
         11    1    4    4    0    0 -0.12737925169E+02 -0.42767761530E+02  0.26737095380E+02  0.52021230601E+02  0.00000000000E+00 0. -1.
</event>
<event>
 8    1  0.7048627E-009  0.1047111E+03  0.7561462E-02  0.1270690E+00
         -2   -1    0    0    0  501 -0.00000000000E+00  0.00000000000E+00  0.16062443397E+03  0.16062443397E+03  0.00000000000E+00 0.  1.
          2   -1    0    0  501    0  0.00000000000E+00 -0.00000000000E+00 -0.11700755788E+03  0.11700755788E+03  0.00000000000E+00 0. -1.
         25    2    1    2    0    0 -0.50195728767E+02  0.30589058312E+02 -0.37093628040E+02  0.14310362004E+03  0.12508959650E+03 0.  0.
         23    2    1    2    0    0  0.50195728767E+02 -0.30589058312E+02  0.80710504129E+02  0.13452837182E+03  0.90157615717E+02 0.  0.
          5    1    3    3  502    0 -0.22824964477E+02  0.77174351078E+02 -0.64447914285E+01  0.80844710428E+02  0.41800000000E+01 0.  1.
         -5    1    3    3    0  502 -0.27370764290E+02 -0.46585292766E+02 -0.30648836611E+02  0.62258909608E+02  0.41800000000E+01 0.  1.
        -11    1    4    4    0    0  0.20563910726E+02  0.11198230554E+02  0.79936491142E+02  0.83295362464E+02  0.00000000000E+00 0.  1.
         11    1    4    4    0    0  0.29631818041E+02 -0.41787288866E+02  0.77401298709E+00  0.51233009352E+02  0.00000000000E+00 0. -1.
</event>
<event>
 8    1  0.7048627E-009  0.1469563E+03  0.7561462E-02  0.1204264E+00
          1   -1    0    0  501    0  0.00000000000E+00  0.00000000000E+00  0.51531909688E+03  0.51531909688E+03  0.00000000000E+00 0. -1.
         -1   -1    0    0    0  501 -0.00000000000E+00 -0.00000000000E+00 -0.43616242318E+02  0.43616242318E+02  0.00000000000E+00 0.  1.
         25    2    1    2    0    0  0.10146234116E+03 -0.92213671213E+01  0.28134940423E+03  0.32432285213E+03  0.12509270509E+03 0.  0.
         23    2    1    2    0    0 -0.10146234116E+03  0.92213671213E+01  0.19035345033E+03  0.23461248707E+03  0.91809273772E+02 0.  0.
          5    1    3    3  502    0  0.55757753477E+02 -0.65552119510E+02  0.12386101576E+03  0.15088085057E+03  0.41800000000E+01 0.  1.
         -5    1    3    3    0  502  0.45704587685E+02  0.56330752389E+02  0.15748838848E+03  0.17344200156E+03  0.41800000000E+01 0.  1.
        -11    1    4    4    0    0 -0.10254407713E+03 -0.21149544637E+02  0.16296770145E+03  0.19370354336E+03  0.00000000000E+00 0.  1.
         11    1    4    4    0    0  0.10817359730E+01  0.30370911758E+02  0.27385748879E+02  0.40908943710E+02  0.00000000000E+00 0. -1.
</event>
<event>
 8    1  0.7048627E-009  0.7637462E+02  0.7561462E-02  0.1339666E+00
          4   -1    0    0  501    0  0.00000000000E+00  0.00000000000E+00  0.27434787301E+03  0.27434787301E+03  0.00000000000E+00 0. -1.
         -4   -1    0    0    0  501 -0.00000000000E+00 -0.00000000000E+00 -0.52205329003E+02  0.52205329003E+02  0.00000000000E+00 0.  1.
         25    2    1    2    0    0 -0.77613788998E+01 -0.32813726788E+02  0.73171304142E+02  0.14879673640E+03  0.12509775915E+03 0.  0.
         23    2    1    2    0    0  0.77613788998E+01  0.32813726788E+02  0.14897123986E+03  0.17775646561E+03  0.90928274443E+02 0.  0.
          5    1    3    3  502    0 -0.28974546040E+02 -0.26767058973E+02  0.10362751919E+03  0.11096005992E+03  0.41800000000E+01 0.  1.
         -5    1    3    3    0  502  0.21213167140E+02 -0.60466678150E+01 -0.30456215047E+02  0.37836676476E+02  0.41800000000E+01 0.  1.
        -11    1    4    4    0    0  0.34193448707E+02 -0.13938068780E+02  0.93589220778E+02  0.10061015824E+03  0.00000000000E+00 0. -1.
         11    1    4    4    0    0 -0.26432069807E+02  0.46751795567E+02  0.55382019083E+02  0.77146307369E+02  0.00000000000E+00 0.  1.
</event>
<event>
 8    1  0.7048627E-009  0.2817417E+03  0.7561462E-02  0.1094741E+00
          2   -1    0    0  501    0  0.00000000000E+00  0.00000000000E+00  0.38236411377E+03  0.38236411377E+03  0.00000000000E+00 0. -1.
         -2   -1    0    0    0  501 -0.00000000000E+00 -0.00000000000E+00 -0.23750062412E+03  0.23750062412E+03  0.00000000000E+00 0.  1.
         25    2    1    2    0    0 -0.25984501096E+03  0.44426043373E+02  0.17369461907E+03  0.33957441580E+03  0.12509140708E+03 0.  0.
         23    2    1    2    0    0  0.25984501096E+03 -0.44426043373E+02 -0.28831129417E+02  0.28029032209E+03  0.90765233339E+02 0.  0.
          5    1    3    3  502    0 -0.31061579264E+02 -0.37373343668E+02  0.27960100129E+02  0.56221242627E+02  0.41800000000E+01 0.  1.
         -5    1    3    3    0  502 -0.22878343169E+03  0.81799387041E+02  0.14573451895E+03  0.28335317318E+03  0.41800000000E+01 0.  1.
        -11    1    4    4    0    0  0.21605842386E+03 -0.10500527595E+02 -0.48184868617E+02  0.22161517358E+03  0.00000000000E+00 0.  1.
         11    1    4    4    0    0  0.43786587099E+02 -0.33925515778E+02  0.19353739200E+02  0.58675148501E+02  0.00000000000E+00 0. -1.
</event>
<event>
 8    1  0.7048627E-009  0.8939452E+02  0.7561462E-02  0.1304325E+00
         -2   -1    0    0    0  501 -0.00000000000E+00  0.00000000000E+00  0.85541282384E+02  0.85541282384E+02  0.00000000000E+00 0.  1.
          2   -1    0    0  501    0  0.00000000000E+00 -0.00000000000E+00 -0.18551167649E+03  0.18551167649E+03  0.00000000000E+00 0. -1.
         25    2    1    2    0    0  0.99429638555E+01  0.19916961606E+02 -0.12134407280E+03  0.17569218554E+03  0.12509121538E+03 0.  0.
         23    2    1    2    0    0 -0.99429638555E+01 -0.19916961606E+02  0.21373678701E+02  0.95360773328E+02  0.90229125335E+02 0.  0.
          5    1    3    3  502    0  0.66058750826E+01  0.69934304003E+02 -0.96923731584E+02  0.11977531718E+03  0.41800000000E+01 0.  1.
         -5    1    3    3    0  502  0.33370887729E+01 -0.50017342396E+02 -0.24420341221E+02  0.55916868360E+02  0.41800000000E+01 0.  1.
        -11    1    4    4    0    0 -0.22479355509E+02 -0.33043838787E+02 -0.23912171159E+02  0.46572616797E+02  0.00000000000E+00 0. -1.
         11    1    4    4    0    0  0.12536391653E+02  0.13126877180E+02  0.45285849860E+02  0.48788156531E+02  0.00000000000E+00 0.  1.
</event>
<event>
 8    1  0.7048627E-009  0.8874484E+02  0.7561462E-02  0.1305920E+00
          3   -1    0    0  501    0  0.00000000000E+00  0.00000000000E+00  0.73702748729E+02  0.73702748729E+02  0.00000000000E+00 0. -1.
         -3   -1    0    0    0  501 -0.00000000000E+00 -0.00000000000E+00 -0.24169911236E+03  0.24169911236E+03  0.00000000000E+00 0.  1.
         25    2    1    2    0    0  0.38666328736E+02  0.97372448256E+01 -0.16967360246E+03  0.21453895725E+03  0.12509170193E+03 0.  0.
         23    2    1    2    0    0 -0.38666328736E+02 -0.97372448256E+01  0.16772388336E+01  0.10086290384E+03  0.92631600036E+02 0.  0.
          5    1    3    3  502    0  0.14432753835E+02  0.43352922064E+02 -0.16656913987E+03  0.17277306211E+03  0.41800000000E+01 0. -1.
         -5    1    3    3    0  502  0.24233574901E+02 -0.33615677239E+02 -0.31044625918E+01  0.41765895138E+02  0.41800000000E+01 0. -1.
        -11    1    4    4    0    0 -0.45525933305E+02 -0.38971399338E+02 -0.20712347872E+02  0.63406481719E+02  0.00000000000E+00 0.  1.
         11    1    4    4    0    0  0.68596045695E+01  0.29234154512E+02  0.22389586706E+02  0.37456422116E+02  0.00000000000E+00 0. -1.
</event>
<event>
 8    1  0.7048627E-009  0.1933121E+03  0.7561462E-02  0.1155508E+00
         -2   -1    0    0    0  501 -0.00000000000E+00  0.00000000000E+00  0.20935985956E+03  0.20935985956E+03  0.00000000000E+00 0.  1.
          2   -1    0    0  501    0  0.00000000000E+00 -0.00000000000E+00 -0.19586271466E+03  0.19586271466E+03  0.00000000000E+00 0. -1.
         25    2    1    2    0    0  0.14586433420E+02 -0.16890779435E+03 -0.27237824272E+01  0.21070738963E+03  0.12509027948E+03 0.  0.
         23    2    1    2    0    0 -0.14586433420E+02  0.16890779435E+03  0.16220927325E+02  0.19451518460E+03  0.93970375772E+02 0.  0.
          5    1    3    3  502    0 -0.38039433576E+02 -0.98043381875E+02  0.39952115342E+02  0.11257507343E+03  0.41800000000E+01 0.  1.
         -5    1    3    3    0  502  0.52625866997E+02 -0.70864412477E+02 -0.42675897769E+02  0.98132316202E+02  0.41800000000E+01 0.  1.
        -11    1    4    4    0    0 -0.52690133398E+02  0.11962461902E+03  0.25609690773E+01  0.13073965808E+03  0.00000000000E+00 0. -1.
         11    1    4    4    0    0  0.38103699978E+02  0.49283175333E+02  0.13659958247E+02  0.63775526514E+02  0.00000000000E+00 0.  1.
</event>
<event>
 8    1  0.7048627E-009  0.7536068E+02  0.7561462E-02  0.1342758E+00
          2   -1    0    0  501    0  0.00000000000E+00  0.00000000000E+00  0.94394581002E+02  0.94394581002E+02  0.00000000000E+00 0. -1.
         -2   -1    0    0    0  501 -0.00000000000E+00 -0.00000000000E+00 -0.15666235923E+03  0.15666235923E+03  0.00000000000E+00 0.  1.
         25    2    1    2    0    0  0.53601607711E+02 -0.22166051497E+02 -0.20928835487E+02  0.13945762027E+03  0.12508375397E+03 0.  0.
         23    2    1    2    0    0 -0.53601607711E+02  0.22166051497E+02 -0.41338942736E+02  0.11159931996E+03  0.85912943383E+02 0.  0.
          5    1    3    3  502    0  0.17940006765E+02  0.46162344826E+01 -0.70284964937E+02  0.72805234425E+02  0.41800000000E+01 0. -1.
         -5    1    3    3    0  502  0.35661600946E+02 -0.26782285979E+02  0.49356129450E+02  0.66652385843E+02  0.41800000000E+01 0. -1.
        -11    1    4    4    0    0 -0.35591647665E+02  0.45306160117E+02  0.38362218523E+01  0.57741926935E+02  0.00000000000E+00 0. -1.
         11    1    4    4    0    0 -0.18009960045E+02 -0.23140108620E+02 -0.45175164589E+02  0.53857393024E+02  0.00000000000E+00 0.  1.
</event>
<event>
 8    1  0.7048627E-009  0.1382333E+03  0.7561462E-02  0.1215726E+00
         -2   -1    0    0    0  501 -0.00000000000E+00  0.00000000000E+00  0.21239102622E+02  0.21239102622E+02  0.00000000000E+00 0.  1.
          2   -1    0    0  501    0  0.00000000000E+00 -0.00000000000E+00 -0.98678534901E+03  0.98678534901E+03  0.00000000000E+00 0. -1.
         25    2    1    2    0    0 -0.58457672117E+02 -0.65358305483E+02 -0.65096388923E+03  0.66864714631E+03  0.12508402639E+03 0.  0.
         23    2    1    2    0    0  0.58457672117E+02  0.65358305483E+02 -0.31458235715E+03  0.33937730532E+03  0.92335737444E+02 0.  0.
          5    1    3    3  502    0 -0.56800663928E+02 -0.10054937815E+03 -0.45156880980E+03  0.46612053726E+03  0.41800000000E+01 0. -1.
         -5    1    3    3    0  502 -0.16570081893E+01  0.35191072670E+02 -0.19939507944E+03  0.20252660905E+03  0.41800000000E+01 0. -1.
        -11    1    4    4    0    0 -0.13662188731E+02  0.49814656317E+02 -0.10155794972E+03  0.11393933709E+03  0.00000000000E+00 0.  1.
         11    1    4    4    0    0  0.72119860848E+02  0.15543649166E+02 -0.21302440743E+03  0.22543796823E+03  0.00000000000E+00 0. -1.
</event>
<event>
 8    1  0.7048627E-009  0.1682286E+03  0.7561462E-02  0.1179708E+00
         -2   -1    0    0    0  501 -0.00000000000E+00  0.00000000000E+00  0.16614245771E+03  0.16614245771E+03  0.00000000000E+00 0.  1.
          2   -1    0    0  501    0  0.00000000000E+00 -0.00000000000E+00 -0.20369608358E+03  0.20369608358E+03  0.00000000000E+00 0. -1.
         25    2    1    2    0    0 -0.13247831112E+03  0.67271560769E+02 -0.26332105052E+02  0.19600136457E+03  0.12508872592E+03 0.  0.
         23    2    1    2    0    0  0.13247831112E+03 -0.67271560769E+02 -0.11221520816E+02  0.17383717672E+03  0.89540357816E+02 0.  0.
          5    1    3    3  502    0 -0.96826533154E+02  0.87007620020E+02  0.22596918940E+02  0.13218848895E+03  0.41800000000E+01 0. -1.
         -5    1    3    3    0  502 -0.35651777963E+02 -0.19736059251E+02 -0.48929023992E+02  0.63812875624E+02  0.41800000000E+01 0. -1.
        -11    1    4    4    0    0  0.92183495500E+02 -0.80966485124E+02  0.15374656378E+02  0.12365172306E+03  0.00000000000E+00 0. -1.
         11    1    4    4    0    0  0.40294815616E+02  0.13694924356E+02 -0.26596177194E+02  0.50185453669E+02  0.00000000000E+00 0.  1.
</event>
<event>
 8    1  0.7048627E-009  0.1005967E+03  0.7561462E-02  0.1279046E+00
          2   -1    0    0  501    0  0.00000000000E+00  0.00000000000E+00  0.50920158230E+02  0.50920158230E+02  0.00000000000E+00 0. -1.
         -2   -1    0    0    0  501 -0.00000000000E+00 -0.00000000000E+00 -0.26290251723E+03  0.26290251723E+03  0.00000000000E+00 0.  1.
         25    2    1    2    0    0  0.30041936941E+02 -0.23681091702E+02 -0.12273404307E+03  0.17937223380E+03  0.12508973121E+03 0.  0.
         23    2    1    2    0    0 -0.30041936941E+02  0.23681091702E+02 -0.89248315930E+02  0.13445044165E+03  0.92996490713E+02 0.  0.
          5    1    3    3  502    0  0.61927405894E+02 -0.52997910201E+02 -0.10346466164E+03  0.13178084343E+03  0.41800000000E+01 0. -1.
         -5    1    3    3    0  502 -0.31885468953E+02  0.29316818499E+02 -0.19269381423E+02  0.47591390373E+02  0.41800000000E+01 0. -1.
        -11    1    4    4    0    0 -0.31429453538E+02  0.44894281501E+02 -0.97337826181E+02  0.11170478713E+03  0.00000000000E+00 0.  1.
         11    1    4    4    0    0  0.13875165967E+01 -0.21213189799E+02  0.80895102506E+01  0.22745654527E+02  0.00000000000E+00 0. -1.
</event>
<event>
 8    1  0.7048627E-009  0.1177449E+03  0.7561462E-02  0.1246864E+00
          1   -1    0    0  501    0  0.00000000000E+00  0.00000000000E+00  0.35561677559E+03  0.35561677559E+03  0.00000000000E+00 0. -1.
         -1   -1    0    0    0  501 -0.00000000000E+00 -0.00000000000E+00 -0.63490731413E+02  0.63490731413E+02  0.00000000000E+00 0.  1.
         25    2    1    2    0    0 -0.60323861724E+02  0.65823161191E+02  0.23224249539E+03  0.27848761288E+03  0.12508843680E+03 0.  0.
         23    2    1    2    0    0  0.60323861724E+02 -0.65823161191E+02  0.59883548781E+02  0.14061989412E+03  0.90643578728E+02 0.  0.
          5    1    3    3  502    0 -0.42837953000E+02  0.78945898464E+02  0.67975614962E+02  0.11271957120E+03  0.41800000000E+01 0.  1.
         -5    1    3    3    0  502 -0.17485908724E+02 -0.13122737273E+02  0.16426688043E+03  0.16576804168E+03  0.41800000000E+01 0.  1.
        -11    1    4    4    0    0  0.73406327642E+02 -0.76798679758E+02  0.62628230934E+02  0.12332405062E+03  0.00000000000E+00 0.  1.
         11    1    4    4    0    0 -0.13082465917E+02  0.10975518568E+02 -0.27446821531E+01  0.17295843502E+02  0.00000000000E+00 0. -1.
</event>
<event>
 8    1  0.7048627E-009  0.1944014E+03  0.7561462E-02  0.1154550E+00
         -4   -1    0    0    0  501 -0.00000000000E+00  0.00000000000E+00  0.79397911495E+03  0.79397911495E+03  0.00000000000E+00 0.  1.
          4   -1    0    0  501    0  0.00000000000E+00 -0.00000000000E+00 -0.59641972648E+02  0.59641972648E+02  0.00000000000E+00 0. -1.
         25    2    1    2    0    0  0.25558596000E+02  0.18081096401E+03  0.47022199837E+03  0.51971369994E+03  0.12509098933E+03 0.  0.
         23    2    1    2    0    0 -0.25558596000E+02 -0.18081096401E+03  0.26411514393E+03  0.33390738766E+03  0.91605063978E+02 0.  0.
          5    1    3    3  502    0  0.54664688043E+02  0.70822171091E+02  0.10956485866E+03  0.14151303364E+03  0.41800000000E+01 0.  1.
         -5    1    3    3    0  502 -0.29106092043E+02  0.10998879292E+03  0.36065713971E+03  0.37820066629E+03  0.41800000000E+01 0.  1.
        -11    1    4    4    0    0  0.16434048306E+01 -0.10203430462E+03  0.73175996937E+02  0.12557239596E+03  0.00000000000E+00 0. -1.
         11    1    4    4    0    0 -0.27202000831E+02 -0.78776659389E+02  0.19093914699E+03  0.20833499171E+03  0.00000000000E+00 0.  1.
</event>
<event>
 8    1  0.7048627E-009  0.8890712E+02  0.7561462E-02  0.1305520E+00
          2   -1    0    0  501    0  0.00000000000E+00  0.00000000000E+00  0.58183926715E+03  0.58183926715E+03  0.00000000000E+00 0. -1.
         -2   -1    0    0    0  501 -0.00000000000E+00 -0.00000000000E+00 -0.28494652071E+02  0.28494652071E+02  0.00000000000E+00 0.  1.
         25    2    1    2    0    0  0.51832857384E+01  0.47053724384E+02  0.18614812097E+03  0.22921489342E+03  0.12508966782E+03 0.  0.
         23    2    1    2    0    0 -0.51832857384E+01 -0.47053724384E+02  0.36719649411E+03  0.38111902580E+03  0.90429680479E+02 0.  0.
          5    1    3    3  502    0 -0.84736149722E+01  0.57968382383E+02  0.19876015211E+03  0.20725637740E+03  0.41800000000E+01 0.  1.
         -5    1    3    3    0  502  0.13656900711E+02 -0.10914657999E+02 -0.12612031141E+02  0.21958516019E+02  0.41800000000E+01 0.  1.
        -11    1    4    4    0    0 -0.18090329254E+02  0.23344732929E+02  0.84873164046E+02  0.89864845981E+02  0.00000000000E+00 0.  1.
         11    1    4    4    0    0  0.12907043516E+02 -0.70398457312E+02  0.28232333006E+03  0.29125417982E+03  0.00000000000E+00 0. -1.
</event>
<event>
 8    1  0.7048627E-009  0.8320341E+02  0.7561462E-02  0.1320199E+00
         -1   -1    0    0    0  501 -0.00000000000E+00  0.00000000000E+00  0.37634038131E+02  0.37634038131E+02  0.00000000000E+00 0.  1.
          1   -1    0    0  501    0  0.00000000000E+00 -0.00000000000E+00 -0.42219221325E+03  0.42219221325E+03  0.00000000000E+00 0. -1.
         25    2    1    2    0    0  0.50480156742E+02  0.27637124715E+02 -0.25974558920E+03  0.29398570258E+03  0.12509102817E+03 0.  0.
         23    2    1    2    0    0 -0.50480156742E+02 -0.27637124715E+02 -0.12481258592E+03  0.16584054880E+03  0.92805436985E+02 0.  0.
          5    1    3    3  502    0  0.13833724388E+02  0.80253034208E+01  0.11116978873E+02  0.19920769180E+02  0.41800000000E+01 0. -1.
         -5    1    3    3    0  502  0.36646432354E+02  0.19611821294E+02 -0.27086256807E+03  0.27406493340E+03  0.41800000000E+01 0. -1.
        -11    1    4    4    0    0 -0.43978864560E+02 -0.60392285867E+02 -0.96639160236E+02  0.12214948224E+03  0.00000000000E+00 0.  1.
         11    1    4    4    0    0 -0.65012921827E+01  0.32755161153E+02 -0.28173425685E+02  0.43691066558E+02  0.00000000000E+00 0. -1.
</event>
<event>
 8    1  0.7048627E-009  0.1454174E+03  0.7561462E-02  0.1206220E+00
         -1   -1    0    0    0  501 -0.00000000000E+00  0.00000000000E+00  0.10976184444E+03  0.10976184444E+03  0.00000000000E+00 0.  1.
          1   -1    0    0  501    0  0.00000000000E+00 -0.00000000000E+00 -0.20839807418E+03  0.20839807418E+03  0.00000000000E+00 0. -1.
         25    2    1    2    0    0  0.85077139064E+01 -0.98781965915E+02 -0.17941304486E+02  0.16062886298E+03  0.12509789458E+03 0.  0.
         23    2    1    2    0    0 -0.85077139064E+01  0.98781965915E+02 -0.80694925256E+02  0.15753105564E+03  0.92054899610E+02 0.  0.
          5    1    3    3  502    0 -0.36418547530E+02 -0.10502220629E+03  0.11451077873E+01  0.11124189000E+03  0.41800000000E+01 0. -1.
         -5    1    3    3    0  502  0.44926261437E+02  0.62402403744E+01 -0.19086412273E+02  0.49386972979E+02  0.41800000000E+01 0. -1.
        -11    1    4    4    0    0 -0.42531857276E+02  0.89009669940E+02 -0.68459091109E+02  0.12007633981E+03  0.00000000000E+00 0. -1.
         11    1    4    4    0    0  0.34024143369E+02  0.97722959757E+01 -0.12235834147E+02  0.37454715830E+02  0.00000000000E+00 0.  1.
</event>
<event>
 8    1  0.7048627E-009  0.1063951E+03  0.7561462E-02  0.1267395E+00
         -2   -1    0    0    0  501 -0.00000000000E+00  0.00000000000E+00  0.59374817516E+02  0.59374817516E+02  0.00000000000E+00 0.  1.
          2   -1    0    0  501    0  0.00000000000E+00 -0.00000000000E+00 -0.33014768457E+03  0.33014768457E+03  0.00000000000E+00 0. -1.
         25    2    1    2    0    0  0.70389686430E+02  0.41716355177E+02 -0.18488997136E+03  0.23774683021E+03  0.12507714229E+03 0.  0.
         23    2    1    2    0    0 -0.70389686430E+02 -0.41716355177E+02 -0.85882895699E+02  0.15177567187E+03  0.94683792456E+02 0.  0.
          5    1    3    3  502    0  0.78767804162E+02  0.67244320804E+02 -0.84472951316E+02  0.13371356534E+03  0.41800000000E+01 0.  1.
         -5    1    3    3    0  502 -0.83781177319E+01 -0.25527965627E+02 -0.10041702004E+03  0.10403326487E+03  0.41800000000E+01 0.  1.
        -11    1    4    4    0    0 -0.26796322394E+02 -0.13346886196E+02  0.18472538540E+02  0.35176937688E+02  0.00000000000E+00 0.  1.
         11    1    4    4    0    0 -0.43593364036E+02 -0.28369468981E+02 -0.10435543424E+03  0.11659873418E+03  0.00000000000E+00 0. -1.
</event>
<event>
 8    1  0.7048627E-009  0.9419321E+02  0.7561462E-02  0.1293004E+00
          3   -1    0    0  501    0  0.00000000000E+00  0.00000000000E+00  0.19266334024E+02  0.19266334024E+02  0.00000000000E+00 0. -1.
         -3   -1    0    0    0  501 -0.00000000000E+00 -0.00000000000E+00 -0.64778952309E+03  0.64778952309E+03  0.00000000000E+00 0.  1.
         25    2    1    2    0    0  0.21065973650E+02 -0.31209325238E+01 -0.30353294682E+03  0.32898934148E+03  0.12509285165E+03 0.  0.
         23    2    1    2    0    0 -0.21065973650E+02  0.31209325238E+01 -0.32499024224E+03  0.33806651563E+03  0.90646544189E+02 0.  0.
          5    1    3    3  502    0  0.64644620423E+02 -0.16174117866E+02 -0.24926791050E+03  0.25805521239E+03  0.41800000000E+01 0. -1.
         -5    1    3    3    0  502 -0.43578646773E+02  0.13053185343E+02 -0.54265036322E+02  0.70934129086E+02  0.41800000000E+01 0. -1.
        -11    1    4    4    0    0 -0.46373493798E+02 -0.99833451836E+01 -0.28522959218E+03  0.28914717422E+03  0.00000000000E+00 0.  1.
         11    1    4    4    0    0  0.25307520148E+02  0.13104277707E+02 -0.39760650068E+02  0.48919341411E+02  0.00000000000E+00 0. -1.
</event>
<event>
 8    1  0.7048627E-009  0.1152230E+03  0.7561462E-02  0.1251192E+00
          2   -1    0    0  501    0  0.00000000000E+00  0.00000000000E+00  0.11844272761E+04  0.11844272761E+04  0.00000000000E+00 0. -1.
         -2   -1    0    0    0  501 -0.00000000000E+00 -0.00000000000E+00 -0.17922685044E+02  0.17922685044E+02  0.00000000000E+00 0.  1.
         25    2    1    2    0    0 -0.77947002988E+02  0.57015373789E+02  0.59733121099E+03  0.61788242128E+03  0.12509045839E+03 0.  0.
         23    2    1    2    0    0  0.77947002988E+02 -0.57015373789E+02  0.56917338002E+03  0.58446753982E+03  0.91200221788E+02 0.  0.
          5    1    3    3  502    0 -0.78861569796E+02  0.59300456181E+02  0.60264740664E+03  0.61068572967E+03  0.41800000000E+01 0. -1.
         -5    1    3    3    0  502  0.91456680760E+00 -0.22850823920E+01 -0.53161956476E+01  0.71966916113E+01  0.41800000000E+01 0. -1.
        -11    1    4    4    0    0  0.31979243132E+02 -0.71759441540E+02  0.43105643413E+03  0.43815720791E+03  0.00000000000E+00 0. -1.
         11    1    4    4    0    0  0.45967759857E+02  0.14744067751E+02  0.13811694589E+03  0.14631033191E+03  0.00000000000E+00 0.  1.
</event>
<event>
 8    1  0.7048627E-009  0.1123977E+03  0.7561462E-02  0.1256193E+00
          1   -1    0    0  501    0  0.00000000000E+00  0.00000000000E+00  0.38059297626E+03  0.38059297626E+03  0.00000000000E+00 0. -1.
         -1   -1    0    0    0  501 -0.00000000000E+00 -0.00000000000E+00 -0.49975600635E+02  0.49975600635E+02  0.00000000000E+00 0.  1.
         25    2    1    2    0    0 -0.54119000808E+02 -0.56781580388E+02  0.12777408188E+03  0.19526379497E+03  0.12509484203E+03 0.  0.
         23    2    1    2    0    0  0.54119000808E+02  0.56781580388E+02  0.20284329374E+03  0.23530478193E+03  0.89832758297E+02 0.  0.
          5    1    3    3  502    0 -0.66970420524E+02 -0.24447071507E+02  0.96666481002E+01  0.72066726136E+02  0.41800000000E+01 0.  1.
         -5    1    3    3    0  502  0.12851419716E+02 -0.32334508882E+02  0.11810743378E+03  0.12319706883E+03  0.41800000000E+01 0.  1.
        -11    1    4    4    0    0  0.40395319308E+02 -0.16605821008E+02  0.61153010572E+02  0.75148026025E+02  0.00000000000E+00 0.  1.
         11    1    4    4    0    0  0.13723681501E+02  0.73387401396E+02  0.14169028317E+03  0.16015675590E+03  0.00000000000E+00 0. -1.
</event>
<event>
 8    1  0.7048627E-009  0.3108082E+03  0.7561462E-02  0.1079959E+00
          2   -1    0    0  501    0  0.00000000000E+00  0.00000000000E+00  0.54405158828E+02  0.54405158828E+02  0.00000000000E+00 0. -1.
         -2   -1    0    0    0  501 -0.00000000000E+00 -0.00000000000E+00 -0.18583098738E+04  0.18583098738E+04  0.00000000000E+00 0.  1.
         25    2    1    2    0    0 -0.46847160542E+02  0.29379248176E+03 -0.84413184347E+03  0.90372483004E+03  0.12510523763E+03 0.  0.
         23    2    1    2    0    0  0.46847160542E+02 -0.29379248176E+03 -0.95977287155E+03  0.10089902026E+04  0.91589220245E+02 0.  0.
          5    1    3    3  502    0  0.34122318923E+02  0.17601133619E+03 -0.44686218043E+03  0.48150555949E+03  0.41800000000E+01 0. -1.
         -5    1    3    3    0  502 -0.80969479465E+02  0.11778114556E+03 -0.39726966303E+03  0.42221927055E+03  0.41800000000E+01 0. -1.
        -11    1    4    4    0    0  0.18493443488E+02 -0.21035788042E+03 -0.53488157223E+03  0.57505716378E+03  0.00000000000E+00 0. -1.
         11    1    4    4    0    0  0.28353717054E+02 -0.83434601340E+02 -0.42489129933E+03  0.43393303886E+03  0.00000000000E+00 0.  1.
</event>
<event>
 8    1  0.7048627E-009  0.9668681E+02  0.7561462E-02  0.1287422E+00
         -2   -1    0    0    0  501 -0.00000000000E+00  0.00000000000E+00  0.92830751536E+02  0.92830751536E+02  0.00000000000E+00 0.  1.
          2   -1    0    0  501    0  0.00000000000E+00 -0.00000000000E+00 -0.13293532082E+03  0.13293532082E+03  0.00000000000E+00 0. -1.
         25    2    1    2    0    0 -0.19894684049E+02  0.17636726421E+02 -0.23081873946E+01  0.12789431189E+03  0.12507907384E+03 0.  0.
         23    2    1    2    0    0  0.19894684049E+02 -0.17636726421E+02 -0.37796381887E+02  0.97871760466E+02  0.86275503132E+02 0.  0.
          5    1    3    3  502    0  0.36584520263E+02 -0.15743019919E+02  0.34231243510E+02  0.52683206350E+02  0.41800000000E+01 0. -1.
         -5    1    3    3    0  502 -0.56479204312E+02  0.33379746340E+02 -0.36539430905E+02  0.75211105538E+02  0.41800000000E+01 0. -1.
        -11    1    4    4    0    0 -0.30965207011E+02 -0.19675396935E+02 -0.43006476891E+01  0.36938609344E+02  0.00000000000E+00 0. -1.
         11    1    4    4    0    0  0.50859891060E+02  0.20386705136E+01 -0.33495734198E+02  0.60933151121E+02  0.00000000000E+00 0.  1.
</event>
<event>
 8    1  0.7048627E-009  0.1162453E+03  0.7561462E-02  0.1249423E+00
         -3   -1    0    0    0  501 -0.00000000000E+00  0.00000000000E+00  0.11872446285E+03  0.11872446285E+03  0.00000000000E+00 0.  1.
          3   -1    0    0  501    0  0.00000000000E+00 -0.00000000000E+00 -0.18472993465E+03  0.18472993465E+03  0.00000000000E+00 0. -1.
         25    2    1    2    0    0 -0.53563988132E+02  0.66932001322E+02 -0.95618754513E+02  0.17926689614E+03  0.12507869607E+03 0.  0.
         23    2    1    2    0    0  0.53563988132E+02 -0.66932001322E+02  0.29613282713E+02  0.12418750136E+03  0.84832749313E+02 0.  0.
          5    1    3    3  502    0 -0.71333734112E+02  0.89754021335E+02 -0.50129246540E+02  0.12519864107E+03  0.41800000000E+01 0. -1.
         -5    1    3    3    0  502  0.17769745980E+02 -0.22822020013E+02 -0.45489507974E+02  0.54068255061E+02  0.41800000000E+01 0. -1.
        -11    1    4    4    0    0  0.25164496800E+02 -0.14849651890E+02 -0.28733513267E+02  0.40980225050E+02  0.00000000000E+00 0. -1.
         11    1    4    4    0    0  0.28399491332E+02 -0.52082349432E+02  0.58346795980E+02  0.83207276313E+02  0.00000000000E+00 0.  1.
</event>
<event>
 8    1  0.7048627E-009  0.9254499E+02  0.7561462E-02  0.1296803E+00
          1   -1    0    0  501    0  0.00000000000E+00  0.00000000000E+00  0.13672882211E+03  0.13672882211E+03  0.00000000000E+00 0. -1.
         -1   -1    0    0    0  501 -0.00000000000E+00 -0.00000000000E+00 -0.13816136847E+03  0.13816136847E+03  0.00000000000E+00 0.  1.
         25    2    1    2    0    0  0.19327091670E+02 -0.34258066697E+01 -0.83670893707E+02  0.15176652821E+03  0.12508792111E+03 0.  0.
         23    2    1    2    0    0 -0.19327091670E+02  0.34258066697E+01  0.82238347355E+02  0.12312366237E+03  0.89504289479E+02 0.  0.
          5    1    3    3  502    0 -0.29586074889E+02 -0.25968071017E+02 -0.89076544181E+02  0.97477072498E+02  0.41800000000E+01 0. -1.
         -5    1    3    3    0  502  0.48913166559E+02  0.22542264348E+02  0.54056504741E+01  0.54289455714E+02  0.41800000000E+01 0. -1.
        -11    1    4    4    0    0 -0.48586536201E+02  0.25461721706E+02  0.52714097852E+02  0.76077111437E+02  0.00000000000E+00 0. -1.
         11    1    4    4    0    0  0.29259444531E+02 -0.22035915036E+02  0.29524249503E+02  0.47046550930E+02  0.00000000000E+00 0.  1.
</event>
<event>
 8    1  0.7048627E-009  0.6894810E+02  0.7561462E-02  0.1363707E+00
         -1   -1    0    0    0  501 -0.00000000000E+00  0.00000000000E+00  0.36264637927E+02  0.36264637927E+02  0.00000000000E+00 0.  1.
          1   -1    0    0  501    0  0.00000000000E+00 -0.00000000000E+00 -0.49794704661E+03  0.49794704661E+03  0.00000000000E+00 0. -1.
         25    2    1    2    0    0 -0.23349963303E+02 -0.52534515186E+01 -0.40494276902E+03  0.42449964064E+03  0.12509388148E+03 0.  0.
         23    2    1    2    0    0  0.23349963303E+02  0.52534515186E+01 -0.56739639672E+02  0.10971204391E+03  0.90799374056E+02 0.  0.
          5    1    3    3  502    0  0.75924475722E+01 -0.41982496522E+02 -0.48160984832E+02  0.64475794949E+02  0.41800000000E+01 0.  1.
         -5    1    3    3    0  502 -0.30942410876E+02  0.36729045003E+02 -0.35678178418E+03  0.36002384569E+03  0.41800000000E+01 0.  1.
        -11    1    4    4    0    0  0.33941435428E+02 -0.19740297880E+01 -0.77885208594E+02  0.84982489668E+02  0.00000000000E+00 0. -1.
         11    1    4    4    0    0 -0.10591472125E+02  0.72274813065E+01  0.21145568922E+02  0.24729554238E+02  0.00000000000E+00 0.  1.
</event>
<event>
 8    1  0.7048627E-009  0.8588606E+02  0.7561462E-02  0.1313132E+00
          1   -1    0    0  501    0  0.00000000000E+00  0.00000000000E+00  0.54664040908E+03  0.54664040908E+03  0.00000000000E+00 0. -1.
         -1   -1    0    0    0  501 -0.00000000000E+00 -0.00000000000E+00 -0.24299103306E+02  0.24299103306E+02  0.00000000000E+00 0.  1.
         25    2    1    2    0    0  0.43255549213E+02 -0.53198326351E+01  0.33952387756E+03  0.36444949521E+03  0.12509047915E+03 0.  0.
         23    2    1    2    0    0 -0.43255549213E+02  0.53198326351E+01  0.18281742822E+03  0.20649001717E+03  0.85536962618E+02 0.  0.
          5    1    3    3  502    0 -0.58726998119E+01 -0.23450608206E+02  0.29374626642E+03  0.29476899611E+03  0.41800000000E+01 0. -1.
         -5    1    3    3    0  502  0.49128249025E+02  0.18130775571E+02  0.45777611134E+02  0.69680499110E+02  0.41800000000E+01 0. -1.
        -11    1    4    4    0    0  0.19555344454E+01 -0.34441512082E+02  0.83538165882E+02  0.90380678402E+02  0.00000000000E+00 0. -1.
         11    1    4    4    0    0 -0.45211083658E+02  0.39761344717E+02  0.99279262340E+02  0.11610933877E+03  0.00000000000E+00 0.  1.
</event>
<event>
 8    1  0.7048627E-009  0.1292601E+03  0.7561462E-02  0.1228558E+00
          1   -1    0    0  501    0  0.00000000000E+00  0.00000000000E+00  0.12819162511E+03  0.12819162511E+03  0.00000000000E+00 0. -1.
         -1   -1    0    0    0  501 -0.00000000000E+00 -0.00000000000E+00 -0.13458819842E+03  0.13458819842E+03  0.00000000000E+00 0.  1.
         25    2    1    2    0    0  0.82275820996E+01  0.70709586661E+02 -0.20549558030E+02  0.14538804909E+03  0.12509141349E+03 0.  0.
         23    2    1    2    0    0 -0.82275820996E+01 -0.70709586661E+02  0.14152984719E+02  0.11739177444E+03  0.92265827789E+02 0.  0.
          5    1    3    3  502    0 -0.51534405852E+02  0.59992621605E+00 -0.77847913336E+01  0.52289867795E+02  0.41800000000E+01 0. -1.
         -5    1    3    3    0  502  0.59761987951E+02  0.70109660444E+02 -0.12764766696E+02  0.93098181294E+02  0.41800000000E+01 0. -1.
        -11    1    4    4    0    0 -0.58628645930E+01 -0.92495099543E+02  0.28256231656E+01  0.92723787492E+02  0.00000000000E+00 0.  1.
         11    1    4    4    0    0 -0.23647175066E+01  0.21785512882E+02  0.11327361554E+02  0.24667986951E+02  0.00000000000E+00 0. -1.
</event>
<event>
 8    1  0.7048627E-009  0.1466851E+03  0.7561462E-02  0.1204606E+00
         -1   -1    0    0    0  501 -0.00000000000E+00  0.00000000000E+00  0.42668826961E+03  0.42668826961E+03  0.00000000000E+00 0.  1.
          1   -1    0    0  501    0  0.00000000000E+00 -0.00000000000E+00 -0.62014579233E+02  0.62014579233E+02  0.00000000000E+00 0. -1.
         25    2    1    2    0    0  0.51385505754E+02 -0.96461646513E+02  0.26990688790E+03  0.31692677275E+03  0.12509009434E+03 0.  0.
         23    2    1    2    0    0 -0.51385505754E+02  0.96461646513E+02  0.94766802480E+02  0.17177607609E+03  0.92633438974E+02 0.  0.
          5    1    3    3  502    0  0.12262516684E+02 -0.11671829473E+03  0.22543021515E+03  0.25418454702E+03  0.41800000000E+01 0.  1.
         -5    1    3    3    0  502  0.39122989070E+02  0.20256648221E+02  0.44476672751E+02  0.62742225733E+02  0.41800000000E+01 0.  1.
        -11    1    4    4    0    0 -0.25848038096E+02 -0.56214788192E+01 -0.48277667968E+01  0.26889206566E+02  0.00000000000E+00 0. -1.
         11    1    4    4    0    0 -0.25537467658E+02  0.10208312533E+03  0.99594569277E+02  0.14488686953E+03  0.00000000000E+00 0.  1.
</event>
<event>
 8    1  0.7048627E-009  0.8266636E+02  0.7561462E-02  0.1321651E+00
         -4   -1    0    0    0  501 -0.00000000000E+00  0.00000000000E+00  0.33112900112E+02  0.33112900112E+02  0.00000000000E+00 0.  1.
          4   -1    0    0  501    0  0.00000000000E+00 -0.00000000000E+00 -0.58748532480E+03  0.58748532480E+03  0.00000000000E+00 0. -1.
         25    2    1    2    0    0  0.45341076328E+02 -0.24763074032E+01 -0.47012742082E+03  0.48860002081E+03  0.12509293833E+03 0.  0.
         23    2    1    2    0    0 -0.45341076328E+02  0.24763074032E+01 -0.84245003859E+02  0.13199820410E+03  0.90908524957E+02 0.  0.
          5    1    3    3  502    0  0.57255051693E+02  0.13890173579E+02 -0.88416399733E+02  0.10632972307E+03  0.41800000000E+01 0.  1.
         -5    1    3    3    0  502 -0.11913975366E+02 -0.16366480982E+02 -0.38171102109E+03  0.38227029774E+03  0.41800000000E+01 0.  1.
        -11    1    4    4    0    0 -0.82065846769E+01  0.35174637115E+02 -0.21973710173E+01  0.36186068695E+02  0.00000000000E+00 0.  1.
         11    1    4    4    0    0 -0.37134491651E+02 -0.32698329712E+02 -0.82047632842E+02  0.95812135406E+02  0.00000000000E+00 0. -1.
</event>
<event>
 8    1  0.7048627E-009  0.1303289E+03  0.7561462E-02  0.1226969E+00
          2   -1    0    0  501    0  0.00000000000E+00  0.00000000000E+00  0.68083838066E+03  0.68083838066E+03  0.00000000000E+00 0. -1.
         -2   -1    0    0    0  501 -0.00000000000E+00 -0.00000000000E+00 -0.31453709781E+02  0.31453709781E+02  0.00000000000E+00 0.  1.
         25    2    1    2    0    0  0.83991759984E+02  0.47192761023E+02  0.29096375164E+03  0.33104126407E+03  0.12508653528E+03 0.  0.
         23    2    1    2    0    0 -0.83991759984E+02 -0.47192761023E+02  0.35842091924E+03  0.38125082638E+03  0.87205876093E+02 0.  0.
          5    1    3    3  502    0  0.14858911010E+02 -0.26314688400E+02  0.94171172966E+01  0.31928115512E+02  0.41800000000E+01 0.  1.
         -5    1    3    3    0  502  0.69132848974E+02  0.73507449423E+02  0.28154663435E+03  0.29911314856E+03  0.41800000000E+01 0.  1.
        -11    1    4    4    0    0  0.55636461363E+01  0.17703514382E+02  0.38198376248E+02  0.42467452571E+02  0.00000000000E+00 0.  1.
         11    1    4    4    0    0 -0.89555406120E+02 -0.64896275405E+02  0.32022254299E+03  0.33878337381E+03  0.00000000000E+00 0. -1.
</event>
<event>
 8    1  0.7048627E-009  0.1074342E+03  0.7561462E-02  0.1265396E+00
          1   -1    0    0  501    0  0.00000000000E+00  0.00000000000E+00  0.35445458665E+03  0.35445458665E+03  0.00000000000E+00 0. -1.
         -1   -1    0    0    0  501 -0.00000000000E+00 -0.00000000000E+00 -0.78365210967E+02  0.78365210967E+02  0.00000000000E+00 0.  1.
         25    2    1    2    0    0 -0.44620836866E+02 -0.80131054258E+01 -0.33618797510E+01  0.13309641586E+03  0.12509246475E+03 0.  0.
         23    2    1    2    0    0  0.44620836866E+02  0.80131054258E+01  0.27945125543E+03  0.29972338176E+03  0.98416830213E+02 0.  0.
          5    1    3    3  502    0  0.13231853483E+02  0.34389470828E+02  0.35563113279E+02  0.51380201211E+02  0.41800000000E+01 0. -1.
         -5    1    3    3    0  502 -0.57852690349E+02 -0.42402576254E+02 -0.38924993030E+02  0.81716214646E+02  0.41800000000E+01 0. -1.
        -11    1    4    4    0    0  0.45862925454E+02  0.47733176645E+02  0.14252868708E+03  0.15715053523E+03  0.00000000000E+00 0.  1.
         11    1    4    4    0    0 -0.12420885877E+01 -0.39720071219E+02  0.13692256836E+03  0.14257284653E+03  0.00000000000E+00 0. -1.
</event>
<event>
 8    1  0.7048627E-009  0.7206615E+02  0.7561462E-02  0.1353205E+00
          1   -1    0    0  501    0  0.00000000000E+00  0.00000000000E+00  0.72974989895E+02  0.72974989895E+02  0.00000000000E+00 0. -1.
         -1   -1    0    0    0  501 -0.00000000000E+00 -0.00000000000E+00 -0.16161385050E+03  0.16161385050E+03  0.00000000000E+00 0.  1.
         25    2    1    2    0    0 -0.69791953117E+01 -0.29786976551E+01 -0.51397274993E+02  0.13544863226E+03  0.12508825004E+03 0.  0.
         23    2    1    2    0    0  0.69791953117E+01  0.29786976551E+01 -0.37241585609E+02  0.99140208132E+02  0.91565623260E+02 0.  0.
          5    1    3    3  502    0  0.38364151482E+02  0.82693676702E+01  0.24335950463E+02  0.46367029725E+02  0.41800000000E+01 0. -1.
         -5    1    3    3    0  502 -0.45343346794E+02 -0.11248065325E+02 -0.75733225456E+02  0.89081602534E+02  0.41800000000E+01 0. -1.
        -11    1    4    4    0    0 -0.25244679484E+02  0.37849023798E+01 -0.56213177773E+02  0.61737676371E+02  0.00000000000E+00 0.  1.
         11    1    4    4    0    0  0.32223874796E+02 -0.80620472478E+00  0.18971592164E+02  0.37402531762E+02  0.00000000000E+00 0. -1.
</event>
<event>
 8    1  0.7048627E-009  0.1088488E+03  0.7561462E-02  0.1262717E+00
         -2   -1    0    0    0  501 -0.00000000000E+00  0.00000000000E+00  0.37137381268E+02  0.37137381268E+02  0.00000000000E+00 0. -1.
          2   -1    0    0  501    0  0.00000000000E+00 -0.00000000000E+00 -0.44975512515E+03  0.44975512515E+03  0.00000000000E+00 0.  1.
         25    2    1    2    0    0  0.60678702923E+02  0.10151153473E+02 -0.29437478472E+03  0.32571278152E+03  0.12508937311E+03 0.  0.
         23    2    1    2    0    0 -0.60678702923E+02 -0.10151153473E+02 -0.11824295917E+03  0.16117972490E+03  0.90623150578E+02 0.  0.
          5    1    3    3  502    0  0.28969643049E+01 -0.38304663215E+02 -0.25173232582E+02  0.46117281629E+02  0.41800000000E+01 0. -1.
         -5    1    3    3    0  502  0.57781738618E+02  0.48455816687E+02 -0.26920155213E+03  0.27959549989E+03  0.41800000000E+01 0. -1.
        -11    1    4    4    0    0 -0.37725683347E+02 -0.46907892011E+02 -0.41725922465E+02  0.73243635372E+02  0.00000000000E+00 0. -1.
         11    1    4    4    0    0 -0.22953019576E+02  0.36756738539E+02 -0.76517036704E+02  0.87936089529E+02  0.00000000000E+00 0.  1.
</event>
<event>
 8    1  0.7048627E-009  0.1839685E+03  0.7561462E-02  0.1164017E+00
          2   -1    0    0  501    0  0.00000000000E+00  0.00000000000E+00  0.19012879956E+04  0.19012879956E+04  0.00000000000E+00 0. -1.
         -2   -1    0    0    0  501 -0.00000000000E+00 -0.00000000000E+00 -0.27443371300E+02  0.27443371300E+02  0.00000000000E+00 0.  1.
         25    2    1    2    0    0  0.75042590921E+02 -0.13485366635E+03  0.15103341693E+04  0.15233431105E+04  0.12509207684E+03 0.  0.
         23    2    1    2    0    0 -0.75042590921E+02  0.13485366635E+03  0.36351045495E+03  0.40538825631E+03  0.91558100235E+02 0.  0.
          5    1    3    3  502    0  0.66694928569E+02 -0.15691113110E+03  0.14053822249E+04  0.14156927587E+04  0.41800000000E+01 0. -1.
         -5    1    3    3    0  502  0.83476623519E+01  0.22057464756E+02  0.10495194442E+03  0.10765035186E+03  0.41800000000E+01 0. -1.
        -11    1    4    4    0    0 -0.39730516310E+02  0.13218170623E+03  0.23954676763E+03  0.27646549743E+03  0.00000000000E+00 0.  1.
         11    1    4    4    0    0 -0.35312074611E+02  0.26719601227E+01  0.12396368732E+03  0.12892275888E+03  0.00000000000E+00 0. -1.
</event>
<event>
 8    1  0.7048627E-009  0.7028945E+02  0.7561462E-02  0.1359112E+00
          4   -1    0    0  501    0  0.00000000000E+00  0.00000000000E+00  0.26003961083E+03  0.26003961083E+03  0.00000000000E+00 0. -1.
         -4   -1    0    0    0  501 -0.00000000000E+00 -0.00000000000E+00 -0.47985253895E+02  0.47985253895E+02  0.00000000000E+00 0.  1.
         25    2    1    2    0    0 -0.24580756082E+02 -0.37983758942E+01  0.11800461116E+03  0.17375536397E+03  0.12508875658E+03 0.  0.
         23    2    1    2    0    0  0.24580756082E+02  0.37983758942E+01  0.94049745777E+02  0.13426950076E+03  0.92543519087E+02 0.  0.
          5    1    3    3  502    0  0.10331132733E+02 -0.38774154699E+02  0.11741983069E+03  0.12415738566E+03  0.41800000000E+01 0. -1.
         -5    1    3    3    0  502 -0.34911888815E+02  0.34975778805E+02  0.58478047457E+00  0.49597978304E+02  0.41800000000E+01 0. -1.
        -11    1    4    4    0    0  0.15064243137E+02 -0.19983302839E+02  0.10386576559E+03  0.10683801325E+03  0.00000000000E+00 0. -1.
         11    1    4    4    0    0  0.95165129450E+01  0.23781678733E+02 -0.98160198150E+01  0.27431487510E+02  0.00000000000E+00 0.  1.
</event>
<event>
 8    1  0.7048627E-009  0.1226993E+03  0.7561462E-02  0.1238709E+00
          1   -1    0    0  501    0  0.00000000000E+00  0.00000000000E+00  0.40057580812E+03  0.40057580812E+03  0.00000000000E+00 0. -1.
         -1   -1    0    0    0  501 -0.00000000000E+00 -0.00000000000E+00 -0.46277201355E+02  0.46277201355E+02  0.00000000000E+00 0.  1.
         25    2    1    2    0    0 -0.51084711394E+02  0.85255108127E+01  0.99040269573E+02  0.16774715262E+03  0.12509116732E+03 0.  0.
         23    2    1    2    0    0  0.51084711394E+02 -0.85255108127E+01  0.25525833719E+03  0.27910585685E+03  0.10030418013E+03 0.  0.
          5    1    3    3  502    0 -0.73795727215E+02 -0.38149227565E+02  0.64536939605E+02  0.10527897175E+03  0.41800000000E+01 0.  1.
         -5    1    3    3    0  502  0.22711015821E+02  0.46674738378E+02  0.34503329967E+02  0.62468180869E+02  0.41800000000E+01 0.  1.
        -11    1    4    4    0    0  0.54262195125E+02 -0.46850239487E+02  0.13508043438E+03  0.15292499636E+03  0.00000000000E+00 0.  1.
         11    1    4    4    0    0 -0.31774837317E+01  0.38324728675E+02  0.12017790281E+03  0.12618086049E+03  0.00000000000E+00 0. -1.
</event>
<event>
 8    1  0.7048627E-009  0.1076974E+03  0.7561462E-02  0.1264894E+00
          1   -1    0    0  501    0  0.00000000000E+00  0.00000000000E+00  0.52818403358E+03  0.52818403358E+03  0.00000000000E+00 0. -1.
         -1   -1    0    0    0  501 -0.00000000000E+00 -0.00000000000E+00 -0.55451981402E+02  0.55451981402E+02  0.00000000000E+00 0.  1.
         25    2    1    2    0    0  0.82051163226E+02  0.13716169605E+02  0.41665348839E+03  0.44290908646E+03  0.12509117789E+03 0.  0.
         23    2    1    2    0    0 -0.82051163226E+02 -0.13716169605E+02  0.56078563786E+02  0.14072692852E+03  0.98685036349E+02 0.  0.
          5    1    3    3  502    0  0.26346900031E+02  0.14825173204E+02  0.36668336146E+03  0.36795122622E+03  0.41800000000E+01 0.  1.
         -5    1    3    3    0  502  0.55704263195E+02 -0.11090035983E+01  0.49970126930E+02  0.74957860245E+02  0.41800000000E+01 0.  1.
        -11    1    4    4    0    0 -0.10432291670E+03 -0.19180622940E+02  0.44357993916E+02  0.11497303540E+03  0.00000000000E+00 0.  1.
         11    1    4    4    0    0  0.22271753470E+02  0.54644533347E+01  0.11720569870E+02  0.25753893123E+02  0.00000000000E+00 0. -1.
</event>
<event>
 8    1  0.7048627E-009  0.1010473E+03  0.7561462E-02  0.1278109E+00
          2   -1    0    0  501    0  0.00000000000E+00  0.00000000000E+00  0.32300182826E+03  0.32300182826E+03  0.00000000000E+00 0. -1.
         -2   -1    0    0    0  501 -0.00000000000E+00 -0.00000000000E+00 -0.58334295985E+02  0.58334295985E+02  0.00000000000E+00 0.  1.
         25    2    1    2    0    0  0.57199173475E+02 -0.53340044470E+02  0.10191267131E+03  0.17930636822E+03  0.12509066839E+03 0.  0.
         23    2    1    2    0    0 -0.57199173475E+02  0.53340044470E+02  0.16275486097E+03  0.20202975603E+03  0.90608894507E+02 0.  0.
          5    1    3    3  502    0  0.60694899315E+02 -0.27246761476E+02 -0.71404915468E+01  0.67042641903E+02  0.41800000000E+01 0.  1.
         -5    1    3    3    0  502 -0.34957258399E+01 -0.26093282993E+02  0.10905316286E+03  0.11226372632E+03  0.41800000000E+01 0.  1.
        -11    1    4    4    0    0 -0.63357219674E+02  0.89784805288E+01  0.51638824651E+02  0.82227237633E+02  0.00000000000E+00 0.  1.
         11    1    4    4    0    0  0.61580461985E+01  0.44361563941E+02  0.11111603631E+03  0.11980251840E+03  0.00000000000E+00 0. -1.
</event>
<event>
 8    1  0.7048627E-009  0.8724501E+02  0.7561462E-02  0.1309664E+00
          2   -1    0    0  501    0  0.00000000000E+00  0.00000000000E+00  0.24912941973E+03  0.24912941973E+03  0.00000000000E+00 0. -1.
         -2   -1    0    0    0  501 -0.00000000000E+00 -0.00000000000E+00 -0.48360866859E+02  0.48360866859E+02  0.00000000000E+00 0.  1.
         25    2    1    2    0    0 -0.21141619942E+02  0.31010153229E+01  0.12845538645E+03  0.18056680823E+03  0.12508797520E+03 0.  0.
         23    2    1    2    0    0  0.21141619942E+02 -0.31010153229E+01  0.72313166421E+02  0.11692347835E+03  0.89360625344E+02 0.  0.
          5    1    3    3  502    0  0.22788927707E+02 -0.33549018788E+02  0.98494891196E+00  0.40783751814E+02  0.41800000000E+01 0. -1.
         -5    1    3    3    0  502 -0.43930547648E+02  0.36650034111E+02  0.12747043753E+03  0.13978305642E+03  0.41800000000E+01 0. -1.
        -11    1    4    4    0    0 -0.22629625551E+02  0.16886480895E+02 -0.20935725566E+01  0.28313181306E+02  0.00000000000E+00 0.  1.
         11    1    4    4    0    0  0.43771245492E+02 -0.19987496218E+02  0.74406738977E+02  0.88610297044E+02  0.00000000000E+00 0. -1.
</event>
<event>
 8    1  0.7048627E-009  0.9518249E+02  0.7561462E-02  0.1290766E+00
          2   -1    0    0  501    0  0.00000000000E+00  0.00000000000E+00  0.34474570419E+03  0.34474570419E+03  0.00000000000E+00 0. -1.
         -2   -1    0    0    0  501 -0.00000000000E+00 -0.00000000000E+00 -0.61191481689E+02  0.61191481689E+02  0.00000000000E+00 0.  1.
         25    2    1    2    0    0  0.92272959397E+02  0.86229427361E+01  0.12104270960E+03  0.19719888843E+03  0.12508960738E+03 0.  0.
         23    2    1    2    0    0 -0.92272959397E+02 -0.86229427361E+01  0.16251151290E+03  0.20873829744E+03  0.92590662687E+02 0.  0.
          5    1    3    3  502    0  0.20722969908E+02 -0.61520526556E+01  0.12204287210E+03  0.12401300038E+03  0.41800000000E+01 0.  1.
         -5    1    3    3    0  502  0.71549989489E+02  0.14774995392E+02 -0.10001625020E+01  0.73185888050E+02  0.41800000000E+01 0.  1.
        -11    1    4    4    0    0 -0.58718872200E+02 -0.15902061069E+02  0.22956033853E+02  0.65021234908E+02  0.00000000000E+00 0.  1.
         11    1    4    4    0    0 -0.33554087197E+02  0.72791183325E+01  0.13955547905E+03  0.14371706254E+03  0.00000000000E+00 0. -1.
</event>
<event>
 8    1  0.7048627E-009  0.1292439E+03  0.7561462E-02  0.1228582E+00
         -2   -1    0    0    0  501 -0.00000000000E+00  0.00000000000E+00  0.13329542310E+03  0.13329542310E+03  0.00000000000E+00 0.  1.
          2   -1    0    0  501    0  0.00000000000E+00 -0.00000000000E+00 -0.16441373285E+03  0.16441373285E+03  0.00000000000E+00 0. -1.
         25    2    1    2    0    0  0.88747432169E+02  0.67739523919E+01  0.33121686310E+02  0.15705817341E+03  0.12509288782E+03 0.  0.
         23    2    1    2    0    0 -0.88747432169E+02 -0.67739523919E+01 -0.64239996061E+02  0.14065098254E+03  0.87942757789E+02 0.  0.
          5    1    3    3  502    0  0.10238311349E+03  0.35670879356E+02 -0.31422400821E+01  0.10854519628E+03  0.41800000000E+01 0.  1.
         -5    1    3    3    0  502 -0.13635681322E+02 -0.28896926964E+02  0.36263926392E+02  0.48512977135E+02  0.41800000000E+01 0.  1.
        -11    1    4    4    0    0 -0.29331510769E+02 -0.40066724479E+02 -0.51166247262E+02  0.71299823235E+02  0.00000000000E+00 0. -1.
         11    1    4    4    0    0 -0.59415921400E+02  0.33292772087E+02 -0.13073748799E+02  0.69351159303E+02  0.00000000000E+00 0.  1.
</event>
<event>
 8    1  0.7048627E-009  0.8133658E+02  0.7561462E-02  0.1325301E+00
         -2   -1    0    0    0  501 -0.00000000000E+00  0.00000000000E+00  0.65860330307E+02  0.65860330307E+02  0.00000000000E+00 0.  1.
          2   -1    0    0  501    0  0.00000000000E+00 -0.00000000000E+00 -0.20353463399E+03  0.20353463399E+03  0.00000000000E+00 0. -1.
         25    2    1    2    0    0 -0.37107183721E+02 -0.70299519150E+01 -0.65312888685E+02  0.14608117791E+03  0.12509026262E+03 0.  0.
         23    2    1    2    0    0  0.37107183721E+02  0.70299519150E+01 -0.72361414998E+02  0.12331378639E+03  0.92432419775E+02 0.  0.
          5    1    3    3  502    0 -0.31116066711E+01  0.19792690948E+02 -0.92528643718E+02  0.94765262725E+02  0.41800000000E+01 0.  1.
         -5    1    3    3    0  502 -0.33995577050E+02 -0.26822642863E+02  0.27215755032E+02  0.51315915184E+02  0.41800000000E+01 0.  1.
        -11    1    4    4    0    0  0.64121755856E+02  0.22031745936E+02 -0.40732069869E+02  0.79095505048E+02  0.00000000000E+00 0.  1.
         11    1    4    4    0    0 -0.27014572134E+02 -0.15001794021E+02 -0.31629345129E+02  0.44218281341E+02  0.00000000000E+00 0. -1.
</event>
<event>
 8    1  0.7048627E-009  0.8996913E+02  0.7561462E-02  0.1302926E+00
          3   -1    0    0  501    0  0.00000000000E+00  0.00000000000E+00  0.46496242018E+02  0.46496242018E+02  0.00000000000E+00 0. -1.
         -3   -1    0    0    0  501 -0.00000000000E+00 -0.00000000000E+00 -0.30318628847E+03  0.30318628847E+03  0.00000000000E+00 0.  1.
         25    2    1    2    0    0  0.42860549460E+02 -0.65403426800E+01 -0.11587391928E+03  0.17593677395E+03  0.12508869045E+03 0.  0.
         23    2    1    2    0    0 -0.42860549460E+02  0.65403426800E+01 -0.14081612717E+03  0.17374575653E+03  0.92079332418E+02 0.  0.
          5    1    3    3  502    0  0.47377034542E+02  0.52971926860E+02 -0.50283771299E+02  0.87158123507E+02  0.41800000000E+01 0.  1.
         -5    1    3    3    0  502 -0.45164850823E+01 -0.59512269540E+02 -0.65590147977E+02  0.88778650445E+02  0.41800000000E+01 0.  1.
        -11    1    4    4    0    0 -0.26639126235E+02 -0.72709639594E+01 -0.14853950441E+03  0.15108439474E+03  0.00000000000E+00 0.  1.
         11    1    4    4    0    0 -0.16221423225E+02  0.13811306639E+02  0.77233772342E+01  0.22661361796E+02  0.00000000000E+00 0. -1.
</event>
<event>
 8    1  0.7048627E-009  0.1151326E+03  0.7561462E-02  0.1251350E+00
          2   -1    0    0  501    0  0.00000000000E+00  0.00000000000E+00  0.18670786123E+03  0.18670786123E+03  0.00000000000E+00 0. -1.
         -2   -1    0    0    0  501 -0.00000000000E+00 -0.00000000000E+00 -0.72418851512E+02  0.72418851512E+02  0.00000000000E+00 0.  1.
         25    2    1    2    0    0 -0.35114229644E+02 -0.23835133552E+02  0.56682820548E+02  0.14373626613E+03  0.12508416902E+03 0.  0.
         23    2    1    2    0    0  0.35114229644E+02  0.23835133552E+02  0.57606189168E+02  0.11539044661E+03  0.90528224463E+02 0.  0.
          5    1    3    3  502    0 -0.46347537576E+02  0.43251996783E+02  0.32983783449E+02  0.71583740023E+02  0.41800000000E+01 0.  1.
         -5    1    3    3    0  502  0.11233307932E+02 -0.67087130336E+02  0.23699037099E+02  0.72152526104E+02  0.41800000000E+01 0.  1.
        -11    1    4    4    0    0  0.33795491562E+02  0.56530361169E+02  0.47289155508E+02  0.81080708017E+02  0.00000000000E+00 0.  1.
         11    1    4    4    0    0  0.13187380817E+01 -0.32695227617E+02  0.10317033660E+02  0.34309738597E+02  0.00000000000E+00 0. -1.
</event>
<event>
 8    1  0.7048627E-009  0.9286671E+02  0.7561462E-02  0.1296054E+00
         -2   -1    0    0    0  501 -0.00000000000E+00  0.00000000000E+00  0.35191785472E+03  0.35191785472E+03  0.00000000000E+00 0.  1.
          2   -1    0    0  501    0  0.00000000000E+00 -0.00000000000E+00 -0.38544790169E+02  0.38544790169E+02  0.00000000000E+00 0. -1.
         25    2    1    2    0    0  0.34489998910E+01  0.34320214883E+01  0.24772017538E+03  0.27755218914E+03  0.12508500324E+03 0.  0.
         23    2    1    2    0    0 -0.34489998910E+01 -0.34320214883E+01  0.65652889175E+02  0.11291045575E+03  0.91732190584E+02 0.  0.
          5    1    3    3  502    0  0.37132232025E+02 -0.39487560056E+02  0.55479470652E+02  0.77675698375E+02  0.41800000000E+01 0.  1.
         -5    1    3    3    0  502 -0.33683232134E+02  0.42919581545E+02  0.19224070473E+03  0.19987649076E+03  0.41800000000E+01 0.  1.
        -11    1    4    4    0    0 -0.11197948125E+02  0.35360409755E+02  0.98698576607E+00  0.37104268773E+02  0.00000000000E+00 0. -1.
         11    1    4    4    0    0  0.77489482343E+01 -0.38792431244E+02  0.64665903409E+02  0.75806186979E+02  0.00000000000E+00 0.  1.
</event>
<event>
 8    1  0.7048627E-009  0.9781925E+02  0.7561462E-02  0.1284950E+00
          1   -1    0    0  501    0  0.00000000000E+00  0.00000000000E+00  0.14024569037E+03  0.14024569037E+03  0.00000000000E+00 0. -1.
         -1   -1    0    0    0  501 -0.00000000000E+00 -0.00000000000E+00 -0.95513468625E+02  0.95513468625E+02  0.00000000000E+00 0.  1.
         25    2    1    2    0    0  0.83637323282E+01  0.15626657123E+02 -0.95978036927E+01  0.12670548990E+03  0.12509204172E+03 0.  0.
         23    2    1    2    0    0 -0.83637323282E+01 -0.15626657123E+02  0.54330025442E+02  0.10905366910E+03  0.92880604266E+02 0.  0.
          5    1    3    3  502    0  0.14165043214E+02  0.69495554553E+02 -0.13125247881E+02  0.72249741064E+02  0.41800000000E+01 0.  1.
         -5    1    3    3    0  502 -0.58013108855E+01 -0.53868897430E+02  0.35274441883E+01  0.54455748832E+02  0.41800000000E+01 0.  1.
        -11    1    4    4    0    0 -0.10930306137E+02 -0.42179631592E+02  0.66682034534E+02  0.79656052143E+02  0.00000000000E+00 0.  1.
         11    1    4    4    0    0  0.25665738086E+01  0.26552974469E+02 -0.12352009092E+02  0.29397616959E+02  0.00000000000E+00 0. -1.
</event>
<event>
 8    1  0.7048627E-009  0.9566019E+02  0.7561462E-02  0.1289696E+00
          1   -1    0    0  501    0  0.00000000000E+00  0.00000000000E+00  0.20057363062E+03  0.20057363062E+03  0.00000000000E+00 0. -1.
         -1   -1    0    0    0  501 -0.00000000000E+00 -0.00000000000E+00 -0.90696968049E+02  0.90696968049E+02  0.00000000000E+00 0.  1.
         25    2    1    2    0    0 -0.35720718515E+02  0.69355076731E+02  0.42441911540E+02  0.15340946450E+03  0.12508817508E+03 0.  0.
         23    2    1    2    0    0  0.35720718515E+02 -0.69355076731E+02  0.67434751030E+02  0.13786113416E+03  0.91499455009E+02 0.  0.
          5    1    3    3  502    0  0.85065274829E+00  0.29086041625E+02  0.81284621395E+02  0.86437165056E+02  0.41800000000E+01 0. -1.
         -5    1    3    3    0  502 -0.36571371264E+02  0.40269035106E+02 -0.38842709855E+02  0.66972299448E+02  0.41800000000E+01 0. -1.
        -11    1    4    4    0    0  0.56748334881E+02 -0.33781876064E+02  0.95343983123E+01  0.66727006626E+02  0.00000000000E+00 0.  1.
         11    1    4    4    0    0 -0.21027616365E+02 -0.35573200668E+02  0.57900352717E+02  0.71134127538E+02  0.00000000000E+00 0. -1.
</event>
<event>
 8    1  0.7048627E-009  0.9147068E+02  0.7561462E-02  0.1299329E+00
         -2   -1    0    0    0  501 -0.00000000000E+00  0.00000000000E+00  0.10201217390E+03  0.10201217390E+03  0.00000000000E+00 0.  1.
          2   -1    0    0  501    0  0.00000000000E+00 -0.00000000000E+00 -0.13591956584E+03  0.13591956584E+03  0.00000000000E+00 0. -1.
         25    2    1    2    0    0  0.73385796135E+01  0.10400212153E+02  0.23745935850E+02  0.12795720729E+03  0.12508860166E+03 0.  0.
         23    2    1    2    0    0 -0.73385796135E+01 -0.10400212153E+02 -0.57653327793E+02  0.10997453245E+03  0.92781853930E+02 0.  0.
          5    1    3    3  502    0  0.64430034208E+02  0.62601532241E+01  0.27465094573E+02  0.70443045408E+02  0.41800000000E+01 0. -1.
         -5    1    3    3    0  502 -0.57091454594E+02  0.41400589292E+01 -0.37191587229E+01  0.57514161884E+02  0.41800000000E+01 0. -1.
        -11    1    4    4    0    0  0.26220241640E+02 -0.42966074396E+01 -0.69070815933E+02  0.74004996593E+02  0.00000000000E+00 0. -1.
         11    1    4    4    0    0 -0.33558821253E+02 -0.61036047138E+01  0.11417488140E+02  0.35969535858E+02  0.00000000000E+00 0.  1.
</event>
<event>
 8    1  0.7048627E-009  0.9256996E+02  0.7561462E-02  0.1296745E+00
          2   -1    0    0  501    0  0.00000000000E+00  0.00000000000E+00  0.35758299192E+03  0.35758299192E+03  0.00000000000E+00 0. -1.
         -2   -1    0    0    0  501 -0.00000000000E+00 -0.00000000000E+00 -0.41580014821E+02  0.41580014821E+02  0.00000000000E+00 0.  1.
         25    2    1    2    0    0 -0.43433274677E+02  0.25047764102E+02  0.15180884154E+03  0.20300063636E+03  0.12509793827E+03 0.  0.
         23    2    1    2    0    0  0.43433274677E+02 -0.25047764102E+02  0.16419413556E+03  0.19616237038E+03  0.94900587792E+02 0.  0.
          5    1    3    3  502    0 -0.28760739808E+02 -0.40924161826E+02  0.18526308304E+02  0.53503865980E+02  0.41800000000E+01 0. -1.
         -5    1    3    3    0  502 -0.14672534869E+02  0.65971925928E+02  0.13328253323E+03  0.14949677038E+03  0.41800000000E+01 0. -1.
        -11    1    4    4    0    0  0.32274375477E+02  0.72354818178E+01  0.15802873125E+03  0.16145298823E+03  0.00000000000E+00 0. -1.
         11    1    4    4    0    0  0.11158899200E+02 -0.32283245919E+02  0.61654043141E+01  0.34709382144E+02  0.00000000000E+00 0.  1.
</event>
<event>
 8    1  0.7048627E-009  0.1010415E+03  0.7561462E-02  0.1278121E+00
          2   -1    0    0  501    0  0.00000000000E+00  0.00000000000E+00  0.19810308614E+03  0.19810308614E+03  0.00000000000E+00 0. -1.
         -2   -1    0    0    0  501 -0.00000000000E+00 -0.00000000000E+00 -0.11693523831E+03  0.11693523831E+03  0.00000000000E+00 0.  1.
         25    2    1    2    0    0 -0.96126140410E+01 -0.68111096291E+02 -0.40953078817E+02  0.14850959087E+03  0.12508565117E+03 0.  0.
         23    2    1    2    0    0  0.96126140410E+01  0.68111096291E+02  0.12212092665E+03  0.16652873358E+03  0.89926495511E+02 0.  0.
          5    1    3    3  502    0  0.23728877189E+02  0.22830124734E+02 -0.39437986644E+02  0.51547079438E+02  0.41800000000E+01 0. -1.
         -5    1    3    3    0  502 -0.33341491230E+02 -0.90941221026E+02 -0.15150921727E+01  0.96962511433E+02  0.41800000000E+01 0. -1.
        -11    1    4    4    0    0  0.10134855803E+02  0.11509022278E+02 -0.12953100326E+02  0.20073756599E+02  0.00000000000E+00 0.  1.
         11    1    4    4    0    0 -0.52224176213E+00  0.56602074013E+02  0.13507402697E+03  0.14645497698E+03  0.00000000000E+00 0. -1.
</event>
<event>
 8    1  0.7048627E-009  0.1060347E+03  0.7561462E-02  0.1268094E+00
          2   -1    0    0  501    0  0.00000000000E+00  0.00000000000E+00  0.75550451449E+02  0.75550451449E+02  0.00000000000E+00 0. -1.
         -2   -1    0    0    0  501 -0.00000000000E+00 -0.00000000000E+00 -0.29102602617E+03  0.29102602617E+03  0.00000000000E+00 0.  1.
         25    2    1    2    0    0  0.94250950733E+02 -0.28188096409E+02 -0.14110047728E+03  0.21268307435E+03  0.12508770896E+03 0.  0.
         23    2    1    2    0    0 -0.94250950733E+02  0.28188096409E+02 -0.74375097448E+02  0.15389340327E+03  0.92052778110E+02 0.  0.
          5    1    3    3  502    0  0.82727254571E+00 -0.13509884977E+02 -0.11307593361E+03  0.11395981982E+03  0.41800000000E+01 0. -1.
         -5    1    3    3    0  502  0.93423678187E+02 -0.14678211432E+02 -0.28024543670E+02  0.98723254529E+02  0.41800000000E+01 0. -1.
        -11    1    4    4    0    0 -0.48030231931E+02  0.30613840272E+02 -0.88726790498E+02  0.10543506887E+03  0.00000000000E+00 0.  1.
         11    1    4    4    0    0 -0.46220718802E+02 -0.24257438633E+01  0.14351693050E+02  0.48458334405E+02  0.00000000000E+00 0. -1.
</event>
<event>
 8    1  0.7048627E-009  0.6776586E+02  0.7561462E-02  0.1367859E+00
         -2   -1    0    0    0  501 -0.00000000000E+00  0.00000000000E+00  0.29241129045E+02  0.29241129045E+02  0.00000000000E+00 0. -1.
          2   -1    0    0  501    0  0.00000000000E+00 -0.00000000000E+00 -0.69021779847E+03  0.69021779847E+03  0.00000000000E+00 0.  1.
         25    2    1    2    0    0 -0.58609776814E+01 -0.57470204387E+02 -0.54147730233E+03  0.55873540194E+03  0.12510157867E+03 0.  0.
         23    2    1    2    0    0  0.58609776814E+01  0.57470204387E+02 -0.11949936709E+03  0.16072352557E+03  0.90635409674E+02 0.  0.
          5    1    3    3  502    0 -0.16703487102E+02 -0.50663722910E+02 -0.75368815219E+02  0.92432407779E+02  0.41800000000E+01 0.  1.
         -5    1    3    3    0  502  0.10842509421E+02 -0.68064814774E+01 -0.46610848712E+03  0.46630299416E+03  0.41800000000E+01 0.  1.
        -11    1    4    4    0    0  0.19360266190E+02  0.48828432490E+02 -0.13090568849E+03  0.14105082419E+03  0.00000000000E+00 0.  1.
         11    1    4    4    0    0 -0.13499288509E+02  0.86417718967E+01  0.11406321401E+02  0.19672701382E+02  0.00000000000E+00 0. -1.
</event>
<event>
 8    1  0.7048627E-009  0.1337783E+03  0.7561462E-02  0.1221955E+00
         -2   -1    0    0    0  501 -0.00000000000E+00  0.00000000000E+00  0.33170467332E+02  0.33170467332E+02  0.00000000000E+00 0. -1.
          2   -1    0    0  501    0  0.00000000000E+00 -0.00000000000E+00 -0.75458123232E+03  0.75458123232E+03  0.00000000000E+00 0.  1.
         25    2    1    2    0    0  0.67681623152E+02  0.45674324349E+02 -0.58898772095E+03  0.60763400168E+03  0.12508236705E+03 0.  0.
         23    2    1    2    0    0 -0.67681623152E+02 -0.45674324349E+02 -0.13242304403E+03  0.18011769797E+03  0.90772113083E+02 0.  0.
          5    1    3    3  502    0  0.16775478792E+02  0.81423912952E+02 -0.40197221695E+03  0.41050018988E+03  0.41800000000E+01 0.  1.
         -5    1    3    3    0  502  0.50906144360E+02 -0.35749588602E+02 -0.18701550400E+03  0.19713381180E+03  0.41800000000E+01 0.  1.
        -11    1    4    4    0    0 -0.85925668949E+02 -0.16397789003E+02 -0.98513470885E+02  0.13174601328E+03  0.00000000000E+00 0.  1.
         11    1    4    4    0    0  0.18244045797E+02 -0.29276535346E+02 -0.33909573146E+02  0.48371684691E+02  0.00000000000E+00 0. -1.
</event>
<event>
 8    1  0.7048627E-009  0.1531592E+03  0.7561462E-02  0.1196644E+00
          1   -1    0    0  501    0  0.00000000000E+00  0.00000000000E+00  0.19037620236E+03  0.19037620236E+03  0.00000000000E+00 0. -1.
         -1   -1    0    0    0  501 -0.00000000000E+00 -0.00000000000E+00 -0.20886013508E+03  0.20886013508E+03  0.00000000000E+00 0.  1.
         25    2    1    2    0    0  0.64022689495E+02 -0.11198730372E+03  0.97314632972E+02  0.20435365752E+03  0.12510083367E+03 0.  0.
         23    2    1    2    0    0 -0.64022689495E+02  0.11198730372E+03 -0.11579856570E+03  0.19488267993E+03  0.89049930681E+02 0.  0.
          5    1    3    3  502    0  0.75284403218E+02 -0.12849760469E+03  0.57666373904E+02  0.15975687421E+03  0.41800000000E+01 0.  1.
         -5    1    3    3    0  502 -0.11261713723E+02  0.16510300971E+02  0.39648259068E+02  0.44596783306E+02  0.41800000000E+01 0.  1.
        -11    1    4    4    0    0 -0.10099538636E+02  0.63809991803E+02 -0.10279802696E+03  0.12141313801E+03  0.00000000000E+00 0.  1.
         11    1    4    4    0    0 -0.53923150859E+02  0.48177311913E+02 -0.13000538734E+02  0.73469541914E+02  0.00000000000E+00 0. -1.
</event>
<event>
 8    1  0.7048627E-009  0.1583268E+03  0.7561462E-02  0.1190599E+00
         -2   -1    0    0    0  501 -0.00000000000E+00  0.00000000000E+00  0.55626997215E+02  0.55626997215E+02  0.00000000000E+00 0.  1.
          2   -1    0    0  501    0  0.00000000000E+00 -0.00000000000E+00 -0.49934068150E+03  0.49934068150E+03  0.00000000000E+00 0. -1.
         25    2    1    2    0    0  0.12243267479E+03  0.29812151069E+02 -0.22803383621E+03  0.28900760823E+03  0.12508973960E+03 0.  0.
         23    2    1    2    0    0 -0.12243267479E+03 -0.29812151069E+02 -0.21567984808E+03  0.26596007048E+03  0.91315048140E+02 0.  0.
          5    1    3    3  502    0  0.10777690967E+03  0.62924263320E+02 -0.21795055226E+03  0.25118766053E+03  0.41800000000E+01 0. -1.
         -5    1    3    3    0  502  0.14655765113E+02 -0.33112112251E+02 -0.10083283944E+02  0.37819947698E+02  0.41800000000E+01 0. -1.
        -11    1    4    4    0    0 -0.34430464504E+02 -0.54020815373E+02 -0.96959773362E+02  0.11621059775E+03  0.00000000000E+00 0. -1.
         11    1    4    4    0    0 -0.88002210283E+02  0.24208664305E+02 -0.11872007472E+03  0.14974947273E+03  0.00000000000E+00 0.  1.
</event>
<event>
 8    1  0.7048627E-009  0.1311129E+03  0.7561462E-02  0.1225814E+00
          1   -1    0    0  501    0  0.00000000000E+00  0.00000000000E+00  0.15405571424E+03  0.15405571424E+03  0.00000000000E+00 0. -1.
         -1   -1    0    0    0  501 -0.00000000000E+00 -0.00000000000E+00 -0.11844904238E+03  0.11844904238E+03  0.00000000000E+00 0.  1.
         25    2    1    2    0    0 -0.75032569375E+02 -0.30061447448E+02  0.23833116295E+02  0.15082702610E+03  0.12508875761E+03 0.  0.
         23    2    1    2    0    0  0.75032569375E+02  0.30061447448E+02  0.11773555568E+02  0.12167773052E+03  0.90184679425E+02 0.  0.
          5    1    3    3  502    0 -0.49269007629E+02  0.42398250009E+02  0.33432869970E+02  0.73213905175E+02  0.41800000000E+01 0. -1.
         -5    1    3    3    0  502 -0.25763561746E+02 -0.72459697458E+02 -0.95997536751E+01  0.77613120927E+02  0.41800000000E+01 0. -1.
        -11    1    4    4    0    0 -0.20312698728E+02  0.10000887028E+02  0.85182773139E+01  0.24190587412E+02  0.00000000000E+00 0. -1.
         11    1    4    4    0    0  0.95345268102E+02  0.20060560421E+02  0.32552782544E+01  0.97487143103E+02  0.00000000000E+00 0.  1.
</event>
<event>
 8    1  0.7048627E-009  0.1520972E+03  0.7561462E-02  0.1197919E+00
         -2   -1    0    0    0  501 -0.00000000000E+00  0.00000000000E+00  0.30651438095E+02  0.30651438095E+02  0.00000000000E+00 0.  1.
          2   -1    0    0  501    0  0.00000000000E+00 -0.00000000000E+00 -0.12194078245E+04  0.12194078245E+04  0.00000000000E+00 0. -1.
         25    2    1    2    0    0  0.57297025856E+02  0.11509233098E+03 -0.92485277423E+03  0.94208764539E+03  0.12508910340E+03 0.  0.
         23    2    1    2    0    0 -0.57297025856E+02 -0.11509233098E+03 -0.26390361220E+03  0.30797161722E+03  0.93124683410E+02 0.  0.
          5    1    3    3  502    0  0.91426327473E+02  0.65211784694E+02 -0.47163166246E+03  0.48483527889E+03  0.41800000000E+01 0.  1.
         -5    1    3    3    0  502 -0.34129301616E+02  0.49880546283E+02 -0.45322111176E+03  0.45725236650E+03  0.41800000000E+01 0.  1.
        -11    1    4    4    0    0 -0.58307835510E+02 -0.97451652696E+02 -0.26689463233E+03  0.29005063879E+03  0.00000000000E+00 0. -1.
         11    1    4    4    0    0  0.10108096540E+01 -0.17640678281E+02  0.29910201353E+01  0.17920978429E+02  0.00000000000E+00 0.  1.
</event>
<event>
 8    1  0.7048627E-009  0.9752185E+02  0.7561462E-02  0.1285595E+00
         -1   -1    0    0    0  501 -0.00000000000E+00  0.00000000000E+00  0.31141307426E+02  0.31141307426E+02  0.00000000000E+00 0.  1.
          1   -1    0    0  501    0  0.00000000000E+00 -0.00000000000E+00 -0.39543021703E+03  0.39543021703E+03  0.00000000000E+00 0. -1.
         25    2    1    2    0    0 -0.89718844249E+01  0.27369241977E+02 -0.19440087322E+03  0.23295744467E+03  0.12509157207E+03 0.  0.
         23    2    1    2    0    0  0.89718844249E+01 -0.27369241977E+02 -0.16988803638E+03  0.19361407978E+03  0.88288713140E+02 0.  0.
          5    1    3    3  502    0  0.56601780819E+02  0.13441440624E+02 -0.66212402887E+02  0.88238249155E+02  0.41800000000E+01 0. -1.
         -5    1    3    3    0  502 -0.65573665244E+02  0.13927801353E+02 -0.12818847033E+03  0.14471919552E+03  0.41800000000E+01 0. -1.
        -11    1    4    4    0    0 -0.11870629526E+01  0.20541222555E+02 -0.44128907762E+01  0.21043396767E+02  0.00000000000E+00 0.  1.
         11    1    4    4    0    0  0.10158947377E+02 -0.47910464531E+02 -0.16547514560E+03  0.17257068301E+03  0.00000000000E+00 0. -1.
</event>
<event>
 8    1  0.7048627E-009  0.1571961E+03  0.7561462E-02  0.1191899E+00
          1   -1    0    0  501    0  0.00000000000E+00  0.00000000000E+00  0.74229394679E+03  0.74229394679E+03  0.00000000000E+00 0. -1.
         -1   -1    0    0    0  501 -0.00000000000E+00 -0.00000000000E+00 -0.36541244619E+02  0.36541244619E+02  0.00000000000E+00 0.  1.
         25    2    1    2    0    0  0.96272150479E+02  0.71248023676E+02  0.29894853529E+03  0.34549234323E+03  0.12510045819E+03 0.  0.
         23    2    1    2    0    0 -0.96272150479E+02 -0.71248023676E+02  0.40680416687E+03  0.43334284818E+03  0.89172787582E+02 0.  0.
          5    1    3    3  502    0  0.10154881342E+03  0.79993000702E+01  0.23057426739E+03  0.25210734914E+03  0.41800000000E+01 0.  1.
         -5    1    3    3    0  502 -0.52766629396E+01  0.63248723605E+02  0.68374267907E+02  0.93384994091E+02  0.41800000000E+01 0.  1.
        -11    1    4    4    0    0  0.15278376099E+02  0.19687095948E+01  0.32482802182E+02  0.35950480265E+02  0.00000000000E+00 0.  1.
         11    1    4    4    0    0 -0.11155052658E+03 -0.73216733271E+02  0.37432136469E+03  0.39739236791E+03  0.00000000000E+00 0. -1.
</event>
<event>
 8    1  0.7048627E-009  0.1526535E+03  0.7561462E-02  0.1197250E+00
          2   -1    0    0  501    0  0.00000000000E+00  0.00000000000E+00  0.19872998279E+03  0.19872998279E+03  0.00000000000E+00 0. -1.
         -2   -1    0    0    0  501 -0.00000000000E+00 -0.00000000000E+00 -0.20065447950E+03  0.20065447950E+03  0.00000000000E+00 0.  1.
         25    2    1    2    0    0 -0.17791023087E+02  0.10633331226E+03  0.12658019963E+03  0.20807081623E+03  0.12509046259E+03 0.  0.
         23    2    1    2    0    0  0.17791023087E+02 -0.10633331226E+03 -0.12850469634E+03  0.19131364606E+03  0.92000871672E+02 0.  0.
          5    1    3    3  502    0  0.52756627195E+02  0.56536586830E+02  0.47131448941E+02  0.90655905724E+02  0.41800000000E+01 0. -1.
         -5    1    3    3    0  502 -0.70547650282E+02  0.49796725432E+02  0.79448750688E+02  0.11741491051E+03  0.41800000000E+01 0. -1.
        -11    1    4    4    0    0  0.42656924772E+02 -0.12661152654E+02 -0.46487307836E+02  0.64350507437E+02  0.00000000000E+00 0.  1.
         11    1    4    4    0    0 -0.24865901685E+02 -0.93672159607E+02 -0.82017388507E+02  0.12696313863E+03  0.00000000000E+00 0. -1.
</event>
<event>
 8    1  0.7048627E-009  0.1483103E+03  0.7561462E-02  0.1202565E+00
         -1   -1    0    0    0  501 -0.00000000000E+00  0.00000000000E+00  0.71846752653E+03  0.71846752653E+03  0.00000000000E+00 0.  1.
          1   -1    0    0  501    0  0.00000000000E+00 -0.00000000000E+00 -0.46706708730E+02  0.46706708730E+02  0.00000000000E+00 0. -1.
         25    2    1    2    0    0  0.10087194896E+03 -0.74906786666E+02  0.19547760443E+03  0.26390443111E+03  0.12509147913E+03 0.  0.
         23    2    1    2    0    0 -0.10087194896E+03  0.74906786666E+02  0.47628321337E+03  0.50126980415E+03  0.92949128210E+02 0.  0.
          5    1    3    3  502    0  0.40005849098E+02 -0.68026964171E+02  0.18559186995E+03  0.20171750149E+03  0.41800000000E+01 0.  1.
         -5    1    3    3    0  502  0.60866099861E+02 -0.68798224947E+01  0.98857344825E+01  0.62186929624E+02  0.41800000000E+01 0.  1.
        -11    1    4    4    0    0 -0.11705231537E+03  0.76658113531E+02  0.42117408645E+03  0.44380775343E+03  0.00000000000E+00 0.  1.
         11    1    4    4    0    0  0.16180366413E+02 -0.17513268652E+01  0.55109126915E+02  0.57462050715E+02  0.00000000000E+00 0. -1.
</event>
<event>
 8    1  0.7048627E-009  0.1155241E+03  0.7561462E-02  0.1250669E+00
          2   -1    0    0  501    0  0.00000000000E+00  0.00000000000E+00  0.25285318058E+03  0.25285318058E+03  0.00000000000E+00 0. -1.
         -2   -1    0    0    0  501 -0.00000000000E+00 -0.00000000000E+00 -0.61342287606E+02  0.61342287606E+02  0.00000000000E+00 0.  1.
         25    2    1    2    0    0  0.46918560930E+02 -0.12832043632E+02  0.81260763012E+02  0.15689747659E+03  0.12508994305E+03 0.  0.
         23    2    1    2    0    0 -0.46918560930E+02  0.12832043632E+02  0.11025012996E+03  0.15729799159E+03  0.10110170275E+03 0.  0.
          5    1    3    3  502    0 -0.32888552471E+02  0.13007845618E+02  0.60781550461E+02  0.70446647952E+02  0.41800000000E+01 0. -1.
         -5    1    3    3    0  502  0.79807113401E+02 -0.25839889250E+02  0.20479212551E+02  0.86450828640E+02  0.41800000000E+01 0. -1.
        -11    1    4    4    0    0  0.22809491543E+02  0.31844484386E+02  0.30294480977E+02  0.49518679990E+02  0.00000000000E+00 0.  1.
         11    1    4    4    0    0 -0.69728052473E+02 -0.19012440755E+02  0.79955648985E+02  0.10777931160E+03  0.00000000000E+00 0. -1.
</event>
<event>
 8    1  0.7048627E-009  0.1189933E+03  0.7561462E-02  0.1244767E+00
         -2   -1    0    0    0  501 -0.00000000000E+00  0.00000000000E+00  0.32367384029E+03  0.32367384029E+03  0.00000000000E+00 0.  1.
          2   -1    0    0  501    0  0.00000000000E+00 -0.00000000000E+00 -0.50314554925E+02  0.50314554925E+02  0.00000000000E+00 0. -1.
         25    2    1    2    0    0 -0.57574705575E+02 -0.26857172188E+02  0.12050110115E+03  0.18494729760E+03  0.12509529603E+03 0.  0.
         23    2    1    2    0    0  0.57574705575E+02  0.26857172188E+02  0.15285818421E+03  0.18904109762E+03  0.91294894093E+02 0.  0.
          5    1    3    3  502    0  0.38303425351E+02  0.50898979539E+01  0.38891759540E+02  0.54982731970E+02  0.41800000000E+01 0.  1.
         -5    1    3    3    0  502 -0.95878130926E+02 -0.31947070142E+02  0.81609341614E+02  0.12996456563E+03  0.41800000000E+01 0.  1.
        -11    1    4    4    0    0  0.67392084766E+02 -0.20724992513E+01  0.14096103991E+03  0.15625620984E+03  0.00000000000E+00 0.  1.
         11    1    4    4    0    0 -0.98173791909E+01  0.28929671440E+02  0.11897144304E+02  0.32784887774E+02  0.00000000000E+00 0. -1.
</event>
<event>
 8    1  0.7048627E-009  0.1193018E+03  0.7561462E-02  0.1244253E+00
          1   -1    0    0  501    0  0.00000000000E+00  0.00000000000E+00  0.29447355356E+03  0.29447355356E+03  0.00000000000E+00 0. -1.
         -1   -1    0    0    0  501 -0.00000000000E+00 -0.00000000000E+00 -0.62172880909E+02  0.62172880909E+02  0.00000000000E+00 0.  1.
         25    2    1    2    0    0 -0.46341678415E+01 -0.65564807572E+02  0.18825576071E+03  0.23538645710E+03  0.12508530386E+03 0.  0.
         23    2    1    2    0    0  0.46341678415E+01  0.65564807572E+02  0.44044911943E+02  0.12125997737E+03  0.91890197194E+02 0.  0.
          5    1    3    3  502    0 -0.53166245234E+02 -0.73779077868E+02  0.10924617148E+03  0.14220478314E+03  0.41800000000E+01 0. -1.
         -5    1    3    3    0  502  0.48532077392E+02  0.82142702955E+01  0.79009589227E+02  0.93181673961E+02  0.41800000000E+01 0. -1.
        -11    1    4    4    0    0  0.38430086616E+02  0.42234738379E+02  0.54443922369E+02  0.78897308992E+02  0.00000000000E+00 0. -1.
         11    1    4    4    0    0 -0.33795918774E+02  0.23330069193E+02 -0.10399010426E+02  0.42362668379E+02  0.00000000000E+00 0.  1.
</event>
<event>
 8    1  0.7048627E-009  0.1345117E+03  0.7561462E-02  0.1220911E+00
         -2   -1    0    0    0  501 -0.00000000000E+00  0.00000000000E+00  0.16148425314E+02  0.16148425314E+02  0.00000000000E+00 0.  1.
          2   -1    0    0  501    0  0.00000000000E+00 -0.00000000000E+00 -0.13027829079E+04  0.13027829079E+04  0.00000000000E+00 0. -1.
         25    2    1    2    0    0 -0.83806785429E+02  0.30837472324E+02 -0.89350070674E+03  0.90662156227E+03  0.12507844436E+03 0.  0.
         23    2    1    2    0    0  0.83806785429E+02 -0.30837472324E+02 -0.39313377588E+03  0.41230977098E+03  0.86432948133E+02 0.  0.
          5    1    3    3  502    0  0.14807648249E+02  0.46035801995E+02 -0.41370901798E+03  0.41654673863E+03  0.41800000000E+01 0.  1.
         -5    1    3    3    0  502 -0.98614433678E+02 -0.15198329671E+02 -0.47979168876E+03  0.49007482364E+03  0.41800000000E+01 0.  1.
        -11    1    4    4    0    0  0.55051772278E+02  0.22936493668E+02 -0.24417173093E+03  0.25134958635E+03  0.00000000000E+00 0. -1.
         11    1    4    4    0    0  0.28755013151E+02 -0.53773965992E+02 -0.14896204494E+03  0.16096018462E+03  0.00000000000E+00 0.  1.
</event>
<event>
 8    1  0.7048627E-009  0.1054837E+03  0.7561462E-02  0.1269170E+00
         -2   -1    0    0    0  501 -0.00000000000E+00  0.00000000000E+00  0.21076501022E+03  0.21076501022E+03  0.00000000000E+00 0.  1.
          2   -1    0    0  501    0  0.00000000000E+00 -0.00000000000E+00 -0.11789137650E+03  0.11789137650E+03  0.00000000000E+00 0. -1.
         25    2    1    2    0    0 -0.12316545333E+02  0.98458455269E+00 -0.68763131212E+02  0.14327970506E+03  0.12509212195E+03 0.  0.
         23    2    1    2    0    0  0.12316545333E+02 -0.98458455269E+00  0.16163676493E+03  0.18537668165E+03  0.89918872472E+02 0.  0.
          5    1    3    3  502    0  0.42785204139E+02  0.36310360598E+02 -0.14381515407E+02  0.58080257966E+02  0.41800000000E+01 0.  1.
         -5    1    3    3    0  502 -0.55101749472E+02 -0.35325776046E+02 -0.54381615806E+02  0.85199447097E+02  0.41800000000E+01 0.  1.
        -11    1    4    4    0    0 -0.27874891838E+02  0.28036402362E+02  0.54533931598E+02  0.67357250151E+02  0.00000000000E+00 0.  1.
         11    1    4    4    0    0  0.40191437171E+02 -0.29020986915E+02  0.10710283333E+03  0.11801943150E+03  0.00000000000E+00 0. -1.
</event>
<event>
 8    1  0.7048627E-009  0.1317514E+03  0.7561462E-02  0.1224880E+00
          4   -1    0    0  501    0  0.00000000000E+00  0.00000000000E+00  0.30270942738E+03  0.30270942738E+03  0.00000000000E+00 0. -1.
         -4   -1    0    0    0  501 -0.00000000000E+00 -0.00000000000E+00 -0.85133713289E+02  0.85133713289E+02  0.00000000000E+00 0.  1.
         25    2    1    2    0    0 -0.42685736327E+01 -0.81690707622E+02  0.21815588580E+03  0.26444450356E+03  0.12508921825E+03 0.  0.
         23    2    1    2    0    0  0.42685736327E+01  0.81690707622E+02 -0.58017170800E+00  0.12339863711E+03  0.92386658173E+02 0.  0.
          5    1    3    3  502    0 -0.42517083442E+02  0.14955147441E+02  0.72122792962E+02  0.85150035139E+02  0.41800000000E+01 0. -1.
         -5    1    3    3    0  502  0.38248509810E+02 -0.96645855063E+02  0.14603309284E+03  0.17929446843E+03  0.41800000000E+01 0. -1.
        -11    1    4    4    0    0 -0.34275055048E+02  0.15492309011E+02  0.21952973575E+02  0.43551395911E+02  0.00000000000E+00 0. -1.
         11    1    4    4    0    0  0.38543628681E+02  0.66198398611E+02 -0.22533145283E+02  0.79847241197E+02  0.00000000000E+00 0.  1.
</event>
<event>
 8    1  0.7048627E-009  0.2342320E+03  0.7561462E-02  0.1123696E+00
          2   -1    0    0  501    0  0.00000000000E+00  0.00000000000E+00  0.75958654827E+03  0.75958654827E+03  0.00000000000E+00 0. -1.
         -2   -1    0    0    0  501 -0.00000000000E+00 -0.00000000000E+00 -0.83830343158E+02  0.83830343158E+02  0.00000000000E+00 0.  1.
         25    2    1    2    0    0  0.17510310662E+02  0.22553896914E+03  0.39100634116E+03  0.46872945506E+03  0.12508759184E+03 0.  0.
         23    2    1    2    0    0 -0.17510310662E+02 -0.22553896914E+03  0.28474986396E+03  0.37468743637E+03  0.90187318236E+02 0.  0.
          5    1    3    3  502    0 -0.22584263346E+02  0.83276413021E+02  0.24962947330E+03  0.26415403888E+03  0.41800000000E+01 0. -1.
         -5    1    3    3    0  502  0.40094574008E+02  0.14226255612E+03  0.14137686786E+03  0.20457541618E+03  0.41800000000E+01 0. -1.
        -11    1    4    4    0    0 -0.32429599303E+02 -0.61751070180E+02  0.41833961131E+02  0.81332366763E+02  0.00000000000E+00 0.  1.
         11    1    4    4    0    0  0.14919288640E+02 -0.16378789896E+03  0.24291590283E+03  0.29335506961E+03  0.00000000000E+00 0. -1.
</event>
<event>
 8    1  0.7048627E-009  0.1164115E+03  0.7561462E-02  0.1249137E+00
          2   -1    0    0  501    0  0.00000000000E+00  0.00000000000E+00  0.77591186341E+03  0.77591186341E+03  0.00000000000E+00 0. -1.
         -2   -1    0    0    0  501 -0.00000000000E+00 -0.00000000000E+00 -0.17495836265E+02  0.17495836265E+02  0.00000000000E+00 0.  1.
         25    2    1    2    0    0 -0.41842988076E+02  0.77884943225E+01  0.43869980621E+03  0.45816688546E+03  0.12509148118E+03 0.  0.
         23    2    1    2    0    0  0.41842988076E+02 -0.77884943225E+01  0.31971622093E+03  0.33524081422E+03  0.91413594700E+02 0.  0.
          5    1    3    3  502    0 -0.81156669461E+02 -0.20053345597E+02  0.28552789381E+03  0.29754359716E+03  0.41800000000E+01 0. -1.
         -5    1    3    3    0  502  0.39313681385E+02  0.27841839919E+02  0.15317191240E+03  0.16062328830E+03  0.41800000000E+01 0. -1.
        -11    1    4    4    0    0  0.15528835951E+02 -0.49260583489E+02  0.17011921276E+03  0.17778722221E+03  0.00000000000E+00 0.  1.
         11    1    4    4    0    0  0.26314152125E+02  0.41472089166E+02  0.14959700817E+03  0.15745359200E+03  0.00000000000E+00 0. -1.
</event>
<event>
 8    1  0.7048627E-009  0.1459145E+03  0.7561462E-02  0.1205585E+00
          2   -1    0    0  501    0  0.00000000000E+00  0.00000000000E+00  0.18577834847E+04  0.18577834847E+04  0.00000000000E+00 0. -1.
         -2   -1    0    0    0  501 -0.00000000000E+00 -0.00000000000E+00 -0.17943308443E+02  0.17943308443E+02  0.00000000000E+00 0.  1.
         25    2    1    2    0    0 -0.10435048649E+03 -0.61463606582E+02  0.13978149561E+04  0.14086168738E+04  0.12509215209E+03 0.  0.
         23    2    1    2    0    0  0.10435048649E+03  0.61463606582E+02  0.44202522010E+03  0.46710991935E+03  0.90214093057E+02 0.  0.
          5    1    3    3  502    0 -0.11047790425E+03 -0.84906384249E+02  0.95504241152E+03  0.96516213229E+03  0.41800000000E+01 0.  1.
         -5    1    3    3    0  502  0.61274177624E+01  0.23442777667E+02  0.44277254460E+03  0.44345474146E+03  0.41800000000E+01 0.  1.
        -11    1    4    4    0    0  0.67043309463E+02  0.15806803337E+02  0.10925126384E+03  0.12915300626E+03  0.00000000000E+00 0.  1.
         11    1    4    4    0    0  0.37307177023E+02  0.45656803245E+02  0.33277395626E+03  0.33795691309E+03  0.00000000000E+00 0. -1.
</event>
<event>
 8    1  0.7048627E-009  0.1158398E+03  0.7561462E-02  0.1250122E+00
         -2   -1    0    0    0  501 -0.00000000000E+00  0.00000000000E+00  0.43636155694E+02  0.43636155694E+02  0.00000000000E+00 0.  1.
          2   -1    0    0  501    0  0.00000000000E+00 -0.00000000000E+00 -0.49941710578E+03  0.49941710578E+03  0.00000000000E+00 0. -1.
         25    2    1    2    0    0 -0.31655460502E+02  0.79869130919E+02 -0.34320633980E+03  0.37526036084E+03  0.12509436632E+03 0.  0.
         23    2    1    2    0    0  0.31655460502E+02 -0.79869130919E+02 -0.11257461029E+03  0.16779290064E+03  0.90001490927E+02 0.  0.
          5    1    3    3  502    0  0.16574334827E+02 -0.10369061666E+02 -0.32994636205E+01  0.20262894042E+02  0.41800000000E+01 0.  1.
         -5    1    3    3    0  502 -0.48229795329E+02  0.90238192585E+02 -0.33990687618E+03  0.35499746680E+03  0.41800000000E+01 0.  1.
        -11    1    4    4    0    0  0.80517791835E+01 -0.84790610143E+02 -0.11549658879E+03  0.14350519412E+03  0.00000000000E+00 0. -1.
         11    1    4    4    0    0  0.23603681318E+02  0.49214792236E+01  0.29219785038E+01  0.24287706518E+02  0.00000000000E+00 0.  1.
</event>
<event>
 8    1  0.7048627E-009  0.1079751E+03  0.7561462E-02  0.1264366E+00
          2   -1    0    0  501    0  0.00000000000E+00  0.00000000000E+00  0.18986114852E+03  0.18986114852E+03  0.00000000000E+00 0.  1.
         -2   -1    0    0    0  501 -0.00000000000E+00 -0.00000000000E+00 -0.14109037293E+03  0.14109037293E+03  0.00000000000E+00 0. -1.
         25    2    1    2    0    0 -0.37854934440E+02  0.41913577048E+02 -0.83193321856E+02  0.16049282148E+03  0.12508826061E+03 0.  0.
         23    2    1    2    0    0  0.37854934440E+02 -0.41913577048E+02  0.13196409745E+03  0.17045869997E+03  0.91934223094E+02 0.  0.
          5    1    3    3  502    0  0.13030046629E+02 -0.38146623809E+02 -0.37091980312E+02  0.54938460360E+02  0.41800000000E+01 0. -1.
         -5    1    3    3    0  502 -0.50884981069E+02  0.80060200858E+02 -0.46101341544E+02  0.10555436112E+03  0.41800000000E+01 0. -1.
        -11    1    4    4    0    0  0.32215492608E+02 -0.56383920127E+02  0.13899081613E+03  0.15341261806E+03  0.00000000000E+00 0.  1.
         11    1    4    4    0    0  0.56394418312E+01  0.14470343078E+02 -0.70267186760E+01  0.17046081905E+02  0.00000000000E+00 0. -1.
</event>
<event>
 8    1  0.7048627E-009  0.1157965E+03  0.7561462E-02  0.1250197E+00
          1   -1    0    0  501    0  0.00000000000E+00  0.00000000000E+00  0.88280455617E+02  0.88280455617E+02  0.00000000000E+00 0. -1.
         -1   -1    0    0    0  501 -0.00000000000E+00 -0.00000000000E+00 -0.27258903956E+03  0.27258903956E+03  0.00000000000E+00 0.  1.
         25    2    1    2    0    0  0.57832265859E+01  0.78369376461E+02 -0.86220196427E+01  0.14797719437E+03  0.12509079085E+03 0.  0.
         23    2    1    2    0    0 -0.57832265859E+01 -0.78369376461E+02 -0.17568656430E+03  0.21289230081E+03  0.91006362360E+02 0.  0.
          5    1    3    3  502    0 -0.43962957770E+02 -0.33153486374E+01  0.19223806393E+02  0.48277948638E+02  0.41800000000E+01 0.  1.
         -5    1    3    3    0  502  0.49746184356E+02  0.81684725098E+02 -0.27845826035E+02  0.99699245734E+02  0.41800000000E+01 0.  1.
        -11    1    4    4    0    0  0.20789585474E+02 -0.33367324334E+02 -0.14921790402E+03  0.15430997400E+03  0.00000000000E+00 0.  1.
         11    1    4    4    0    0 -0.26572812060E+02 -0.45002052127E+02 -0.26468660283E+02  0.58582326802E+02  0.00000000000E+00 0. -1.
</event>
<event>
 8    1  0.7048627E-009  0.8874744E+02  0.7561462E-02  0.1305914E+00
          2   -1    0    0  501    0  0.00000000000E+00  0.00000000000E+00  0.56097789001E+02  0.56097789001E+02  0.00000000000E+00 0. -1.
         -2   -1    0    0    0  501 -0.00000000000E+00 -0.00000000000E+00 -0.28913082236E+03  0.28913082236E+03  0.00000000000E+00 0.  1.
         25    2    1    2    0    0 -0.65001208029E+02 -0.20497515348E+02 -0.10956851781E+03  0.17971752625E+03  0.12509126254E+03 0.  0.
         23    2    1    2    0    0  0.65001208029E+02  0.20497515348E+02 -0.12346451555E+03  0.16551108512E+03  0.86632139043E+02 0.  0.
          5    1    3    3  502    0 -0.59560331637E+02  0.35056724031E+01 -0.13278041766E+03  0.14562909928E+03  0.41800000000E+01 0. -1.
         -5    1    3    3    0  502 -0.54408763924E+01 -0.24003187751E+02  0.23211899852E+02  0.34088426964E+02  0.41800000000E+01 0. -1.
        -11    1    4    4    0    0  0.48002347572E+02  0.43050271542E+02 -0.36537997652E+02  0.74111918911E+02  0.00000000000E+00 0. -1.
         11    1    4    4    0    0  0.16998860457E+02 -0.22552756194E+02 -0.86926517900E+02  0.91399166205E+02  0.00000000000E+00 0.  1.
</event>
<event>
 8    1  0.7048627E-009  0.2025461E+03  0.7561462E-02  0.1147608E+00
          1   -1    0    0  501    0  0.00000000000E+00  0.00000000000E+00  0.53746551456E+03  0.53746551456E+03  0.00000000000E+00 0. -1.
         -1   -1    0    0    0  501 -0.00000000000E+00 -0.00000000000E+00 -0.84113310950E+02  0.84113310950E+02  0.00000000000E+00 0.  1.
         25    2    1    2    0    0 -0.71560701128E+02 -0.16852394686E+03  0.22548231055E+03  0.31624356972E+03  0.12508584416E+03 0.  0.
         23    2    1    2    0    0  0.71560701128E+02  0.16852394686E+03  0.22786989306E+03  0.30533525579E+03  0.88225141856E+02 0.  0.
          5    1    3    3  502    0 -0.93409933789E+02 -0.17366506185E+03  0.21270731478E+03  0.29008075358E+03  0.41800000000E+01 0.  1.
         -5    1    3    3    0  502  0.21849232661E+02  0.51411149965E+01  0.12774995772E+02  0.26162816138E+02  0.41800000000E+01 0.  1.
        -11    1    4    4    0    0  0.63808637014E+02  0.12024933504E+03  0.10140528646E+03  0.16974827498E+03  0.00000000000E+00 0.  1.
         11    1    4    4    0    0  0.77520641139E+01  0.48274611814E+02  0.12646460660E+03  0.13558698081E+03  0.00000000000E+00 0. -1.
</event>
<event>
 8    1  0.7048627E-009  0.1445455E+03  0.7561462E-02  0.1207340E+00
         -1   -1    0    0    0  501 -0.00000000000E+00  0.00000000000E+00  0.19714814328E+03  0.19714814328E+03  0.00000000000E+00 0.  1.
          1   -1    0    0  501    0  0.00000000000E+00 -0.00000000000E+00 -0.13388571829E+03  0.13388571829E+03  0.00000000000E+00 0. -1.
         25    2    1    2    0    0 -0.42081329908E+02  0.88783124591E+02 -0.37455873040E+02  0.16341237321E+03  0.12508948698E+03 0.  0.
         23    2    1    2    0    0  0.42081329908E+02 -0.88783124591E+02  0.10071829803E+03  0.16762148835E+03  0.91101626008E+02 0.  0.
          5    1    3    3  502    0 -0.77958381209E+02  0.89927162761E+02 -0.13039880715E+02  0.11979947701E+03  0.41800000000E+01 0.  1.
         -5    1    3    3    0  502  0.35877051301E+02 -0.11440381698E+01 -0.24415992325E+02  0.43612896196E+02  0.41800000000E+01 0.  1.
        -11    1    4    4    0    0 -0.27116516722E+02 -0.97406972524E+01  0.18784833163E+02  0.34395590111E+02  0.00000000000E+00 0.  1.
         11    1    4    4    0    0  0.69197846630E+02 -0.79042427338E+02  0.81933464867E+02  0.13322589824E+03  0.00000000000E+00 0. -1.
</event>
<event>
 8    1  0.7048627E-009  0.9812200E+02  0.7561462E-02  0.1284295E+00
          1   -1    0    0  501    0  0.00000000000E+00  0.00000000000E+00  0.42198459579E+03  0.42198459579E+03  0.00000000000E+00 0. -1.
         -1   -1    0    0    0  501 -0.00000000000E+00 -0.00000000000E+00 -0.30026734506E+02  0.30026734506E+02  0.00000000000E+00 0.  1.
         25    2    1    2    0    0  0.11160761801E+02  0.26898256061E+02  0.25759731608E+03  0.28784173219E+03  0.12509359198E+03 0.  0.
         23    2    1    2    0    0 -0.11160761801E+02 -0.26898256061E+02  0.13436054521E+03  0.16416959811E+03  0.89726373225E+02 0.  0.
          5    1    3    3  502    0 -0.15179018928E+02  0.73216561283E+02  0.14466096742E+03  0.16289670149E+03  0.41800000000E+01 0.  1.
         -5    1    3    3    0  502  0.26339780729E+02 -0.46318305222E+02  0.11293634866E+03  0.12494503070E+03  0.41800000000E+01 0.  1.
        -11    1    4    4    0    0  0.21020016472E+02  0.60263167907E+01 -0.28683420169E+00  0.21868695901E+02  0.00000000000E+00 0.  1.
         11    1    4    4    0    0 -0.32180778273E+02 -0.32924572852E+02  0.13464737941E+03  0.14230090221E+03  0.00000000000E+00 0. -1.
</event>
<event>
 8    1  0.7048627E-009  0.1993713E+03  0.7561462E-02  0.1150271E+00
          2   -1    0    0  501    0  0.00000000000E+00  0.00000000000E+00  0.21627517480E+04  0.21627517480E+04  0.00000000000E+00 0. -1.
         -2   -1    0    0    0  501 -0.00000000000E+00 -0.00000000000E+00 -0.22586309382E+02  0.22586309382E+02  0.00000000000E+00 0.  1.
         25    2    1    2    0    0  0.13377967533E+03  0.12997197927E+03  0.12791575206E+04  0.12987225816E+04  0.12508662765E+03 0.  0.
         23    2    1    2    0    0 -0.13377967533E+03 -0.12997197927E+03  0.86100791800E+03  0.88661547580E+03  0.99813076055E+02 0.  0.
          5    1    3    3  502    0  0.68126644549E+02  0.29006602566E+01  0.64574933217E+03  0.64935300563E+03  0.41800000000E+01 0.  1.
         -5    1    3    3    0  502  0.65653030783E+02  0.12707131902E+03  0.63340818843E+03  0.64936957593E+03  0.41800000000E+01 0.  1.
        -11    1    4    4    0    0 -0.52341649929E+02 -0.39250651277E+02  0.13024629093E+03  0.14575444502E+03  0.00000000000E+00 0.  1.
         11    1    4    4    0    0 -0.81438025403E+02 -0.90721327996E+02  0.73076162707E+03  0.74086103078E+03  0.00000000000E+00 0. -1.
</event>
<event>
 8    1  0.7048627E-009  0.6622407E+02  0.7561462E-02  0.1373425E+00
         -2   -1    0    0    0  501 -0.00000000000E+00  0.00000000000E+00  0.35712637201E+02  0.35712637201E+02  0.00000000000E+00 0. -1.
          2   -1    0    0  501    0  0.00000000000E+00 -0.00000000000E+00 -0.35418798968E+03  0.35418798968E+03  0.00000000000E+00 0.  1.
         25    2    1    2    0    0 -0.28730079115E+02 -0.42277713959E+01 -0.16825652659E+03  0.21166278456E+03  0.12509030390E+03 0.  0.
         23    2    1    2    0    0  0.28730079115E+02  0.42277713959E+01 -0.15021882589E+03  0.17823784233E+03  0.91431620834E+02 0.  0.
          5    1    3    3  502    0  0.15349690599E+02  0.18357919626E+02 -0.15931911714E+03  0.16116041605E+03  0.41800000000E+01 0. -1.
         -5    1    3    3    0  502 -0.44079769714E+02 -0.22585691022E+02 -0.89374094477E+01  0.50502368505E+02  0.41800000000E+01 0. -1.
        -11    1    4    4    0    0 -0.13366747967E+02 -0.67099523182E+01  0.59716231819E+01  0.16104461951E+02  0.00000000000E+00 0. -1.
         11    1    4    4    0    0  0.42096827082E+02  0.10937723714E+02 -0.15619044907E+03  0.16213338037E+03  0.00000000000E+00 0.  1.
</event>
<event>
 8    1  0.7048627E-009  0.1191759E+03  0.7561462E-02  0.1244463E+00
          2   -1    0    0  501    0  0.00000000000E+00  0.00000000000E+00  0.14393489945E+04  0.14393489945E+04  0.00000000000E+00 0. -1.
         -2   -1    0    0    0  501 -0.00000000000E+00 -0.00000000000E+00 -0.11488350013E+02  0.11488350013E+02  0.00000000000E+00 0.  1.
         25    2    1    2    0    0  0.51918793274E+02 -0.23912474487E+02  0.10093874634E+04  0.10187153120E+04  0.12510183111E+03 0.  0.
         23    2    1    2    0    0 -0.51918793274E+02  0.23912474487E+02  0.41847318111E+03  0.43212203252E+03  0.91336083473E+02 0.  0.
          5    1    3    3  502    0  0.25195652631E+02 -0.74304292773E+02  0.50146304487E+03  0.50758113302E+03  0.41800000000E+01 0.  1.
         -5    1    3    3    0  502  0.26723140643E+02  0.50391818286E+02  0.50792441850E+03  0.51113417896E+03  0.41800000000E+01 0.  1.
        -11    1    4    4    0    0 -0.51932837817E+01 -0.30458680214E+02  0.72673787159E+02  0.78969492444E+02  0.00000000000E+00 0.  1.
         11    1    4    4    0    0 -0.46725509493E+02  0.54371154701E+02  0.34579939395E+03  0.35315254007E+03  0.00000000000E+00 0. -1.
</event>
<event>
 8    1  0.7048627E-009  0.1010637E+03  0.7561462E-02  0.1278075E+00
         -2   -1    0    0    0  501 -0.00000000000E+00  0.00000000000E+00  0.65761581482E+02  0.65761581482E+02  0.00000000000E+00 0.  1.
          2   -1    0    0  501    0  0.00000000000E+00 -0.00000000000E+00 -0.20821039521E+03  0.20821039521E+03  0.00000000000E+00 0. -1.
         25    2    1    2    0    0  0.30874667300E+02 -0.19441315617E+02 -0.55871826209E+02  0.14177642698E+03  0.12509070489E+03 0.  0.
         23    2    1    2    0    0 -0.30874667300E+02  0.19441315617E+02 -0.86576987520E+02  0.13219554971E+03  0.92999348182E+02 0.  0.
          5    1    3    3  502    0 -0.29549925178E+02 -0.45234010653E+02 -0.53122901188E+02  0.75886947681E+02  0.41800000000E+01 0. -1.
         -5    1    3    3    0  502  0.60424592479E+02  0.25792695036E+02 -0.27489250209E+01  0.65889479298E+02  0.41800000000E+01 0. -1.
        -11    1    4    4    0    0  0.24444283758E+02  0.55383553858E+01 -0.67576565744E+02  0.72074882078E+02  0.00000000000E+00 0. -1.
         11    1    4    4    0    0 -0.55318951058E+02  0.13902960231E+02 -0.19000421777E+02  0.60120667636E+02  0.00000000000E+00 0.  1.
</event>
<event>
 8    1  0.7048627E-009  0.1730323E+03  0.7561462E-02  0.1174722E+00
          1   -1    0    0  501    0  0.00000000000E+00  0.00000000000E+00  0.96344392266E+03  0.96344392266E+03  0.00000000000E+00 0. -1.
         -1   -1    0    0    0  501 -0.00000000000E+00 -0.00000000000E+00 -0.36447686604E+02  0.36447686604E+02  0.00000000000E+00 0.  1.
         25    2    1    2    0    0  0.82617665260E+02 -0.12649005735E+03  0.42669093116E+03  0.46961468265E+03  0.12508951278E+03 0.  0.
         23    2    1    2    0    0 -0.82617665260E+02  0.12649005735E+03  0.50030530489E+03  0.53027692661E+03  0.89793137657E+02 0.  0.
          5    1    3    3  502    0  0.65549824664E+02 -0.15109155589E+03  0.34022786758E+03  0.37801840174E+03  0.41800000000E+01 0. -1.
         -5    1    3    3    0  502  0.17067840596E+02  0.24601498545E+02  0.86463063581E+02  0.91596280913E+02  0.41800000000E+01 0. -1.
        -11    1    4    4    0    0 -0.50142983990E+02  0.76919523045E+02  0.15687310409E+03  0.18176936666E+03  0.00000000000E+00 0.  1.
         11    1    4    4    0    0 -0.32474681270E+02  0.49570534301E+02  0.34343220080E+03  0.34850755995E+03  0.00000000000E+00 0. -1.
</event>
<event>
 8    1  0.7048627E-009  0.1385508E+03  0.7561462E-02  0.1215292E+00
          1   -1    0    0  501    0  0.00000000000E+00  0.00000000000E+00  0.17533577537E+03  0.17533577537E+03  0.00000000000E+00 0. -1.
         -1   -1    0    0    0  501 -0.00000000000E+00 -0.00000000000E+00 -0.13678619727E+03  0.13678619727E+03  0.00000000000E+00 0.  1.
         25    2    1    2    0    0  0.79122163671E+02 -0.74243316271E+02  0.40134085907E+02  0.17038403359E+03  0.12509031639E+03 0.  0.
         23    2    1    2    0    0 -0.79122163671E+02  0.74243316271E+02 -0.15845078053E+01  0.14173793906E+03  0.91185228568E+02 0.  0.
          5    1    3    3  502    0  0.99221725504E+02 -0.22085560936E+02  0.50458984309E+00  0.10173716049E+03  0.41800000000E+01 0.  1.
         -5    1    3    3    0  502 -0.20099561833E+02 -0.52157755335E+02  0.39629496064E+02  0.68646873095E+02  0.41800000000E+01 0.  1.
        -11    1    4    4    0    0  0.61805252906E+01  0.12709380976E+02 -0.29677069065E+02  0.32870285759E+02  0.00000000000E+00 0.  1.
         11    1    4    4    0    0 -0.85302688962E+02  0.61533935295E+02  0.28092561259E+02  0.10886765330E+03  0.00000000000E+00 0. -1.
</event>
<event>
 8    1  0.7048627E-009  0.1042799E+03  0.7561462E-02  0.1271545E+00
         -2   -1    0    0    0  501 -0.00000000000E+00  0.00000000000E+00  0.13788474279E+02  0.13788474279E+02  0.00000000000E+00 0.  1.
          2   -1    0    0  501    0  0.00000000000E+00 -0.00000000000E+00 -0.98248924202E+03  0.98248924202E+03  0.00000000000E+00 0. -1.
         25    2    1    2    0    0 -0.11127457248E+02 -0.16358176960E+02 -0.70066314970E+03  0.71201620314E+03  0.12508722532E+03 0.  0.
         23    2    1    2    0    0  0.11127457248E+02  0.16358176960E+02 -0.26803761804E+03  0.28426151315E+03  0.92569071057E+02 0.  0.
          5    1    3    3  502    0 -0.63337410930E+02 -0.25367582266E+02 -0.49036345697E+03  0.49510497289E+03  0.41800000000E+01 0. -1.
         -5    1    3    3    0  502  0.52209953682E+02  0.90094053062E+01 -0.21029969273E+03  0.21691123025E+03  0.41800000000E+01 0. -1.
        -11    1    4    4    0    0 -0.17426785598E+02  0.43993703669E+02 -0.19952067951E+03  0.20505521298E+03  0.00000000000E+00 0. -1.
         11    1    4    4    0    0  0.28554242846E+02 -0.27635526710E+02 -0.68516938531E+02  0.79206300170E+02  0.00000000000E+00 0.  1.
</event>
<event>
 8    1  0.7048627E-009  0.1181349E+03  0.7561462E-02  0.1246206E+00
          2   -1    0    0  501    0  0.00000000000E+00  0.00000000000E+00  0.53197954251E+03  0.53197954251E+03  0.00000000000E+00 0. -1.
         -2   -1    0    0    0  501 -0.00000000000E+00 -0.00000000000E+00 -0.40733524981E+02  0.40733524981E+02  0.00000000000E+00 0.  1.
         25    2    1    2    0    0  0.90241401838E+02 -0.26106256702E-01  0.19150204579E+03  0.24590028064E+03  0.12510157149E+03 0.  0.
         23    2    1    2    0    0 -0.90241401838E+02  0.26106256702E-01  0.29974397175E+03  0.32681278686E+03  0.93896952930E+02 0.  0.
          5    1    3    3  502    0  0.98831307550E+02 -0.29439141607E+02  0.18840341712E+03  0.21481994878E+03  0.41800000000E+01 0.  1.
         -5    1    3    3    0  502 -0.85899057121E+01  0.29413035350E+02  0.30986286658E+01  0.31080331856E+02  0.41800000000E+01 0.  1.
        -11    1    4    4    0    0 -0.26571229552E+02 -0.22276252322E+02  0.22163849383E+02  0.41152130891E+02  0.00000000000E+00 0.  1.
         11    1    4    4    0    0 -0.63670172287E+02  0.22302358579E+02  0.27758012236E+03  0.28566065597E+03  0.00000000000E+00 0. -1.
</event>
<event>
 8    1  0.7048627E-009  0.1228100E+03  0.7561462E-02  0.1238532E+00
         -3   -1    0    0    0  501 -0.00000000000E+00  0.00000000000E+00  0.24380591193E+03  0.24380591193E+03  0.00000000000E+00 0.  1.
          3   -1    0    0  501    0  0.00000000000E+00 -0.00000000000E+00 -0.83703511354E+02  0.83703511354E+02  0.00000000000E+00 0. -1.
         25    2    1    2    0    0  0.32468204242E+02  0.67985883679E+02  0.14917747400E+03  0.20874895999E+03  0.12508375146E+03 0.  0.
         23    2    1    2    0    0 -0.32468204242E+02 -0.67985883679E+02  0.10924926577E+02  0.11876046330E+03  0.91150583956E+02 0.  0.
          5    1    3    3  502    0 -0.21202590042E+02  0.74279608817E+02  0.12996205031E+03  0.15124356856E+03  0.41800000000E+01 0.  1.
         -5    1    3    3    0  502  0.53670794285E+02 -0.62937251372E+01  0.19215423686E+02  0.57505391423E+02  0.41800000000E+01 0.  1.
        -11    1    4    4    0    0  0.28235735553E+02 -0.35013081703E+02  0.19737571508E+02  0.49119694437E+02  0.00000000000E+00 0. -1.
         11    1    4    4    0    0 -0.60703939795E+02 -0.32972801976E+02 -0.88126449308E+01  0.69640768860E+02  0.00000000000E+00 0.  1.
</event>
<event>
 8    1  0.7048627E-009  0.1425036E+03  0.7561462E-02  0.1209999E+00
          2   -1    0    0  501    0  0.00000000000E+00  0.00000000000E+00  0.24500694265E+04  0.24500694265E+04  0.00000000000E+00 0.  1.
         -2   -1    0    0    0  501 -0.00000000000E+00 -0.00000000000E+00 -0.16793382594E+02  0.16793382594E+02  0.00000000000E+00 0. -1.
         25    2    1    2    0    0  0.62463457273E+02 -0.88006087882E+02  0.20741836932E+04  0.20807533756E+04  0.12509940726E+03 0.  0.
         23    2    1    2    0    0 -0.62463457273E+02  0.88006087882E+02  0.35909235063E+03  0.38610943347E+03  0.92121785366E+02 0.  0.
          5    1    3    3  502    0  0.43671177438E+02  0.22035756873E+02  0.43356330821E+03  0.43633400159E+03  0.41800000000E+01 0.  1.
         -5    1    3    3    0  502  0.18792279835E+02 -0.11004184476E+03  0.16406203850E+04  0.16444193740E+04  0.41800000000E+01 0.  1.
        -11    1    4    4    0    0 -0.20697492112E+02  0.78745073238E+02  0.31216660736E+03  0.32260992467E+03  0.00000000000E+00 0.  1.
         11    1    4    4    0    0 -0.41765965161E+02  0.92610146447E+01  0.46925743261E+02  0.63499508807E+02  0.00000000000E+00 0. -1.
</event>
<event>
 8    1  0.7048627E-009  0.1437022E+03  0.7561462E-02  0.1208432E+00
         -2   -1    0    0    0  501 -0.00000000000E+00  0.00000000000E+00  0.30546939522E+03  0.30546939522E+03  0.00000000000E+00 0. -1.
          2   -1    0    0  501    0  0.00000000000E+00 -0.00000000000E+00 -0.98218390227E+02  0.98218390227E+02  0.00000000000E+00 0.  1.
         25    2    1    2    0    0 -0.84476347069E+01  0.12407136728E+03  0.46799763136E+02  0.18248930960E+03  0.12508822317E+03 0.  0.
         23    2    1    2    0    0  0.84476347069E+01 -0.12407136728E+03  0.16045124186E+03  0.22119847585E+03  0.87858397396E+02 0.  0.
          5    1    3    3  502    0 -0.27028631400E+02  0.36610214132E+02 -0.37815020253E+02  0.59315283451E+02  0.41800000000E+01 0. -1.
         -5    1    3    3    0  502  0.18580996693E+02  0.87461153153E+02  0.84614783389E+02  0.12317402615E+03  0.41800000000E+01 0. -1.
        -11    1    4    4    0    0  0.46699363211E+02 -0.87974239412E+02  0.10183479737E+03  0.14244515885E+03  0.00000000000E+00 0.  1.
         11    1    4    4    0    0 -0.38251728504E+02 -0.36097127873E+02  0.58616444487E+02  0.78753317000E+02  0.00000000000E+00 0. -1.
</event>
<event>
 8    1  0.7048627E-009  0.1630297E+03  0.7561462E-02  0.1185318E+00
         -2   -1    0    0    0  501 -0.00000000000E+00  0.00000000000E+00  0.50023018484E+03  0.50023018484E+03  0.00000000000E+00 0.  1.
          2   -1    0    0  501    0  0.00000000000E+00 -0.00000000000E+00 -0.66010187547E+02  0.66010187547E+02  0.00000000000E+00 0. -1.
         25    2    1    2    0    0  0.76297518680E+02 -0.11746025007E+03  0.28715760289E+03  0.34311144503E+03  0.12509097934E+03 0.  0.
         23    2    1    2    0    0 -0.76297518680E+02  0.11746025007E+03  0.14706239440E+03  0.22312892735E+03  0.92417253098E+02 0.  0.
          5    1    3    3  502    0  0.98355443813E+02 -0.93261723307E+02  0.27726799907E+03  0.30865281153E+03  0.41800000000E+01 0. -1.
         -5    1    3    3    0  502 -0.22057925134E+02 -0.24198526765E+02  0.98896038220E+01  0.34458633498E+02  0.41800000000E+01 0. -1.
        -11    1    4    4    0    0 -0.73546415698E+02  0.47767645817E+02  0.11928746752E+03  0.14805513553E+03  0.00000000000E+00 0.  1.
         11    1    4    4    0    0 -0.27511029818E+01  0.69692604255E+02  0.27774926883E+02  0.75073791824E+02  0.00000000000E+00 0. -1.
</event>
<event>
 8    1  0.7048627E-009  0.1245481E+03  0.7561462E-02  0.1235777E+00
          2   -1    0    0  501    0  0.00000000000E+00  0.00000000000E+00  0.87605663577E+03  0.87605663577E+03  0.00000000000E+00 0. -1.
         -2   -1    0    0    0  501 -0.00000000000E+00 -0.00000000000E+00 -0.31454381962E+02  0.31454381962E+02  0.00000000000E+00 0.  1.
         25    2    1    2    0    0  0.10847227031E+03  0.39211379736E+02  0.58575141554E+03  0.60996347570E+03  0.12508778975E+03 0.  0.
         23    2    1    2    0    0 -0.10847227031E+03 -0.39211379736E+02  0.25885083826E+03  0.29754754203E+03  0.90702908300E+02 0.  0.
          5    1    3    3  502    0  0.47881454812E+01  0.22798273578E+02  0.36202697454E+03  0.36279979370E+03  0.41800000000E+01 0.  1.
         -5    1    3    3    0  502  0.10368412483E+03  0.16413106159E+02  0.22372444101E+03  0.24716368200E+03  0.41800000000E+01 0.  1.
        -11    1    4    4    0    0 -0.30016774619E+02 -0.28126822781E+02  0.18402228651E+03  0.18856385351E+03  0.00000000000E+00 0. -1.
         11    1    4    4    0    0 -0.78455495690E+02 -0.11084556955E+02  0.74828551754E+02  0.10898368852E+03  0.00000000000E+00 0.  1.
</event>
<event>
 8    1  0.7048627E-009  0.8886384E+02  0.7561462E-02  0.1305627E+00
         -1   -1    0    0    0  501 -0.00000000000E+00  0.00000000000E+00  0.18971472599E+03  0.18971472599E+03  0.00000000000E+00 0. -1.
          1   -1    0    0  501    0  0.00000000000E+00 -0.00000000000E+00 -0.10752602111E+03  0.10752602111E+03  0.00000000000E+00 0.  1.
         25    2    1    2    0    0 -0.40994988606E+01  0.57178958942E+02  0.12224232227E+03  0.18406428278E+03  0.12510090170E+03 0.  0.
         23    2    1    2    0    0  0.40994988606E+01 -0.57178958942E+02 -0.40053617400E+02  0.11317646432E+03  0.88985282895E+02 0.  0.
          5    1    3    3  502    0 -0.30056991887E+02  0.88126697761E+00 -0.14666116481E+02  0.33715971963E+02  0.41800000000E+01 0.  1.
         -5    1    3    3    0  502  0.25957493026E+02  0.56297691964E+02  0.13690843875E+03  0.15034831082E+03  0.41800000000E+01 0.  1.
        -11    1    4    4    0    0  0.33637775820E+02 -0.29061843711E+02 -0.54121475545E+02  0.70037310322E+02  0.00000000000E+00 0.  1.
         11    1    4    4    0    0 -0.29538276960E+02 -0.28117115231E+02  0.14067858145E+02  0.43139153995E+02  0.00000000000E+00 0. -1.
</event>
<event>
 8    1  0.7048627E-009  0.1555204E+03  0.7561462E-02  0.1193849E+00
         -1   -1    0    0    0  501 -0.00000000000E+00  0.00000000000E+00  0.37609148521E+03  0.37609148521E+03  0.00000000000E+00 0.  1.
          1   -1    0    0  501    0  0.00000000000E+00 -0.00000000000E+00 -0.72685370218E+02  0.72685370218E+02  0.00000000000E+00 0. -1.
         25    2    1    2    0    0  0.12517754287E+03 -0.12010855994E+01  0.17899807246E+03  0.25171225359E+03  0.12509152176E+03 0.  0.
         23    2    1    2    0    0 -0.12517754287E+03  0.12010855994E+01  0.12440804253E+03  0.19706460183E+03  0.87671183435E+02 0.  0.
          5    1    3    3  502    0  0.14499988077E+03  0.35872283307E+01  0.11726725098E+03  0.18656611210E+03  0.41800000000E+01 0.  1.
         -5    1    3    3    0  502 -0.19822337904E+02 -0.47883139300E+01  0.61730821484E+02  0.65146141492E+02  0.41800000000E+01 0.  1.
        -11    1    4    4    0    0 -0.31818164588E+02 -0.32860752368E+02  0.12538072793E+02  0.47428134196E+02  0.00000000000E+00 0. -1.
         11    1    4    4    0    0 -0.93359378282E+02  0.34061837967E+02  0.11186996973E+03  0.14963646764E+03  0.00000000000E+00 0.  1.
</event>
<event>
 8    1  0.7048627E-009  0.1069396E+03  0.7561462E-02  0.1266345E+00
         -1   -1    0    0    0  501 -0.00000000000E+00  0.00000000000E+00  0.23791362225E+02  0.23791362225E+02  0.00000000000E+00 0.  1.
          1   -1    0    0  501    0  0.00000000000E+00 -0.00000000000E+00 -0.61091717783E+03  0.61091717783E+03  0.00000000000E+00 0. -1.
         25    2    1    2    0    0  0.21400203254E+02  0.40046487326E+02 -0.40619367311E+03  0.42743603774E+03  0.12508627600E+03 0.  0.
         23    2    1    2    0    0 -0.21400203254E+02 -0.40046487326E+02 -0.18093214250E+03  0.20727250232E+03  0.90353528870E+02 0.  0.
          5    1    3    3  502    0  0.26244940882E+02  0.84093860730E+02 -0.28461465113E+03  0.29796567985E+03  0.41800000000E+01 0.  1.
         -5    1    3    3    0  502 -0.48447376276E+01 -0.44047373404E+02 -0.12157902198E+03  0.12947035789E+03  0.41800000000E+01 0.  1.
        -11    1    4    4    0    0  0.23363844394E+02 -0.40017168453E+01 -0.12446517606E+03  0.12670226128E+03  0.00000000000E+00 0. -1.
         11    1    4    4    0    0 -0.44764047649E+02 -0.36044770481E+02 -0.56466966444E+02  0.80570241034E+02  0.00000000000E+00 0.  1.
</event>
<event>
 8    1  0.7048627E-009  0.1873337E+03  0.7561462E-02  0.1160888E+00
          1   -1    0    0  501    0  0.00000000000E+00  0.00000000000E+00  0.15006216260E+04  0.15006216260E+04  0.00000000000E+00 0. -1.
         -1   -1    0    0    0  501 -0.00000000000E+00 -0.00000000000E+00 -0.41918610939E+02  0.41918610939E+02  0.00000000000E+00 0.  1.
         25    2    1    2    0    0 -0.96743072654E+02  0.15887378144E+03  0.11499196553E+04  0.11715650597E+04  0.12509746176E+03 0.  0.
         23    2    1    2    0    0  0.96743072654E+02 -0.15887378144E+03  0.30878335985E+03  0.37097517732E+03  0.87608894157E+02 0.  0.
          5    1    3    3  502    0 -0.67925829896E+02  0.95052465581E+02  0.99074067661E+03  0.99761387834E+03  0.41800000000E+01 0.  1.
         -5    1    3    3    0  502 -0.28817242758E+02  0.63821315857E+02  0.15917897865E+03  0.17395118132E+03  0.41800000000E+01 0.  1.
        -11    1    4    4    0    0  0.67435456992E+02 -0.87601687073E+02  0.10246182562E+03  0.15073162292E+03  0.00000000000E+00 0.  1.
         11    1    4    4    0    0  0.29307615662E+02 -0.71272094365E+02  0.20632153423E+03  0.22024355441E+03  0.00000000000E+00 0. -1.
</event>
<event>
 8    1  0.7048627E-009  0.2307275E+03  0.7561462E-02  0.1126129E+00
          2   -1    0    0  501    0  0.00000000000E+00  0.00000000000E+00  0.95730886994E+03  0.95730886994E+03  0.00000000000E+00 0. -1.
         -2   -1    0    0    0  501 -0.00000000000E+00 -0.00000000000E+00 -0.59415944826E+02  0.59415944826E+02  0.00000000000E+00 0.  1.
         25    2    1    2    0    0  0.10977719248E+03  0.18082275941E+03  0.47950665487E+03  0.53881532007E+03  0.12508962695E+03 0.  0.
         23    2    1    2    0    0 -0.10977719248E+03 -0.18082275941E+03  0.41838627024E+03  0.47790949469E+03  0.92749726047E+02 0.  0.
          5    1    3    3  502    0  0.12596881910E+03  0.18192928984E+03  0.47010686408E+03  0.51960017893E+03  0.41800000000E+01 0.  1.
         -5    1    3    3    0  502 -0.16191626621E+02 -0.11065304368E+01  0.93997907918E+01  0.19215141143E+02  0.41800000000E+01 0.  1.
        -11    1    4    4    0    0 -0.24697077329E+02 -0.10980481619E+03  0.14989499374E+03  0.18744479836E+03  0.00000000000E+00 0. -1.
         11    1    4    4    0    0 -0.85080115152E+02 -0.71017943218E+02  0.26849127650E+03  0.29046469633E+03  0.00000000000E+00 0.  1.
</event>
<event>
 8    1  0.7048627E-009  0.1666262E+03  0.7561462E-02  0.1181413E+00
          4   -1    0    0  501    0  0.00000000000E+00  0.00000000000E+00  0.11321554887E+03  0.11321554887E+03  0.00000000000E+00 0. -1.
         -4   -1    0    0    0  501 -0.00000000000E+00 -0.00000000000E+00 -0.44920811266E+03  0.44920811266E+03  0.00000000000E+00 0.  1.
         25    2    1    2    0    0 -0.14175625611E+03  0.22348934491E+02 -0.34204038251E+03  0.39144971093E+03  0.12508773683E+03 0.  0.
         23    2    1    2    0    0  0.14175625611E+03 -0.22348934491E+02  0.60478187132E+01  0.17097395059E+03  0.92742679764E+02 0.  0.
          5    1    3    3  502    0 -0.64942894586E+02  0.64451408531E+02 -0.24011591614E+03  0.25699161310E+03  0.41800000000E+01 0. -1.
         -5    1    3    3    0  502 -0.76813361529E+02 -0.42102474041E+02 -0.10192446637E+03  0.13445809784E+03  0.41800000000E+01 0. -1.
        -11    1    4    4    0    0  0.11678162448E+03  0.50522290274E+01 -0.28480783985E+02  0.12031054771E+03  0.00000000000E+00 0.  1.
         11    1    4    4    0    0  0.24974631639E+02 -0.27401163518E+02  0.34528602699E+02  0.50663402886E+02  0.00000000000E+00 0. -1.
</event>
<event>
 8    1  0.7048627E-009  0.1215934E+03  0.7561462E-02  0.1240491E+00
         -1   -1    0    0    0  501 -0.00000000000E+00  0.00000000000E+00  0.72592975789E+02  0.72592975789E+02  0.00000000000E+00 0.  1.
          1   -1    0    0  501    0  0.00000000000E+00 -0.00000000000E+00 -0.31412855008E+03  0.31412855008E+03  0.00000000000E+00 0. -1.
         25    2    1    2    0    0  0.22550778852E+02 -0.88147238429E+02 -0.63679654003E+02  0.16727573891E+03  0.12509037223E+03 0.  0.
         23    2    1    2    0    0 -0.22550778852E+02  0.88147238429E+02 -0.17785592029E+03  0.21944578695E+03  0.90803368670E+02 0.  0.
          5    1    3    3  502    0  0.38902198064E+02 -0.10071257929E+03 -0.86860685086E+01  0.10839430256E+03  0.41800000000E+01 0.  1.
         -5    1    3    3    0  502 -0.16351419211E+02  0.12565340863E+02 -0.54993585494E+02  0.58881436351E+02  0.41800000000E+01 0.  1.
        -11    1    4    4    0    0 -0.42868784367E+01  0.94624514283E+02 -0.94250202510E+02  0.13362363827E+03  0.00000000000E+00 0.  1.
         11    1    4    4    0    0 -0.18263900416E+02 -0.64772758541E+01 -0.83605717775E+02  0.85822148689E+02  0.00000000000E+00 0. -1.
</event>
<event>
 8    1  0.7048627E-009  0.1434814E+03  0.7561462E-02  0.1208720E+00
         -4   -1    0    0    0  501 -0.00000000000E+00  0.00000000000E+00  0.36426957491E+03  0.36426957491E+03  0.00000000000E+00 0.  1.
          4   -1    0    0  501    0  0.00000000000E+00 -0.00000000000E+00 -0.92516005549E+02  0.92516005549E+02  0.00000000000E+00 0. -1.
         25    2    1    2    0    0  0.91507863832E+02 -0.78023610595E+02  0.36463988464E+02  0.17730833861E+03  0.12508897447E+03 0.  0.
         23    2    1    2    0    0 -0.91507863832E+02  0.78023610595E+02  0.23528958090E+03  0.27947724185E+03  0.91021804412E+02 0.  0.
          5    1    3    3  502    0  0.18799115319E+02  0.10235053689E+02  0.57020699921E+02  0.61049125139E+02  0.41800000000E+01 0.  1.
         -5    1    3    3    0  502  0.72708748514E+02 -0.88258664283E+02 -0.20556711457E+02  0.11625921347E+03  0.41800000000E+01 0.  1.
        -11    1    4    4    0    0 -0.26397146677E+02 -0.19951688776E+02  0.55786532395E+02  0.64861517361E+02  0.00000000000E+00 0.  1.
         11    1    4    4    0    0 -0.65110717155E+02  0.97975299370E+02  0.17950304850E+03  0.21461572449E+03  0.00000000000E+00 0. -1.
</event>
<event>
 8    1  0.7048627E-009  0.1222453E+03  0.7561462E-02  0.1239438E+00
          2   -1    0    0  501    0  0.00000000000E+00  0.00000000000E+00  0.40719441024E+03  0.40719441024E+03  0.00000000000E+00 0. -1.
         -2   -1    0    0    0  501 -0.00000000000E+00 -0.00000000000E+00 -0.44674358383E+02  0.44674358383E+02  0.00000000000E+00 0.  1.
         25    2    1    2    0    0  0.57052601460E+02 -0.43985136122E+02  0.25923633906E+03  0.29671835202E+03  0.12509440197E+03 0.  0.
         23    2    1    2    0    0 -0.57052601460E+02  0.43985136122E+02  0.10328371280E+03  0.15515041661E+03  0.90633519792E+02 0.  0.
          5    1    3    3  502    0  0.74977533573E+02  0.10931635621E+02  0.19981340522E+03  0.21373815874E+03  0.41800000000E+01 0.  1.
         -5    1    3    3    0  502 -0.17924932113E+02 -0.54916771743E+02  0.59422933837E+02  0.82980193273E+02  0.41800000000E+01 0.  1.
        -11    1    4    4    0    0  0.10461470284E+02 -0.16832333742E+02  0.39305720691E+02  0.44019421835E+02  0.00000000000E+00 0. -1.
         11    1    4    4    0    0 -0.67514071745E+02  0.60817469864E+02  0.63977992112E+02  0.11113099477E+03  0.00000000000E+00 0.  1.
</event>
<event>
 8    1  0.7048627E-009  0.9875290E+02  0.7561462E-02  0.1282940E+00
         -1   -1    0    0    0  501 -0.00000000000E+00  0.00000000000E+00  0.36216127968E+02  0.36216127968E+02  0.00000000000E+00 0.  1.
          1   -1    0    0  501    0  0.00000000000E+00 -0.00000000000E+00 -0.38404707378E+03  0.38404707378E+03  0.00000000000E+00 0. -1.
         25    2    1    2    0    0  0.35520178194E+02 -0.29072164373E+02 -0.20124034981E+03  0.24135444702E+03  0.12508963549E+03 0.  0.
         23    2    1    2    0    0 -0.35520178194E+02  0.29072164373E+02 -0.14659059600E+03  0.17890875472E+03  0.91720585914E+02 0.  0.
          5    1    3    3  502    0  0.42680381931E+02 -0.64612293365E+02 -0.67781913959E+02  0.10299623156E+03  0.41800000000E+01 0. -1.
         -5    1    3    3    0  502 -0.71602037366E+01  0.35540128992E+02 -0.13345843585E+03  0.13835821546E+03  0.41800000000E+01 0. -1.
        -11    1    4    4    0    0 -0.36610395195E+02  0.50296693385E+02 -0.49446789148E+02  0.79467372920E+02  0.00000000000E+00 0.  1.
         11    1    4    4    0    0  0.10902170013E+01 -0.21224529012E+02 -0.97143806854E+02  0.99441381803E+02  0.00000000000E+00 0. -1.
</event>
<event>
 8    1  0.7048627E-009  0.1008388E+03  0.7561462E-02  0.1278542E+00
          2   -1    0    0  501    0  0.00000000000E+00  0.00000000000E+00  0.35064337756E+03  0.35064337756E+03  0.00000000000E+00 0. -1.
         -2   -1    0    0    0  501 -0.00000000000E+00 -0.00000000000E+00 -0.42042274052E+02  0.42042274052E+02  0.00000000000E+00 0.  1.
         25    2    1    2    0    0 -0.33785079403E+02 -0.42526967593E+02  0.17670562299E+03  0.22320914050E+03  0.12508984230E+03 0.  0.
         23    2    1    2    0    0  0.33785079403E+02  0.42526967593E+02  0.13189548052E+03  0.16947651111E+03  0.91519918449E+02 0.  0.
          5    1    3    3  502    0  0.16324170393E+02  0.14081221467E+02 -0.81693683341E+01  0.23430115578E+02  0.41800000000E+01 0. -1.
         -5    1    3    3    0  502 -0.50109249796E+02 -0.56608189060E+02  0.18487499132E+03  0.19977902493E+03  0.41800000000E+01 0. -1.
        -11    1    4    4    0    0 -0.13983596493E+02 -0.20563467272E+02  0.17624935847E+02  0.30480084002E+02  0.00000000000E+00 0.  1.
         11    1    4    4    0    0  0.47768675896E+02  0.63090434865E+02  0.11427054468E+03  0.13899642711E+03  0.00000000000E+00 0. -1.
</event>
<event>
 8    1  0.7048627E-009  0.1083681E+03  0.7561462E-02  0.1263622E+00
          4   -1    0    0  501    0  0.00000000000E+00  0.00000000000E+00  0.13411264339E+03  0.13411264339E+03  0.00000000000E+00 0. -1.
         -4   -1    0    0    0  501 -0.00000000000E+00 -0.00000000000E+00 -0.13959095008E+03  0.13959095008E+03  0.00000000000E+00 0.  1.
         25    2    1    2    0    0  0.63536878789E+02  0.47647107385E+01  0.45244315256E+02  0.14749441564E+03  0.12509163500E+03 0.  0.
         23    2    1    2    0    0 -0.63536878789E+02 -0.47647107385E+01 -0.50722621949E+02  0.12620917784E+03  0.96417502341E+02 0.  0.
          5    1    3    3  502    0  0.45655628965E+02 -0.47367015557E+02  0.61216873538E+02  0.89961372959E+02  0.41800000000E+01 0.  1.
         -5    1    3    3    0  502  0.17881249824E+02  0.52131726296E+02 -0.15972558281E+02  0.57533042679E+02  0.41800000000E+01 0.  1.
        -11    1    4    4    0    0 -0.71930706633E+02  0.15524598305E+02 -0.29659297573E+01  0.73646700188E+02  0.00000000000E+00 0. -1.
         11    1    4    4    0    0  0.83938278438E+01 -0.20289309043E+02 -0.47756692192E+02  0.52562477648E+02  0.00000000000E+00 0.  1.
</event>
<event>
 8    1  0.7048627E-009  0.1481580E+03  0.7561462E-02  0.1202755E+00
         -2   -1    0    0    0  501 -0.00000000000E+00  0.00000000000E+00  0.21506498216E+03  0.21506498216E+03  0.00000000000E+00 0.  1.
          2   -1    0    0  501    0  0.00000000000E+00 -0.00000000000E+00 -0.11045653455E+03  0.11045653455E+03  0.00000000000E+00 0. -1.
         25    2    1    2    0    0 -0.33292359773E+02 -0.97172736258E+02  0.94108942545E+02  0.18722663006E+03  0.12508555491E+03 0.  0.
         23    2    1    2    0    0  0.33292359773E+02  0.97172736258E+02  0.10499505064E+02  0.13829488664E+03  0.92001707453E+02 0.  0.
          5    1    3    3  502    0 -0.62976850900E+02 -0.66621346379E+01  0.20244533048E+02  0.66616674381E+02  0.41800000000E+01 0.  1.
         -5    1    3    3    0  502  0.29684491128E+02 -0.90510601620E+02  0.73864409497E+02  0.12060995568E+03  0.41800000000E+01 0.  1.
        -11    1    4    4    0    0 -0.31077376406E+02  0.19767922790E+02  0.74412063560E+01  0.37575865230E+02  0.00000000000E+00 0.  1.
         11    1    4    4    0    0  0.64369736179E+02  0.77404813469E+02  0.30582987078E+01  0.10071902142E+03  0.00000000000E+00 0. -1.
</event>
<event>
 8    1  0.7048627E-009  0.9002148E+02  0.7561462E-02  0.1302800E+00
         -1   -1    0    0    0  501 -0.00000000000E+00  0.00000000000E+00  0.93343774753E+02  0.93343774753E+02  0.00000000000E+00 0.  1.
          1   -1    0    0  501    0  0.00000000000E+00 -0.00000000000E+00 -0.20277275914E+03  0.20277275914E+03  0.00000000000E+00 0. -1.
         25    2    1    2    0    0  0.72650423611E+00  0.37070030981E+02  0.14719762393E+02  0.13130273321E+03  0.12509604845E+03 0.  0.
         23    2    1    2    0    0 -0.72650423611E+00 -0.37070030981E+02 -0.12414874678E+03  0.16481380069E+03  0.10186246887E+03 0.  0.
          5    1    3    3  502    0  0.60611623188E+02  0.35593925007E+02  0.70641526382E+01  0.70767725803E+02  0.41800000000E+01 0. -1.
         -5    1    3    3    0  502 -0.59885118952E+02  0.14761059739E+01  0.76556097546E+01  0.60535007404E+02  0.41800000000E+01 0. -1.
        -11    1    4    4    0    0 -0.15097149244E+02 -0.78476704746E+01  0.14522685264E+02  0.22370029827E+02  0.00000000000E+00 0.  1.
         11    1    4    4    0    0  0.14370645007E+02 -0.29222360506E+02 -0.13867143205E+03  0.14244377086E+03  0.00000000000E+00 0. -1.
</event>
<event>
 8    1  0.7048627E-009  0.6492234E+02  0.7561462E-02  0.1378264E+00
          2   -1    0    0  501    0  0.00000000000E+00  0.00000000000E+00  0.40124496944E+03  0.40124496944E+03  0.00000000000E+00 0. -1.
         -2   -1    0    0    0  501 -0.00000000000E+00 -0.00000000000E+00 -0.35421695578E+02  0.35421695578E+02  0.00000000000E+00 0.  1.
         25    2    1    2    0    0  0.71256426591E+01 -0.10512228890E+02  0.29538194350E+03  0.32102831480E+03  0.12508958636E+03 0.  0.
         23    2    1    2    0    0 -0.71256426591E+01  0.10512228890E+02  0.70441330359E+02  0.11563835022E+03  0.90823814493E+02 0.  0.
          5    1    3    3  502    0 -0.12185430749E+02 -0.32949264989E+02  0.28809145227E+03  0.29025557024E+03  0.41800000000E+01 0.  1.
         -5    1    3    3    0  502  0.19311073408E+02  0.22437036099E+02  0.72904912320E+01  0.30772744556E+02  0.41800000000E+01 0.  1.
        -11    1    4    4    0    0  0.50442338316E+00 -0.26638729028E+02  0.72915999731E+02  0.77631303892E+02  0.00000000000E+00 0. -1.
         11    1    4    4    0    0 -0.76300660423E+01  0.37150957917E+02 -0.24746693728E+01  0.38007046327E+02  0.00000000000E+00 0.  1.
</event>
<event>
 8    1  0.7048627E-009  0.1159915E+03  0.7561462E-02  0.1249860E+00
          1   -1    0    0  501    0  0.00000000000E+00  0.00000000000E+00  0.34349398593E+03  0.34349398593E+03  0.00000000000E+00 0. -1.
         -1   -1    0    0    0  501 -0.00000000000E+00 -0.00000000000E+00 -0.76057344516E+02  0.76057344516E+02  0.00000000000E+00 0.  1.
         25    2    1    2    0    0  0.93466375789E+02  0.45847337755E+02  0.64711557961E+02  0.17513863976E+03  0.12509202861E+03 0.  0.
         23    2    1    2    0    0 -0.93466375789E+02 -0.45847337755E+02  0.20272508345E+03  0.24441269068E+03  0.88329848437E+02 0.  0.
          5    1    3    3  502    0  0.51290716766E+02  0.13220598314E+02 -0.33850809967E+02  0.62998980798E+02  0.41800000000E+01 0. -1.
         -5    1    3    3    0  502  0.42175659023E+02  0.32626739441E+02  0.98562367927E+02  0.11213965896E+03  0.41800000000E+01 0. -1.
        -11    1    4    4    0    0  0.54762796307E+01 -0.23234763986E+02  0.88261379449E+02  0.91432570774E+02  0.00000000000E+00 0. -1.
         11    1    4    4    0    0 -0.98942655420E+02 -0.22612573769E+02  0.11446370400E+03  0.15298011991E+03  0.00000000000E+00 0.  1.
</event>
<event>
 8    1  0.7048627E-009  0.1874175E+03  0.7561462E-02  0.1160811E+00
         -2   -1    0    0    0  501 -0.00000000000E+00  0.00000000000E+00  0.42530573798E+02  0.42530573798E+02  0.00000000000E+00 0.  1.
          2   -1    0    0  501    0  0.00000000000E+00 -0.00000000000E+00 -0.90692882794E+03  0.90692882794E+03  0.00000000000E+00 0. -1.
         25    2    1    2    0    0 -0.97266690015E+02  0.13028721896E+03 -0.43925080598E+03  0.48479321457E+03  0.12509045499E+03 0.  0.
         23    2    1    2    0    0  0.97266690015E+02 -0.13028721896E+03 -0.42514744816E+03  0.46466618716E+03  0.93427749653E+02 0.  0.
          5    1    3    3  502    0 -0.12298461500E+03  0.12708852726E+03 -0.40220489574E+03  0.43938930329E+03  0.41800000000E+01 0.  1.
         -5    1    3    3    0  502  0.25717924987E+02  0.31986917034E+01 -0.37045910247E+02  0.45403911289E+02  0.41800000000E+01 0.  1.
        -11    1    4    4    0    0  0.27293361285E+02 -0.82631460344E+02 -0.12157936934E+03  0.14951397546E+03  0.00000000000E+00 0.  1.
         11    1    4    4    0    0  0.69973328731E+02 -0.47655758617E+02 -0.30356807882E+03  0.31515221170E+03  0.00000000000E+00 0. -1.
</event>
<event>
 8    1  0.7048627E-009  0.1284381E+03  0.7561462E-02  0.1229792E+00
         -2   -1    0    0    0  501 -0.00000000000E+00  0.00000000000E+00  0.80556731341E+02  0.80556731341E+02  0.00000000000E+00 0.  1.
          2   -1    0    0  501    0  0.00000000000E+00 -0.00000000000E+00 -0.21902710953E+03  0.21902710953E+03  0.00000000000E+00 0. -1.
         25    2    1    2    0    0 -0.65540944845E+02  0.25087380290E+02 -0.42591577504E+02  0.14962103989E+03  0.12508965186E+03 0.  0.
         23    2    1    2    0    0  0.65540944845E+02 -0.25087380290E+02 -0.95878800681E+02  0.14996280098E+03  0.91493743810E+02 0.  0.
          5    1    3    3  502    0 -0.49623567013E+02  0.74942646016E+02 -0.35119895202E+02  0.96590776133E+02  0.41800000000E+01 0.  1.
         -5    1    3    3    0  502 -0.15917377832E+02 -0.49855265726E+02 -0.74716823019E+01  0.53030263756E+02  0.41800000000E+01 0.  1.
        -11    1    4    4    0    0 -0.22795145259E+02 -0.92401283816E+00 -0.27137268993E+02  0.35452839315E+02  0.00000000000E+00 0.  1.
         11    1    4    4    0    0  0.88336090104E+02 -0.24163367452E+02 -0.68741531688E+02  0.11450996166E+03  0.00000000000E+00 0. -1.
</event>
<event>
 8    1  0.7048627E-009  0.4982789E+02  0.7561462E-02  0.1446272E+00
         -1   -1    0    0    0  501 -0.00000000000E+00  0.00000000000E+00  0.18283390170E+03  0.18283390170E+03  0.00000000000E+00 0.  1.
          1   -1    0    0  501    0  0.00000000000E+00 -0.00000000000E+00 -0.78333038684E+02  0.78333038684E+02  0.00000000000E+00 0. -1.
         25    2    1    2    0    0 -0.23552956975E+02 -0.15324763241E+02  0.10183905376E+03  0.16373384591E+03  0.12509192330E+03 0.  0.
         23    2    1    2    0    0  0.23552956975E+02  0.15324763241E+02  0.26618092541E+01  0.97433094473E+02  0.93255201031E+02 0.  0.
          5    1    3    3  502    0 -0.23999800653E+02  0.21666984232E+01  0.12892160954E+03  0.13122095420E+03  0.41800000000E+01 0.  1.
         -5    1    3    3    0  502  0.44684367866E+00 -0.17491461665E+02 -0.27082555776E+02  0.32512891717E+02  0.41800000000E+01 0.  1.
        -11    1    4    4    0    0  0.38932270262E+02  0.64804438787E+01  0.39938592423E+02  0.56149879656E+02  0.00000000000E+00 0.  1.
         11    1    4    4    0    0 -0.15379313287E+02  0.88443193626E+01 -0.37276783169E+02  0.41283214817E+02  0.00000000000E+00 0. -1.
</event>
<event>
 8    1  0.7048627E-009  0.6352781E+02  0.7561462E-02  0.1383596E+00
          2   -1    0    0  501    0  0.00000000000E+00  0.00000000000E+00  0.65089170417E+03  0.65089170417E+03  0.00000000000E+00 0. -1.
         -2   -1    0    0    0  501 -0.00000000000E+00 -0.00000000000E+00 -0.19221851509E+02  0.19221851509E+02  0.00000000000E+00 0.  1.
         25    2    1    2    0    0 -0.23578278511E+01 -0.34129183941E+01  0.44482820750E+03  0.46210027653E+03  0.12508926420E+03 0.  0.
         23    2    1    2    0    0  0.23578278511E+01  0.34129183941E+01  0.18684164515E+03  0.20801327914E+03  0.91337377735E+02 0.  0.
          5    1    3    3  502    0 -0.23068738822E+02  0.21463666763E+02  0.41971942774E+03  0.42092128257E+03  0.41800000000E+01 0.  1.
         -5    1    3    3    0  502  0.20710910971E+02 -0.24876585157E+02  0.25108779766E+02  0.41178993961E+02  0.41800000000E+01 0.  1.
        -11    1    4    4    0    0  0.31500429922E+02  0.94151019522E+01  0.17133468636E+03  0.17446058575E+03  0.00000000000E+00 0. -1.
         11    1    4    4    0    0 -0.29142602071E+02 -0.60021835581E+01  0.15506958796E+02  0.33552693395E+02  0.00000000000E+00 0.  1.
</event>
<event>
 8    1  0.7048627E-009  0.1931443E+03  0.7561462E-02  0.1155656E+00
          2   -1    0    0  501    0  0.00000000000E+00  0.00000000000E+00  0.11159141377E+04  0.11159141377E+04  0.00000000000E+00 0. -1.
         -2   -1    0    0    0  501 -0.00000000000E+00 -0.00000000000E+00 -0.65835463078E+02  0.65835463078E+02  0.00000000000E+00 0.  1.
         25    2    1    2    0    0  0.15549915164E+02  0.19236866395E+03  0.19819399484E+03  0.30360318466E+03  0.12508609599E+03 0.  0.
         23    2    1    2    0    0 -0.15549915164E+02 -0.19236866395E+03  0.85188467974E+03  0.87814641608E+03  0.90477167080E+02 0.  0.
          5    1    3    3  502    0  0.36709106020E+01  0.81125351824E+02  0.64535855774E+01  0.81571560363E+02  0.41800000000E+01 0.  1.
         -5    1    3    3    0  502  0.11879004562E+02  0.11124331213E+03  0.19174040926E+03  0.22203162429E+03  0.41800000000E+01 0.  1.
        -11    1    4    4    0    0 -0.12100530756E+02 -0.13268693422E+03  0.73372992251E+03  0.74572906913E+03  0.00000000000E+00 0. -1.
         11    1    4    4    0    0 -0.34493844076E+01 -0.59681729736E+02  0.11815475722E+03  0.13241734694E+03  0.00000000000E+00 0.  1.
</event>
<event>
 8    1  0.7048627E-009  0.1201810E+03  0.7561462E-02  0.1242799E+00
         -2   -1    0    0    0  501 -0.00000000000E+00  0.00000000000E+00  0.30451081910E+02  0.30451081910E+02  0.00000000000E+00 0.  1.
          2   -1    0    0  501    0  0.00000000000E+00 -0.00000000000E+00 -0.65869403971E+03  0.65869403971E+03  0.00000000000E+00 0. -1.
         25    2    1    2    0    0  0.45189786637E+02 -0.77935743544E+02 -0.39869894974E+03  0.42746557103E+03  0.12509942026E+03 0.  0.
         23    2    1    2    0    0 -0.45189786637E+02  0.77935743544E+02 -0.22954400806E+03  0.26167955059E+03  0.87576473017E+02 0.  0.
          5    1    3    3  502    0  0.28934832465E+02  0.13334253026E+02 -0.20655933044E+02  0.38199041918E+02  0.41800000000E+01 0. -1.
         -5    1    3    3    0  502  0.16254954172E+02 -0.91269996570E+02 -0.37804301670E+03  0.38926652911E+03  0.41800000000E+01 0. -1.
        -11    1    4    4    0    0 -0.54758380862E+02  0.22545002424E+02 -0.65639932170E+02  0.88404514049E+02  0.00000000000E+00 0.  1.
         11    1    4    4    0    0  0.95685942253E+01  0.55390741120E+02 -0.16390407589E+03  0.17327503654E+03  0.00000000000E+00 0. -1.
</event>
<event>
 8    1  0.7048627E-009  0.1134934E+03  0.7561462E-02  0.1254234E+00
          1   -1    0    0  501    0  0.00000000000E+00  0.00000000000E+00  0.15058353195E+03  0.15058353195E+03  0.00000000000E+00 0. -1.
         -1   -1    0    0    0  501 -0.00000000000E+00 -0.00000000000E+00 -0.12134991903E+03  0.12134991903E+03  0.00000000000E+00 0.  1.
         25    2    1    2    0    0 -0.71761878590E+02  0.27533008844E+02 -0.68006166621E+01  0.14697752456E+03  0.12509320742E+03 0.  0.
         23    2    1    2    0    0  0.71761878590E+02 -0.27533008844E+02  0.36034229582E+02  0.12495592642E+03  0.91693424257E+02 0.  0.
          5    1    3    3  502    0 -0.31276396713E+02  0.66608171805E+02 -0.37552448023E+02  0.82719527894E+02  0.41800000000E+01 0.  1.
         -5    1    3    3    0  502 -0.40485481877E+02 -0.39075162961E+02  0.30751831361E+02  0.64257996665E+02  0.41800000000E+01 0.  1.
        -11    1    4    4    0    0  0.25684864194E+01 -0.27547832970E+02 -0.21442933796E+02  0.35003994538E+02  0.00000000000E+00 0.  1.
         11    1    4    4    0    0  0.69193392171E+02  0.14824126698E-01  0.57477163379E+02  0.89951931885E+02  0.00000000000E+00 0. -1.
</event>
<event>
 8    1  0.7048627E-009  0.7256120E+02  0.7561462E-02  0.1351594E+00
          2   -1    0    0  501    0  0.00000000000E+00  0.00000000000E+00  0.59103414779E+03  0.59103414779E+03  0.00000000000E+00 0.  1.
         -2   -1    0    0    0  501 -0.00000000000E+00 -0.00000000000E+00 -0.24715025647E+02  0.24715025647E+02  0.00000000000E+00 0. -1.
         25    2    1    2    0    0 -0.64529407001E+01 -0.42045321328E+02  0.39547149772E+03  0.41695745678E+03  0.12508543387E+03 0.  0.
         23    2    1    2    0    0  0.64529407001E+01  0.42045321328E+02  0.17084762442E+03  0.19879171665E+03  0.92302688752E+02 0.  0.
          5    1    3    3  502    0 -0.28266584642E+02 -0.27792401116E+02  0.38727862255E+03  0.38932457058E+03  0.41800000000E+01 0. -1.
         -5    1    3    3    0  502  0.21813643942E+02 -0.14252920212E+02  0.81928751685E+01  0.27632886207E+02  0.41800000000E+01 0. -1.
        -11    1    4    4    0    0  0.35011558552E+02  0.11024748518E+02  0.14446030250E+03  0.14905077427E+03  0.00000000000E+00 0. -1.
         11    1    4    4    0    0 -0.28558617852E+02  0.31020572810E+02  0.26387321918E+02  0.49740942382E+02  0.00000000000E+00 0.  1.
</event>
<event>
 8    1  0.7048627E-009  0.1157366E+03  0.7561462E-02  0.1250301E+00
          1   -1    0    0  501    0  0.00000000000E+00  0.00000000000E+00  0.40567216253E+02  0.40567216253E+02  0.00000000000E+00 0. -1.
         -1   -1    0    0    0  501 -0.00000000000E+00 -0.00000000000E+00 -0.54162981998E+03  0.54162981998E+03  0.00000000000E+00 0.  1.
         25    2    1    2    0    0  0.79806287879E+02  0.41143920177E+02 -0.36191540323E+03  0.39330982828E+03  0.12509195088E+03 0.  0.
         23    2    1    2    0    0 -0.79806287879E+02 -0.41143920177E+02 -0.13914720050E+03  0.18888720795E+03  0.90854654085E+02 0.  0.
          5    1    3    3  502    0  0.85867035185E+02 -0.13082207268E+02 -0.29111957787E+03  0.30382951288E+03  0.41800000000E+01 0.  1.
         -5    1    3    3    0  502 -0.60607473065E+01  0.54226127445E+02 -0.70795825356E+02  0.89480315396E+02  0.41800000000E+01 0.  1.
        -11    1    4    4    0    0 -0.36209257800E+02 -0.19100410721E+02 -0.13358665236E+03  0.13971875225E+03  0.00000000000E+00 0.  1.
         11    1    4    4    0    0 -0.43597030079E+02 -0.22043509456E+02 -0.55605481360E+01  0.49168455705E+02  0.00000000000E+00 0. -1.
</event>
<event>
 8    1  0.7048627E-009  0.1184909E+03  0.7561462E-02  0.1245608E+00
          1   -1    0    0  501    0  0.00000000000E+00  0.00000000000E+00  0.30826651068E+03  0.30826651068E+03  0.00000000000E+00 0. -1.
         -1   -1    0    0    0  501 -0.00000000000E+00 -0.00000000000E+00 -0.70532500337E+02  0.70532500337E+02  0.00000000000E+00 0.  1.
         25    2    1    2    0    0  0.82974892506E+02  0.10332811639E+01  0.20260762826E+03  0.25215701986E+03  0.12508961259E+03 0.  0.
         23    2    1    2    0    0 -0.82974892506E+02 -0.10332811639E+01  0.35126382088E+02  0.12664199116E+03  0.88985564842E+02 0.  0.
          5    1    3    3  502    0  0.81903564574E+02  0.32444134721E+02  0.20203500671E+03  0.22044598455E+03  0.41800000000E+01 0. -1.
         -5    1    3    3    0  502  0.10713279318E+01 -0.31410853557E+02  0.57262154543E+00  0.31711035306E+02  0.41800000000E+01 0. -1.
        -11    1    4    4    0    0  0.13528182309E+02  0.13938130914E+02  0.19893682236E+02  0.27803629311E+02  0.00000000000E+00 0. -1.
         11    1    4    4    0    0 -0.96503074815E+02 -0.14971412078E+02  0.15232699852E+02  0.98838361850E+02  0.00000000000E+00 0.  1.
</event>
<event>
 8    1  0.7048627E-009  0.1195901E+03  0.7561462E-02  0.1243775E+00
          2   -1    0    0  501    0  0.00000000000E+00  0.00000000000E+00  0.80962709907E+03  0.80962709907E+03  0.00000000000E+00 0. -1.
         -2   -1    0    0    0  501 -0.00000000000E+00 -0.00000000000E+00 -0.30033826579E+02  0.30033826579E+02  0.00000000000E+00 0.  1.
         25    2    1    2    0    0 -0.38730259117E+02  0.54770847826E+02  0.66260794174E+03  0.67764058791E+03  0.12509038008E+03 0.  0.
         23    2    1    2    0    0  0.38730259117E+02 -0.54770847826E+02  0.11698533076E+03  0.16202033774E+03  0.89806143922E+02 0.  0.
          5    1    3    3  502    0 -0.64718909875E+02 -0.29934876205E+01  0.18994053814E+03  0.20072961588E+03  0.41800000000E+01 0. -1.
         -5    1    3    3    0  502  0.25988650759E+02  0.57764335446E+02  0.47266740360E+03  0.47691097203E+03  0.41800000000E+01 0. -1.
        -11    1    4    4    0    0  0.12679086519E+02  0.24364012079E+02  0.18963205645E+02  0.33376151484E+02  0.00000000000E+00 0.  1.
         11    1    4    4    0    0  0.26051172597E+02 -0.79134859905E+02  0.98022125111E+02  0.12864418625E+03  0.00000000000E+00 0. -1.
</event>
<event>
 8    1  0.7048627E-009  0.4132621E+03  0.7561462E-02  0.1039282E+00
         -2   -1    0    0    0  501 -0.00000000000E+00  0.00000000000E+00  0.21527048010E+03  0.21527048010E+03  0.00000000000E+00 0.  1.
          2   -1    0    0  501    0  0.00000000000E+00 -0.00000000000E+00 -0.11220507432E+04  0.11220507432E+04  0.00000000000E+00 0. -1.
         25    2    1    2    0    0  0.11177996655E+03  0.38605201411E+03 -0.81295391304E+03  0.91546312990E+03  0.12509100272E+03 0.  0.
         23    2    1    2    0    0 -0.11177996655E+03 -0.38605201411E+03 -0.93826350080E+02  0.42185809342E+03  0.87349576383E+02 0.  0.
          5    1    3    3  502    0 -0.22237128817E+02  0.46006965944E+02 -0.14854585495E+03  0.15714475568E+03  0.41800000000E+01 0.  1.
         -5    1    3    3    0  502  0.13401709537E+03  0.34004504816E+03 -0.66440805809E+03  0.75831837422E+03  0.41800000000E+01 0.  1.
        -11    1    4    4    0    0 -0.86215431515E+01 -0.17097525900E+03 -0.57382599346E+02  0.18055368427E+03  0.00000000000E+00 0. -1.
         11    1    4    4    0    0 -0.10315842340E+03 -0.21507675511E+03 -0.36443750734E+02  0.24130440915E+03  0.00000000000E+00 0.  1.
</event>
<event>
 8    1  0.7048627E-009  0.1009583E+03  0.7561462E-02  0.1278294E+00
          1   -1    0    0  501    0  0.00000000000E+00  0.00000000000E+00  0.11431293626E+03  0.11431293626E+03  0.00000000000E+00 0. -1.
         -1   -1    0    0    0  501 -0.00000000000E+00 -0.00000000000E+00 -0.12380896176E+03  0.12380896176E+03  0.00000000000E+00 0.  1.
         25    2    1    2    0    0 -0.53575298445E+01 -0.28041292575E+02 -0.46075068367E+02  0.13632264694E+03  0.12508371168E+03 0.  0.
         23    2    1    2    0    0  0.53575298445E+01  0.28041292575E+02  0.36579042862E+02  0.10179925108E+03  0.90609292725E+02 0.  0.
          5    1    3    3  502    0  0.49238511989E+02 -0.35884133160E+02  0.46819468640E+01  0.61249449809E+02  0.41800000000E+01 0.  1.
         -5    1    3    3    0  502 -0.54596041833E+02  0.78428405844E+01 -0.50757015231E+02  0.75073197131E+02  0.41800000000E+01 0.  1.
        -11    1    4    4    0    0 -0.32415072054E+02 -0.79304792589E+01 -0.66814922910E+01  0.34033391497E+02  0.00000000000E+00 0.  1.
         11    1    4    4    0    0  0.37772601899E+02  0.35971771834E+02  0.43260535153E+02  0.67765859581E+02  0.00000000000E+00 0. -1.
</event>
<event>
 8    1  0.7048627E-009  0.1127780E+03  0.7561462E-02  0.1255510E+00
          3   -1    0    0  501    0  0.00000000000E+00  0.00000000000E+00  0.24715799272E+03  0.24715799272E+03  0.00000000000E+00 0. -1.
         -3   -1    0    0    0  501 -0.00000000000E+00 -0.00000000000E+00 -0.76523915298E+02  0.76523915298E+02  0.00000000000E+00 0.  1.
         25    2    1    2    0    0  0.43756276928E+01  0.82592939734E+02  0.10850702208E+03  0.18509942663E+03  0.12508910459E+03 0.  0.
         23    2    1    2    0    0 -0.43756276928E+01 -0.82592939734E+02  0.62127055343E+02  0.13858248139E+03  0.92220352045E+02 0.  0.
          5    1    3    3  502    0  0.37653729092E+02  0.77493906836E+02  0.17555881132E+02  0.88027213256E+02  0.41800000000E+01 0.  1.
         -5    1    3    3    0  502 -0.33278101399E+02  0.50990328983E+01  0.90951140951E+02  0.97072213375E+02  0.41800000000E+01 0.  1.
        -11    1    4    4    0    0  0.29845927009E+02 -0.27902379653E+02 -0.97436786872E+01  0.42003112071E+02  0.00000000000E+00 0.  1.
         11    1    4    4    0    0 -0.34221554702E+02 -0.54690560081E+02  0.71870734030E+02  0.96579369320E+02  0.00000000000E+00 0. -1.
</event>
<event>
 8    1  0.7048627E-009  0.8608886E+02  0.7561462E-02  0.1312609E+00
          1   -1    0    0  501    0  0.00000000000E+00  0.00000000000E+00  0.82011451816E+02  0.82011451816E+02  0.00000000000E+00 0. -1.
         -1   -1    0    0    0  501 -0.00000000000E+00 -0.00000000000E+00 -0.18362397842E+03  0.18362397842E+03  0.00000000000E+00 0.  1.
         25    2    1    2    0    0  0.23197690637E+02  0.46494568597E+02 -0.96740596820E+02  0.16645594373E+03  0.12509580476E+03 0.  0.
         23    2    1    2    0    0 -0.23197690637E+02 -0.46494568597E+02 -0.48719297812E+01  0.99179486505E+02  0.84338348833E+02 0.  0.
          5    1    3    3  502    0  0.12198854348E+02  0.69234619221E+02 -0.43236807984E+01  0.70557856839E+02  0.41800000000E+01 0.  1.
         -5    1    3    3    0  502  0.10998836289E+02 -0.22740050624E+02 -0.92416916022E+02  0.95898086889E+02  0.41800000000E+01 0.  1.
        -11    1    4    4    0    0  0.15304854586E+02 -0.31139111299E+02  0.29335132110E+02  0.45436029781E+02  0.00000000000E+00 0. -1.
         11    1    4    4    0    0 -0.38502545223E+02 -0.15355457298E+02 -0.34207061891E+02  0.53743456724E+02  0.00000000000E+00 0.  1.
</event>
<event>
 8    1  0.7048627E-009  0.1047193E+03  0.7561462E-02  0.1270674E+00
         -2   -1    0    0    0  501 -0.00000000000E+00  0.00000000000E+00  0.14516024966E+03  0.14516024966E+03  0.00000000000E+00 0.  1.
          2   -1    0    0  501    0  0.00000000000E+00 -0.00000000000E+00 -0.11098377066E+03  0.11098377066E+03  0.00000000000E+00 0. -1.
         25    2    1    2    0    0 -0.42658301266E+02 -0.48512729222E+02  0.35210245275E+02  0.14511947722E+03  0.12508671286E+03 0.  0.
         23    2    1    2    0    0  0.42658301266E+02  0.48512729222E+02 -0.10337662730E+01  0.11102454309E+03  0.90289340087E+02 0.  0.
          5    1    3    3  502    0 -0.27219691241E+02 -0.72393052733E+02  0.66893447467E+02  0.10234193368E+03  0.41800000000E+01 0.  1.
         -5    1    3    3    0  502 -0.15438610025E+02  0.23880323511E+02 -0.31683202192E+02  0.42777543544E+02  0.41800000000E+01 0.  1.
        -11    1    4    4    0    0 -0.23314242804E+02  0.39925011187E+01  0.17356468488E+02  0.29338387500E+02  0.00000000000E+00 0.  1.
         11    1    4    4    0    0  0.65972544069E+02  0.44520228103E+02 -0.18390234761E+02  0.81686155595E+02  0.00000000000E+00 0. -1.
</event>
<event>
 8    1  0.7048627E-009  0.8975867E+02  0.7561462E-02  0.1303437E+00
          2   -1    0    0  501    0  0.00000000000E+00  0.00000000000E+00  0.13502669000E+03  0.13502669000E+03  0.00000000000E+00 0. -1.
         -2   -1    0    0    0  501 -0.00000000000E+00 -0.00000000000E+00 -0.97264995770E+02  0.97264995770E+02  0.00000000000E+00 0.  1.
         25    2    1    2    0    0 -0.24176493510E+01  0.35870856333E+02  0.12412783067E+02  0.13074426785E+03  0.12508965997E+03 0.  0.
         23    2    1    2    0    0  0.24176493510E+01 -0.35870856333E+02  0.25348911160E+02  0.10154741791E+03  0.91524572794E+02 0.  0.
          5    1    3    3  502    0 -0.13763612487E+02 -0.38643006213E+02 -0.23161713848E+02  0.47293301283E+02  0.41800000000E+01 0. -1.
         -5    1    3    3    0  502  0.11345963136E+02  0.74513862546E+02  0.35574496915E+02  0.83450966572E+02  0.41800000000E+01 0. -1.
        -11    1    4    4    0    0 -0.24301104331E+02 -0.21554355108E+02  0.51915830367E+02  0.61240406093E+02  0.00000000000E+00 0. -1.
         11    1    4    4    0    0  0.26718753682E+02 -0.14316501225E+02 -0.26566919207E+02  0.40307011819E+02  0.00000000000E+00 0.  1.
</event>
<event>
 8    1  0.7048627E-009  0.1667696E+03  0.7561462E-02  0.1181259E+00
         -1   -1    0    0    0  501 -0.00000000000E+00  0.00000000000E+00  0.82051298424E+02  0.82051298424E+02  0.00000000000E+00 0.  1.
          1   -1    0    0  501    0  0.00000000000E+00 -0.00000000000E+00 -0.44446121002E+03  0.44446121002E+03  0.00000000000E+00 0. -1.
         25    2    1    2    0    0 -0.11715907065E+03  0.85720136452E+02 -0.27117950019E+03  0.33205763099E+03  0.12509899817E+03 0.  0.
         23    2    1    2    0    0  0.11715907065E+03 -0.85720136452E+02 -0.91230411404E+02  0.19445487746E+03  0.91736153039E+02 0.  0.
          5    1    3    3  502    0 -0.12216558164E+02 -0.13435898422E+02  0.59377780934E+01  0.19557537383E+02  0.41800000000E+01 0. -1.
         -5    1    3    3    0  502 -0.10494251248E+03  0.99156034874E+02 -0.27711727829E+03  0.31250009360E+03  0.41800000000E+01 0. -1.
        -11    1    4    4    0    0  0.13212392199E+03 -0.73823789090E+02 -0.72984871326E+02  0.16802819418E+03  0.00000000000E+00 0.  1.
         11    1    4    4    0    0 -0.14964851343E+02 -0.11896347362E+02 -0.18245540078E+02  0.26426683277E+02  0.00000000000E+00 0. -1.
</event>
<event>
 8    1  0.7048627E-009  0.1056449E+03  0.7561462E-02  0.1268854E+00
          2   -1    0    0  501    0  0.00000000000E+00  0.00000000000E+00  0.34183292972E+03  0.34183292972E+03  0.00000000000E+00 0. -1.
         -2   -1    0    0    0  501 -0.00000000000E+00 -0.00000000000E+00 -0.61726030873E+02  0.61726030873E+02  0.00000000000E+00 0.  1.
         25    2    1    2    0    0 -0.73565681218E+01 -0.84428907213E+02  0.89422091657E+02  0.17558179503E+03  0.12510114628E+03 0.  0.
         23    2    1    2    0    0  0.73565681218E+01  0.84428907213E+02  0.19068480719E+03  0.22797716557E+03  0.91817933210E+02 0.  0.
          5    1    3    3  502    0 -0.33543746451E+02 -0.13766620502E+02  0.93119201149E+02  0.10001680253E+03  0.41800000000E+01 0.  1.
         -5    1    3    3    0  502  0.26187178329E+02 -0.70662286711E+02 -0.36971094916E+01  0.75564992494E+02  0.41800000000E+01 0.  1.
        -11    1    4    4    0    0  0.27735215187E+02  0.28399268086E+02  0.15154376370E+03  0.15665654441E+03  0.00000000000E+00 0. -1.
         11    1    4    4    0    0 -0.20378647066E+02  0.56029639127E+02  0.39141043488E+02  0.71320621157E+02  0.00000000000E+00 0.  1.
</event>
<event>
 8    1  0.7048627E-009  0.1317360E+03  0.7561462E-02  0.1224902E+00
         -1   -1    0    0    0  501 -0.00000000000E+00  0.00000000000E+00  0.15190246869E+04  0.15190246869E+04  0.00000000000E+00 0.  1.
          1   -1    0    0  501    0  0.00000000000E+00 -0.00000000000E+00 -0.14075149316E+02  0.14075149316E+02  0.00000000000E+00 0. -1.
         25    2    1    2    0    0 -0.59676841366E+02  0.69215866071E+02  0.10061357692E+04  0.10179934009E+04  0.12509682919E+03 0.  0.
         23    2    1    2    0    0  0.59676841366E+02 -0.69215866071E+02  0.49881376835E+03  0.51510643530E+03  0.90373130282E+02 0.  0.
          5    1    3    3  502    0 -0.85284902113E+02  0.32550951481E+02  0.40497720892E+03  0.41515911542E+03  0.41800000000E+01 0.  1.
         -5    1    3    3    0  502  0.25608060747E+02  0.36664914590E+02  0.60115856030E+03  0.60283428549E+03  0.41800000000E+01 0.  1.
        -11    1    4    4    0    0 -0.21872794312E+02 -0.29017627554E+01  0.61493975990E+02  0.65332598610E+02  0.00000000000E+00 0. -1.
         11    1    4    4    0    0  0.81549635677E+02 -0.66314103315E+02  0.43731979236E+03  0.44977383669E+03  0.00000000000E+00 0.  1.
</event>
<event>
 8    1  0.7048627E-009  0.2885592E+03  0.7561462E-02  0.1091104E+00
          2   -1    0    0  501    0  0.00000000000E+00  0.00000000000E+00  0.14922333409E+04  0.14922333409E+04  0.00000000000E+00 0. -1.
         -2   -1    0    0    0  501 -0.00000000000E+00 -0.00000000000E+00 -0.61436827240E+02  0.61436827240E+02  0.00000000000E+00 0.  1.
         25    2    1    2    0    0 -0.16304952096E+03  0.22383541417E+03  0.87150103460E+03  0.92295670637E+03  0.12509032582E+03 0.  0.
         23    2    1    2    0    0  0.16304952096E+03 -0.22383541417E+03  0.55929547904E+03  0.63071346174E+03  0.91107623309E+02 0.  0.
          5    1    3    3  502    0 -0.66470153559E+02  0.16957741257E+02  0.12940990792E+03  0.14652727722E+03  0.41800000000E+01 0. -1.
         -5    1    3    3    0  502 -0.96579367403E+02  0.20687767292E+03  0.74209112668E+03  0.77642942915E+03  0.41800000000E+01 0. -1.
        -11    1    4    4    0    0  0.96362125187E+02 -0.96909954864E+02  0.36108024499E+03  0.38607789608E+03  0.00000000000E+00 0.  1.
         11    1    4    4    0    0  0.66687395775E+02 -0.12692545931E+03  0.19821523405E+03  0.24463556566E+03  0.00000000000E+00 0. -1.
</event>
<event>
 8    1  0.7048627E-009  0.1042429E+03  0.7561462E-02  0.1271618E+00
          2   -1    0    0  501    0  0.00000000000E+00  0.00000000000E+00  0.13005782718E+03  0.13005782718E+03  0.00000000000E+00 0. -1.
         -2   -1    0    0    0  501 -0.00000000000E+00 -0.00000000000E+00 -0.20802329983E+03  0.20802329983E+03  0.00000000000E+00 0.  1.
         25    2    1    2    0    0  0.23335605231E+02 -0.63905289807E+01  0.82680587902E+02  0.15188526131E+03  0.12509062177E+03 0.  0.
         23    2    1    2    0    0 -0.23335605231E+02  0.63905289807E+01 -0.16064606055E+03  0.18619586570E+03  0.90974470603E+02 0.  0.
          5    1    3    3  502    0  0.64429334104E+02  0.20574867197E+02  0.76458768836E+02  0.10216594337E+03  0.41800000000E+01 0.  1.
         -5    1    3    3    0  502 -0.41093728872E+02 -0.26965396177E+02  0.62218190664E+01  0.49719317937E+02  0.41800000000E+01 0.  1.
        -11    1    4    4    0    0  0.30506590998E+02  0.19203759638E+02 -0.86174054790E+02  0.93409872056E+02  0.00000000000E+00 0.  1.
         11    1    4    4    0    0 -0.53842196229E+02 -0.12813230657E+02 -0.74472005757E+02  0.92785993642E+02  0.00000000000E+00 0. -1.
</event>
<event>
 8    1  0.7048627E-009  0.1039935E+03  0.7561462E-02  0.1272115E+00
         -2   -1    0    0    0  501 -0.00000000000E+00  0.00000000000E+00  0.21281605623E+02  0.21281605623E+02  0.00000000000E+00 0.  1.
          2   -1    0    0  501    0  0.00000000000E+00 -0.00000000000E+00 -0.66407236284E+03  0.66407236284E+03  0.00000000000E+00 0. -1.
         25    2    1    2    0    0 -0.45451951262E+02  0.57200763124E+01 -0.41257388798E+03  0.43354685248E+03  0.12508821327E+03 0.  0.
         23    2    1    2    0    0  0.45451951262E+02 -0.57200763124E+01 -0.23021686924E+03  0.25180711599E+03  0.91150521859E+02 0.  0.
          5    1    3    3  502    0  0.28583469974E+02  0.21645888045E+02 -0.26672267079E+03  0.26915425826E+03  0.41800000000E+01 0. -1.
         -5    1    3    3    0  502 -0.74035421236E+02 -0.15925811733E+02 -0.14585121719E+03  0.16439259421E+03  0.41800000000E+01 0. -1.
        -11    1    4    4    0    0  0.28149558632E+02  0.38998175997E+02 -0.72828003327E+02  0.87276419788E+02  0.00000000000E+00 0. -1.
         11    1    4    4    0    0  0.17302392630E+02 -0.44718252310E+02 -0.15738886591E+03  0.16453069620E+03  0.00000000000E+00 0.  1.
</event>
<event>
 8    1  0.7048627E-009  0.1145288E+03  0.7561462E-02  0.1252406E+00
          2   -1    0    0  501    0  0.00000000000E+00  0.00000000000E+00  0.49036723922E+02  0.49036723922E+02  0.00000000000E+00 0.  1.
         -2   -1    0    0    0  501 -0.00000000000E+00 -0.00000000000E+00 -0.33944506852E+03  0.33944506852E+03  0.00000000000E+00 0. -1.
         25    2    1    2    0    0 -0.53032009351E+02  0.40611732386E+02 -0.13426193935E+03  0.19528212619E+03  0.12508850318E+03 0.  0.
         23    2    1    2    0    0  0.53032009351E+02 -0.40611732386E+02 -0.15614640524E+03  0.19319966625E+03  0.92101597949E+02 0.  0.
          5    1    3    3  502    0 -0.54983827326E+02  0.81626958997E+02 -0.10888062607E+03  0.14682862403E+03  0.41800000000E+01 0.  1.
         -5    1    3    3    0  502  0.19518179745E+01 -0.41015226611E+02 -0.25381313284E+02  0.48453502158E+02  0.41800000000E+01 0.  1.
        -11    1    4    4    0    0  0.18822918428E+01 -0.38014501796E+02 -0.11510156868E+02  0.39763413844E+02  0.00000000000E+00 0.  1.
         11    1    4    4    0    0  0.51149717509E+02 -0.25972305900E+01 -0.14463624838E+03  0.15343625240E+03  0.00000000000E+00 0. -1.
</event>
<event>
 8    1  0.7048627E-009  0.1123717E+03  0.7561462E-02  0.1256240E+00
         -2   -1    0    0    0  501 -0.00000000000E+00  0.00000000000E+00  0.18980353242E+03  0.18980353242E+03  0.00000000000E+00 0. -1.
          2   -1    0    0  501    0  0.00000000000E+00 -0.00000000000E+00 -0.81609797683E+02  0.81609797683E+02  0.00000000000E+00 0.  1.
         25    2    1    2    0    0 -0.41248810750E+00 -0.57082045662E+02  0.35265263193E+02  0.14194374562E+03  0.12508340438E+03 0.  0.
         23    2    1    2    0    0  0.41248810750E+00  0.57082045662E+02  0.72928471545E+02  0.12946958448E+03  0.90472544234E+02 0.  0.
          5    1    3    3  502    0  0.31270396586E+01  0.30375089514E+02 -0.21461561508E+02  0.37556563505E+02  0.41800000000E+01 0.  1.
         -5    1    3    3    0  502 -0.35395277661E+01 -0.87457135176E+02  0.56726824701E+02  0.10438718212E+03  0.41800000000E+01 0.  1.
        -11    1    4    4    0    0 -0.30992008505E+02 -0.97186108853E+01  0.15737029077E+02  0.36091689804E+02  0.00000000000E+00 0.  1.
         11    1    4    4    0    0  0.31404496612E+02  0.66800656548E+02  0.57191442468E+02  0.93377894677E+02  0.00000000000E+00 0. -1.
</event>
<event>
 8    1  0.7048627E-009  0.8903563E+02  0.7561462E-02  0.1305204E+00
         -1   -1    0    0    0  501 -0.00000000000E+00  0.00000000000E+00  0.32322933109E+02  0.32322933109E+02  0.00000000000E+00 0.  1.
          1   -1    0    0  501    0  0.00000000000E+00 -0.00000000000E+00 -0.52663181726E+03  0.52663181726E+03  0.00000000000E+00 0. -1.
         25    2    1    2    0    0  0.12134182963E+02 -0.48560582757E+02 -0.35657571938E+03  0.38118054551E+03  0.12508795316E+03 0.  0.
         23    2    1    2    0    0 -0.12134182963E+02  0.48560582757E+02 -0.13773316477E+03  0.17777420486E+03  0.10063734219E+03 0.  0.
          5    1    3    3  502    0  0.43864363346E+01  0.22734403099E+02 -0.73593903649E+01  0.24652118256E+02  0.41800000000E+01 0.  1.
         -5    1    3    3    0  502  0.77477466283E+01 -0.71294985855E+02 -0.34921632902E+03  0.35652842725E+03  0.41800000000E+01 0.  1.
        -11    1    4    4    0    0  0.18450936454E+02  0.48746032604E+02 -0.19500746555E+02  0.55649724769E+02  0.00000000000E+00 0.  1.
         11    1    4    4    0    0 -0.30585119417E+02 -0.18544984699E+00 -0.11823241821E+03  0.12212448009E+03  0.00000000000E+00 0. -1.
</event>
<event>
 8    1  0.7048627E-009  0.9101682E+02  0.7561462E-02  0.1300408E+00
          1   -1    0    0  501    0  0.00000000000E+00  0.00000000000E+00  0.86302132951E+02  0.86302132951E+02  0.00000000000E+00 0. -1.
         -1   -1    0    0    0  501 -0.00000000000E+00 -0.00000000000E+00 -0.14363195127E+03  0.14363195127E+03  0.00000000000E+00 0.  1.
         25    2    1    2    0    0  0.13753451161E+02  0.15297730994E+02 -0.52384318744E+02  0.13716740973E+03  0.12509038112E+03 0.  0.
         23    2    1    2    0    0 -0.13753451161E+02 -0.15297730994E+02 -0.49454995736E+01  0.92766674492E+02  0.90321757832E+02 0.  0.
          5    1    3    3  502    0  0.10810560842E+02 -0.52509996584E+02 -0.44241957205E+01  0.53955665826E+02  0.41800000000E+01 0. -1.
         -5    1    3    3    0  502  0.29428903185E+01  0.67807727577E+02 -0.47960123024E+02  0.83211743901E+02  0.41800000000E+01 0. -1.
        -11    1    4    4    0    0  0.10466167310E+02  0.16955229864E+02  0.32244212672E+02  0.37903953999E+02  0.00000000000E+00 0. -1.
         11    1    4    4    0    0 -0.24219618471E+02 -0.32252960857E+02 -0.37189712246E+02  0.54862720493E+02  0.00000000000E+00 0.  1.
</event>
<event>
 8    1  0.7048627E-009  0.7566030E+02  0.7561462E-02  0.1341838E+00
         -1   -1    0    0    0  501 -0.00000000000E+00  0.00000000000E+00  0.45349196775E+02  0.45349196775E+02  0.00000000000E+00 0. -1.
          1   -1    0    0  501    0  0.00000000000E+00 -0.00000000000E+00 -0.39945829660E+03  0.39945829660E+03  0.00000000000E+00 0.  1.
         25    2    1    2    0    0 -0.71723251031E+02 -0.28203204912E+01 -0.25429669369E+03  0.29234207939E+03  0.12507959072E+03 0.  0.
         23    2    1    2    0    0  0.71723251031E+02  0.28203204912E+01 -0.99812406134E+02  0.15246541398E+03  0.90172097110E+02 0.  0.
          5    1    3    3  502    0 -0.14445284639E+02 -0.14512064571E+02 -0.22652480427E+03  0.22748675921E+03  0.41800000000E+01 0. -1.
         -5    1    3    3    0  502 -0.57277966392E+02  0.11691744080E+02 -0.27771889420E+02  0.64855320179E+02  0.41800000000E+01 0. -1.
        -11    1    4    4    0    0  0.37840829915E+02  0.26130061040E+01  0.85896399443E+01  0.38891363102E+02  0.00000000000E+00 0. -1.
         11    1    4    4    0    0  0.33882421115E+02  0.20731438727E+00 -0.10840204608E+03  0.11357405088E+03  0.00000000000E+00 0.  1.
</event>
<event>
 8    1  0.7048627E-009  0.1749614E+03  0.7561462E-02  0.1172770E+00
          3   -1    0    0  501    0  0.00000000000E+00  0.00000000000E+00  0.69765057424E+02  0.69765057424E+02  0.00000000000E+00 0. -1.
         -3   -1    0    0    0  501 -0.00000000000E+00 -0.00000000000E+00 -0.53903602974E+03  0.53903602974E+03  0.00000000000E+00 0.  1.
         25    2    1    2    0    0  0.14516181471E+03  0.10236807077E+02 -0.14268940802E+03  0.23913300762E+03  0.12509030139E+03 0.  0.
         23    2    1    2    0    0 -0.14516181471E+03 -0.10236807077E+02 -0.32658156430E+03  0.36966807955E+03  0.93926706694E+02 0.  0.
          5    1    3    3  502    0 -0.20897307725E+02  0.14191033969E+02 -0.16082372126E+02  0.30235707507E+02  0.41800000000E+01 0.  1.
         -5    1    3    3    0  502  0.16605912244E+03 -0.39542268923E+01 -0.12660703590E+03  0.20889730011E+03  0.41800000000E+01 0.  1.
        -11    1    4    4    0    0 -0.12154222707E+03 -0.32382851835E+02 -0.30714929234E+03  0.33190638716E+03  0.00000000000E+00 0.  1.
         11    1    4    4    0    0 -0.23619587639E+02  0.22146044758E+02 -0.19432271960E+02  0.37761692390E+02  0.00000000000E+00 0. -1.
</event>
<event>
 8    1  0.7048627E-009  0.1275792E+03  0.7561462E-02  0.1231093E+00
         -1   -1    0    0    0  501 -0.00000000000E+00  0.00000000000E+00  0.24180012020E+02  0.24180012020E+02  0.00000000000E+00 0.  1.
          1   -1    0    0  501    0  0.00000000000E+00 -0.00000000000E+00 -0.84034542236E+03  0.84034542236E+03  0.00000000000E+00 0. -1.
         25    2    1    2    0    0  0.70839719943E+02 -0.54145054605E+02 -0.52866818772E+03  0.55053450292E+03  0.12509289884E+03 0.  0.
         23    2    1    2    0    0 -0.70839719943E+02  0.54145054605E+02 -0.28749722261E+03  0.31399093145E+03  0.89362739240E+02 0.  0.
          5    1    3    3  502    0  0.92795724375E+01  0.39606558386E+02 -0.16141522916E+03  0.16651467964E+03  0.41800000000E+01 0. -1.
         -5    1    3    3    0  502  0.61560147505E+02 -0.93751612990E+02 -0.36725295856E+03  0.38401982328E+03  0.41800000000E+01 0. -1.
        -11    1    4    4    0    0 -0.14076705791E+02  0.41574321064E+02 -0.38783522109E+02  0.58572514075E+02  0.00000000000E+00 0.  1.
         11    1    4    4    0    0 -0.56763014152E+02  0.12570733541E+02 -0.24871370050E+03  0.25541841738E+03  0.00000000000E+00 0. -1.
</event>
<event>
 8    1  0.7048627E-009  0.1565505E+03  0.7561462E-02  0.1192647E+00
          2   -1    0    0  501    0  0.00000000000E+00  0.00000000000E+00  0.45843368000E+03  0.45843368000E+03  0.00000000000E+00 0. -1.
         -2   -1    0    0    0  501 -0.00000000000E+00 -0.00000000000E+00 -0.10149638164E+03  0.10149638164E+03  0.00000000000E+00 0.  1.
         25    2    1    2    0    0  0.13068158631E+03  0.41684849949E+02  0.34786288657E+03  0.39429936255E+03  0.12509234883E+03 0.  0.
         23    2    1    2    0    0 -0.13068158631E+03 -0.41684849949E+02  0.90744117945E+01  0.16563069909E+03  0.92389825285E+02 0.  0.
          5    1    3    3  502    0  0.62759770587E+02  0.59896498497E+02  0.82668249749E+02  0.11990784483E+03  0.41800000000E+01 0.  1.
         -5    1    3    3    0  502  0.67921815721E+02 -0.18211648548E+02  0.26519463682E+03  0.27439151771E+03  0.41800000000E+01 0.  1.
        -11    1    4    4    0    0 -0.31518065594E+02 -0.46892495051E+02 -0.23401357050E+02  0.61154869493E+02  0.00000000000E+00 0.  1.
         11    1    4    4    0    0 -0.99163520714E+02  0.52076451022E+01  0.32475768844E+02  0.10447582960E+03  0.00000000000E+00 0. -1.
</event>
<event>
 8    1  0.7048627E-009  0.6944332E+02  0.7561462E-02  0.1361996E+00
          2   -1    0    0  501    0  0.00000000000E+00  0.00000000000E+00  0.28605047113E+02  0.28605047113E+02  0.00000000000E+00 0.  1.
         -2   -1    0    0    0  501 -0.00000000000E+00 -0.00000000000E+00 -0.44738018561E+03  0.44738018561E+03  0.00000000000E+00 0. -1.
         25    2    1    2    0    0  0.43645202930E+02  0.48855186124E+01 -0.26669832628E+03  0.29783441132E+03  0.12509423367E+03 0.  0.
         23    2    1    2    0    0 -0.43645202930E+02 -0.48855186124E+01 -0.15207681222E+03  0.17815082140E+03  0.81740970881E+02 0.  0.
          5    1    3    3  502    0  0.25667052754E+02 -0.12283906647E+02  0.11683350891E+01  0.28784186049E+02  0.41800000000E+01 0.  1.
         -5    1    3    3    0  502  0.17978150176E+02  0.17169425259E+02 -0.26786666137E+03  0.26905022528E+03  0.41800000000E+01 0.  1.
        -11    1    4    4    0    0 -0.30000227634E+02  0.33030552557E+02 -0.11515212939E+03  0.12349511716E+03  0.00000000000E+00 0. -1.
         11    1    4    4    0    0 -0.13644975296E+02 -0.37916071170E+02 -0.36924682832E+02  0.54655704240E+02  0.00000000000E+00 0.  1.
</event>
<event>
 8    1  0.7048627E-009  0.8433042E+02  0.7561462E-02  0.1317193E+00
         -2   -1    0    0    0  501 -0.00000000000E+00  0.00000000000E+00  0.15325343499E+03  0.15325343499E+03  0.00000000000E+00 0.  1.
          2   -1    0    0  501    0  0.00000000000E+00 -0.00000000000E+00 -0.97392883021E+02  0.97392883021E+02  0.00000000000E+00 0. -1.
         25    2    1    2    0    0  0.79123232640E+01  0.52829773490E+02  0.46033471264E+02  0.14359126374E+03  0.12508309526E+03 0.  0.
         23    2    1    2    0    0 -0.79123232640E+01 -0.52829773490E+02  0.98270807070E+01  0.10705505427E+03  0.92253039539E+02 0.  0.
          5    1    3    3  502    0 -0.13231140045E+02 -0.74065523305E+01  0.72625162502E+02  0.74308860257E+02  0.41800000000E+01 0.  1.
         -5    1    3    3    0  502  0.21143463309E+02  0.60236325821E+02 -0.26591691238E+02  0.69282403480E+02  0.41800000000E+01 0.  1.
        -11    1    4    4    0    0  0.16493892150E+02 -0.61021876748E+02 -0.21260758464E+02  0.66691362039E+02  0.00000000000E+00 0.  1.
         11    1    4    4    0    0 -0.24406215414E+02  0.81921032578E+01  0.31087839171E+02  0.40363692236E+02  0.00000000000E+00 0. -1.
</event>
<event>
 8    1  0.7048627E-009  0.1389781E+03  0.7561462E-02  0.1214711E+00
          2   -1    0    0  501    0  0.00000000000E+00  0.00000000000E+00  0.10684115546E+03  0.10684115546E+03  0.00000000000E+00 0.  1.
         -2   -1    0    0    0  501 -0.00000000000E+00 -0.00000000000E+00 -0.27751724163E+03  0.27751724163E+03  0.00000000000E+00 0. -1.
         25    2    1    2    0    0  0.79872593276E+02 -0.48649409815E+02 -0.19397555168E+03  0.24903877383E+03  0.12508956788E+03 0.  0.
         23    2    1    2    0    0 -0.79872593276E+02  0.48649409815E+02  0.23299465508E+02  0.13531962326E+03  0.94984941517E+02 0.  0.
          5    1    3    3  502    0  0.94265530691E+02 -0.71197855179E+02 -0.18674983972E+03  0.22101606253E+03  0.41800000000E+01 0.  1.
         -5    1    3    3    0  502 -0.14392937416E+02  0.22548445365E+02 -0.72257119533E+01  0.28022711308E+02  0.41800000000E+01 0.  1.
        -11    1    4    4    0    0 -0.62624127731E+02  0.77146432849E+02  0.11718498816E+02  0.10005336921E+03  0.00000000000E+00 0.  1.
         11    1    4    4    0    0 -0.17248465545E+02 -0.28497023034E+02  0.11580966692E+02  0.35266254054E+02  0.00000000000E+00 0. -1.
</event>
<event>
 8    1  0.7048627E-009  0.9457015E+02  0.7561462E-02  0.1292147E+00
          1   -1    0    0  501    0  0.00000000000E+00  0.00000000000E+00  0.21175889569E+03  0.21175889569E+03  0.00000000000E+00 0.  1.
         -1   -1    0    0    0  501 -0.00000000000E+00 -0.00000000000E+00 -0.76393525137E+02  0.76393525137E+02  0.00000000000E+00 0. -1.
         25    2    1    2    0    0  0.16322747190E+02 -0.41552829536E+02  0.19283315634E+02  0.13421051393E+03  0.12509015176E+03 0.  0.
         23    2    1    2    0    0 -0.16322747190E+02  0.41552829536E+02  0.11608205492E+03  0.15394190690E+03  0.90719333706E+02 0.  0.
          5    1    3    3  502    0 -0.32490514690E+02  0.28572790756E+02 -0.84517389762E+01  0.44282527120E+02  0.41800000000E+01 0. -1.
         -5    1    3    3    0  502  0.48813261880E+02 -0.70125620292E+02  0.27735054610E+02  0.89927986806E+02  0.41800000000E+01 0. -1.
        -11    1    4    4    0    0 -0.29422859951E+02  0.34163622336E+02  0.12738435620E+03  0.13512820573E+03  0.00000000000E+00 0.  1.
         11    1    4    4    0    0  0.13100112761E+02  0.73892071995E+01 -0.11302301285E+02  0.18813701170E+02  0.00000000000E+00 0. -1.
</event>
<event>
 8    1  0.7048627E-009  0.1520270E+03  0.7561462E-02  0.1198004E+00
          2   -1    0    0  501    0  0.00000000000E+00  0.00000000000E+00  0.57183809412E+02  0.57183809412E+02  0.00000000000E+00 0. -1.
         -2   -1    0    0    0  501 -0.00000000000E+00 -0.00000000000E+00 -0.53164875010E+03  0.53164875010E+03  0.00000000000E+00 0.  1.
         25    2    1    2    0    0 -0.12294132444E+03 -0.43804580127E+02 -0.31812399928E+03  0.36590140405E+03  0.12509015979E+03 0.  0.
         23    2    1    2    0    0  0.12294132444E+03  0.43804580127E+02 -0.15634094141E+03  0.22293115546E+03  0.90677448242E+02 0.  0.
          5    1    3    3  502    0 -0.48753835581E+02  0.15463680090E+02 -0.23210073387E+03  0.23770629976E+03  0.41800000000E+01 0. -1.
         -5    1    3    3    0  502 -0.74187488854E+02 -0.59268260218E+02 -0.86023265411E+02  0.12819510429E+03  0.41800000000E+01 0. -1.
        -11    1    4    4    0    0  0.96270900852E+02 -0.10843702248E+02 -0.10926633896E+03  0.14603015120E+03  0.00000000000E+00 0.  1.
         11    1    4    4    0    0  0.26670423583E+02  0.54648282375E+02 -0.47074602452E+02  0.76901004262E+02  0.00000000000E+00 0. -1.
</event>
<event>
 8    1  0.7048627E-009  0.1370193E+03  0.7561462E-02  0.1217397E+00
          2   -1    0    0  501    0  0.00000000000E+00  0.00000000000E+00  0.13542996285E+04  0.13542996285E+04  0.00000000000E+00 0. -1.
         -2   -1    0    0    0  501 -0.00000000000E+00 -0.00000000000E+00 -0.20148634992E+02  0.20148634992E+02  0.00000000000E+00 0.  1.
         25    2    1    2    0    0 -0.20496507749E+02  0.11916009078E+03  0.64640295703E+03  0.66940518623E+03  0.12508911398E+03 0.  0.
         23    2    1    2    0    0  0.20496507749E+02 -0.11916009078E+03  0.68774803647E+03  0.70504307725E+03  0.97309532140E+02 0.  0.
          5    1    3    3  502    0 -0.12695400928E+02  0.89074695155E+02  0.62495411580E+03  0.63141158825E+03  0.41800000000E+01 0. -1.
         -5    1    3    3    0  502 -0.78011068210E+01  0.30085395622E+02  0.21448841222E+02  0.37993597976E+02  0.41800000000E+01 0. -1.
        -11    1    4    4    0    0  0.55722687547E+02 -0.49444955190E+02  0.40021484650E+03  0.40708935734E+03  0.00000000000E+00 0. -1.
         11    1    4    4    0    0 -0.35226179798E+02 -0.69715135587E+02  0.28753318998E+03  0.29795371991E+03  0.00000000000E+00 0.  1.
</event>
<event>
 8    1  0.7048627E-009  0.1958328E+03  0.7561462E-02  0.1153303E+00
          2   -1    0    0  501    0  0.00000000000E+00  0.00000000000E+00  0.94608435741E+03  0.94608435741E+03  0.00000000000E+00 0. -1.
         -2   -1    0    0    0  501 -0.00000000000E+00 -0.00000000000E+00 -0.51523495896E+02  0.51523495896E+02  0.00000000000E+00 0.  1.
         25    2    1    2    0    0 -0.11764687436E+03  0.11352667623E+03  0.68679797736E+03  0.71698569274E+03  0.12509168088E+03 0.  0.
         23    2    1    2    0    0  0.11764687436E+03 -0.11352667623E+03  0.20776288416E+03  0.28062216057E+03  0.94097224764E+02 0.  0.
          5    1    3    3  502    0 -0.12602257101E+02  0.95836403209E+02  0.38278927294E+03  0.39482721910E+03  0.41800000000E+01 0. -1.
         -5    1    3    3    0  502 -0.10504461726E+03  0.17690273018E+02  0.30400870441E+03  0.32215847363E+03  0.41800000000E+01 0. -1.
        -11    1    4    4    0    0  0.13307523430E+03 -0.10957329393E+03  0.19450766768E+03  0.25990105331E+03  0.00000000000E+00 0. -1.
         11    1    4    4    0    0 -0.15428359943E+02 -0.39533823014E+01  0.13255216473E+02  0.20721107255E+02  0.00000000000E+00 0.  1.
</event>
<event>
 8    1  0.7048627E-009  0.1761000E+03  0.7561462E-02  0.1171632E+00
         -1   -1    0    0    0  501 -0.00000000000E+00  0.00000000000E+00  0.90210085048E+02  0.90210085048E+02  0.00000000000E+00 0.  1.
          1   -1    0    0  501    0  0.00000000000E+00 -0.00000000000E+00 -0.37634831437E+03  0.37634831437E+03  0.00000000000E+00 0. -1.
         25    2    1    2    0    0  0.10733966879E+03 -0.10229285329E+03 -0.13295535113E+03  0.23518272022E+03  0.12509258237E+03 0.  0.
         23    2    1    2    0    0 -0.10733966879E+03  0.10229285329E+03 -0.15318287820E+03  0.23137567920E+03  0.89911503288E+02 0.  0.
          5    1    3    3  502    0 -0.27305455165E+02 -0.13516656100E+02 -0.34342022726E+02  0.46099184362E+02  0.41800000000E+01 0.  1.
         -5    1    3    3    0  502  0.13464512396E+03 -0.88776197192E+02 -0.98613328405E+02  0.18908353586E+03  0.41800000000E+01 0.  1.
        -11    1    4    4    0    0 -0.83787057500E+02  0.38684937095E+02 -0.13054119829E+03  0.15986807002E+03  0.00000000000E+00 0. -1.
         11    1    4    4    0    0 -0.23552611292E+02  0.63607916197E+02 -0.22641679907E+02  0.71507609180E+02  0.00000000000E+00 0.  1.
</event>
<event>
 8    1  0.7048627E-009  0.1006322E+03  0.7561462E-02  0.1278972E+00
          2   -1    0    0  501    0  0.00000000000E+00  0.00000000000E+00  0.38631651374E+03  0.38631651374E+03  0.00000000000E+00 0. -1.
         -2   -1    0    0    0  501 -0.00000000000E+00 -0.00000000000E+00 -0.35398947767E+02  0.35398947767E+02  0.00000000000E+00 0.  1.
         25    2    1    2    0    0 -0.32742609994E+02 -0.20686775181E+02  0.16683739411E+03  0.21208882423E+03  0.12508769769E+03 0.  0.
         23    2    1    2    0    0  0.32742609994E+02  0.20686775181E+02  0.18408017186E+03  0.20962663727E+03  0.92508357493E+02 0.  0.
          5    1    3    3  502    0 -0.10187120084E+02 -0.71570199840E+02  0.72448633302E+02  0.10243216188E+03  0.41800000000E+01 0. -1.
         -5    1    3    3    0  502 -0.22555489910E+02  0.50883424659E+02  0.94388760808E+02  0.10965666235E+03  0.41800000000E+01 0. -1.
        -11    1    4    4    0    0 -0.18557133580E+02  0.31517557128E+01  0.11789429079E+01  0.18859763444E+02  0.00000000000E+00 0.  1.
         11    1    4    4    0    0  0.51299743574E+02  0.17535019468E+02  0.18290122895E+03  0.19076687383E+03  0.00000000000E+00 0. -1.
</event>
<event>
 8    1  0.7048627E-009  0.2268679E+03  0.7561462E-02  0.1128864E+00
         -2   -1    0    0    0  501 -0.00000000000E+00  0.00000000000E+00  0.75642264534E+02  0.75642264534E+02  0.00000000000E+00 0.  1.
          2   -1    0    0  501    0  0.00000000000E+00 -0.00000000000E+00 -0.10577988404E+04  0.10577988404E+04  0.00000000000E+00 0. -1.
         25    2    1    2    0    0 -0.20734498405E+03 -0.61914602414E+02 -0.20998924830E+03  0.32644807489E+03  0.12508997080E+03 0.  0.
         23    2    1    2    0    0  0.20734498405E+03  0.61914602414E+02 -0.77216732755E+03  0.80699303003E+03  0.90388098651E+02 0.  0.
          5    1    3    3  502    0 -0.19912639453E+03 -0.31239063569E+02 -0.21418556183E+03  0.29414303899E+03  0.41800000000E+01 0.  1.
         -5    1    3    3    0  502 -0.82185895187E+01 -0.30675538845E+02  0.41963135288E+01  0.32305035897E+02  0.41800000000E+01 0.  1.
        -11    1    4    4    0    0  0.13185872264E+03  0.59268615347E+02 -0.35965424166E+03  0.38762180672E+03  0.00000000000E+00 0.  1.
         11    1    4    4    0    0  0.75486261411E+02  0.26459870675E+01 -0.41251308589E+03  0.41937122331E+03  0.00000000000E+00 0. -1.
</event>
<event>
 8    1  0.7048627E-009  0.9430999E+02  0.7561462E-02  0.1292738E+00
         -3   -1    0    0    0  501 -0.00000000000E+00  0.00000000000E+00  0.60561022501E+02  0.60561022501E+02  0.00000000000E+00 0.  1.
          3   -1    0    0  501    0  0.00000000000E+00 -0.00000000000E+00 -0.24409323943E+03  0.24409323943E+03  0.00000000000E+00 0. -1.
         25    2    1    2    0    0  0.98038991015E+01  0.43997350197E+02 -0.14553694185E+03  0.19713229074E+03  0.12509298681E+03 0.  0.
         23    2    1    2    0    0 -0.98038991015E+01 -0.43997350197E+02 -0.37995275086E+02  0.10752197119E+03  0.89919130880E+02 0.  0.
          5    1    3    3  502    0 -0.38928071777E+02 -0.25324267082E+02 -0.66227747101E+02  0.80995679895E+02  0.41800000000E+01 0.  1.
         -5    1    3    3    0  502  0.48731970879E+02  0.69321617279E+02 -0.79309194748E+02  0.11613661085E+03  0.41800000000E+01 0.  1.
        -11    1    4    4    0    0  0.34635546927E+01 -0.43745435923E+02  0.19857980228E+02  0.48166365380E+02  0.00000000000E+00 0.  1.
         11    1    4    4    0    0 -0.13267453794E+02 -0.25191427392E+00 -0.57853255313E+02  0.59355605812E+02  0.00000000000E+00 0. -1.
</event>
<event>
 8    1  0.7048627E-009  0.1467766E+03  0.7561462E-02  0.1204491E+00
          3   -1    0    0  501    0  0.00000000000E+00  0.00000000000E+00  0.17803819528E+03  0.17803819528E+03  0.00000000000E+00 0. -1.
         -3   -1    0    0    0  501 -0.00000000000E+00 -0.00000000000E+00 -0.20650438581E+03  0.20650438581E+03  0.00000000000E+00 0.  1.
         25    2    1    2    0    0 -0.47401930566E+02 -0.13202596259E+03  0.51748696680E+02  0.19493886742E+03  0.12508171969E+03 0.  0.
         23    2    1    2    0    0  0.47401930566E+02  0.13202596259E+03 -0.80214887211E+02  0.18960371368E+03  0.99183377094E+02 0.  0.
          5    1    3    3  502    0 -0.14356421573E+01 -0.21727992884E+02  0.70506219935E+02  0.73910528294E+02  0.41800000000E+01 0.  1.
         -5    1    3    3    0  502 -0.45966288408E+02 -0.11029796971E+03 -0.18757523255E+02  0.12102833912E+03  0.41800000000E+01 0.  1.
        -11    1    4    4    0    0  0.46741490109E+02  0.45317646756E+02 -0.79675239158E+02  0.10289120341E+03  0.00000000000E+00 0.  1.
         11    1    4    4    0    0  0.66044045719E+00  0.86708315838E+02 -0.53964805258E+00  0.86712510269E+02  0.00000000000E+00 0. -1.
</event>
<event>
 8    1  0.7048627E-009  0.4319064E+03  0.7561462E-02  0.1033259E+00
         -1   -1    0    0    0  501 -0.00000000000E+00  0.00000000000E+00  0.68616854804E+03  0.68616854804E+03  0.00000000000E+00 0.  1.
          1   -1    0    0  501    0  0.00000000000E+00 -0.00000000000E+00 -0.28407233965E+03  0.28407233965E+03  0.00000000000E+00 0. -1.
         25    2    1    2    0    0  0.37787171027E+03  0.18633642248E+03  0.12099382711E+03  0.45584495525E+03  0.12508727060E+03 0.  0.
         23    2    1    2    0    0 -0.37787171027E+03 -0.18633642248E+03  0.28110238127E+03  0.51439593244E+03  0.89868430413E+02 0.  0.
          5    1    3    3  502    0  0.22235808384E+03  0.17552898146E+03  0.85047410799E+02  0.29581087753E+03  0.41800000000E+01 0. -1.
         -5    1    3    3    0  502  0.15551362643E+03  0.10807441021E+02  0.35946416314E+02  0.16003407773E+03  0.41800000000E+01 0. -1.
        -11    1    4    4    0    0 -0.26829717398E+03 -0.10512252523E+03  0.23019782577E+03  0.36881588614E+03  0.00000000000E+00 0.  1.
         11    1    4    4    0    0 -0.10957453629E+03 -0.81213897256E+02  0.50904555502E+02  0.14558004630E+03  0.00000000000E+00 0. -1.
</event>
<event>
 8    1  0.7048627E-009  0.1203604E+03  0.7561462E-02  0.1242504E+00
          2   -1    0    0  501    0  0.00000000000E+00  0.00000000000E+00  0.44965168676E+03  0.44965168676E+03  0.00000000000E+00 0. -1.
         -2   -1    0    0    0  501 -0.00000000000E+00 -0.00000000000E+00 -0.35656275451E+02  0.35656275451E+02  0.00000000000E+00 0.  1.
         25    2    1    2    0    0 -0.74196175046E+01  0.62330244047E+02  0.22040580743E+03  0.26108728766E+03  0.12509093405E+03 0.  0.
         23    2    1    2    0    0  0.74196175046E+01 -0.62330244047E+02  0.19358960388E+03  0.22422067455E+03  0.94116237276E+02 0.  0.
          5    1    3    3  502    0  0.13002426222E+02 -0.34832310310E+02  0.37752674035E+02  0.53151573128E+02  0.41800000000E+01 0.  1.
         -5    1    3    3    0  502 -0.20422043727E+02  0.97162554357E+02  0.18265313339E+03  0.20793571453E+03  0.41800000000E+01 0.  1.
        -11    1    4    4    0    0 -0.36235164215E+02 -0.42883890881E+02  0.59207767400E+02  0.81593963890E+02  0.00000000000E+00 0.  1.
         11    1    4    4    0    0  0.43654781720E+02 -0.19446353167E+02  0.13438183648E+03  0.14262671066E+03  0.00000000000E+00 0. -1.
</event>
<event>
 8    1  0.7048627E-009  0.9288131E+02  0.7561462E-02  0.1296020E+00
          1   -1    0    0  501    0  0.00000000000E+00  0.00000000000E+00  0.20757783063E+03  0.20757783063E+03  0.00000000000E+00 0. -1.
         -1   -1    0    0    0  501 -0.00000000000E+00 -0.00000000000E+00 -0.66404495557E+02  0.66404495557E+02  0.00000000000E+00 0.  1.
         25    2    1    2    0    0 -0.40592750981E+02 -0.16367625251E+02  0.95921551161E+02  0.16359841021E+03  0.12509126771E+03 0.  0.
         23    2    1    2    0    0  0.40592750981E+02  0.16367625251E+02  0.45251783914E+02  0.11038391598E+03  0.90670912483E+02 0.  0.
          5    1    3    3  502    0 -0.74826501377E+02 -0.32115478762E+02  0.95648431631E+02  0.12568414442E+03  0.41800000000E+01 0.  1.
         -5    1    3    3    0  502  0.34233750396E+02  0.15747853511E+02  0.27311953031E+00  0.37914265794E+02  0.41800000000E+01 0.  1.
        -11    1    4    4    0    0  0.10573281527E+02 -0.17880346225E+02  0.59212089933E+02  0.62750080937E+02  0.00000000000E+00 0. -1.
         11    1    4    4    0    0  0.30019469453E+02  0.34247971476E+02 -0.13960306019E+02  0.47633835040E+02  0.00000000000E+00 0.  1.
</event>
<event>
 8    1  0.7048627E-009  0.8693755E+02  0.7561462E-02  0.1310442E+00
          1   -1    0    0  501    0  0.00000000000E+00  0.00000000000E+00  0.30683329953E+03  0.30683329953E+03  0.00000000000E+00 0. -1.
         -1   -1    0    0    0  501 -0.00000000000E+00 -0.00000000000E+00 -0.57046431315E+02  0.57046431315E+02  0.00000000000E+00 0.  1.
         25    2    1    2    0    0  0.63692638178E+02 -0.39354263309E+02  0.14422997421E+03  0.20507308784E+03  0.12508867134E+03 0.  0.
         23    2    1    2    0    0 -0.63692638178E+02  0.39354263309E+02  0.10555689400E+03  0.15880664300E+03  0.92042282627E+02 0.  0.
          5    1    3    3  502    0  0.28949185188E+02 -0.10151574813E+02 -0.18509258640E+02  0.36071801309E+02  0.41800000000E+01 0. -1.
         -5    1    3    3    0  502  0.34743452990E+02 -0.29202688495E+02  0.16273923285E+03  0.16900128654E+03  0.41800000000E+01 0. -1.
        -11    1    4    4    0    0 -0.63578216006E+02  0.58669320660E+01  0.19965072989E+02  0.66897044642E+02  0.00000000000E+00 0.  1.
         11    1    4    4    0    0 -0.11442217229E+00  0.33487331243E+02  0.85591821014E+02  0.91909598360E+02  0.00000000000E+00 0. -1.
</event>
<event>
 8    1  0.7048627E-009  0.8547119E+02  0.7561462E-02  0.1314205E+00
          2   -1    0    0  501    0  0.00000000000E+00  0.00000000000E+00  0.41693314951E+03  0.41693314951E+03  0.00000000000E+00 0. -1.
         -2   -1    0    0    0  501 -0.00000000000E+00 -0.00000000000E+00 -0.43282225823E+02  0.43282225823E+02  0.00000000000E+00 0.  1.
         25    2    1    2    0    0  0.45306038250E+02  0.15926135584E+02  0.10209415729E+03  0.16845635609E+03  0.12509215826E+03 0.  0.
         23    2    1    2    0    0 -0.45306038250E+02 -0.15926135584E+02  0.27155676639E+03  0.29175901924E+03  0.95257383106E+02 0.  0.
          5    1    3    3  502    0  0.16695547843E+02  0.28466069805E+02  0.12509319676E+03  0.12944048332E+03  0.41800000000E+01 0.  1.
         -5    1    3    3    0  502  0.28610490407E+02 -0.12539934221E+02 -0.22999039466E+02  0.39015872769E+02  0.41800000000E+01 0.  1.
        -11    1    4    4    0    0 -0.73415598262E+01 -0.52758010494E+02  0.12190684446E+03  0.13303602857E+03  0.00000000000E+00 0.  1.
         11    1    4    4    0    0 -0.37964478423E+02  0.36831874911E+02  0.14964992193E+03  0.15872299066E+03  0.00000000000E+00 0. -1.
</event>
<event>
 8    1  0.7048627E-009  0.1030860E+03  0.7561462E-02  0.1273937E+00
          2   -1    0    0  501    0  0.00000000000E+00  0.00000000000E+00  0.20694432701E+03  0.20694432701E+03  0.00000000000E+00 0. -1.
         -2   -1    0    0    0  501 -0.00000000000E+00 -0.00000000000E+00 -0.59044845088E+02  0.59044845088E+02  0.00000000000E+00 0.  1.
         25    2    1    2    0    0 -0.11741609294E+02  0.17588389771E+01  0.11267716848E+03  0.16877514693E+03  0.12509175442E+03 0.  0.
         23    2    1    2    0    0  0.11741609294E+02 -0.17588389771E+01  0.35222313443E+02  0.97214025163E+02  0.89827592758E+02 0.  0.
          5    1    3    3  502    0  0.24601937404E+02  0.52933783251E+02  0.32748905813E+02  0.67061195675E+02  0.41800000000E+01 0.  1.
         -5    1    3    3    0  502 -0.36343546698E+02 -0.51174944274E+02  0.79928262663E+02  0.10171395126E+03  0.41800000000E+01 0.  1.
        -11    1    4    4    0    0 -0.32855945152E+02 -0.17777986424E+02  0.32884560389E+02  0.49769109346E+02  0.00000000000E+00 0. -1.
         11    1    4    4    0    0  0.44597554446E+02  0.16019147447E+02  0.23377530534E+01  0.47444915816E+02  0.00000000000E+00 0.  1.
</event>
<event>
 8    1  0.7048627E-009  0.1005176E+03  0.7561462E-02  0.1279211E+00
          3   -1    0    0  501    0  0.00000000000E+00  0.00000000000E+00  0.37778307643E+02  0.37778307643E+02  0.00000000000E+00 0. -1.
         -3   -1    0    0    0  501 -0.00000000000E+00 -0.00000000000E+00 -0.35645047408E+03  0.35645047408E+03  0.00000000000E+00 0.  1.
         25    2    1    2    0    0  0.96879113056E+01  0.37406990206E+02 -0.15772242882E+03  0.20498171756E+03  0.12509197193E+03 0.  0.
         23    2    1    2    0    0 -0.96879113056E+01 -0.37406990206E+02 -0.16094973762E+03  0.18924706416E+03  0.91741455795E+02 0.  0.
          5    1    3    3  502    0 -0.48872512096E+01  0.67530844024E+02 -0.32354748641E+02  0.75157183813E+02  0.41800000000E+01 0. -1.
         -5    1    3    3    0  502  0.14575162515E+02 -0.30123853819E+02 -0.12536768018E+03  0.12982453375E+03  0.41800000000E+01 0. -1.
        -11    1    4    4    0    0  0.32302611034E+02  0.12156794015E+02 -0.59328373558E+02  0.68637469573E+02  0.00000000000E+00 0. -1.
         11    1    4    4    0    0 -0.41990522339E+02 -0.49563784221E+02 -0.10162136407E+03  0.12060959459E+03  0.00000000000E+00 0.  1.
</event>
<event>
 8    1  0.7048627E-009  0.8345094E+02  0.7561462E-02  0.1319534E+00
         -2   -1    0    0    0  501 -0.00000000000E+00  0.00000000000E+00  0.24040823101E+03  0.24040823101E+03  0.00000000000E+00 0.  1.
          2   -1    0    0  501    0  0.00000000000E+00 -0.00000000000E+00 -0.57716300921E+02  0.57716300921E+02  0.00000000000E+00 0. -1.
         25    2    1    2    0    0  0.95724306740E+01 -0.29036590831E+02  0.59177700872E+02  0.14171633764E+03  0.12508702985E+03 0.  0.
         23    2    1    2    0    0 -0.95724306740E+01  0.29036590831E+02  0.12351422922E+03  0.15640819429E+03  0.90956051953E+02 0.  0.
          5    1    3    3  502    0  0.60470279037E+02 -0.44588396674E+02  0.37823484997E+02  0.84219167546E+02  0.41800000000E+01 0.  1.
         -5    1    3    3    0  502 -0.50897848363E+02  0.15551805843E+02  0.21354215875E+02  0.57497170092E+02  0.41800000000E+01 0.  1.
        -11    1    4    4    0    0 -0.10281415957E+02  0.11183842962E+01 -0.13257559689E+02  0.16814314926E+02  0.00000000000E+00 0. -1.
         11    1    4    4    0    0  0.70898528264E+00  0.27918206535E+02  0.13677178890E+03  0.13959387937E+03  0.00000000000E+00 0.  1.
</event>
<event>
 8    1  0.7048627E-009  0.9937888E+02  0.7561462E-02  0.1281608E+00
          2   -1    0    0  501    0  0.00000000000E+00  0.00000000000E+00  0.37418801577E+03  0.37418801577E+03  0.00000000000E+00 0. -1.
         -2   -1    0    0    0  501 -0.00000000000E+00 -0.00000000000E+00 -0.41172982058E+02  0.41172982058E+02  0.00000000000E+00 0.  1.
         25    2    1    2    0    0 -0.13468894758E+02 -0.14655907125E+02  0.90203357688E+02  0.15549954303E+03  0.12508898994E+03 0.  0.
         23    2    1    2    0    0  0.13468894758E+02  0.14655907125E+02  0.24281167603E+03  0.25986145480E+03  0.90411608411E+02 0.  0.
          5    1    3    3  502    0 -0.14935629614E+02 -0.62957812513E+02  0.84721278864E+02  0.10668611288E+03  0.41800000000E+01 0. -1.
         -5    1    3    3    0  502  0.14667348560E+01  0.48301905388E+02  0.54820788243E+01  0.48813430155E+02  0.41800000000E+01 0. -1.
        -11    1    4    4    0    0 -0.89008163151E+01  0.46028957530E+02  0.81597273908E+02  0.94106347137E+02  0.00000000000E+00 0. -1.
         11    1    4    4    0    0  0.22369711073E+02 -0.31373050405E+02  0.16121440212E+03  0.16575510766E+03  0.00000000000E+00 0.  1.
</event>
<event>
 8    1  0.7048627E-009  0.1160465E+03  0.7561462E-02  0.1249765E+00
         -2   -1    0    0    0  501 -0.00000000000E+00  0.00000000000E+00  0.50173219773E+02  0.50173219773E+02  0.00000000000E+00 0. -1.
          2   -1    0    0  501    0  0.00000000000E+00 -0.00000000000E+00 -0.40931926244E+03  0.40931926244E+03  0.00000000000E+00 0.  1.
         25    2    1    2    0    0 -0.78087563881E+02 -0.35297574128E+02 -0.13901051032E+03  0.20570537647E+03  0.12508874272E+03 0.  0.
         23    2    1    2    0    0  0.78087563881E+02  0.35297574128E+02 -0.22013553234E+03  0.25378710574E+03  0.92761285402E+02 0.  0.
          5    1    3    3  502    0 -0.89979397883E+02 -0.15469135308E+02 -0.15310282440E+03  0.17830741271E+03  0.41800000000E+01 0.  1.
         -5    1    3    3    0  502  0.11891834003E+02 -0.19828438820E+02  0.14092314074E+02  0.27397963755E+02  0.41800000000E+01 0.  1.
        -11    1    4    4    0    0  0.26660969111E+02  0.55797685578E+02 -0.68112617776E+02  0.91997378713E+02  0.00000000000E+00 0. -1.
         11    1    4    4    0    0  0.51426594770E+02 -0.20500111450E+02 -0.15202291456E+03  0.16178972703E+03  0.00000000000E+00 0.  1.
</event>
<event>
 8    1  0.7048627E-009  0.1072320E+03  0.7561462E-02  0.1265783E+00
          1   -1    0    0  501    0  0.00000000000E+00  0.00000000000E+00  0.85059228581E+03  0.85059228581E+03  0.00000000000E+00 0. -1.
         -1   -1    0    0    0  501 -0.00000000000E+00 -0.00000000000E+00 -0.26841870076E+02  0.26841870076E+02  0.00000000000E+00 0.  1.
         25    2    1    2    0    0  0.91603003585E+01  0.32460769158E+02  0.73207615490E+03  0.74345156261E+03  0.12508843563E+03 0.  0.
         23    2    1    2    0    0 -0.91603003585E+01 -0.32460769158E+02  0.91674260831E+02  0.13398259328E+03  0.91703612610E+02 0.  0.
          5    1    3    3  502    0  0.58463860241E+02  0.36533387250E+02  0.26913397731E+03  0.27785478489E+03  0.41800000000E+01 0.  1.
         -5    1    3    3    0  502 -0.49303559883E+02 -0.40726180920E+01  0.46294217759E+03  0.46559677772E+03  0.41800000000E+01 0.  1.
        -11    1    4    4    0    0  0.15217190688E+02  0.27274163634E+02  0.17983757421E+02  0.36039678485E+02  0.00000000000E+00 0.  1.
         11    1    4    4    0    0 -0.24377491046E+02 -0.59734932792E+02  0.73690503411E+02  0.97942914794E+02  0.00000000000E+00 0. -1.
</event>
<event>
 8    1  0.7048627E-009  0.9629848E+02  0.7561462E-02  0.1288278E+00
          1   -1    0    0  501    0  0.00000000000E+00  0.00000000000E+00  0.10594924454E+03  0.10594924454E+03  0.00000000000E+00 0. -1.
         -1   -1    0    0    0  501 -0.00000000000E+00 -0.00000000000E+00 -0.13638795404E+03  0.13638795404E+03  0.00000000000E+00 0.  1.
         25    2    1    2    0    0 -0.10846135177E+02  0.52790005524E+02 -0.24475232657E+02  0.13840319171E+03  0.12510788596E+03 0.  0.
         23    2    1    2    0    0  0.10846135177E+02 -0.52790005524E+02 -0.59634768425E+01  0.10393400688E+03  0.88669562972E+02 0.  0.
          5    1    3    3  502    0 -0.57175227950E+02  0.40857014418E+02  0.19753175564E+02  0.73116090317E+02  0.41800000000E+01 0. -1.
         -5    1    3    3    0  502  0.46329092774E+02  0.11932991106E+02 -0.44228408221E+02  0.65287101389E+02  0.41800000000E+01 0. -1.
        -11    1    4    4    0    0  0.25020689510E+02 -0.54431649905E+02  0.28715876013E+02  0.66433733526E+02  0.00000000000E+00 0. -1.
         11    1    4    4    0    0 -0.14174554334E+02  0.16416443809E+01 -0.34679352856E+02  0.37500273350E+02  0.00000000000E+00 0.  1.
</event>
<event>
 8    1  0.7048627E-009  0.1054467E+03  0.7561462E-02  0.1269242E+00
          2   -1    0    0  501    0  0.00000000000E+00  0.00000000000E+00  0.14091081188E+04  0.14091081188E+04  0.00000000000E+00 0. -1.
         -2   -1    0    0    0  501 -0.00000000000E+00 -0.00000000000E+00 -0.15774969521E+02  0.15774969521E+02  0.00000000000E+00 0.  1.
         25    2    1    2    0    0  0.12068267294E+02  0.39154636086E+02  0.12037284548E+04  0.12109054440E+04  0.12510424814E+03 0.  0.
         23    2    1    2    0    0 -0.12068267294E+02 -0.39154636086E+02  0.18960469451E+03  0.21397764431E+03  0.90320338150E+02 0.  0.
          5    1    3    3  502    0 -0.51160538600E+01 -0.44600939275E+02  0.48715383272E+03  0.48923588066E+03  0.41800000000E+01 0.  1.
         -5    1    3    3    0  502  0.17184321154E+02  0.83755575361E+02  0.71657462204E+03  0.72166956333E+03  0.41800000000E+01 0.  1.
        -11    1    4    4    0    0 -0.38700947428E+02 -0.36903972460E+02  0.17608333679E+03  0.18402447666E+03  0.00000000000E+00 0.  1.
         11    1    4    4    0    0  0.26632680134E+02 -0.22506636265E+01  0.13521357719E+02  0.29953167653E+02  0.00000000000E+00 0. -1.
</event>
<event>
 8    1  0.7048627E-009  0.1808045E+03  0.7561462E-02  0.1167027E+00
         -2   -1    0    0    0  501 -0.00000000000E+00  0.00000000000E+00  0.45371460677E+02  0.45371460677E+02  0.00000000000E+00 0.  1.
          2   -1    0    0  501    0  0.00000000000E+00 -0.00000000000E+00 -0.89784286232E+03  0.89784286232E+03  0.00000000000E+00 0. -1.
         25    2    1    2    0    0 -0.15784031146E+03 -0.57119989686E+02 -0.49010263694E+03  0.53293945127E+03  0.12509039470E+03 0.  0.
         23    2    1    2    0    0  0.15784031146E+03  0.57119989686E+02 -0.36236876471E+03  0.41027487173E+03  0.94011124843E+02 0.  0.
          5    1    3    3  502    0 -0.14851066099E+03 -0.59099144851E+02 -0.49588720802E+03  0.52102756244E+03  0.41800000000E+01 0. -1.
         -5    1    3    3    0  502 -0.93296504694E+01  0.19791551651E+01  0.57845710754E+01  0.11911888833E+02  0.41800000000E+01 0. -1.
        -11    1    4    4    0    0  0.65200235197E+02  0.72378439149E+02 -0.20626630312E+03  0.22811290390E+03  0.00000000000E+00 0. -1.
         11    1    4    4    0    0  0.92640076259E+02 -0.15258449463E+02 -0.15610246159E+03  0.18216196783E+03  0.00000000000E+00 0.  1.
</event>
<event>
 8    1  0.7048627E-009  0.3175513E+03  0.7561462E-02  0.1076782E+00
          2   -1    0    0  501    0  0.00000000000E+00  0.00000000000E+00  0.61167856908E+03  0.61167856908E+03  0.00000000000E+00 0. -1.
         -2   -1    0    0    0  501 -0.00000000000E+00 -0.00000000000E+00 -0.18241061119E+03  0.18241061119E+03  0.00000000000E+00 0.  1.
         25    2    1    2    0    0  0.29925812562E+03  0.27575471253E+01  0.34082026683E+03  0.47049934931E+03  0.12509258013E+03 0.  0.
         23    2    1    2    0    0 -0.29925812562E+03 -0.27575471253E+01  0.88447691055E+02  0.32358983096E+03  0.85582444629E+02 0.  0.
          5    1    3    3  502    0  0.17282728739E+03  0.63188855202E+02  0.18751092773E+03  0.26275449208E+03  0.41800000000E+01 0.  1.
         -5    1    3    3    0  502  0.12643083823E+03 -0.60431308077E+02  0.15330933910E+03  0.20774485723E+03  0.41800000000E+01 0.  1.
        -11    1    4    4    0    0 -0.13927226984E+03  0.40635007348E+02  0.49693603477E+02  0.15335391483E+03  0.00000000000E+00 0.  1.
         11    1    4    4    0    0 -0.15998585578E+03 -0.43392554473E+02  0.38754087578E+02  0.17023591612E+03  0.00000000000E+00 0. -1.
</event>
<event>
 8    1  0.7048627E-009  0.1067897E+03  0.7561462E-02  0.1266633E+00
         -1   -1    0    0    0  501 -0.00000000000E+00  0.00000000000E+00  0.11173778168E+03  0.11173778168E+03  0.00000000000E+00 0.  1.
          1   -1    0    0  501    0  0.00000000000E+00 -0.00000000000E+00 -0.20203632475E+03  0.20203632475E+03  0.00000000000E+00 0. -1.
         25    2    1    2    0    0  0.36318690159E+02  0.60135020374E+02  0.31083656684E+02  0.14679572312E+03  0.12509005829E+03 0.  0.
         23    2    1    2    0    0 -0.36318690159E+02 -0.60135020374E+02 -0.12138219976E+03  0.16697838330E+03  0.90624909064E+02 0.  0.
          5    1    3    3  502    0 -0.39692781926E+02  0.51635439812E+02  0.34132193964E+01  0.65351802181E+02  0.41800000000E+01 0. -1.
         -5    1    3    3    0  502  0.76011472086E+02  0.84995805616E+01  0.27670437287E+02  0.81443920940E+02  0.41800000000E+01 0. -1.
        -11    1    4    4    0    0 -0.96738560088E+01 -0.29856391571E+02 -0.12267377633E+03  0.12662481197E+03  0.00000000000E+00 0. -1.
         11    1    4    4    0    0 -0.26644834151E+02 -0.30278628803E+02  0.12915765752E+01  0.40353571331E+02  0.00000000000E+00 0.  1.
</event>
<event>
 8    1  0.7048627E-009  0.8915713E+02  0.7561462E-02  0.1304906E+00
         -2   -1    0    0    0  501 -0.00000000000E+00  0.00000000000E+00  0.17710482951E+02  0.17710482951E+02  0.00000000000E+00 0.  1.
          2   -1    0    0  501    0  0.00000000000E+00 -0.00000000000E+00 -0.83862481224E+03  0.83862481224E+03  0.00000000000E+00 0. -1.
         25    2    1    2    0    0  0.25807072290E+02 -0.47056819576E+02 -0.41984641778E+03  0.44136017888E+03  0.12508974270E+03 0.  0.
         23    2    1    2    0    0 -0.25807072290E+02  0.47056819576E+02 -0.40106791151E+03  0.41497511631E+03  0.92024606846E+02 0.  0.
          5    1    3    3  502    0 -0.79393859908E+01 -0.42076046828E+02 -0.39868689322E+03  0.40100141994E+03  0.41800000000E+01 0.  1.
         -5    1    3    3    0  502  0.33746458281E+02 -0.49807727484E+01 -0.21159524558E+02  0.40358758940E+02  0.41800000000E+01 0.  1.
        -11    1    4    4    0    0  0.57601988971E+01  0.64569087935E+02 -0.18780084342E+03  0.19867436623E+03  0.00000000000E+00 0.  1.
         11    1    4    4    0    0 -0.31567271188E+02 -0.17512268358E+02 -0.21326706809E+03  0.21630075008E+03  0.00000000000E+00 0. -1.
</event>
<event>
 8    1  0.7048627E-009  0.1525130E+03  0.7561462E-02  0.1197419E+00
          4   -1    0    0  501    0  0.00000000000E+00  0.00000000000E+00  0.46989895714E+02  0.46989895714E+02  0.00000000000E+00 0. -1.
         -4   -1    0    0    0  501 -0.00000000000E+00 -0.00000000000E+00 -0.70054824653E+03  0.70054824653E+03  0.00000000000E+00 0.  1.
         25    2    1    2    0    0 -0.65031533462E+02 -0.11936161904E+03 -0.24355180780E+03  0.30568257521E+03  0.12509219503E+03 0.  0.
         23    2    1    2    0    0  0.65031533462E+02  0.11936161904E+03 -0.41000654302E+03  0.44185556704E+03  0.93030534589E+02 0.  0.
          5    1    3    3  502    0  0.17764334400E+02 -0.27766341302E+01 -0.10472596452E+03  0.10634040304E+03  0.41800000000E+01 0.  1.
         -5    1    3    3    0  502 -0.82795867862E+02 -0.11658498491E+03 -0.13882584328E+03  0.19934217217E+03  0.41800000000E+01 0.  1.
        -11    1    4    4    0    0  0.56472199981E+02  0.55846860800E+02 -0.32959102648E+03  0.33902540608E+03  0.00000000000E+00 0. -1.
         11    1    4    4    0    0  0.85593334806E+01  0.63514758238E+02 -0.80415516540E+02  0.10283016097E+03  0.00000000000E+00 0.  1.
</event>
<event>
 8    1  0.7048627E-009  0.8400365E+02  0.7561462E-02  0.1318059E+00
         -2   -1    0    0    0  501 -0.00000000000E+00  0.00000000000E+00  0.97692209174E+02  0.97692209174E+02  0.00000000000E+00 0. -1.
          2   -1    0    0  501    0  0.00000000000E+00 -0.00000000000E+00 -0.16843268283E+03  0.16843268283E+03  0.00000000000E+00 0.  1.
         25    2    1    2    0    0 -0.15361416462E+02  0.48980035297E+02 -0.86837671940E+02  0.16069519843E+03  0.12508856286E+03 0.  0.
         23    2    1    2    0    0  0.15361416462E+02 -0.48980035297E+02  0.16097198288E+02  0.10542969357E+03  0.90671293803E+02 0.  0.
          5    1    3    3  502    0 -0.60031627468E+02  0.21771909924E+02 -0.87274551799E+02  0.10822260462E+03  0.41800000000E+01 0.  1.
         -5    1    3    3    0  502  0.44670211007E+02  0.27208125373E+02  0.43687985916E+00  0.52472593815E+02  0.41800000000E+01 0.  1.
        -11    1    4    4    0    0  0.14112140670E+02 -0.38819096663E+02  0.52965121365E+02  0.67166798802E+02  0.00000000000E+00 0. -1.
         11    1    4    4    0    0  0.12492757911E+01 -0.10160938634E+02 -0.36867923077E+02  0.38262894767E+02  0.00000000000E+00 0.  1.
</event>
<event>
 8    1  0.7048627E-009  0.8473101E+02  0.7561462E-02  0.1316137E+00
          1   -1    0    0  501    0  0.00000000000E+00  0.00000000000E+00  0.28621646632E+03  0.28621646632E+03  0.00000000000E+00 0. -1.
         -1   -1    0    0    0  501 -0.00000000000E+00 -0.00000000000E+00 -0.41596066632E+02  0.41596066632E+02  0.00000000000E+00 0.  1.
         25    2    1    2    0    0  0.88731338889E+01  0.12996459472E+02  0.14103588693E+03  0.18917317735E+03  0.12509088360E+03 0.  0.
         23    2    1    2    0    0 -0.88731338889E+01 -0.12996459472E+02  0.10358451276E+03  0.13863935561E+03  0.90793607575E+02 0.  0.
          5    1    3    3  502    0 -0.35800400203E+02 -0.10438697639E+02  0.13265952067E+03  0.13786462885E+03  0.41800000000E+01 0. -1.
         -5    1    3    3    0  502  0.44673534092E+02  0.23435157111E+02  0.83763662613E+01  0.51308548497E+02  0.41800000000E+01 0. -1.
        -11    1    4    4    0    0  0.23583616406E+02  0.22935072814E+02  0.76232673828E+02  0.83027857293E+02  0.00000000000E+00 0. -1.
         11    1    4    4    0    0 -0.32456750295E+02 -0.35931532286E+02  0.27351838932E+02  0.55611498317E+02  0.00000000000E+00 0.  1.
</event>
<event>
 8    1  0.7048627E-009  0.1297414E+03  0.7561462E-02  0.1227840E+00
         -2   -1    0    0    0  501 -0.00000000000E+00  0.00000000000E+00  0.64979671768E+02  0.64979671768E+02  0.00000000000E+00 0. -1.
          2   -1    0    0  501    0  0.00000000000E+00 -0.00000000000E+00 -0.68114695395E+03  0.68114695395E+03  0.00000000000E+00 0.  1.
         25    2    1    2    0    0 -0.90228417779E+02  0.74686132179E+02 -0.55990501982E+03  0.58554296548E+03  0.12509095684E+03 0.  0.
         23    2    1    2    0    0  0.90228417779E+02 -0.74686132179E+02 -0.56262262359E+02  0.16058366024E+03  0.94352975871E+02 0.  0.
          5    1    3    3  502    0  0.14915360917E+02  0.10002753482E+02 -0.26730726420E+03  0.26794247323E+03  0.41800000000E+01 0.  1.
         -5    1    3    3    0  502 -0.10514377870E+03  0.64683378697E+02 -0.29259775562E+03  0.31760049224E+03  0.41800000000E+01 0.  1.
        -11    1    4    4    0    0  0.55612250705E+02 -0.39852801668E+02  0.18737064930E+02  0.70936914449E+02  0.00000000000E+00 0. -1.
         11    1    4    4    0    0  0.34616167074E+02 -0.34833330510E+02 -0.74999327289E+02  0.89646745792E+02  0.00000000000E+00 0.  1.
</event>
<event>
 8    1  0.7048627E-009  0.9556354E+02  0.7561462E-02  0.1289912E+00
         -2   -1    0    0    0  501 -0.00000000000E+00  0.00000000000E+00  0.47734218512E+02  0.47734218512E+02  0.00000000000E+00 0.  1.
          2   -1    0    0  501    0  0.00000000000E+00 -0.00000000000E+00 -0.35429086081E+03  0.35429086081E+03  0.00000000000E+00 0. -1.
         25    2    1    2    0    0  0.28289903304E+02  0.29938322649E+02 -0.79987408657E+02  0.15407594342E+03  0.12507913097E+03 0.  0.
         23    2    1    2    0    0 -0.28289903304E+02 -0.29938322649E+02 -0.22656923364E+03  0.24794913591E+03  0.91915910322E+02 0.  0.
          5    1    3    3  502    0  0.63927930781E+02  0.10599210655E+02 -0.91055642732E+02  0.11183794559E+03  0.41800000000E+01 0. -1.
         -5    1    3    3    0  502 -0.35638027477E+02  0.19339111994E+02  0.11068234075E+02  0.42237997830E+02  0.41800000000E+01 0. -1.
        -11    1    4    4    0    0 -0.34487703987E+02  0.16744196190E+02 -0.39508229144E+02  0.55051521346E+02  0.00000000000E+00 0.  1.
         11    1    4    4    0    0  0.61978006831E+01 -0.46682518839E+02 -0.18706100450E+03  0.19289761456E+03  0.00000000000E+00 0. -1.
</event>
<event>
 8    1  0.7048627E-009  0.7974189E+02  0.7561462E-02  0.1329786E+00
         -2   -1    0    0    0  501 -0.00000000000E+00  0.00000000000E+00  0.33082483217E+02  0.33082483217E+02  0.00000000000E+00 0. -1.
          2   -1    0    0  501    0  0.00000000000E+00 -0.00000000000E+00 -0.48454250278E+03  0.48454250278E+03  0.00000000000E+00 0.  1.
         25    2    1    2    0    0 -0.25795194742E+02  0.24981474707E+02 -0.35760549896E+03  0.38055031091E+03  0.12508948834E+03 0.  0.
         23    2    1    2    0    0  0.25795194742E+02 -0.24981474707E+02 -0.93854520594E+02  0.13707467508E+03  0.93227299452E+02 0.  0.
          5    1    3    3  502    0 -0.32196687629E+02 -0.90718223411E+01 -0.33961759103E+03  0.34128654411E+03  0.41800000000E+01 0. -1.
         -5    1    3    3    0  502  0.64014928875E+01  0.34053297048E+02 -0.17987907932E+02  0.39263766793E+02  0.41800000000E+01 0. -1.
        -11    1    4    4    0    0  0.44417837456E+02 -0.45208613874E+02 -0.35682448009E+02  0.72732387205E+02  0.00000000000E+00 0. -1.
         11    1    4    4    0    0 -0.18622642715E+02  0.20227139167E+02 -0.58172072585E+02  0.64342287878E+02  0.00000000000E+00 0.  1.
</event>
<event>
 8    1  0.7048627E-009  0.2818066E+03  0.7561462E-02  0.1094706E+00
         -2   -1    0    0    0  501 -0.00000000000E+00  0.00000000000E+00  0.29908092345E+03  0.29908092345E+03  0.00000000000E+00 0.  1.
          2   -1    0    0  501    0  0.00000000000E+00 -0.00000000000E+00 -0.29460321244E+03  0.29460321244E+03  0.00000000000E+00 0. -1.
         25    2    1    2    0    0 -0.57096841857E+01  0.27274155396E+03 -0.37650262222E+02  0.30246842249E+03  0.12509615745E+03 0.  0.
         23    2    1    2    0    0  0.57096841857E+01 -0.27274155396E+03  0.42127973229E+02  0.29121571340E+03  0.92796928022E+02 0.  0.
          5    1    3    3  502    0  0.22219179882E+02  0.60436234682E+02  0.38522082322E+02  0.75150872540E+02  0.41800000000E+01 0. -1.
         -5    1    3    3    0  502 -0.27928864067E+02  0.21230531928E+03 -0.76172344544E+02  0.22731754995E+03  0.41800000000E+01 0. -1.
        -11    1    4    4    0    0 -0.38326520257E+02 -0.12980428167E+03 -0.17156523561E+01  0.13535515195E+03  0.00000000000E+00 0.  1.
         11    1    4    4    0    0  0.44036204443E+02 -0.14293727229E+03  0.43843625586E+02  0.15586056145E+03  0.00000000000E+00 0. -1.
</event>
<event>
 8    1  0.7048627E-009  0.9785807E+02  0.7561462E-02  0.1284866E+00
          3   -1    0    0  501    0  0.00000000000E+00  0.00000000000E+00  0.17832127521E+03  0.17832127521E+03  0.00000000000E+00 0. -1.
         -3   -1    0    0    0  501 -0.00000000000E+00 -0.00000000000E+00 -0.10621145825E+03  0.10621145825E+03  0.00000000000E+00 0.  1.
         25    2    1    2    0    0 -0.31472097030E+02 -0.28009649116E+02  0.11146117276E+03  0.17275855122E+03  0.12508753196E+03 0.  0.
         23    2    1    2    0    0  0.31472097030E+02  0.28009649116E+02 -0.39351355798E+02  0.11177418224E+03  0.95759622369E+02 0.  0.
          5    1    3    3  502    0  0.11536751470E+02 -0.52829916074E+02  0.40940038858E+01  0.54390531664E+02  0.41800000000E+01 0. -1.
         -5    1    3    3    0  502 -0.43008848500E+02  0.24820266958E+02  0.10736716887E+03  0.11836801955E+03  0.41800000000E+01 0. -1.
        -11    1    4    4    0    0  0.14463281638E+02 -0.28863949405E+02  0.10820094130E+02  0.34049794830E+02  0.00000000000E+00 0. -1.
         11    1    4    4    0    0  0.17008815393E+02  0.56873598521E+02 -0.50171449928E+02  0.77724387406E+02  0.00000000000E+00 0.  1.
</event>
<event>
 8    1  0.7048627E-009  0.1034562E+03  0.7561462E-02  0.1273192E+00
         -4   -1    0    0    0  501 -0.00000000000E+00  0.00000000000E+00  0.28152109647E+03  0.28152109647E+03  0.00000000000E+00 0.  1.
          4   -1    0    0  501    0  0.00000000000E+00 -0.00000000000E+00 -0.45451972293E+02  0.45451972293E+02  0.00000000000E+00 0. -1.
         25    2    1    2    0    0  0.78726230970E+01 -0.21085157702E+02  0.10542069648E+03  0.16512970199E+03  0.12509089960E+03 0.  0.
         23    2    1    2    0    0 -0.78726230970E+01  0.21085157702E+02  0.13064842770E+03  0.16184336678E+03  0.92831576739E+02 0.  0.
          5    1    3    3  502    0  0.32392533929E+02 -0.64332529963E+02  0.84283548559E+02  0.11094656202E+03  0.41800000000E+01 0.  1.
         -5    1    3    3    0  502 -0.24519910832E+02  0.43247372261E+02  0.21137147920E+02  0.54183139969E+02  0.41800000000E+01 0.  1.
        -11    1    4    4    0    0  0.27267780842E+02 -0.17721728742E+02  0.89592267797E+02  0.95311940441E+02  0.00000000000E+00 0.  1.
         11    1    4    4    0    0 -0.35140403939E+02  0.38806886445E+02  0.41056159905E+02  0.66531426339E+02  0.00000000000E+00 0. -1.
</event>
<event>
 8    1  0.7048627E-009  0.2057846E+03  0.7561462E-02  0.1144948E+00
          2   -1    0    0  501    0  0.00000000000E+00  0.00000000000E+00  0.11596842843E+03  0.11596842843E+03  0.00000000000E+00 0. -1.
         -2   -1    0    0    0  501 -0.00000000000E+00 -0.00000000000E+00 -0.41289123338E+03  0.41289123338E+03  0.00000000000E+00 0.  1.
         25    2    1    2    0    0 -0.21089317066E+02 -0.18941991928E+03 -0.17375612489E+03  0.28664167759E+03  0.12509034847E+03 0.  0.
         23    2    1    2    0    0  0.21089317066E+02  0.18941991928E+03 -0.12316668007E+03  0.24221798422E+03  0.84704519881E+02 0.  0.
          5    1    3    3  502    0  0.21357452076E+02 -0.17243326675E+03 -0.16550209484E+03  0.23999539171E+03  0.41800000000E+01 0. -1.
         -5    1    3    3    0  502 -0.42446769142E+02 -0.16986652524E+02 -0.82540300474E+01  0.46646285882E+02  0.41800000000E+01 0. -1.
        -11    1    4    4    0    0  0.25542992861E+02  0.14677051243E+03 -0.13129163507E+03  0.19857371740E+03  0.00000000000E+00 0.  1.
         11    1    4    4    0    0 -0.44536757953E+01  0.42649406845E+02  0.81249550026E+01  0.43644266819E+02  0.00000000000E+00 0. -1.
</event>
<event>
 8    1  0.7048627E-009  0.6910689E+02  0.7561462E-02  0.1363157E+00
          2   -1    0    0  501    0  0.00000000000E+00  0.00000000000E+00  0.15701925029E+03  0.15701925029E+03  0.00000000000E+00 0. -1.
         -2   -1    0    0    0  501 -0.00000000000E+00 -0.00000000000E+00 -0.99161049987E+02  0.99161049987E+02  0.00000000000E+00 0.  1.
         25    2    1    2    0    0  0.22347357786E+02  0.20172306448E+02  0.84462670241E+02  0.15390747956E+03  0.12508894137E+03 0.  0.
         23    2    1    2    0    0 -0.22347357786E+02 -0.20172306448E+02 -0.26604469933E+02  0.10227282072E+03  0.94051080222E+02 0.  0.
          5    1    3    3  502    0  0.14939542925E+02  0.25944544461E+02  0.11644973457E+03  0.12030927816E+03  0.41800000000E+01 0.  1.
         -5    1    3    3    0  502  0.74078148612E+01 -0.57722380129E+01 -0.31987064329E+02  0.33598201397E+02  0.41800000000E+01 0.  1.
        -11    1    4    4    0    0 -0.44845088836E+02 -0.45461208441E+02 -0.10228632992E+02  0.64671697044E+02  0.00000000000E+00 0. -1.
         11    1    4    4    0    0  0.22497731050E+02  0.25288901993E+02 -0.16375836941E+02  0.37601123679E+02  0.00000000000E+00 0.  1.
</event>
<event>
 8    1  0.7048627E-009  0.9359066E+02  0.7561462E-02  0.1294382E+00
         -2   -1    0    0    0  501 -0.00000000000E+00  0.00000000000E+00  0.25360149366E+02  0.25360149366E+02  0.00000000000E+00 0.  1.
          2   -1    0    0  501    0  0.00000000000E+00 -0.00000000000E+00 -0.51605509714E+03  0.51605509714E+03  0.00000000000E+00 0. -1.
         25    2    1    2    0    0  0.33567367457E+02 -0.10660120300E+02 -0.30864518026E+03  0.33488751353E+03  0.12508954031E+03 0.  0.
         23    2    1    2    0    0 -0.33567367457E+02  0.10660120300E+02 -0.18204976751E+03  0.20652773297E+03  0.90946029686E+02 0.  0.
          5    1    3    3  502    0  0.10418229157E+02 -0.55482027293E+02 -0.65688585072E+02  0.86713652097E+02  0.41800000000E+01 0.  1.
         -5    1    3    3    0  502  0.23149138300E+02  0.44821906993E+02 -0.24295659519E+03  0.24817386143E+03  0.41800000000E+01 0.  1.
        -11    1    4    4    0    0  0.15763207382E+02  0.24126658089E+02 -0.16387864091E+02  0.33153226494E+02  0.00000000000E+00 0.  1.
         11    1    4    4    0    0 -0.49330574839E+02 -0.13466537789E+02 -0.16566190342E+03  0.17337450648E+03  0.00000000000E+00 0. -1.
</event>
<event>
 8    1  0.7048627E-009  0.1340273E+03  0.7561462E-02  0.1221599E+00
          1   -1    0    0  501    0  0.00000000000E+00  0.00000000000E+00  0.24556509601E+03  0.24556509601E+03  0.00000000000E+00 0. -1.
         -1   -1    0    0    0  501 -0.00000000000E+00 -0.00000000000E+00 -0.12467854554E+03  0.12467854554E+03  0.00000000000E+00 0.  1.
         25    2    1    2    0    0 -0.43730512449E+02 -0.67556785656E+02 -0.53850158078E+02  0.15819136057E+03  0.12509352512E+03 0.  0.
         23    2    1    2    0    0  0.43730512449E+02  0.67556785656E+02  0.17473670855E+03  0.21205228098E+03  0.89201880848E+02 0.  0.
          5    1    3    3  502    0  0.41759837261E+02 -0.40251858508E+02 -0.13466075248E+02  0.59690063696E+02  0.41800000000E+01 0.  1.
         -5    1    3    3    0  502 -0.85490349710E+02 -0.27304927148E+02 -0.40384082830E+02  0.98501296875E+02  0.41800000000E+01 0.  1.
        -11    1    4    4    0    0 -0.18507705066E+02  0.53006559887E+02  0.85516414952E+02  0.10229998907E+03  0.00000000000E+00 0.  1.
         11    1    4    4    0    0  0.62238217515E+02  0.14550225769E+02  0.89220293598E+02  0.10975229191E+03  0.00000000000E+00 0. -1.
</event>
<event>
 8    1  0.7048627E-009  0.1007531E+03  0.7561462E-02  0.1278720E+00
         -1   -1    0    0    0  501 -0.00000000000E+00  0.00000000000E+00  0.14723696203E+02  0.14723696203E+02  0.00000000000E+00 0.  1.
          1   -1    0    0  501    0  0.00000000000E+00 -0.00000000000E+00 -0.89684824061E+03  0.89684824061E+03  0.00000000000E+00 0. -1.
         25    2    1    2    0    0 -0.17315486747E+02  0.12301073290E+02 -0.63994865838E+03  0.65240535584E+03  0.12508925010E+03 0.  0.
         23    2    1    2    0    0  0.17315486747E+02 -0.12301073290E+02 -0.24217588603E+03  0.25916658096E+03  0.89816559889E+02 0.  0.
          5    1    3    3  502    0 -0.42334207057E+02 -0.44336422930E+02 -0.24370376148E+03  0.25133025931E+03  0.41800000000E+01 0. -1.
         -5    1    3    3    0  502  0.25018720309E+02  0.56637496220E+02 -0.39624489689E+03  0.40107509653E+03  0.41800000000E+01 0. -1.
        -11    1    4    4    0    0  0.46496526358E+02 -0.14593568047E+02 -0.74963511732E+02  0.89411561238E+02  0.00000000000E+00 0.  1.
         11    1    4    4    0    0 -0.29181039611E+02  0.22924947574E+01 -0.16721237430E+03  0.16975501973E+03  0.00000000000E+00 0. -1.
</event>
<event>
 8    1  0.7048627E-009  0.7550658E+02  0.7561462E-02  0.1342309E+00
         -2   -1    0    0    0  501 -0.00000000000E+00  0.00000000000E+00  0.29626681631E+02  0.29626681631E+02  0.00000000000E+00 0.  1.
          2   -1    0    0  501    0  0.00000000000E+00 -0.00000000000E+00 -0.50057825766E+03  0.50057825766E+03  0.00000000000E+00 0. -1.
         25    2    1    2    0    0  0.23291381148E+02 -0.45917824748E+02 -0.31531229116E+03  0.34310053669E+03  0.12508078290E+03 0.  0.
         23    2    1    2    0    0 -0.23291381148E+02  0.45917824748E+02 -0.15563928487E+03  0.18710440261E+03  0.90186115425E+02 0.  0.
          5    1    3    3  502    0  0.35980638502E+02 -0.16635670572E+01 -0.14982919387E+02  0.39234348162E+02  0.41800000000E+01 0.  1.
         -5    1    3    3    0  502 -0.12689257354E+02 -0.44254257691E+02 -0.30032937178E+03  0.30386618852E+03  0.41800000000E+01 0.  1.
        -11    1    4    4    0    0 -0.10309940237E+02 -0.80108292718E+01  0.73165286647E+01  0.14966624370E+02  0.00000000000E+00 0.  1.
         11    1    4    4    0    0 -0.12981440911E+02  0.53928654020E+02 -0.16295581353E+03  0.17213777824E+03  0.00000000000E+00 0. -1.
</event>
<event>
 8    1  0.7048627E-009  0.1107066E+03  0.7561462E-02  0.1259267E+00
         -2   -1    0    0    0  501 -0.00000000000E+00  0.00000000000E+00  0.11292176646E+02  0.11292176646E+02  0.00000000000E+00 0.  1.
          2   -1    0    0  501    0  0.00000000000E+00 -0.00000000000E+00 -0.10897760135E+04  0.10897760135E+04  0.00000000000E+00 0. -1.
         25    2    1    2    0    0  0.71155313276E+01  0.14468009507E+02 -0.60386167871E+03  0.61689130434E+03  0.12508397291E+03 0.  0.
         23    2    1    2    0    0 -0.71155313276E+01 -0.14468009507E+02 -0.47462215816E+03  0.48417688582E+03  0.94345692301E+02 0.  0.
          5    1    3    3  502    0 -0.55845458982E+02  0.26380976625E+02 -0.29586352127E+03  0.30227035388E+03  0.41800000000E+01 0.  1.
         -5    1    3    3    0  502  0.62960990310E+02 -0.11912967118E+02 -0.30799815743E+03  0.31462095046E+03  0.41800000000E+01 0.  1.
        -11    1    4    4    0    0  0.37646676438E+02 -0.29763764637E+02 -0.26163074934E+03  0.26599587015E+03  0.00000000000E+00 0. -1.
         11    1    4    4    0    0 -0.44762207766E+02  0.15295755130E+02 -0.21299140882E+03  0.21818101567E+03  0.00000000000E+00 0.  1.
</event>
<event>
 8    1  0.7048627E-009  0.4585613E+02  0.7561462E-02  0.1469067E+00
         -1   -1    0    0    0  501 -0.00000000000E+00  0.00000000000E+00  0.96052980446E+02  0.96052980446E+02  0.00000000000E+00 0.  1.
          1   -1    0    0  501    0  0.00000000000E+00 -0.00000000000E+00 -0.13311597763E+03  0.13311597763E+03  0.00000000000E+00 0. -1.
         25    2    1    2    0    0 -0.12448325674E+02 -0.15140142983E+01  0.56081939045E+01  0.12584360000E+03  0.12509159352E+03 0.  0.
         23    2    1    2    0    0  0.12448325674E+02  0.15140142983E+01 -0.42671191092E+02  0.10332535808E+03  0.93263315524E+02 0.  0.
          5    1    3    3  502    0  0.20112042722E+02  0.18028885064E+02  0.56172663118E+02  0.62468995836E+02  0.41800000000E+01 0.  1.
         -5    1    3    3    0  502 -0.32560368396E+02 -0.19542899362E+02 -0.50564469213E+02  0.63374604159E+02  0.41800000000E+01 0.  1.
        -11    1    4    4    0    0  0.19576542336E+01  0.11516371701E+02  0.28443313952E+02  0.30748680229E+02  0.00000000000E+00 0.  1.
         11    1    4    4    0    0  0.10490671441E+02 -0.10002357402E+02 -0.71114505044E+02  0.72576677855E+02  0.00000000000E+00 0. -1.
</event>
<event>
 8    1  0.7048627E-009  0.1064482E+03  0.7561462E-02  0.1267292E+00
         -1   -1    0    0    0  501 -0.00000000000E+00  0.00000000000E+00  0.27679638219E+03  0.27679638219E+03  0.00000000000E+00 0.  1.
          1   -1    0    0  501    0  0.00000000000E+00 -0.00000000000E+00 -0.48798014996E+02  0.48798014996E+02  0.00000000000E+00 0. -1.
         25    2    1    2    0    0  0.12321208246E+02 -0.14507002244E+01  0.74370842582E+02  0.14605553850E+03  0.12508909384E+03 0.  0.
         23    2    1    2    0    0 -0.12321208246E+02  0.14507002244E+01  0.15362752461E+03  0.17953885868E+03  0.92080772990E+02 0.  0.
          5    1    3    3  502    0 -0.28756516269E+02 -0.52181654486E+02  0.28599428706E+02  0.66221310883E+02  0.41800000000E+01 0. -1.
         -5    1    3    3    0  502  0.41077724516E+02  0.50730954261E+02  0.45771413876E+02  0.79834227621E+02  0.41800000000E+01 0. -1.
        -11    1    4    4    0    0  0.20101846532E+02  0.35465956007E+02  0.10136792959E+03  0.10925829679E+03  0.00000000000E+00 0.  1.
         11    1    4    4    0    0 -0.32423054778E+02 -0.34015255782E+02  0.52259595021E+02  0.70280561885E+02  0.00000000000E+00 0. -1.
</event>
<event>
 8    1  0.7048627E-009  0.9257790E+02  0.7561462E-02  0.1296726E+00
          3   -1    0    0  501    0  0.00000000000E+00  0.00000000000E+00  0.78051564949E+02  0.78051564949E+02  0.00000000000E+00 0. -1.
         -3   -1    0    0    0  501 -0.00000000000E+00 -0.00000000000E+00 -0.17615436062E+03  0.17615436062E+03  0.00000000000E+00 0.  1.
         25    2    1    2    0    0 -0.14751204614E+02  0.38052773369E+02 -0.34192448839E+02  0.13594789998E+03  0.12508835419E+03 0.  0.
         23    2    1    2    0    0  0.14751204614E+02 -0.38052773369E+02 -0.63910346830E+02  0.11825802558E+03  0.90745890177E+02 0.  0.
          5    1    3    3  502    0  0.57947153825E+01  0.58121633426E+02  0.29782219644E+02  0.65697458135E+02  0.41800000000E+01 0.  1.
         -5    1    3    3    0  502 -0.20545919996E+02 -0.20068860057E+02 -0.63974668483E+02  0.70250441849E+02  0.41800000000E+01 0.  1.
        -11    1    4    4    0    0 -0.13931874642E+02  0.24822154921E+02 -0.29727712222E+02  0.41157907866E+02  0.00000000000E+00 0.  1.
         11    1    4    4    0    0  0.28683079256E+02 -0.62874928290E+02 -0.34182634608E+02  0.77100117716E+02  0.00000000000E+00 0. -1.
</event>
<event>
 8    1  0.7048627E-009  0.7375150E+02  0.7561462E-02  0.1347781E+00
          2   -1    0    0  501    0  0.00000000000E+00  0.00000000000E+00  0.29601786494E+02  0.29601786494E+02  0.00000000000E+00 0. -1.
         -2   -1    0    0    0  501 -0.00000000000E+00 -0.00000000000E+00 -0.44998967595E+03  0.44998967595E+03  0.00000000000E+00 0.  1.
         25    2    1    2    0    0 -0.24782533714E+02 -0.31027836642E+02 -0.22178357403E+03  0.25770628865E+03  0.12509067461E+03 0.  0.
         23    2    1    2    0    0  0.24782533714E+02  0.31027836642E+02 -0.19860431542E+03  0.22188517379E+03  0.90622599947E+02 0.  0.
          5    1    3    3  502    0  0.62856549858E+01  0.19350852253E+02  0.65576587464E+01  0.21781648922E+02  0.41800000000E+01 0.  1.
         -5    1    3    3    0  502 -0.31068188699E+02 -0.50378688896E+02 -0.22834123278E+03  0.23592463973E+03  0.41800000000E+01 0.  1.
        -11    1    4    4    0    0  0.15341616575E+02 -0.14374007858E+02 -0.34593480537E+01  0.21305970760E+02  0.00000000000E+00 0. -1.
         11    1    4    4    0    0  0.94409171383E+01  0.45401844501E+02 -0.19514496737E+03  0.20057920303E+03  0.00000000000E+00 0.  1.
</event>
<event>
 8    1  0.7048627E-009  0.9138292E+02  0.7561462E-02  0.1299537E+00
          2   -1    0    0  501    0  0.00000000000E+00  0.00000000000E+00  0.84041154559E+03  0.84041154559E+03  0.00000000000E+00 0. -1.
         -2   -1    0    0    0  501 -0.00000000000E+00 -0.00000000000E+00 -0.22073317435E+02  0.22073317435E+02  0.00000000000E+00 0.  1.
         25    2    1    2    0    0  0.41502741169E+02  0.56681919404E+02  0.58167192939E+03  0.59910333665E+03  0.12508899646E+03 0.  0.
         23    2    1    2    0    0 -0.41502741169E+02 -0.56681919404E+02  0.23666629877E+03  0.26338152638E+03  0.91780030245E+02 0.  0.
          5    1    3    3  502    0  0.18906564525E+02  0.24718669426E+02  0.54304249181E+03  0.54394952993E+03  0.41800000000E+01 0.  1.
         -5    1    3    3    0  502  0.22596176645E+02  0.31963249977E+02  0.38629437580E+02  0.55153806721E+02  0.41800000000E+01 0.  1.
        -11    1    4    4    0    0  0.15047048021E+02 -0.53261986974E+02  0.14956118747E+03  0.15947351413E+03  0.00000000000E+00 0. -1.
         11    1    4    4    0    0 -0.56549789190E+02 -0.34199324295E+01  0.87105111296E+02  0.10390801225E+03  0.00000000000E+00 0.  1.
</event>
<event>
 8    1  0.7048627E-009  0.1130207E+03  0.7561462E-02  0.1255076E+00
          1   -1    0    0  501    0  0.00000000000E+00  0.00000000000E+00  0.39783149744E+03  0.39783149744E+03  0.00000000000E+00 0.  1.
         -1   -1    0    0    0  501 -0.00000000000E+00 -0.00000000000E+00 -0.49147359850E+02  0.49147359850E+02  0.00000000000E+00 0. -1.
         25    2    1    2    0    0 -0.36100474710E+02  0.80088541668E+02  0.20666328084E+03  0.25704988218E+03  0.12509001359E+03 0.  0.
         23    2    1    2    0    0  0.36100474710E+02 -0.80088541668E+02  0.14202085675E+03  0.18992897511E+03  0.90474709471E+02 0.  0.
          5    1    3    3  502    0  0.83660999851E+01 -0.66727221897E+00 -0.14578361241E+02  0.17333144482E+02  0.41800000000E+01 0.  1.
         -5    1    3    3    0  502 -0.44466574695E+02  0.80755813887E+02  0.22124164208E+03  0.23971673769E+03  0.41800000000E+01 0.  1.
        -11    1    4    4    0    0 -0.13263439832E+02 -0.73374212987E+02  0.10010550960E+03  0.12482310291E+03  0.00000000000E+00 0.  1.
         11    1    4    4    0    0  0.49363914541E+02 -0.67143286802E+01  0.41915347154E+02  0.65105872205E+02  0.00000000000E+00 0. -1.
</event>
