<event>
 8    1  0.1550723E-005  0.1398425E+03  0.7546771E-02  0.1225116E+00
         -2   -1    0    0    0  501 -0.00000000000E+00  0.00000000000E+00  0.10741510239E+03  0.10741510239E+03  0.00000000000E+00 0.  1.
          2   -1    0    0  501    0  0.00000000000E+00 -0.00000000000E+00 -0.21764075943E+03  0.21764075943E+03  0.00000000000E+00 0. -1.
         23    2    1    2    0    0 -0.21130096353E+02  0.59025234534E+02  0.33972615021E+02  0.14390986634E+03  0.12500180709E+03 0.  0.
         23    2    1    2    0    0  0.21130096353E+02 -0.59025234534E+02 -0.14419827207E+03  0.18114599548E+03  0.89945932240E+02 0.  0.
          5    1    3    3  502    0 -0.20081680667E+01  0.60272117966E+02  0.76206302170E+02  0.97294662924E+02  0.47000000000E+01 0.  1.
         -5    1    3    3    0  502 -0.19121928286E+02 -0.12468834318E+01 -0.42233687149E+02  0.46615203420E+02  0.47000000000E+01 0.  1.
        -11    1    4    4    0    0  0.19217826785E+02 -0.11881155444E+02  0.62746637985E+01  0.23449053858E+02  0.00000000000E+00 0.  1.
         11    1    4    4    0    0  0.19122695677E+01 -0.47144079090E+02 -0.15047293587E+03  0.15769694162E+03  0.00000000000E+00 0. -1.
<mgrwt>
<rscale>  0 0.13158931E+03</rscale>
<asrwt>0</asrwt>
<pdfrwt beam="2">  1        2 0.33483194E-01 0.13984245E+03</pdfrwt>
<pdfrwt beam="1">  1       -2 0.16525400E-01 0.13984245E+03</pdfrwt>
<totfact> 0.43434819E+03</totfact>
</mgrwt>
</event>
<event>
 7    1  0.1550723E-005  0.1400639E+03  0.7546771E-02  0.1230958E+00
          1   -1    0    0  501    0  0.00000000000E+00  0.00000000000E+00  0.27045888850E+03  0.27045888850E+03  0.00000000000E+00 0. -1.
         -1   -1    0    0    0  501 -0.00000000000E+00 -0.00000000000E+00 -0.52404086942E+02  0.52404086942E+02  0.00000000000E+00 0.  1.
         23    2    1    2    0    0 -0.29995181462E+02  0.20119145042E+02  0.10618789388E+03  0.14360869482E+03  0.89683317909E+02 0.  0.
          5    1    1    2  502    0  0.64328219252E+02  0.21353758254E+02  0.16942877914E+02  0.70023238255E+02  0.47000000000E+01 0. -1.
         -5    1    1    2    0  502 -0.34333037790E+02 -0.41472903296E+02  0.94924029764E+02  0.10923104238E+03  0.47000000000E+01 0.  1.
        -11    1    3    3    0    0 -0.50868735855E+02 -0.12958255796E+02  0.37315181065E+02  0.64404715811E+02  0.00000000000E+00 0.  1.
         11    1    3    3    0    0  0.20873554393E+02  0.33077400838E+02  0.68872712819E+02  0.79203979005E+02  0.00000000000E+00 0. -1.
<mgrwt>
<rscale>  0 0.12766801E+03</rscale>
<asrwt>0</asrwt>
<pdfrwt beam="1">  1        1 0.41609059E-01 0.14006389E+03</pdfrwt>
<pdfrwt beam="2">  1       -1 0.80621674E-02 0.14006389E+03</pdfrwt>
<totfact> 0.80860733E+03</totfact>
</mgrwt>
</event>
<event>
 8    1  0.1550723E-005  0.2100444E+03  0.7546771E-02  0.1145268E+00
          1   -1    0    0  501    0  0.00000000000E+00  0.00000000000E+00  0.86782137107E+03  0.86782137107E+03  0.00000000000E+00 0. -1.
         -1   -1    0    0    0  501 -0.00000000000E+00 -0.00000000000E+00 -0.59223332406E+02  0.59223332406E+02  0.00000000000E+00 0.  1.
         23    2    1    2    0    0 -0.96321724686E+02 -0.13862070514E+03  0.20449243562E+03  0.29314806968E+03  0.12500023995E+03 0.  0.
         23    2    1    2    0    0  0.96321724686E+02  0.13862070514E+03  0.60410560304E+03  0.63389663380E+03  0.91584868724E+02 0.  0.
          5    1    3    3  502    0 -0.89792748068E+02 -0.11356461974E+03  0.21939987118E+03  0.26290312653E+03  0.47000000000E+01 0. -1.
         -5    1    3    3    0  502 -0.65289766179E+01 -0.25056085397E+02 -0.14907435560E+02  0.30244943149E+02  0.47000000000E+01 0. -1.
        -11    1    4    4    0    0  0.11305356492E+03  0.12779418092E+03  0.51278019593E+03  0.54042204854E+03  0.00000000000E+00 0.  1.
         11    1    4    4    0    0 -0.16731840235E+02  0.10826524216E+02  0.91325407110E+02  0.93474585252E+02  0.00000000000E+00 0. -1.
<mgrwt>
<rscale>  0 0.20539229E+03</rscale>
<asrwt>0</asrwt>
<pdfrwt beam="1">  1        1 0.13351097E+00 0.21004436E+03</pdfrwt>
<pdfrwt beam="2">  1       -1 0.91112826E-02 0.21004436E+03</pdfrwt>
<totfact> 0.14264373E+03</totfact>
</mgrwt>
</event>
<event>
 8    1  0.1550723E-005  0.1678164E+03  0.7546771E-02  0.1187464E+00
         -2   -1    0    0    0  501 -0.00000000000E+00  0.00000000000E+00  0.11302035034E+04  0.11302035034E+04  0.00000000000E+00 0.  1.
          2   -1    0    0  501    0  0.00000000000E+00 -0.00000000000E+00 -0.34500273415E+02  0.34500273415E+02  0.00000000000E+00 0. -1.
         23    2    1    2    0    0 -0.83804590874E+02  0.74257181948E+02  0.93489183259E+03  0.94983423479E+03  0.12499998566E+03 0.  0.
         23    2    1    2    0    0  0.83804590874E+02 -0.74257181948E+02  0.16081139735E+03  0.21486954198E+03  0.88154841218E+02 0.  0.
          5    1    3    3  502    0 -0.25524551283E+02 -0.35130055802E+02  0.22895325827E+03  0.23308219153E+03  0.47000000000E+01 0.  1.
         -5    1    3    3    0  502 -0.58280039591E+02  0.10938723775E+03  0.70593857433E+03  0.71675204326E+03  0.47000000000E+01 0.  1.
        -11    1    4    4    0    0  0.22971387614E+01 -0.16288453160E+02 -0.82766129591E+01  0.18414474603E+02  0.00000000000E+00 0. -1.
         11    1    4    4    0    0  0.81507452113E+02 -0.57968728788E+02  0.16908801031E+03  0.19645506738E+03  0.00000000000E+00 0.  1.
<mgrwt>
<rscale>  0 0.16109638E+03</rscale>
<asrwt>0</asrwt>
<pdfrwt beam="2">  1        2 0.53077352E-02 0.16781637E+03</pdfrwt>
<pdfrwt beam="1">  1       -2 0.17387743E+00 0.16781637E+03</pdfrwt>
<totfact> 0.30841250E+02</totfact>
</mgrwt>
</event>
<event>
 7    1  0.1550723E-005  0.1796109E+03  0.7546771E-02  0.1187080E+00
         -2   -1    0    0    0  501 -0.00000000000E+00  0.00000000000E+00  0.31009151711E+02  0.31009151711E+02  0.00000000000E+00 0.  1.
          2   -1    0    0  501    0  0.00000000000E+00 -0.00000000000E+00 -0.72224830638E+03  0.72224830638E+03  0.00000000000E+00 0. -1.
         23    2    1    2    0    0 -0.14606608171E+02  0.73657055338E+02 -0.32134828259E+03  0.34206489222E+03  0.90027534468E+02 0.  0.
          5    1    1    2  502    0  0.21032267743E+02 -0.99680620799E+02 -0.37018588919E+03  0.38397690686E+03  0.47000000000E+01 0. -1.
         -5    1    1    2    0  502 -0.64256595712E+01  0.26023565461E+02  0.29501710936E+00  0.27215659010E+02  0.47000000000E+01 0.  1.
        -11    1    3    3    0    0 -0.28399691455E+02  0.79161621349E+02 -0.31478881533E+03  0.32582986823E+03  0.00000000000E+00 0. -1.
         11    1    3    3    0    0  0.13793083283E+02 -0.55045660114E+01 -0.65594672600E+01  0.16235023997E+02  0.00000000000E+00 0.  1.
<mgrwt>
<rscale>  0 0.16144044E+03</rscale>
<asrwt>0</asrwt>
<pdfrwt beam="2">  1        2 0.11111512E+00 0.17961088E+03</pdfrwt>
<pdfrwt beam="1">  1       -2 0.47706390E-02 0.17961088E+03</pdfrwt>
<totfact> 0.82878396E+03</totfact>
</mgrwt>
</event>
<event>
 8    1  0.1550723E-005  0.1312220E+03  0.7546771E-02  0.1239809E+00
          1   -1    0    0  501    0  0.00000000000E+00  0.00000000000E+00  0.10741749704E+02  0.10741749704E+02  0.00000000000E+00 0. -1.
         -1   -1    0    0    0  501 -0.00000000000E+00 -0.00000000000E+00 -0.12251147187E+04  0.12251147187E+04  0.00000000000E+00 0.  1.
         23    2    1    2    0    0  0.33910568241E+02  0.21054239895E+02 -0.71452992092E+03  0.72647933890E+03  0.12500405715E+03 0.  0.
         23    2    1    2    0    0 -0.33910568241E+02 -0.21054239895E+02 -0.49984304808E+03  0.50937712951E+03  0.89603458060E+02 0.  0.
          5    1    3    3  502    0  0.43206471893E+02  0.20001974768E+02 -0.90555762751E+02  0.10241735388E+03  0.47000000000E+01 0.  1.
         -5    1    3    3    0  502 -0.92959036523E+01  0.10522651269E+01 -0.62397415817E+03  0.62406198502E+03  0.47000000000E+01 0.  1.
        -11    1    4    4    0    0 -0.56028300257E+02 -0.39710600367E+02 -0.37373808266E+03  0.37999507450E+03  0.00000000000E+00 0. -1.
         11    1    4    4    0    0  0.22117732015E+02  0.18656360472E+02 -0.12610496542E+03  0.12938205501E+03  0.00000000000E+00 0.  1.
<mgrwt>
<rscale>  0 0.12201498E+03</rscale>
<asrwt>0</asrwt>
<pdfrwt beam="1">  1        1 0.16525771E-02 0.13122203E+03</pdfrwt>
<pdfrwt beam="2">  1       -1 0.18847916E+00 0.13122203E+03</pdfrwt>
<totfact> 0.15407942E+03</totfact>
</mgrwt>
</event>
<event>
 8    1  0.1550723E-005  0.1831712E+03  0.7546771E-02  0.1169947E+00
         -1   -1    0    0    0  501 -0.00000000000E+00  0.00000000000E+00  0.63125626035E+02  0.63125626035E+02  0.00000000000E+00 0.  1.
          1   -1    0    0  501    0  0.00000000000E+00 -0.00000000000E+00 -0.48229259174E+03  0.48229259174E+03  0.00000000000E+00 0. -1.
         23    2    1    2    0    0 -0.12457915168E+03  0.49023924661E+02 -0.18515418256E+03  0.26044914467E+03  0.12501350093E+03 0.  0.
         23    2    1    2    0    0  0.12457915168E+03 -0.49023924661E+02 -0.23401278315E+03  0.28496907311E+03  0.92315111054E+02 0.  0.
          5    1    3    3  502    0 -0.44701816441E+02  0.59300808087E+02 -0.20640485588E+02  0.77220190871E+02  0.47000000000E+01 0. -1.
         -5    1    3    3    0  502 -0.79877335243E+02 -0.10276883427E+02 -0.16451369697E+03  0.18322895380E+03  0.47000000000E+01 0. -1.
        -11    1    4    4    0    0  0.10487639094E+03  0.25452459247E+01 -0.17595178512E+03  0.20485254780E+03  0.00000000000E+00 0. -1.
         11    1    4    4    0    0  0.19702760749E+02 -0.51569170585E+02 -0.58060998028E+02  0.80116525311E+02  0.00000000000E+00 0.  1.
<mgrwt>
<rscale>  0 0.17780199E+03</rscale>
<asrwt>0</asrwt>
<pdfrwt beam="2">  1        1 0.74198862E-01 0.18317119E+03</pdfrwt>
<pdfrwt beam="1">  1       -1 0.97116346E-02 0.18317119E+03</pdfrwt>
<totfact> 0.29765161E+03</totfact>
</mgrwt>
</event>
<event>
 8    1  0.1550723E-005  0.1671436E+03  0.7546771E-02  0.1187450E+00
         -1   -1    0    0    0  501 -0.00000000000E+00  0.00000000000E+00  0.12265776749E+03  0.12265776749E+03  0.00000000000E+00 0.  1.
          1   -1    0    0  501    0  0.00000000000E+00 -0.00000000000E+00 -0.19781281791E+03  0.19781281791E+03  0.00000000000E+00 0. -1.
         23    2    1    2    0    0 -0.37470457429E+02  0.10444330364E+03 -0.36137312493E+02  0.17100555632E+03  0.12499822433E+03 0.  0.
         23    2    1    2    0    0  0.37470457429E+02 -0.10444330364E+03 -0.39017737925E+02  0.14946502907E+03  0.92222406111E+02 0.  0.
          5    1    3    3  502    0 -0.48385972613E+02  0.76791683700E+02 -0.77780433744E+02  0.11962462499E+03  0.47000000000E+01 0.  1.
         -5    1    3    3    0  502  0.10915515184E+02  0.27651619935E+02  0.41643121250E+02  0.51380931329E+02  0.47000000000E+01 0.  1.
        -11    1    4    4    0    0 -0.98506065053E+01 -0.64366874840E+02  0.15455927873E+02  0.66925441587E+02  0.00000000000E+00 0.  1.
         11    1    4    4    0    0  0.47321063934E+02 -0.40076428795E+02 -0.54473665799E+02  0.82539587486E+02  0.00000000000E+00 0. -1.
<mgrwt>
<rscale>  0 0.16110934E+03</rscale>
<asrwt>0</asrwt>
<pdfrwt beam="2">  1        1 0.30432741E-01 0.16714364E+03</pdfrwt>
<pdfrwt beam="1">  1       -1 0.18870426E-01 0.16714364E+03</pdfrwt>
<totfact> 0.32172861E+03</totfact>
</mgrwt>
</event>
<event>
 8    1  0.1550723E-005  0.1250668E+03  0.7546771E-02  0.1250975E+00
          2   -1    0    0  501    0  0.00000000000E+00  0.00000000000E+00  0.22716383780E+02  0.22716383780E+02  0.00000000000E+00 0. -1.
         -2   -1    0    0    0  501 -0.00000000000E+00 -0.00000000000E+00 -0.57887985375E+03  0.57887985375E+03  0.00000000000E+00 0.  1.
         23    2    1    2    0    0 -0.15570222077E+00 -0.41030640827E+01 -0.41903197020E+03  0.43729795420E+03  0.12499939728E+03 0.  0.
         23    2    1    2    0    0  0.15570222077E+00  0.41030640827E+01 -0.13713149978E+03  0.16429828334E+03  0.90399216248E+02 0.  0.
          5    1    3    3  502    0  0.28907994145E+02  0.52842820282E+02 -0.22372750970E+03  0.23174150336E+03  0.47000000000E+01 0.  1.
         -5    1    3    3    0  502 -0.29063696365E+02 -0.56945884365E+02 -0.19530446049E+03  0.20555645084E+03  0.47000000000E+01 0.  1.
        -11    1    4    4    0    0 -0.44699653243E+02 -0.40763458264E+01 -0.69380225587E+02  0.82633475650E+02  0.00000000000E+00 0.  1.
         11    1    4    4    0    0  0.44855355464E+02  0.81794099091E+01 -0.67751274189E+02  0.81664807686E+02  0.00000000000E+00 0. -1.
<mgrwt>
<rscale>  0 0.11534788E+03</rscale>
<asrwt>0</asrwt>
<pdfrwt beam="1">  1        2 0.34948281E-02 0.12506682E+03</pdfrwt>
<pdfrwt beam="2">  1       -2 0.89058444E-01 0.12506682E+03</pdfrwt>
<totfact> 0.27049967E+03</totfact>
</mgrwt>
</event>
<event>
 8    1  0.1550723E-005  0.1663798E+03  0.7546771E-02  0.1189371E+00
         -1   -1    0    0    0  501 -0.00000000000E+00  0.00000000000E+00  0.12823497462E+02  0.12823497462E+02  0.00000000000E+00 0.  1.
          1   -1    0    0  501    0  0.00000000000E+00 -0.00000000000E+00 -0.18709550919E+04  0.18709550919E+04  0.00000000000E+00 0. -1.
         23    2    1    2    0    0 -0.61676166537E+02 -0.90845176813E+02 -0.11418896808E+04  0.11539472651E+04  0.12500180708E+03 0.  0.
         23    2    1    2    0    0  0.61676166537E+02  0.90845176813E+02 -0.71624191366E+03  0.72983132432E+03  0.87146356200E+02 0.  0.
          5    1    3    3  502    0 -0.42863991072E+02 -0.11686740788E+03 -0.71039687938E+03  0.72123583451E+03  0.47000000000E+01 0.  1.
         -5    1    3    3    0  502 -0.18812175465E+02  0.26022231066E+02 -0.43149280141E+03  0.43271143055E+03  0.47000000000E+01 0.  1.
        -11    1    4    4    0    0 -0.17293031778E+02  0.45993954713E+02 -0.23193882905E+03  0.23708672093E+03  0.00000000000E+00 0. -1.
         11    1    4    4    0    0  0.78969198314E+02  0.44851222100E+02 -0.48430308461E+03  0.49274460339E+03  0.00000000000E+00 0.  1.
<mgrwt>
<rscale>  0 0.15940406E+03</rscale>
<asrwt>0</asrwt>
<pdfrwt beam="2">  1        1 0.28783901E+00 0.16637983E+03</pdfrwt>
<pdfrwt beam="1">  1       -1 0.19728473E-02 0.16637983E+03</pdfrwt>
<totfact> 0.28559059E+03</totfact>
</mgrwt>
</event>
<event>
 8    1  0.1550723E-005  0.2348551E+03  0.7546771E-02  0.1126123E+00
          1   -1    0    0  501    0  0.00000000000E+00  0.00000000000E+00  0.44533814140E+03  0.44533814140E+03  0.00000000000E+00 0. -1.
         -1   -1    0    0    0  501 -0.00000000000E+00 -0.00000000000E+00 -0.11562671488E+03  0.11562671488E+03  0.00000000000E+00 0.  1.
         23    2    1    2    0    0  0.19881470123E+03 -0.20320731091E+01  0.16280666210E+03  0.28576724401E+03  0.12500197510E+03 0.  0.
         23    2    1    2    0    0 -0.19881470123E+03  0.20320731091E+01  0.16690476442E+03  0.27519761227E+03  0.91351577260E+02 0.  0.
          5    1    3    3  502    0 -0.11027830380E+02 -0.94940885152E+01  0.39174029409E+02  0.42052887413E+02  0.47000000000E+01 0.  1.
         -5    1    3    3    0  502  0.20984253160E+03  0.74620154061E+01  0.12363263269E+03  0.24371435660E+03  0.47000000000E+01 0.  1.
        -11    1    4    4    0    0 -0.23130830204E+02 -0.30551042860E+02  0.16821820379E+02  0.41849434484E+02  0.00000000000E+00 0. -1.
         11    1    4    4    0    0 -0.17568387102E+03  0.32583115969E+02  0.15008294404E+03  0.23334817779E+03  0.00000000000E+00 0.  1.
<mgrwt>
<rscale>  0 0.23073597E+03</rscale>
<asrwt>0</asrwt>
<pdfrwt beam="1">  1        1 0.68513559E-01 0.23485508E+03</pdfrwt>
<pdfrwt beam="2">  1       -1 0.17788726E-01 0.23485508E+03</pdfrwt>
<totfact> 0.12843093E+03</totfact>
</mgrwt>
</event>
<event>
 8    1  0.1550723E-005  0.1979002E+03  0.7546771E-02  0.1155943E+00
          1   -1    0    0  501    0  0.00000000000E+00  0.00000000000E+00  0.29274874325E+03  0.29274874325E+03  0.00000000000E+00 0. -1.
         -1   -1    0    0    0  501 -0.00000000000E+00 -0.00000000000E+00 -0.17771198131E+03  0.17771198131E+03  0.00000000000E+00 0.  1.
         23    2    1    2    0    0  0.11987144524E+03 -0.95761884472E+02 -0.73339322001E+02  0.21105243350E+03  0.12499988654E+03 0.  0.
         23    2    1    2    0    0 -0.11987144524E+03  0.95761884472E+02  0.18837608394E+03  0.25940829105E+03  0.90926401914E+02 0.  0.
          5    1    3    3  502    0 -0.24095719794E+02 -0.29647142995E+02 -0.64741385840E+01  0.39032822990E+02  0.47000000000E+01 0.  1.
         -5    1    3    3    0  502  0.14396716503E+03 -0.66114741477E+02 -0.66865183417E+02  0.17201961051E+03  0.47000000000E+01 0.  1.
        -11    1    4    4    0    0 -0.87210909779E+02  0.13445518290E+02  0.11105850886E+03  0.14184680869E+03  0.00000000000E+00 0.  1.
         11    1    4    4    0    0 -0.32660535457E+02  0.82316366182E+02  0.77317575083E+02  0.11756148236E+03  0.00000000000E+00 0. -1.
<mgrwt>
<rscale>  0 0.19281914E+03</rscale>
<asrwt>0</asrwt>
<pdfrwt beam="1">  1        1 0.45038268E-01 0.19790016E+03</pdfrwt>
<pdfrwt beam="2">  1       -1 0.27340305E-01 0.19790016E+03</pdfrwt>
<totfact> 0.10793137E+03</totfact>
</mgrwt>
</event>
<event>
 8    1  0.1550723E-005  0.1590543E+03  0.7546771E-02  0.1197387E+00
         -1   -1    0    0    0  501 -0.00000000000E+00  0.00000000000E+00  0.24642450495E+03  0.24642450495E+03  0.00000000000E+00 0.  1.
          1   -1    0    0  501    0  0.00000000000E+00 -0.00000000000E+00 -0.12018779343E+03  0.12018779343E+03  0.00000000000E+00 0. -1.
         23    2    1    2    0    0 -0.45287142543E+01 -0.98249773715E+02  0.16236960929E+03  0.22729313836E+03  0.12499901374E+03 0.  0.
         23    2    1    2    0    0  0.45287142543E+01  0.98249773715E+02 -0.36132897766E+02  0.13931916003E+03  0.91818923767E+02 0.  0.
          5    1    3    3  502    0 -0.10766745364E+02 -0.10565353948E+03  0.17858588459E+03  0.20783070366E+03  0.47000000000E+01 0.  1.
         -5    1    3    3    0  502  0.62380311098E+01  0.74037657624E+01 -0.16216275300E+02  0.19462434694E+02  0.47000000000E+01 0.  1.
        -11    1    4    4    0    0  0.18401267309E+02  0.65029605211E+02 -0.64548371652E+02  0.93455596277E+02  0.00000000000E+00 0. -1.
         11    1    4    4    0    0 -0.13872553055E+02  0.33220168504E+02  0.28415473886E+02  0.45863563750E+02  0.00000000000E+00 0.  1.
<mgrwt>
<rscale>  0 0.15253927E+03</rscale>
<asrwt>0</asrwt>
<pdfrwt beam="2">  1        1 0.18490430E-01 0.15905433E+03</pdfrwt>
<pdfrwt beam="1">  1       -1 0.37911462E-01 0.15905433E+03</pdfrwt>
<totfact> 0.18855516E+03</totfact>
</mgrwt>
</event>
<event>
 8    1  0.1550723E-005  0.2039569E+03  0.7546771E-02  0.1150553E+00
          2   -1    0    0  501    0  0.00000000000E+00  0.00000000000E+00  0.80767350396E+02  0.80767350396E+02  0.00000000000E+00 0. -1.
         -2   -1    0    0    0  501 -0.00000000000E+00 -0.00000000000E+00 -0.48225561065E+03  0.48225561065E+03  0.00000000000E+00 0.  1.
         23    2    1    2    0    0  0.14094569306E+03  0.78150680918E+02 -0.25819466023E+03  0.32903325730E+03  0.12500073807E+03 0.  0.
         23    2    1    2    0    0 -0.14094569306E+03 -0.78150680918E+02 -0.14329360003E+03  0.23398970375E+03  0.90801477572E+02 0.  0.
          5    1    3    3  502    0  0.53914600628E+02  0.70206376088E+02 -0.21262032890E+03  0.23035888015E+03  0.47000000000E+01 0. -1.
         -5    1    3    3    0  502  0.87031092436E+02  0.79443048298E+01 -0.45574331331E+02  0.98674377151E+02  0.47000000000E+01 0. -1.
        -11    1    4    4    0    0 -0.12058936218E+03 -0.95424410675E+02 -0.13831882023E+03  0.20683256139E+03  0.00000000000E+00 0. -1.
         11    1    4    4    0    0 -0.20356330883E+02  0.17273729757E+02 -0.49747798026E+01  0.27157142353E+02  0.00000000000E+00 0.  1.
<mgrwt>
<rscale>  0 0.19903789E+03</rscale>
<asrwt>0</asrwt>
<pdfrwt beam="1">  1        2 0.12425746E-01 0.20395686E+03</pdfrwt>
<pdfrwt beam="2">  1       -2 0.74193170E-01 0.20395686E+03</pdfrwt>
<totfact> 0.81738926E+02</totfact>
</mgrwt>
</event>
<event>
 8    1  0.1550723E-005  0.1179979E+03  0.7546771E-02  0.1255090E+00
         -2   -1    0    0    0  501 -0.00000000000E+00  0.00000000000E+00  0.24156222162E+02  0.24156222162E+02  0.00000000000E+00 0.  1.
          2   -1    0    0  501    0  0.00000000000E+00 -0.00000000000E+00 -0.53912541283E+03  0.53912541283E+03  0.00000000000E+00 0. -1.
         23    2    1    2    0    0  0.12251677995E+02 -0.26793178259E+02 -0.19166430083E+03  0.22507491671E+03  0.11426082402E+03 0.  0.
         23    2    1    2    0    0 -0.12251677995E+02  0.26793178259E+02 -0.32330488984E+03  0.33820671828E+03  0.94814315804E+02 0.  0.
          5    1    3    3  502    0 -0.30918789391E+02  0.24525542988E+02 -0.12179534731E+03  0.12811584766E+03  0.47000000000E+01 0. -1.
         -5    1    3    3    0  502  0.43170467386E+02 -0.51318721247E+02 -0.69868953521E+02  0.96959069048E+02  0.47000000000E+01 0.  1.
        -11    1    4    4    0    0 -0.30084274818E+02 -0.20001692406E+02 -0.58863689411E+02  0.69065658772E+02  0.00000000000E+00 0.  1.
         11    1    4    4    0    0  0.17832596824E+02  0.46794870665E+02 -0.26444120043E+03  0.26914105951E+03  0.00000000000E+00 0. -1.
<mgrwt>
<rscale>  0 0.11301288E+03</rscale>
<asrwt>0</asrwt>
<pdfrwt beam="2">  1        2 0.82942360E-01 0.11799794E+03</pdfrwt>
<pdfrwt beam="1">  1       -2 0.37163424E-02 0.11799794E+03</pdfrwt>
<totfact> 0.16388778E+04</totfact>
</mgrwt>
</event>
<event>
 8    1  0.1550723E-005  0.1459661E+03  0.7546771E-02  0.1214903E+00
          2   -1    0    0  501    0  0.00000000000E+00  0.00000000000E+00  0.13560741165E+03  0.13560741165E+03  0.00000000000E+00 0. -1.
         -2   -1    0    0    0  501 -0.00000000000E+00 -0.00000000000E+00 -0.14201212763E+03  0.14201212763E+03  0.00000000000E+00 0.  1.
         23    2    1    2    0    0  0.70225564539E+02  0.27377110730E+02 -0.43864980198E+02  0.15241470371E+03  0.12499987725E+03 0.  0.
         23    2    1    2    0    0 -0.70225564539E+02 -0.27377110730E+02  0.37460264218E+02  0.12520483556E+03  0.92692196790E+02 0.  0.
          5    1    3    3  502    0  0.12371898419E+02 -0.33805659431E+02  0.24544298757E+02  0.43822358238E+02  0.47000000000E+01 0.  1.
         -5    1    3    3    0  502  0.57853666119E+02  0.61182770161E+02 -0.68409278954E+02  0.10859234547E+03  0.47000000000E+01 0.  1.
        -11    1    4    4    0    0 -0.57745702792E+02 -0.58019050178E+02  0.10506954847E+02  0.82529827787E+02  0.00000000000E+00 0. -1.
         11    1    4    4    0    0 -0.12479861747E+02  0.30641939448E+02  0.26953309371E+02  0.42675007773E+02  0.00000000000E+00 0.  1.
<mgrwt>
<rscale>  0 0.13883640E+03</rscale>
<asrwt>0</asrwt>
<pdfrwt beam="1">  1        2 0.20862679E-01 0.14596611E+03</pdfrwt>
<pdfrwt beam="2">  1       -2 0.21848020E-01 0.14596611E+03</pdfrwt>
<totfact> 0.45776618E+03</totfact>
</mgrwt>
</event>
<event>
 8    1  0.1550723E-005  0.1756201E+03  0.7546771E-02  0.1176721E+00
         -2   -1    0    0    0  501 -0.00000000000E+00  0.00000000000E+00  0.21637695063E+03  0.21637695063E+03  0.00000000000E+00 0. -1.
          2   -1    0    0  501    0  0.00000000000E+00 -0.00000000000E+00 -0.14378719171E+03  0.14378719171E+03  0.00000000000E+00 0.  1.
         23    2    1    2    0    0  0.58828048959E+02  0.10842846929E+03  0.96198286874E+02  0.20024115197E+03  0.12499974500E+03 0.  0.
         23    2    1    2    0    0 -0.58828048959E+02 -0.10842846929E+03 -0.23608527959E+02  0.15992299037E+03  0.98997615925E+02 0.  0.
          5    1    3    3  502    0  0.58876253906E+02  0.12786236117E+03  0.49241142138E+02  0.14920447968E+03  0.47000000000E+01 0. -1.
         -5    1    3    3    0  502 -0.48204947437E-01 -0.19433891875E+02  0.46957144737E+02  0.51036672295E+02  0.47000000000E+01 0. -1.
        -11    1    4    4    0    0 -0.61540951870E+02 -0.13324522116E+02 -0.72253347264E+01  0.63380100257E+02  0.00000000000E+00 0. -1.
         11    1    4    4    0    0  0.27129029110E+01 -0.95103947176E+02 -0.16383193233E+02  0.96542890112E+02  0.00000000000E+00 0.  1.
<mgrwt>
<rscale>  0 0.17108510E+03</rscale>
<asrwt>0</asrwt>
<pdfrwt beam="2">  1        2 0.22121106E-01 0.17562007E+03</pdfrwt>
<pdfrwt beam="1">  1       -2 0.33288762E-01 0.17562007E+03</pdfrwt>
<totfact> 0.20482244E+03</totfact>
</mgrwt>
</event>
<event>
 8    1  0.1550723E-005  0.1250553E+03  0.7546771E-02  0.1250525E+00
          1   -1    0    0  501    0  0.00000000000E+00  0.00000000000E+00  0.46958391697E+03  0.46958391697E+03  0.00000000000E+00 0. -1.
         -1   -1    0    0    0  501 -0.00000000000E+00 -0.00000000000E+00 -0.27607011882E+02  0.27607011882E+02  0.00000000000E+00 0.  1.
         23    2    1    2    0    0  0.30541329466E+01  0.20099310922E+01  0.17550826047E+03  0.21550400130E+03  0.12500183011E+03 0.  0.
         23    2    1    2    0    0 -0.30541329466E+01 -0.20099310922E+01  0.26646864462E+03  0.28168692755E+03  0.91261268003E+02 0.  0.
          5    1    3    3  502    0 -0.15462203918E+02 -0.58924918141E+02  0.90022573740E+02  0.10879972202E+03  0.47000000000E+01 0. -1.
         -5    1    3    3    0  502  0.18516336865E+02  0.60934849233E+02  0.85485686728E+02  0.10670427928E+03  0.47000000000E+01 0. -1.
        -11    1    4    4    0    0  0.42972603653E+02  0.90540277593E+01  0.12233662372E+03  0.12998026614E+03  0.00000000000E+00 0. -1.
         11    1    4    4    0    0 -0.46026736599E+02 -0.11063958852E+02  0.14413202090E+03  0.15170666141E+03  0.00000000000E+00 0.  1.
<mgrwt>
<rscale>  0 0.11560729E+03</rscale>
<asrwt>0</asrwt>
<pdfrwt beam="1">  1        1 0.72243674E-01 0.12505529E+03</pdfrwt>
<pdfrwt beam="2">  1       -1 0.42472329E-02 0.12505529E+03</pdfrwt>
<totfact> 0.10431515E+04</totfact>
</mgrwt>
</event>
<event>
 8    1  0.1550723E-005  0.1694687E+03  0.7546771E-02  0.1184721E+00
          2   -1    0    0  501    0  0.00000000000E+00  0.00000000000E+00  0.55855503023E+03  0.55855503023E+03  0.00000000000E+00 0. -1.
         -2   -1    0    0    0  501 -0.00000000000E+00 -0.00000000000E+00 -0.51173273265E+02  0.51173273265E+02  0.00000000000E+00 0.  1.
         23    2    1    2    0    0 -0.17096532014E+02 -0.11314796801E+03  0.16249041415E+03  0.23478239827E+03  0.12499954311E+03 0.  0.
         23    2    1    2    0    0  0.17096532014E+02  0.11314796801E+03  0.34489134282E+03  0.37494590522E+03  0.92410169467E+02 0.  0.
          5    1    3    3  502    0  0.52203623857E+02 -0.50100979450E+02  0.93591984630E+02  0.11839288861E+03  0.47000000000E+01 0.  1.
         -5    1    3    3    0  502 -0.69300155872E+02 -0.63046988560E+02  0.68898429517E+02  0.11638950967E+03  0.47000000000E+01 0.  1.
        -11    1    4    4    0    0  0.80861944714E+01  0.22734178390E+02  0.71068647881E+01  0.25154262764E+02  0.00000000000E+00 0.  1.
         11    1    4    4    0    0  0.90103375428E+01  0.90413789619E+02  0.33778447803E+03  0.34979164246E+03  0.00000000000E+00 0. -1.
<mgrwt>
<rscale>  0 0.16357247E+03</rscale>
<asrwt>0</asrwt>
<pdfrwt beam="1">  1        2 0.85931539E-01 0.16946870E+03</pdfrwt>
<pdfrwt beam="2">  1       -2 0.78728117E-02 0.16946870E+03</pdfrwt>
<totfact> 0.51889634E+03</totfact>
</mgrwt>
</event>
<event>
 7    1  0.1550723E-005  0.3327600E+03  0.7546771E-02  0.1069922E+00
         -1   -1    0    0    0  501 -0.00000000000E+00  0.00000000000E+00  0.43300031659E+02  0.43300031659E+02  0.00000000000E+00 0.  1.
          1   -1    0    0  501    0  0.00000000000E+00 -0.00000000000E+00 -0.63931361918E+03  0.63931361918E+03  0.00000000000E+00 0. -1.
         23    2    1    2    0    0  0.12222998287E+02 -0.23710679971E+02 -0.16633562910E+03  0.20977048503E+03  0.12499806739E+03 0.  0.
          5    1    3    3  502    0 -0.39352414558E+02 -0.50883274162E+02 -0.58398128741E+02  0.87006617918E+02  0.47000000000E+01 0. -1.
         -5    1    3    3    0  502  0.51575412845E+02  0.27172594191E+02 -0.10793750035E+03  0.12276386711E+03  0.47000000000E+01 0. -1.
        -11    1    1    2    0    0 -0.80314340813E+02 -0.51885145056E+02 -0.21151226673E+03  0.23212044416E+03  0.00000000000E+00 0. -1.
         11    1    1    2    0    0  0.68091342525E+02  0.75595825027E+02 -0.21816569170E+03  0.24072272166E+03  0.00000000000E+00 0.  1.
<mgrwt>
<rscale>  0 0.33275997E+03</rscale>
<asrwt>0</asrwt>
<pdfrwt beam="2">  1        1 0.98355942E-01 0.33275997E+03</pdfrwt>
<pdfrwt beam="1">  1       -1 0.66615433E-02 0.33275997E+03</pdfrwt>
<totfact> 0.36722650E+03</totfact>
</mgrwt>
</event>
<event>
 8    1  0.1550723E-005  0.1352195E+03  0.7546771E-02  0.1230050E+00
         -3   -1    0    0    0  501 -0.00000000000E+00  0.00000000000E+00  0.52790307973E+02  0.52790307973E+02  0.00000000000E+00 0.  1.
          3   -1    0    0  501    0  0.00000000000E+00 -0.00000000000E+00 -0.29605928689E+03  0.29605928689E+03  0.00000000000E+00 0. -1.
         23    2    1    2    0    0  0.51020201026E+02  0.74880132498E+01 -0.16952678800E+03  0.21684938433E+03  0.12500076951E+03 0.  0.
         23    2    1    2    0    0 -0.51020201026E+02 -0.74880132498E+01 -0.73742190914E+02  0.13200021053E+03  0.96576465064E+02 0.  0.
          5    1    3    3  502    0  0.30975616417E+01 -0.30625425065E+02  0.52677303783E+01  0.31580857048E+02  0.47000000000E+01 0. -1.
         -5    1    3    3    0  502  0.47922639384E+02  0.38113438315E+02 -0.17479451838E+03  0.18526852728E+03  0.47000000000E+01 0. -1.
        -11    1    4    4    0    0 -0.34572733658E+02  0.20373011580E+02 -0.87943987266E+02  0.96666842349E+02  0.00000000000E+00 0. -1.
         11    1    4    4    0    0 -0.16447467368E+02 -0.27861024830E+02  0.14201796352E+02  0.35333368181E+02  0.00000000000E+00 0.  1.
<mgrwt>
<rscale>  0 0.12826688E+03</rscale>
<asrwt>0</asrwt>
<pdfrwt beam="2">  1        3 0.45547582E-01 0.13521954E+03</pdfrwt>
<pdfrwt beam="1">  1       -3 0.81215859E-02 0.13521954E+03</pdfrwt>
<totfact> 0.11537108E+03</totfact>
</mgrwt>
</event>
<event>
 8    1  0.1550723E-005  0.1569592E+03  0.7546771E-02  0.1195330E+00
          1   -1    0    0  501    0  0.00000000000E+00  0.00000000000E+00  0.71840723205E+03  0.71840723205E+03  0.00000000000E+00 0. -1.
         -1   -1    0    0    0  501 -0.00000000000E+00 -0.00000000000E+00 -0.35354537183E+02  0.35354537183E+02  0.00000000000E+00 0.  1.
         23    2    1    2    0    0  0.88785046959E+02 -0.33616409987E+02  0.23682749972E+03  0.28411872577E+03  0.12499335232E+03 0.  0.
         23    2    1    2    0    0 -0.88785046959E+02  0.33616409987E+02  0.44622519515E+03  0.46964304346E+03  0.11151150571E+03 0.  0.
          5    1    3    3  502    0  0.12423545842E+02  0.97608647012E+01 -0.11880442790E+02  0.20318806360E+02  0.47000000000E+01 0.  1.
         -5    1    3    3    0  502  0.76361501117E+02 -0.43377274688E+02  0.24870794251E+03  0.26379991941E+03  0.47000000000E+01 0.  1.
        -11    1    4    4    0    0 -0.23711370499E+02  0.60264359094E+02  0.12464994805E+03  0.14046932625E+03  0.00000000000E+00 0.  1.
         11    1    4    4    0    0 -0.65073676460E+02 -0.26647949107E+02  0.32157524710E+03  0.32917371721E+03  0.00000000000E+00 0. -1.
<mgrwt>
<rscale>  0 0.15426328E+03</rscale>
<asrwt>0</asrwt>
<pdfrwt beam="1">  1        1 0.11052418E+00 0.15695918E+03</pdfrwt>
<pdfrwt beam="2">  1       -1 0.54391601E-02 0.15695918E+03</pdfrwt>
<totfact> 0.41168622E+03</totfact>
</mgrwt>
</event>
<event>
 8    1  0.1550723E-005  0.1615915E+03  0.7546771E-02  0.1194271E+00
          2   -1    0    0  501    0  0.00000000000E+00  0.00000000000E+00  0.26929365982E+03  0.26929365982E+03  0.00000000000E+00 0. -1.
         -2   -1    0    0    0  501 -0.00000000000E+00 -0.00000000000E+00 -0.83613324637E+02  0.83613324637E+02  0.00000000000E+00 0.  1.
         23    2    1    2    0    0 -0.83819925158E+02 -0.58825771960E+02  0.84895996666E+02  0.18253534083E+03  0.12500227638E+03 0.  0.
         23    2    1    2    0    0  0.83819925158E+02  0.58825771960E+02  0.10078433852E+03  0.17037164363E+03  0.91557428773E+02 0.  0.
          5    1    3    3  502    0 -0.80591285647E+02 -0.33384378801E+02  0.11389452098E+03  0.14353927678E+03  0.47000000000E+01 0.  1.
         -5    1    3    3    0  502 -0.32286395111E+01 -0.25441393159E+02 -0.28998524309E+02  0.38996064046E+02  0.47000000000E+01 0.  1.
        -11    1    4    4    0    0  0.20631215517E+02 -0.27348335101E+01  0.75913001491E+02  0.78714103967E+02  0.00000000000E+00 0. -1.
         11    1    4    4    0    0  0.63188709642E+02  0.61560605470E+02  0.24871337027E+02  0.91657539665E+02  0.00000000000E+00 0.  1.
<mgrwt>
<rscale>  0 0.15516100E+03</rscale>
<asrwt>0</asrwt>
<pdfrwt beam="1">  1        2 0.41429794E-01 0.16159152E+03</pdfrwt>
<pdfrwt beam="2">  1       -2 0.12863588E-01 0.16159152E+03</pdfrwt>
<totfact> 0.52482233E+03</totfact>
</mgrwt>
</event>
<event>
 8    1  0.1550723E-005  0.2106251E+03  0.7546771E-02  0.1145027E+00
         -3   -1    0    0    0  501 -0.00000000000E+00  0.00000000000E+00  0.11638387307E+03  0.11638387307E+03  0.00000000000E+00 0.  1.
          3   -1    0    0  501    0  0.00000000000E+00 -0.00000000000E+00 -0.49991306919E+03  0.49991306919E+03  0.00000000000E+00 0. -1.
         23    2    1    2    0    0 -0.14267473858E+03 -0.91551208536E+02 -0.28044945474E+02  0.21248403625E+03  0.12500096752E+03 0.  0.
         23    2    1    2    0    0  0.14267473858E+03  0.91551208536E+02 -0.35548425065E+03  0.40381290601E+03  0.89208215907E+02 0.  0.
          5    1    3    3  502    0 -0.12704292330E+03 -0.10062836233E+03  0.17674777393E+02  0.16309647274E+03  0.47000000000E+01 0.  1.
         -5    1    3    3    0  502 -0.15631815285E+02  0.90771537934E+01 -0.45719722867E+02  0.49387563507E+02  0.47000000000E+01 0.  1.
        -11    1    4    4    0    0  0.13869738195E+03  0.47160949593E+02 -0.28438133760E+03  0.31989664597E+03  0.00000000000E+00 0. -1.
         11    1    4    4    0    0  0.39773566289E+01  0.44390258943E+02 -0.71102913043E+02  0.83916260033E+02  0.00000000000E+00 0.  1.
<mgrwt>
<rscale>  0 0.20568836E+03</rscale>
<asrwt>0</asrwt>
<pdfrwt beam="2">  1        3 0.76909703E-01 0.21062513E+03</pdfrwt>
<pdfrwt beam="1">  1       -3 0.17905211E-01 0.21062513E+03</pdfrwt>
<totfact> 0.10887831E+02</totfact>
</mgrwt>
</event>
<event>
 8    1  0.1550723E-005  0.1334221E+03  0.7546771E-02  0.1235338E+00
          1   -1    0    0  501    0  0.00000000000E+00  0.00000000000E+00  0.63184726622E+03  0.63184726622E+03  0.00000000000E+00 0. -1.
         -1   -1    0    0    0  501 -0.00000000000E+00 -0.00000000000E+00 -0.24510131463E+02  0.24510131463E+02  0.00000000000E+00 0.  1.
         23    2    1    2    0    0 -0.41688393760E+02  0.20935707618E+02  0.23491988675E+03  0.27016442940E+03  0.12500095877E+03 0.  0.
         23    2    1    2    0    0  0.41688393760E+02 -0.20935707618E+02  0.37241724800E+03  0.38619296828E+03  0.90962498389E+02 0.  0.
          5    1    3    3  502    0 -0.68832170081E+02 -0.16765938120E+02  0.73773213919E+02  0.10238916647E+03  0.47000000000E+01 0.  1.
         -5    1    3    3    0  502  0.27143776321E+02  0.37701645738E+02  0.16114667283E+03  0.16777526292E+03  0.47000000000E+01 0.  1.
        -11    1    4    4    0    0  0.54660471438E+02  0.19778868740E+02  0.18276563736E+03  0.19178698857E+03  0.00000000000E+00 0.  1.
         11    1    4    4    0    0 -0.12972077678E+02 -0.40714576357E+02  0.18965161064E+03  0.19440597971E+03  0.00000000000E+00 0. -1.
<mgrwt>
<rscale>  0 0.12482815E+03</rscale>
<asrwt>0</asrwt>
<pdfrwt beam="1">  1        1 0.97207259E-01 0.13342213E+03</pdfrwt>
<pdfrwt beam="2">  1       -1 0.37707899E-02 0.13342213E+03</pdfrwt>
<totfact> 0.84112175E+03</totfact>
</mgrwt>
</event>
<event>
 8    1  0.1550723E-005  0.1339858E+03  0.7546771E-02  0.1233810E+00
         -1   -1    0    0    0  501 -0.00000000000E+00  0.00000000000E+00  0.51828133613E+02  0.51828133613E+02  0.00000000000E+00 0.  1.
          1   -1    0    0  501    0  0.00000000000E+00 -0.00000000000E+00 -0.31626136226E+03  0.31626136226E+03  0.00000000000E+00 0. -1.
         23    2    1    2    0    0 -0.47448803609E+02 -0.86996609769E+01 -0.79367345301E+02  0.15572847200E+03  0.12500043370E+03 0.  0.
         23    2    1    2    0    0  0.47448803609E+02  0.86996609769E+01 -0.18506588335E+03  0.21236102387E+03  0.92307909833E+02 0.  0.
          5    1    3    3  502    0 -0.88622433220E+02 -0.72355698934E+01 -0.69884598768E+02  0.11319114933E+03  0.47000000000E+01 0. -1.
         -5    1    3    3    0  502  0.41173629610E+02 -0.14640910835E+01 -0.94827465332E+01  0.42537322669E+02  0.47000000000E+01 0. -1.
        -11    1    4    4    0    0  0.10096425708E+02 -0.19423483490E+02 -0.42791083309E+00  0.21895036667E+02  0.00000000000E+00 0.  1.
         11    1    4    4    0    0  0.37352377901E+02  0.28123144467E+02 -0.18463797251E+03  0.19046598721E+03  0.00000000000E+00 0. -1.
<mgrwt>
<rscale>  0 0.12580902E+03</rscale>
<asrwt>0</asrwt>
<pdfrwt beam="2">  1        1 0.48655593E-01 0.13398575E+03</pdfrwt>
<pdfrwt beam="1">  1       -1 0.79735592E-02 0.13398575E+03</pdfrwt>
<totfact> 0.67548408E+03</totfact>
</mgrwt>
</event>
<event>
 8    1  0.1550723E-005  0.1835213E+03  0.7546771E-02  0.1169916E+00
          2   -1    0    0  501    0  0.00000000000E+00  0.00000000000E+00  0.35498540771E+03  0.35498540771E+03  0.00000000000E+00 0. -1.
         -2   -1    0    0    0  501 -0.00000000000E+00 -0.00000000000E+00 -0.99488639766E+02  0.99488639766E+02  0.00000000000E+00 0.  1.
         23    2    1    2    0    0 -0.13028858146E+03 -0.32834171512E+02  0.44971535364E+02  0.18895111564E+03  0.12500755110E+03 0.  0.
         23    2    1    2    0    0  0.13028858146E+03  0.32834171512E+02  0.21052523258E+03  0.26552293183E+03  0.90157398469E+02 0.  0.
          5    1    3    3  502    0  0.24414067543E+02  0.55346246093E+00  0.99806409142E+01  0.26796570821E+02  0.47000000000E+01 0.  1.
         -5    1    3    3    0  502 -0.15470264900E+03 -0.33387633973E+02  0.34990894449E+02  0.16215454482E+03  0.47000000000E+01 0.  1.
        -11    1    4    4    0    0  0.34211578576E+02  0.38253698240E+02  0.26271805725E+02  0.57654013857E+02  0.00000000000E+00 0.  1.
         11    1    4    4    0    0  0.96077002885E+02 -0.54195267281E+01  0.18425342685E+03  0.20786891797E+03  0.00000000000E+00 0. -1.
<mgrwt>
<rscale>  0 0.17783382E+03</rscale>
<asrwt>0</asrwt>
<pdfrwt beam="1">  1        2 0.54613139E-01 0.18352135E+03</pdfrwt>
<pdfrwt beam="2">  1       -2 0.15305945E-01 0.18352135E+03</pdfrwt>
<totfact> 0.29592751E+03</totfact>
</mgrwt>
</event>
<event>
 8    1  0.1550723E-005  0.1411873E+03  0.7546771E-02  0.1221425E+00
         -1   -1    0    0    0  501 -0.00000000000E+00  0.00000000000E+00  0.42278306522E+02  0.42278306522E+02  0.00000000000E+00 0.  1.
          1   -1    0    0  501    0  0.00000000000E+00 -0.00000000000E+00 -0.48384240171E+03  0.48384240171E+03  0.00000000000E+00 0. -1.
         23    2    1    2    0    0  0.64026720420E+02  0.14448569667E+02 -0.12244000530E+03  0.18688344120E+03  0.12500273439E+03 0.  0.
         23    2    1    2    0    0 -0.64026720420E+02 -0.14448569667E+02 -0.31912408989E+03  0.33923726703E+03  0.94517493097E+02 0.  0.
          5    1    3    3  502    0 -0.86012052126E+01 -0.18825569382E+02  0.16270922192E+02  0.26743517021E+02  0.47000000000E+01 0. -1.
         -5    1    3    3    0  502  0.72627925633E+02  0.33274139049E+02 -0.13871092749E+03  0.16013992418E+03  0.47000000000E+01 0. -1.
        -11    1    4    4    0    0 -0.79126893410E+02 -0.21069239975E+02 -0.30949430977E+03  0.32014325842E+03  0.00000000000E+00 0. -1.
         11    1    4    4    0    0  0.15100172990E+02  0.66206703079E+01 -0.96297801256E+01  0.19094008613E+02  0.00000000000E+00 0.  1.
<mgrwt>
<rscale>  0 0.13414978E+03</rscale>
<asrwt>0</asrwt>
<pdfrwt beam="2">  1        1 0.74437290E-01 0.14118734E+03</pdfrwt>
<pdfrwt beam="1">  1       -1 0.65043551E-02 0.14118734E+03</pdfrwt>
<totfact> 0.53791236E+03</totfact>
</mgrwt>
</event>
<event>
 7    1  0.1550723E-005  0.1818018E+03  0.7546771E-02  0.1180314E+00
          2   -1    0    0  501    0  0.00000000000E+00  0.00000000000E+00  0.43455407835E+02  0.43455407835E+02  0.00000000000E+00 0. -1.
         -2   -1    0    0    0  501 -0.00000000000E+00 -0.00000000000E+00 -0.14056422613E+04  0.14056422613E+04  0.00000000000E+00 0.  1.
         23    2    1    2    0    0  0.41667186996E+02  0.85839805001E+02 -0.79632863420E+02  0.15372257888E+03  0.90468843957E+02 0.  0.
          5    1    1    2  502    0  0.31043437527E+02 -0.23169090463E+02 -0.80226147910E+02  0.89212255744E+02  0.47000000000E+01 0. -1.
         -5    1    1    2    0  502 -0.72710624523E+02 -0.62670714538E+02 -0.12023278421E+04  0.12061628345E+04  0.47000000000E+01 0.  1.
        -11    1    3    3    0    0 -0.33068465988E+01 -0.15113036703E+02 -0.27439614212E+02  0.31500341917E+02  0.00000000000E+00 0.  1.
         11    1    3    3    0    0  0.44974033594E+02  0.10095284170E+03 -0.52193249208E+02  0.12222223696E+03  0.00000000000E+00 0. -1.
<mgrwt>
<rscale>  0 0.16765657E+03</rscale>
<asrwt>0</asrwt>
<pdfrwt beam="1">  1        2 0.66854476E-02 0.18180178E+03</pdfrwt>
<pdfrwt beam="2">  1       -2 0.21625265E+00 0.18180178E+03</pdfrwt>
<totfact> 0.12285082E+02</totfact>
</mgrwt>
</event>
<event>
 8    1  0.1550723E-005  0.1915480E+03  0.7546771E-02  0.1161911E+00
          1   -1    0    0  501    0  0.00000000000E+00  0.00000000000E+00  0.11963999158E+03  0.11963999158E+03  0.00000000000E+00 0. -1.
         -1   -1    0    0    0  501 -0.00000000000E+00 -0.00000000000E+00 -0.27602419143E+03  0.27602419143E+03  0.00000000000E+00 0.  1.
         23    2    1    2    0    0  0.42238627140E+02 -0.13890081379E+03 -0.95436230830E+02  0.21400635380E+03  0.12495242140E+03 0.  0.
         23    2    1    2    0    0 -0.42238627140E+02  0.13890081379E+03 -0.60947969024E+02  0.18165782921E+03  0.90594559938E+02 0.  0.
          5    1    3    3  502    0 -0.15854099202E+02 -0.10153948487E+03 -0.10148992411E+03  0.14451267815E+03  0.47000000000E+01 0. -1.
         -5    1    3    3    0  502  0.58092726342E+02 -0.37361328926E+02  0.60536932831E+01  0.69493675650E+02  0.47000000000E+01 0. -1.
        -11    1    4    4    0    0 -0.41128399022E+02  0.73705432072E+02  0.10354002440E+02  0.85036705543E+02  0.00000000000E+00 0. -1.
         11    1    4    4    0    0 -0.11102281182E+01  0.65195381719E+02 -0.71301971464E+02  0.96621123667E+02  0.00000000000E+00 0.  1.
<mgrwt>
<rscale>  0 0.18622533E+03</rscale>
<asrwt>0</asrwt>
<pdfrwt beam="1">  1        1 0.18406153E-01 0.19154802E+03</pdfrwt>
<pdfrwt beam="2">  1       -1 0.42465260E-01 0.19154802E+03</pdfrwt>
<totfact> 0.15616087E+03</totfact>
</mgrwt>
</event>
<event>
 8    1  0.1550723E-005  0.1713869E+03  0.7546771E-02  0.1182271E+00
         -2   -1    0    0    0  501 -0.00000000000E+00  0.00000000000E+00  0.25430181206E+02  0.25430181206E+02  0.00000000000E+00 0.  1.
          2   -1    0    0  501    0  0.00000000000E+00 -0.00000000000E+00 -0.10461967584E+04  0.10461967584E+04  0.00000000000E+00 0. -1.
         23    2    1    2    0    0 -0.11360827283E+03 -0.28997309304E+02 -0.45330269380E+03  0.48462025972E+03  0.12500312127E+03 0.  0.
         23    2    1    2    0    0  0.11360827283E+03  0.28997309304E+02 -0.56746388343E+03  0.58700667992E+03  0.93882371424E+02 0.  0.
          5    1    3    3  502    0 -0.11777924897E+03 -0.55147922247E+02 -0.27425731322E+03  0.30356615205E+03  0.47000000000E+01 0.  1.
         -5    1    3    3    0  502  0.41709761341E+01  0.26150612943E+02 -0.17904538058E+03  0.18105410768E+03  0.47000000000E+01 0.  1.
        -11    1    4    4    0    0  0.62330948125E+02 -0.31324211431E+02 -0.22802053969E+03  0.23845276227E+03  0.00000000000E+00 0.  1.
         11    1    4    4    0    0  0.51277324710E+02  0.60321520735E+02 -0.33944334374E+03  0.34855391764E+03  0.00000000000E+00 0. -1.
<mgrwt>
<rscale>  0 0.16582667E+03</rscale>
<asrwt>0</asrwt>
<pdfrwt beam="2">  1        2 0.16095335E+00 0.17138688E+03</pdfrwt>
<pdfrwt beam="1">  1       -2 0.39123356E-02 0.17138688E+03</pdfrwt>
<totfact> 0.68629914E+03</totfact>
</mgrwt>
</event>
<event>
 8    1  0.1550723E-005  0.1717466E+03  0.7546771E-02  0.1182048E+00
         -1   -1    0    0    0  501 -0.00000000000E+00  0.00000000000E+00  0.55863498975E+03  0.55863498975E+03  0.00000000000E+00 0.  1.
          1   -1    0    0  501    0  0.00000000000E+00 -0.00000000000E+00 -0.51291132100E+02  0.51291132100E+02  0.00000000000E+00 0. -1.
         23    2    1    2    0    0 -0.11199323386E+03  0.36442942007E+02  0.36379765517E+03  0.40230043183E+03  0.12500532427E+03 0.  0.
         23    2    1    2    0    0  0.11199323386E+03 -0.36442942007E+02  0.14354620248E+03  0.20762569002E+03  0.92910400150E+02 0.  0.
          5    1    3    3  502    0  0.12665384870E+01 -0.10417485853E+02 -0.58010797636E+01  0.12879078292E+02  0.47000000000E+01 0.  1.
         -5    1    3    3    0  502 -0.11325977235E+03  0.46860427860E+02  0.36959873493E+03  0.38942135354E+03  0.47000000000E+01 0.  1.
        -11    1    4    4    0    0  0.91405888092E+02  0.16667936722E+02  0.93235818423E+02  0.13162740721E+03  0.00000000000E+00 0.  1.
         11    1    4    4    0    0  0.20587345767E+02 -0.53110878729E+02  0.50310384059E+02  0.75998282805E+02  0.00000000000E+00 0. -1.
<mgrwt>
<rscale>  0 0.16603361E+03</rscale>
<asrwt>0</asrwt>
<pdfrwt beam="2">  1        1 0.78909438E-02 0.17174663E+03</pdfrwt>
<pdfrwt beam="1">  1       -1 0.85943840E-01 0.17174663E+03</pdfrwt>
<totfact> 0.12275879E+03</totfact>
</mgrwt>
</event>
<event>
 8    1  0.1550723E-005  0.1876962E+03  0.7546771E-02  0.1165680E+00
         -1   -1    0    0    0  501 -0.00000000000E+00  0.00000000000E+00  0.56251136088E+02  0.56251136088E+02  0.00000000000E+00 0.  1.
          1   -1    0    0  501    0  0.00000000000E+00 -0.00000000000E+00 -0.55839902279E+03  0.55839902279E+03  0.00000000000E+00 0. -1.
         23    2    1    2    0    0  0.71265989659E+02 -0.12052216434E+03 -0.27187100008E+03  0.33036903699E+03  0.12500170615E+03 0.  0.
         23    2    1    2    0    0 -0.71265989659E+02  0.12052216434E+03 -0.23027688662E+03  0.28428112188E+03  0.90464790758E+02 0.  0.
          5    1    3    3  502    0  0.10319045553E+03 -0.61123008640E+02 -0.17826477120E+03  0.21490628410E+03  0.47000000000E+01 0.  1.
         -5    1    3    3    0  502 -0.31924465869E+02 -0.59399155704E+02 -0.93606228879E+02  0.11546275289E+03  0.47000000000E+01 0.  1.
        -11    1    4    4    0    0 -0.25918290003E+02  0.28084247687E+02 -0.76171628866E+01  0.38967985517E+02  0.00000000000E+00 0.  1.
         11    1    4    4    0    0 -0.45347699656E+02  0.92437916657E+02 -0.22265972374E+03  0.24531313637E+03  0.00000000000E+00 0. -1.
<mgrwt>
<rscale>  0 0.18221090E+03</rscale>
<asrwt>0</asrwt>
<pdfrwt beam="2">  1        1 0.85907544E-01 0.18769619E+03</pdfrwt>
<pdfrwt beam="1">  1       -1 0.86540207E-02 0.18769619E+03</pdfrwt>
<totfact> 0.29251206E+03</totfact>
</mgrwt>
</event>
<event>
 7    1  0.1550723E-005  0.2149975E+03  0.7546771E-02  0.1162044E+00
         -1   -1    0    0    0  501 -0.00000000000E+00  0.00000000000E+00  0.15740128185E+03  0.15740128185E+03  0.00000000000E+00 0.  1.
          1   -1    0    0  501    0  0.00000000000E+00 -0.00000000000E+00 -0.18280050546E+03  0.18280050546E+03  0.00000000000E+00 0. -1.
         23    2    1    2    0    0 -0.76642135494E+02  0.21003471134E+02 -0.32980047537E+02  0.12507071493E+03  0.90773550472E+02 0.  0.
          5    1    1    2  502    0 -0.15004187775E+01  0.74001142427E+02 -0.38652139642E+02  0.83633116861E+02  0.47000000000E+01 0. -1.
         -5    1    1    2    0  502  0.78142554271E+02 -0.95004613561E+02  0.46232963568E+02  0.13149795552E+03  0.47000000000E+01 0.  1.
        -11    1    3    3    0    0 -0.10441128310E+02 -0.33036544187E+02 -0.14936154208E+02  0.37729552273E+02  0.00000000000E+00 0.  1.
         11    1    3    3    0    0 -0.66201007184E+02  0.54040015321E+02 -0.18043893329E+02  0.87341162658E+02  0.00000000000E+00 0. -1.
<mgrwt>
<rscale>  0 0.18608078E+03</rscale>
<asrwt>0</asrwt>
<pdfrwt beam="2">  1        1 0.28123155E-01 0.21499746E+03</pdfrwt>
<pdfrwt beam="1">  1       -1 0.24215582E-01 0.21499746E+03</pdfrwt>
<totfact> 0.23896097E+03</totfact>
</mgrwt>
</event>
<event>
 8    1  0.1550723E-005  0.1671591E+03  0.7546771E-02  0.1187339E+00
         -2   -1    0    0    0  501 -0.00000000000E+00  0.00000000000E+00  0.54298389090E+02  0.54298389090E+02  0.00000000000E+00 0. -1.
          2   -1    0    0  501    0  0.00000000000E+00 -0.00000000000E+00 -0.46194816101E+03  0.46194816101E+03  0.00000000000E+00 0.  1.
         23    2    1    2    0    0  0.37267320829E+02 -0.10453413299E+03 -0.17256297202E+03  0.24025017447E+03  0.12500371539E+03 0.  0.
         23    2    1    2    0    0 -0.37267320829E+02  0.10453413299E+03 -0.23508679990E+03  0.27599637563E+03  0.92692813694E+02 0.  0.
          5    1    3    3  502    0  0.26593144117E+02 -0.38074947629E+02 -0.16602144678E+03  0.17245900307E+03  0.47000000000E+01 0.  1.
         -5    1    3    3    0  502  0.10674176712E+02 -0.66459185360E+02 -0.65415252425E+01  0.67791171399E+02  0.47000000000E+01 0.  1.
        -11    1    4    4    0    0  0.22148782632E+02  0.48091752785E+02 -0.14422515976E+03  0.15363685094E+03  0.00000000000E+00 0.  1.
         11    1    4    4    0    0 -0.59416103461E+02  0.56442380204E+02 -0.90861640143E+02  0.12235952469E+03  0.00000000000E+00 0. -1.
<mgrwt>
<rscale>  0 0.16120819E+03</rscale>
<asrwt>0</asrwt>
<pdfrwt beam="2">  1        2 0.71068949E-01 0.16715911E+03</pdfrwt>
<pdfrwt beam="1">  1       -2 0.83535982E-02 0.16715911E+03</pdfrwt>
<totfact> 0.58393549E+03</totfact>
</mgrwt>
</event>
<event>
 8    1  0.1550723E-005  0.1609391E+03  0.7546771E-02  0.1194981E+00
         -1   -1    0    0    0  501 -0.00000000000E+00  0.00000000000E+00  0.11919704946E+03  0.11919704946E+03  0.00000000000E+00 0.  1.
          1   -1    0    0  501    0  0.00000000000E+00 -0.00000000000E+00 -0.21671644797E+03  0.21671644797E+03  0.00000000000E+00 0. -1.
         23    2    1    2    0    0 -0.62980344182E+02 -0.79426271710E+02  0.10869388327E+02  0.16130571408E+03  0.12500533350E+03 0.  0.
         23    2    1    2    0    0  0.62980344182E+02  0.79426271710E+02 -0.10838878683E+03  0.17460778335E+03  0.92003763531E+02 0.  0.
          5    1    3    3  502    0 -0.60651147643E+02 -0.34736964098E+01  0.47078110015E+02  0.77000433244E+02  0.47000000000E+01 0. -1.
         -5    1    3    3    0  502 -0.23291965385E+01 -0.75952575300E+02 -0.36208721687E+02  0.84305280840E+02  0.47000000000E+01 0. -1.
        -11    1    4    4    0    0  0.59038980987E+02  0.65572477089E+02 -0.12475611204E+03  0.15280523066E+03  0.00000000000E+00 0. -1.
         11    1    4    4    0    0  0.39413631942E+01  0.13853794621E+02  0.16367325204E+02  0.21802552685E+02  0.00000000000E+00 0.  1.
<mgrwt>
<rscale>  0 0.15455805E+03</rscale>
<asrwt>0</asrwt>
<pdfrwt beam="2">  1        1 0.33340991E-01 0.16093909E+03</pdfrwt>
<pdfrwt beam="1">  1       -1 0.18338008E-01 0.16093909E+03</pdfrwt>
<totfact> 0.30006939E+03</totfact>
</mgrwt>
</event>
<event>
 8    1  0.1550723E-005  0.2287273E+03  0.7546771E-02  0.1131367E+00
          3   -1    0    0  501    0  0.00000000000E+00  0.00000000000E+00  0.11814467097E+04  0.11814467097E+04  0.00000000000E+00 0. -1.
         -3   -1    0    0    0  501 -0.00000000000E+00 -0.00000000000E+00 -0.44909656778E+02  0.44909656778E+02  0.00000000000E+00 0.  1.
         23    2    1    2    0    0 -0.19148604602E+03 -0.48397176154E+01  0.39804905180E+03  0.45908521105E+03  0.12500341865E+03 0.  0.
         23    2    1    2    0    0  0.19148604602E+03  0.48397176154E+01  0.73848800113E+03  0.76727115544E+03  0.81548571241E+02 0.  0.
          5    1    3    3  502    0 -0.94198199382E+02  0.12271412210E+02  0.74661016409E+02  0.12091420800E+03  0.47000000000E+01 0. -1.
         -5    1    3    3    0  502 -0.97287846642E+02 -0.17111129825E+02  0.32338803539E+03  0.33817100305E+03  0.47000000000E+01 0. -1.
        -11    1    4    4    0    0  0.92141178682E+02  0.23148751056E+02  0.23005483752E+03  0.24889975844E+03  0.00000000000E+00 0.  1.
         11    1    4    4    0    0  0.99344867342E+02 -0.18309033441E+02  0.50843316361E+03  0.51837139700E+03  0.00000000000E+00 0. -1.
<mgrwt>
<rscale>  0 0.22340879E+03</rscale>
<asrwt>0</asrwt>
<pdfrwt beam="1">  1        3 0.18176101E+00 0.22872731E+03</pdfrwt>
<pdfrwt beam="2">  1       -3 0.69091789E-02 0.22872731E+03</pdfrwt>
<totfact> 0.69898989E+01</totfact>
</mgrwt>
</event>
<event>
 7    1  0.1550723E-005  0.2573321E+03  0.7546771E-02  0.1146785E+00
          2   -1    0    0  501    0  0.00000000000E+00  0.00000000000E+00  0.41164921315E+03  0.41164921315E+03  0.00000000000E+00 0. -1.
         -2   -1    0    0    0  501 -0.00000000000E+00 -0.00000000000E+00 -0.82196152989E+02  0.82196152989E+02  0.00000000000E+00 0.  1.
         23    2    1    2    0    0  0.34109917634E+02  0.24109930283E+02  0.14779922942E+03  0.17885660680E+03  0.91653141566E+02 0.  0.
          5    1    1    2  502    0  0.89729601182E+01 -0.68990635369E+02  0.22725365869E+03  0.23771103712E+03  0.47000000000E+01 0. -1.
         -5    1    1    2    0  502 -0.43082877752E+02  0.44880705086E+02 -0.45599827939E+02  0.77277722227E+02  0.47000000000E+01 0.  1.
        -11    1    3    3    0    0 -0.23334198145E+02  0.44315199034E+00  0.60802518884E+01  0.24117434560E+02  0.00000000000E+00 0. -1.
         11    1    3    3    0    0  0.57444115778E+02  0.23666778293E+02  0.14171897753E+03  0.15473917224E+03  0.00000000000E+00 0.  1.
<mgrwt>
<rscale>  0 0.20354121E+03</rscale>
<asrwt>0</asrwt>
<pdfrwt beam="1">  1        2 0.63330647E-01 0.25733209E+03</pdfrwt>
<pdfrwt beam="2">  1       -2 0.12645562E-01 0.25733209E+03</pdfrwt>
<totfact> 0.34881037E+03</totfact>
</mgrwt>
</event>
<event>
 8    1  0.1550723E-005  0.1491265E+03  0.7546771E-02  0.1210787E+00
          1   -1    0    0  501    0  0.00000000000E+00  0.00000000000E+00  0.39516761148E+03  0.39516761148E+03  0.00000000000E+00 0. -1.
         -1   -1    0    0    0  501 -0.00000000000E+00 -0.00000000000E+00 -0.50666263597E+02  0.50666263597E+02  0.00000000000E+00 0.  1.
         23    2    1    2    0    0 -0.76934310915E+02 -0.26325426024E+02  0.12505546529E+03  0.19462164213E+03  0.12500719153E+03 0.  0.
         23    2    1    2    0    0  0.76934310915E+02  0.26325426024E+02  0.21944588259E+03  0.25121223295E+03  0.91319079844E+02 0.  0.
          5    1    3    3  502    0 -0.13810532728E+02 -0.15671449865E+02 -0.24102228060E+02  0.32238680999E+02  0.47000000000E+01 0. -1.
         -5    1    3    3    0  502 -0.63123778187E+02 -0.10653976159E+02  0.14915769335E+03  0.16238296113E+03  0.47000000000E+01 0. -1.
        -11    1    4    4    0    0  0.66293289012E+02  0.57212710829E+02  0.17857168104E+03  0.19888675099E+03  0.00000000000E+00 0.  1.
         11    1    4    4    0    0  0.10641021903E+02 -0.30887284805E+02  0.40874201552E+02  0.52325481959E+02  0.00000000000E+00 0. -1.
<mgrwt>
<rscale>  0 0.14190583E+03</rscale>
<asrwt>0</asrwt>
<pdfrwt beam="1">  1        1 0.60795015E-01 0.14912650E+03</pdfrwt>
<pdfrwt beam="2">  1       -1 0.77948100E-02 0.14912650E+03</pdfrwt>
<totfact> 0.53244981E+03</totfact>
</mgrwt>
</event>
<event>
 8    1  0.1550723E-005  0.1400720E+03  0.7546771E-02  0.1223679E+00
          1   -1    0    0  501    0  0.00000000000E+00  0.00000000000E+00  0.11048959805E+03  0.11048959805E+03  0.00000000000E+00 0. -1.
         -1   -1    0    0    0  501 -0.00000000000E+00 -0.00000000000E+00 -0.14438792644E+03  0.14438792644E+03  0.00000000000E+00 0.  1.
         23    2    1    2    0    0 -0.63126159181E+02 -0.33684187288E+01 -0.14865771440E+02  0.14085861524E+03  0.12499560035E+03 0.  0.
         23    2    1    2    0    0  0.63126159181E+02  0.33684187288E+01 -0.19032556950E+02  0.11401890926E+03  0.92961364162E+02 0.  0.
          5    1    3    3  502    0 -0.55436405013E+02 -0.23632456242E+02 -0.63338615295E+02  0.87553173422E+02  0.47000000000E+01 0.  1.
         -5    1    3    3    0  502 -0.76897541679E+01  0.20264037513E+02  0.48472843855E+02  0.53305441813E+02  0.47000000000E+01 0.  1.
        -11    1    4    4    0    0  0.13737733112E+02  0.13953677247E+02 -0.50736009647E+02  0.54383573758E+02  0.00000000000E+00 0.  1.
         11    1    4    4    0    0  0.49388426068E+02 -0.10585258518E+02  0.31703452697E+02  0.59635335501E+02  0.00000000000E+00 0. -1.
<mgrwt>
<rscale>  0 0.13257864E+03</rscale>
<asrwt>0</asrwt>
<pdfrwt beam="1">  1        1 0.16998400E-01 0.14007198E+03</pdfrwt>
<pdfrwt beam="2">  1       -1 0.22213527E-01 0.14007198E+03</pdfrwt>
<totfact> 0.51214038E+03</totfact>
</mgrwt>
</event>
<event>
 8    1  0.1550723E-005  0.1940027E+03  0.7546771E-02  0.1159162E+00
         -1   -1    0    0    0  501 -0.00000000000E+00  0.00000000000E+00  0.97671770142E+02  0.97671770142E+02  0.00000000000E+00 0.  1.
          1   -1    0    0  501    0  0.00000000000E+00 -0.00000000000E+00 -0.54354572056E+03  0.54354572056E+03  0.00000000000E+00 0. -1.
         23    2    1    2    0    0  0.18591100052E+02  0.14719593777E+03 -0.38739036139E+02  0.19783267366E+03  0.12499912300E+03 0.  0.
         23    2    1    2    0    0 -0.18591100052E+02 -0.14719593777E+03 -0.40713491428E+03  0.44338481704E+03  0.93909448203E+02 0.  0.
          5    1    3    3  502    0  0.35513458378E+02  0.13859241099E+02 -0.49797823757E+02  0.62890361271E+02  0.47000000000E+01 0.  1.
         -5    1    3    3    0  502 -0.16922358326E+02  0.13333669667E+03  0.11058787617E+02  0.13494231239E+03  0.47000000000E+01 0.  1.
        -11    1    4    4    0    0 -0.52224357095E+02 -0.69291416385E+02 -0.15888820400E+03  0.18103630915E+03  0.00000000000E+00 0.  1.
         11    1    4    4    0    0  0.33633257043E+02 -0.77904521382E+02 -0.24824671028E+03  0.26234850789E+03  0.00000000000E+00 0. -1.
<mgrwt>
<rscale>  0 0.18922554E+03</rscale>
<asrwt>0</asrwt>
<pdfrwt beam="2">  1        1 0.83622418E-01 0.19400272E+03</pdfrwt>
<pdfrwt beam="1">  1       -1 0.15026426E-01 0.19400272E+03</pdfrwt>
<totfact> 0.12891782E+03</totfact>
</mgrwt>
</event>
<event>
 8    1  0.1550723E-005  0.1367082E+03  0.7546771E-02  0.1229266E+00
          3   -1    0    0  501    0  0.00000000000E+00  0.00000000000E+00  0.32405295321E+03  0.32405295321E+03  0.00000000000E+00 0. -1.
         -3   -1    0    0    0  501 -0.00000000000E+00 -0.00000000000E+00 -0.87564213795E+02  0.87564213795E+02  0.00000000000E+00 0.  1.
         23    2    1    2    0    0  0.25997526138E+02  0.48877128903E+02 -0.15503589952E+02  0.13758449051E+03  0.12499714249E+03 0.  0.
         23    2    1    2    0    0 -0.25997526138E+02 -0.48877128903E+02  0.25199232937E+03  0.27403267650E+03  0.92352198855E+02 0.  0.
          5    1    3    3  502    0  0.73963617231E+02  0.11412878338E+02 -0.17338438697E+01  0.75006444259E+02  0.47000000000E+01 0.  1.
         -5    1    3    3    0  502 -0.47966091093E+02  0.37464250565E+02 -0.13769746083E+02  0.62578046248E+02  0.47000000000E+01 0.  1.
        -11    1    4    4    0    0  0.49461566182E+01  0.25148790536E+02  0.84743163266E+02  0.88534342778E+02  0.00000000000E+00 0. -1.
         11    1    4    4    0    0 -0.30943682756E+02 -0.74025919439E+02  0.16724916610E+03  0.18549833372E+03  0.00000000000E+00 0.  1.
<mgrwt>
<rscale>  0 0.12878759E+03</rscale>
<asrwt>0</asrwt>
<pdfrwt beam="1">  1        3 0.49854300E-01 0.13670820E+03</pdfrwt>
<pdfrwt beam="2">  1       -3 0.13471418E-01 0.13670820E+03</pdfrwt>
<totfact> 0.41735883E+02</totfact>
</mgrwt>
</event>
<event>
 8    1  0.1550723E-005  0.1518319E+03  0.7546771E-02  0.1207971E+00
         -1   -1    0    0    0  501 -0.00000000000E+00  0.00000000000E+00  0.10197356654E+03  0.10197356654E+03  0.00000000000E+00 0.  1.
          1   -1    0    0  501    0  0.00000000000E+00 -0.00000000000E+00 -0.23676435352E+03  0.23676435352E+03  0.00000000000E+00 0. -1.
         23    2    1    2    0    0  0.50825561656E+01  0.86041854798E+02  0.57563625803E+01  0.15194100391E+03  0.12499559914E+03 0.  0.
         23    2    1    2    0    0 -0.50825561656E+01 -0.86041854798E+02 -0.14054714956E+03  0.18679691615E+03  0.87809757302E+02 0.  0.
          5    1    3    3  502    0 -0.34431003601E+02 -0.69999709034E+01  0.31611902836E+02  0.47496273564E+02  0.47000000000E+01 0. -1.
         -5    1    3    3    0  502  0.39513559766E+02  0.93041825701E+02 -0.25855540255E+02  0.10444473035E+03  0.47000000000E+01 0. -1.
        -11    1    4    4    0    0  0.30300087374E+02 -0.66728639493E+02 -0.12223755860E+03  0.14252307658E+03  0.00000000000E+00 0. -1.
         11    1    4    4    0    0 -0.35382643539E+02 -0.19313215305E+02 -0.18309590960E+02  0.44273839571E+02  0.00000000000E+00 0.  1.
<mgrwt>
<rscale>  0 0.14405773E+03</rscale>
<asrwt>0</asrwt>
<pdfrwt beam="2">  1        1 0.36425285E-01 0.15183192E+03</pdfrwt>
<pdfrwt beam="1">  1       -1 0.15688241E-01 0.15183192E+03</pdfrwt>
<totfact> 0.34347085E+03</totfact>
</mgrwt>
</event>
<event>
 8    1  0.1550723E-005  0.1357747E+03  0.7546771E-02  0.1231489E+00
          3   -1    0    0  501    0  0.00000000000E+00  0.00000000000E+00  0.30640030658E+02  0.30640030658E+02  0.00000000000E+00 0. -1.
         -3   -1    0    0    0  501 -0.00000000000E+00 -0.00000000000E+00 -0.47352944271E+03  0.47352944271E+03  0.00000000000E+00 0.  1.
         23    2    1    2    0    0 -0.46040319756E+02 -0.26263470908E+02 -0.24090312494E+03  0.27653043458E+03  0.12500113878E+03 0.  0.
         23    2    1    2    0    0  0.46040319756E+02  0.26263470908E+02 -0.20198628711E+03  0.22763903879E+03  0.90617828549E+02 0.  0.
          5    1    3    3  502    0 -0.28916001031E+02  0.24409060987E+02 -0.99370617435E+01  0.39405235312E+02  0.47000000000E+01 0.  1.
         -5    1    3    3    0  502 -0.17124318725E+02 -0.50672531895E+02 -0.23096606320E+03  0.23712519927E+03  0.47000000000E+01 0.  1.
        -11    1    4    4    0    0 -0.49315500975E+00  0.50647301902E+02 -0.12017342760E+03  0.13041106200E+03  0.00000000000E+00 0.  1.
         11    1    4    4    0    0  0.46533474766E+02 -0.24383830994E+02 -0.81812859514E+02  0.97227976785E+02  0.00000000000E+00 0. -1.
<mgrwt>
<rscale>  0 0.12731867E+03</rscale>
<asrwt>0</asrwt>
<pdfrwt beam="1">  1        3 0.47138507E-02 0.13577469E+03</pdfrwt>
<pdfrwt beam="2">  1       -3 0.72850686E-01 0.13577469E+03</pdfrwt>
<totfact> 0.10548399E+03</totfact>
</mgrwt>
</event>
<event>
 8    1  0.1550723E-005  0.1297375E+03  0.7546771E-02  0.1237949E+00
          2   -1    0    0  501    0  0.00000000000E+00  0.00000000000E+00  0.16502620985E+02  0.16502620985E+02  0.00000000000E+00 0. -1.
         -2   -1    0    0    0  501 -0.00000000000E+00 -0.00000000000E+00 -0.84775602217E+03  0.84775602217E+03  0.00000000000E+00 0.  1.
         23    2    1    2    0    0 -0.26235015649E+01  0.52742865221E+02 -0.50496845216E+03  0.52136833914E+03  0.11850364884E+03 0.  0.
         23    2    1    2    0    0  0.26235015649E+01 -0.52742865221E+02 -0.32628494903E+03  0.34289030402E+03  0.91231573676E+02 0.  0.
          5    1    3    3  502    0 -0.58437523004E+01  0.14032093350E+02 -0.10627467953E+01  0.15945799306E+02  0.47000000000E+01 0. -1.
         -5    1    3    3    0  502  0.32202507355E+01  0.38710771870E+02 -0.50390570536E+03  0.50542253983E+03  0.47000000000E+01 0.  1.
        -11    1    4    4    0    0  0.38488363911E+02 -0.56789267925E+02 -0.23211139421E+03  0.24203734098E+03  0.00000000000E+00 0.  1.
         11    1    4    4    0    0 -0.35864862346E+02  0.40464027040E+01 -0.94173554816E+02  0.10085296303E+03  0.00000000000E+00 0. -1.
<mgrwt>
<rscale>  0 0.12317499E+03</rscale>
<asrwt>0</asrwt>
<pdfrwt beam="1">  1        2 0.25388645E-02 0.12973746E+03</pdfrwt>
<pdfrwt beam="2">  1       -2 0.13042402E+00 0.12973746E+03</pdfrwt>
<totfact> 0.17048312E+03</totfact>
</mgrwt>
</event>
<event>
 7    1  0.1550723E-005  0.3140409E+03  0.7546771E-02  0.1078425E+00
          1   -1    0    0  501    0  0.00000000000E+00  0.00000000000E+00  0.76489067283E+02  0.76489067283E+02  0.00000000000E+00 0. -1.
         -1   -1    0    0    0  501 -0.00000000000E+00 -0.00000000000E+00 -0.32233906487E+03  0.32233906487E+03  0.00000000000E+00 0.  1.
         23    2    1    2    0    0 -0.14857219231E+02 -0.81642525284E+02 -0.76122727538E+02  0.14375840202E+03  0.89362014331E+02 0.  0.
          5    1    1    2  502    0 -0.34787183029E+02  0.11810448997E+03 -0.14005648457E+03  0.18653880970E+03  0.47000000000E+01 0. -1.
         -5    1    1    2    0  502  0.49644402260E+02 -0.36461964689E+02 -0.29670785482E+02  0.68530920437E+02  0.47000000000E+01 0.  1.
        -11    1    3    3    0    0  0.23606653229E+02 -0.72382125969E+02 -0.70565287085E+02  0.10380706131E+03  0.00000000000E+00 0.  1.
         11    1    3    3    0    0 -0.38463872460E+02 -0.92603993151E+01 -0.55574404536E+01  0.39951340710E+02  0.00000000000E+00 0. -1.
<mgrwt>
<rscale>  0 0.31404085E+03</rscale>
<asrwt>0</asrwt>
<pdfrwt beam="1">  1        1 0.11767549E-01 0.31404085E+03</pdfrwt>
<pdfrwt beam="2">  1       -1 0.49590627E-01 0.31404085E+03</pdfrwt>
<totfact> 0.21512476E+03</totfact>
</mgrwt>
</event>
<event>
 8    1  0.1550723E-005  0.1257850E+03  0.7546771E-02  0.1247549E+00
         -3   -1    0    0    0  501 -0.00000000000E+00  0.00000000000E+00  0.22699431970E+03  0.22699431970E+03  0.00000000000E+00 0.  1.
          3   -1    0    0  501    0  0.00000000000E+00 -0.00000000000E+00 -0.72323383632E+02  0.72323383632E+02  0.00000000000E+00 0. -1.
         23    2    1    2    0    0 -0.91379241211E+01 -0.21565596324E+02  0.16045491475E+03  0.20388147458E+03  0.12358519089E+03 0.  0.
         23    2    1    2    0    0  0.91379241211E+01  0.21565596324E+02 -0.57839786844E+01  0.95436228750E+02  0.92336573180E+02 0.  0.
          5    1    3    3  502    0 -0.53446977505E+02  0.24307571103E+02  0.98944470064E+02  0.11515005677E+03  0.47000000000E+01 0. -1.
         -5    1    3    3    0  502  0.44309053384E+02 -0.45873167426E+02  0.61510444687E+02  0.88731417813E+02  0.47000000000E+01 0.  1.
        -11    1    4    4    0    0  0.33324051441E+02  0.33402681115E+02  0.25925166087E+02  0.53836286524E+02  0.00000000000E+00 0.  1.
         11    1    4    4    0    0 -0.24186127319E+02 -0.11837084791E+02 -0.31709144772E+02  0.41599942226E+02  0.00000000000E+00 0. -1.
<mgrwt>
<rscale>  0 0.11734114E+03</rscale>
<asrwt>0</asrwt>
<pdfrwt beam="2">  1        3 0.11126674E-01 0.12578504E+03</pdfrwt>
<pdfrwt beam="1">  1       -3 0.34922203E-01 0.12578504E+03</pdfrwt>
<totfact> 0.11318690E+03</totfact>
</mgrwt>
</event>
<event>
 8    1  0.1550723E-005  0.1509773E+03  0.7546771E-02  0.1207625E+00
          2   -1    0    0  501    0  0.00000000000E+00  0.00000000000E+00  0.67813232643E+03  0.67813232643E+03  0.00000000000E+00 0. -1.
         -2   -1    0    0    0  501 -0.00000000000E+00 -0.00000000000E+00 -0.28468211195E+02  0.28468211195E+02  0.00000000000E+00 0.  1.
         23    2    1    2    0    0  0.76570984926E+02 -0.36160849479E+02  0.32663383956E+03  0.35983857903E+03  0.12499366002E+03 0.  0.
         23    2    1    2    0    0 -0.76570984926E+02  0.36160849479E+02  0.32303027568E+03  0.34676195860E+03  0.93405428961E+02 0.  0.
          5    1    3    3  502    0  0.30019783051E+02  0.40394838902E+02  0.59673093269E+02  0.78204209891E+02  0.47000000000E+01 0.  1.
         -5    1    3    3    0  502  0.46551201875E+02 -0.76555688381E+02  0.26696074629E+03  0.28163436914E+03  0.47000000000E+01 0.  1.
        -11    1    4    4    0    0  0.73661557559E+01 -0.22457612230E+02  0.56433025520E+02  0.61182440022E+02  0.00000000000E+00 0.  1.
         11    1    4    4    0    0 -0.83937140682E+02  0.58618461709E+02  0.26659725016E+03  0.28557951858E+03  0.00000000000E+00 0. -1.
<mgrwt>
<rscale>  0 0.14432523E+03</rscale>
<asrwt>0</asrwt>
<pdfrwt beam="1">  1        2 0.10432804E+00 0.15097728E+03</pdfrwt>
<pdfrwt beam="2">  1       -2 0.43797253E-02 0.15097728E+03</pdfrwt>
<totfact> 0.10062780E+04</totfact>
</mgrwt>
</event>
<event>
 8    1  0.1550723E-005  0.1408874E+03  0.7546771E-02  0.1223154E+00
         -1   -1    0    0    0  501 -0.00000000000E+00  0.00000000000E+00  0.27216500053E+03  0.27216500053E+03  0.00000000000E+00 0.  1.
          1   -1    0    0  501    0  0.00000000000E+00 -0.00000000000E+00 -0.58682414214E+02  0.58682414214E+02  0.00000000000E+00 0. -1.
         23    2    1    2    0    0  0.48378228921E+02  0.43406604665E+02  0.12510632868E+03  0.18841669176E+03  0.12499867957E+03 0.  0.
         23    2    1    2    0    0 -0.48378228921E+02 -0.43406604665E+02  0.88376257636E+02  0.14243072299E+03  0.90838106402E+02 0.  0.
          5    1    3    3  502    0  0.36190057300E+02 -0.29299728761E+02  0.45405349637E+01  0.47020217041E+02  0.47000000000E+01 0.  1.
         -5    1    3    3    0  502  0.12188171621E+02  0.72706333426E+02  0.12056579372E+03  0.14139647472E+03  0.47000000000E+01 0.  1.
        -11    1    4    4    0    0 -0.59009084391E+01 -0.16191729722E+02  0.90316235001E+02  0.91945718425E+02  0.00000000000E+00 0.  1.
         11    1    4    4    0    0 -0.42477320482E+02 -0.27214874942E+02 -0.19399773650E+01  0.50485004562E+02  0.00000000000E+00 0. -1.
<mgrwt>
<rscale>  0 0.13294260E+03</rscale>
<asrwt>0</asrwt>
<pdfrwt beam="2">  1        1 0.90280639E-02 0.14088739E+03</pdfrwt>
<pdfrwt beam="1">  1       -1 0.41871538E-01 0.14088739E+03</pdfrwt>
<totfact> 0.40263123E+03</totfact>
</mgrwt>
</event>
<event>
 8    1  0.1550723E-005  0.1338847E+03  0.7546771E-02  0.1233449E+00
         -1   -1    0    0    0  501 -0.00000000000E+00  0.00000000000E+00  0.16327710184E+03  0.16327710184E+03  0.00000000000E+00 0.  1.
          1   -1    0    0  501    0  0.00000000000E+00 -0.00000000000E+00 -0.87524777702E+02  0.87524777702E+02  0.00000000000E+00 0. -1.
         23    2    1    2    0    0  0.37762471459E+02 -0.29600477500E+02  0.44618092334E+02  0.14112366572E+03  0.12499168910E+03 0.  0.
         23    2    1    2    0    0 -0.37762471459E+02  0.29600477500E+02  0.31134231799E+02  0.10967821382E+03  0.93582998873E+02 0.  0.
          5    1    3    3  502    0  0.65938334047E+02 -0.50837306047E+02 -0.82844010358E+00  0.83397073666E+02  0.47000000000E+01 0. -1.
         -5    1    3    3    0  502 -0.28175862588E+02  0.21236828547E+02  0.45446532438E+02  0.57726592052E+02  0.47000000000E+01 0. -1.
        -11    1    4    4    0    0 -0.24291244283E+02  0.31487794913E+02  0.63299186415E+02  0.74755152184E+02  0.00000000000E+00 0.  1.
         11    1    4    4    0    0 -0.13471227176E+02 -0.18873174128E+01 -0.32164954615E+02  0.34923061636E+02  0.00000000000E+00 0. -1.
<mgrwt>
<rscale>  0 0.12604264E+03</rscale>
<asrwt>0</asrwt>
<pdfrwt beam="2">  1        1 0.13465350E-01 0.13388471E+03</pdfrwt>
<pdfrwt beam="1">  1       -1 0.25119554E-01 0.13388471E+03</pdfrwt>
<totfact> 0.56477430E+03</totfact>
</mgrwt>
</event>
<event>
 8    1  0.1550723E-005  0.1278379E+03  0.7546771E-02  0.1238924E+00
         -2   -1    0    0    0  501 -0.00000000000E+00  0.00000000000E+00  0.44005091238E+02  0.44005091238E+02  0.00000000000E+00 0.  1.
          2   -1    0    0  501    0  0.00000000000E+00 -0.00000000000E+00 -0.34003735744E+03  0.34003735744E+03  0.00000000000E+00 0. -1.
         23    2    1    2    0    0 -0.34638737447E+01  0.26548372275E+02 -0.10872224008E+03  0.16781855152E+03  0.12500290499E+03 0.  0.
         23    2    1    2    0    0  0.34638737447E+01 -0.26548372275E+02 -0.18731002612E+03  0.21622389715E+03  0.10464661161E+03 0.  0.
          5    1    3    3  502    0  0.36534764902E+02  0.51364792143E+02 -0.18356162311E+02  0.65819219177E+02  0.47000000000E+01 0.  1.
         -5    1    3    3    0  502 -0.39998638647E+02 -0.24816419868E+02 -0.90366077765E+02  0.10199933235E+03  0.47000000000E+01 0.  1.
        -11    1    4    4    0    0  0.15444051813E+02 -0.57989743891E+02 -0.16570785086E+03  0.17623966911E+03  0.00000000000E+00 0. -1.
         11    1    4    4    0    0 -0.11980178068E+02  0.31441371616E+02 -0.21602175266E+02  0.39984228039E+02  0.00000000000E+00 0.  1.
<mgrwt>
<rscale>  0 0.12256547E+03</rscale>
<asrwt>0</asrwt>
<pdfrwt beam="2">  1        2 0.52313439E-01 0.12783795E+03</pdfrwt>
<pdfrwt beam="1">  1       -2 0.67700141E-02 0.12783795E+03</pdfrwt>
<totfact> 0.11022045E+04</totfact>
</mgrwt>
</event>
<event>
 8    1  0.1550723E-005  0.2127642E+03  0.7546771E-02  0.1142889E+00
         -1   -1    0    0    0  501 -0.00000000000E+00  0.00000000000E+00  0.10057695853E+03  0.10057695853E+03  0.00000000000E+00 0.  1.
          1   -1    0    0  501    0  0.00000000000E+00 -0.00000000000E+00 -0.43362351584E+03  0.43362351584E+03  0.00000000000E+00 0. -1.
         23    2    1    2    0    0 -0.17206927560E+03 -0.60220082580E+01 -0.11719673994E+03  0.24290672977E+03  0.12499801329E+03 0.  0.
         23    2    1    2    0    0  0.17206927560E+03  0.60220082580E+01 -0.21584981736E+03  0.29129374460E+03  0.92826729994E+02 0.  0.
          5    1    3    3  502    0 -0.52431757987E+01 -0.33112459465E+02 -0.51256152171E+02  0.61426451954E+02  0.47000000000E+01 0.  1.
         -5    1    3    3    0  502 -0.16682609980E+03  0.27090451207E+02 -0.65940587770E+02  0.18148027782E+03  0.47000000000E+01 0.  1.
        -11    1    4    4    0    0  0.11762920341E+02  0.90947162250E+01  0.72606846036E+01  0.16546833506E+02  0.00000000000E+00 0.  1.
         11    1    4    4    0    0  0.16030635526E+03 -0.30727079670E+01 -0.22311050197E+03  0.27474691110E+03  0.00000000000E+00 0. -1.
<mgrwt>
<rscale>  0 0.20833791E+03</rscale>
<asrwt>0</asrwt>
<pdfrwt beam="2">  1        1 0.66711310E-01 0.21276420E+03</pdfrwt>
<pdfrwt beam="1">  1       -1 0.15473378E-01 0.21276420E+03</pdfrwt>
<totfact> 0.16590484E+03</totfact>
</mgrwt>
</event>
<event>
 8    1  0.1550723E-005  0.2084889E+03  0.7546771E-02  0.1146716E+00
          1   -1    0    0  501    0  0.00000000000E+00  0.00000000000E+00  0.77576383501E+03  0.77576383501E+03  0.00000000000E+00 0.  1.
         -1   -1    0    0    0  501 -0.00000000000E+00 -0.00000000000E+00 -0.51648109932E+02  0.51648109932E+02  0.00000000000E+00 0. -1.
         23    2    1    2    0    0 -0.31435848021E+02  0.16387544454E+03  0.33626578631E+03  0.39565428788E+03  0.12499705041E+03 0.  0.
         23    2    1    2    0    0  0.31435848021E+02 -0.16387544454E+03  0.38784993877E+03  0.43175765706E+03  0.90242592874E+02 0.  0.
          5    1    3    3  502    0 -0.33139654246E+02  0.34403885403E+02  0.16701570229E+02  0.50822204424E+02  0.47000000000E+01 0.  1.
         -5    1    3    3    0  502  0.17038062246E+01  0.12947155913E+03  0.31956421608E+03  0.34483208345E+03  0.47000000000E+01 0.  1.
        -11    1    4    4    0    0 -0.22630701804E+02 -0.10124783273E+03  0.17567768395E+03  0.20402431457E+03  0.00000000000E+00 0.  1.
         11    1    4    4    0    0  0.54066549825E+02 -0.62627611808E+02  0.21217225481E+03  0.22773334249E+03  0.00000000000E+00 0. -1.
<mgrwt>
<rscale>  0 0.20362477E+03</rscale>
<asrwt>0</asrwt>
<pdfrwt beam="1">  1        1 0.11934827E+00 0.20848894E+03</pdfrwt>
<pdfrwt beam="2">  1       -1 0.79458636E-02 0.20848894E+03</pdfrwt>
<totfact> 0.20920351E+03</totfact>
</mgrwt>
</event>
<event>
 8    1  0.1550723E-005  0.1314557E+03  0.7546771E-02  0.1257516E+00
          1   -1    0    0  501    0  0.00000000000E+00  0.00000000000E+00  0.21947463786E+03  0.21947463786E+03  0.00000000000E+00 0. -1.
         -1   -1    0    0    0  501 -0.00000000000E+00 -0.00000000000E+00 -0.45680598919E+02  0.45680598919E+02  0.00000000000E+00 0.  1.
         23    2    1    2    0    0 -0.68355763669E+01 -0.39954672248E+02  0.10668220450E+03  0.16929762164E+03  0.12504995401E+03 0.  0.
         23    2    1    2    0    0  0.68355763669E+01  0.39954672248E+02  0.67111834445E+02  0.95857615144E+02  0.55150549587E+02 0.  0.
          5    1    3    3  502    0 -0.47068142100E+02  0.25814526179E+02  0.49749701293E+02  0.73341138124E+02  0.47000000000E+01 0. -1.
         -5    1    3    3    0  502  0.40232565733E+02 -0.65769198427E+02  0.56932503207E+02  0.95956483515E+02  0.47000000000E+01 0. -1.
        -11    1    4    4    0    0  0.15239811977E+01  0.27978315886E+02  0.75343383068E+02  0.80384911835E+02  0.00000000000E+00 0. -1.
         11    1    4    4    0    0  0.53115951693E+01  0.11976356362E+02 -0.82315486230E+01  0.15472703309E+02  0.00000000000E+00 0.  1.
<mgrwt>
<rscale>  0 0.11166563E+03</rscale>
<asrwt>0</asrwt>
<pdfrwt beam="1">  1        1 0.33765328E-01 0.13145567E+03</pdfrwt>
<pdfrwt beam="2">  1       -1 0.70277845E-02 0.13145567E+03</pdfrwt>
<totfact> 0.12810164E+04</totfact>
</mgrwt>
</event>
<event>
 8    1  0.1550723E-005  0.1694140E+03  0.7546771E-02  0.1184905E+00
          2   -1    0    0  501    0  0.00000000000E+00  0.00000000000E+00  0.84427386795E+03  0.84427386795E+03  0.00000000000E+00 0.  1.
         -2   -1    0    0    0  501 -0.00000000000E+00 -0.00000000000E+00 -0.32671114707E+02  0.32671114707E+02  0.00000000000E+00 0. -1.
         23    2    1    2    0    0 -0.48040956708E+02 -0.10379056718E+03  0.29765620635E+03  0.34249133123E+03  0.12498271654E+03 0.  0.
         23    2    1    2    0    0  0.48040956708E+02  0.10379056718E+03  0.51394654689E+03  0.53445365143E+03  0.91756400889E+02 0.  0.
          5    1    3    3  502    0 -0.65693263290E+02 -0.12473787752E+03  0.25837047332E+03  0.29436802546E+03  0.47000000000E+01 0.  1.
         -5    1    3    3    0  502  0.17652306582E+02  0.20947310346E+02  0.39285733031E+02  0.48123305770E+02  0.47000000000E+01 0.  1.
        -11    1    4    4    0    0 -0.10522873798E+02  0.25761979455E+02  0.30609107707E+02  0.41368199538E+02  0.00000000000E+00 0. -1.
         11    1    4    4    0    0  0.58563830506E+02  0.78028587721E+02  0.48333743918E+03  0.49308545189E+03  0.00000000000E+00 0.  1.
<mgrwt>
<rscale>  0 0.16340519E+03</rscale>
<asrwt>0</asrwt>
<pdfrwt beam="1">  1        2 0.12988827E+00 0.16941397E+03</pdfrwt>
<pdfrwt beam="2">  1       -2 0.50263260E-02 0.16941397E+03</pdfrwt>
<totfact> 0.62883466E+03</totfact>
</mgrwt>
</event>
<event>
 8    1  0.1550723E-005  0.1821968E+03  0.7546771E-02  0.1171086E+00
         -2   -1    0    0    0  501 -0.00000000000E+00  0.00000000000E+00  0.42430547956E+02  0.42430547956E+02  0.00000000000E+00 0.  1.
          2   -1    0    0  501    0  0.00000000000E+00 -0.00000000000E+00 -0.70089132518E+03  0.70089132518E+03  0.00000000000E+00 0. -1.
         23    2    1    2    0    0  0.68813625012E+02 -0.11329457861E+03 -0.38621622728E+03  0.42703473487E+03  0.12499885617E+03 0.  0.
         23    2    1    2    0    0 -0.68813625012E+02  0.11329457861E+03 -0.27224454995E+03  0.31628713827E+03  0.91375501793E+02 0.  0.
          5    1    3    3  502    0  0.32871815801E+02 -0.56369933886E+02 -0.45476723364E+02  0.79676521562E+02  0.47000000000E+01 0.  1.
         -5    1    3    3    0  502  0.35941809211E+02 -0.56924644721E+02 -0.34073950391E+03  0.34735821331E+03  0.47000000000E+01 0.  1.
        -11    1    4    4    0    0 -0.36414828744E+02  0.11063701907E+03 -0.25296549878E+03  0.27849260908E+03  0.00000000000E+00 0.  1.
         11    1    4    4    0    0 -0.32398796268E+02  0.26575595404E+01 -0.19279051165E+02  0.37794529183E+02  0.00000000000E+00 0. -1.
<mgrwt>
<rscale>  0 0.17664892E+03</rscale>
<asrwt>0</asrwt>
<pdfrwt beam="2">  1        2 0.10782942E+00 0.18219685E+03</pdfrwt>
<pdfrwt beam="1">  1       -2 0.65277774E-02 0.18219685E+03</pdfrwt>
<totfact> 0.53373452E+03</totfact>
</mgrwt>
</event>
<event>
 8    1  0.1550723E-005  0.1755994E+03  0.7546771E-02  0.1178042E+00
          1   -1    0    0  501    0  0.00000000000E+00  0.00000000000E+00  0.12856994086E+03  0.12856994086E+03  0.00000000000E+00 0. -1.
         -1   -1    0    0    0  501 -0.00000000000E+00 -0.00000000000E+00 -0.21151595187E+03  0.21151595187E+03  0.00000000000E+00 0.  1.
         23    2    1    2    0    0  0.12287740737E+03 -0.10598633630E+02 -0.33673601791E+02  0.17879895689E+03  0.12499586894E+03 0.  0.
         23    2    1    2    0    0 -0.12287740737E+03  0.10598633630E+02 -0.49272409221E+02  0.16128693583E+03  0.91512387587E+02 0.  0.
          5    1    3    3  502    0  0.10936346836E+01 -0.18428387720E+02  0.34149971389E+02  0.39103862426E+02  0.47000000000E+01 0. -1.
         -5    1    3    3    0  502  0.12178377269E+03  0.78297540894E+01 -0.67823573179E+02  0.13969509447E+03  0.47000000000E+01 0. -1.
        -11    1    4    4    0    0 -0.62128904706E+02 -0.32451444872E+02 -0.51207012028E+02  0.86805847470E+02  0.00000000000E+00 0.  1.
         11    1    4    4    0    0 -0.60748502668E+02  0.43050078502E+02  0.19346028071E+01  0.74481088362E+02  0.00000000000E+00 0. -1.
<mgrwt>
<rscale>  0 0.16981397E+03</rscale>
<asrwt>0</asrwt>
<pdfrwt beam="1">  1        1 0.19779991E-01 0.17559942E+03</pdfrwt>
<pdfrwt beam="2">  1       -1 0.32540915E-01 0.17559942E+03</pdfrwt>
<totfact> 0.22590710E+03</totfact>
</mgrwt>
</event>
<event>
 8    1  0.1550723E-005  0.1264119E+03  0.7546771E-02  0.1247457E+00
         -2   -1    0    0    0  501 -0.00000000000E+00  0.00000000000E+00  0.12623017073E+03  0.12623017073E+03  0.00000000000E+00 0. -1.
          2   -1    0    0  501    0  0.00000000000E+00 -0.00000000000E+00 -0.97241549493E+02  0.97241549493E+02  0.00000000000E+00 0.  1.
         23    2    1    2    0    0  0.18199962131E+02 -0.50993897234E+01  0.27837164660E+02  0.12944066548E+03  0.12499094266E+03 0.  0.
         23    2    1    2    0    0 -0.18199962131E+02  0.50993897234E+01  0.11514565807E+01  0.94031054742E+02  0.92104674184E+02 0.  0.
          5    1    3    3  502    0 -0.35079822346E+02 -0.29487738966E+02 -0.23211287648E+02  0.51584634917E+02  0.47000000000E+01 0.  1.
         -5    1    3    3    0  502  0.53279784477E+02  0.24388349243E+02  0.51048452308E+02  0.77856030568E+02  0.47000000000E+01 0.  1.
        -11    1    4    4    0    0 -0.19913752012E+02  0.40932960585E+02 -0.22785044047E+02  0.50904056947E+02  0.00000000000E+00 0.  1.
         11    1    4    4    0    0  0.17137898803E+01 -0.35833570862E+02  0.23936500628E+02  0.43126997795E+02  0.00000000000E+00 0. -1.
<mgrwt>
<rscale>  0 0.11739531E+03</rscale>
<asrwt>0</asrwt>
<pdfrwt beam="2">  1        2 0.14960238E-01 0.12641194E+03</pdfrwt>
<pdfrwt beam="1">  1       -2 0.19420026E-01 0.12641194E+03</pdfrwt>
<totfact> 0.81098212E+03</totfact>
</mgrwt>
</event>
<event>
 8    1  0.1550723E-005  0.1329195E+03  0.7546771E-02  0.1229555E+00
          1   -1    0    0  501    0  0.00000000000E+00  0.00000000000E+00  0.11265209097E+03  0.11265209097E+03  0.00000000000E+00 0. -1.
         -1   -1    0    0    0  501 -0.00000000000E+00 -0.00000000000E+00 -0.13864929184E+03  0.13864929184E+03  0.00000000000E+00 0.  1.
         23    2    1    2    0    0 -0.62121750146E+01 -0.44756537063E+02 -0.52805228119E+01  0.13302435139E+03  0.12500342160E+03 0.  0.
         23    2    1    2    0    0  0.62121750146E+01  0.44756537063E+02 -0.20716678052E+02  0.11827703142E+03  0.10732444588E+03 0.  0.
          5    1    3    3  502    0  0.35541012787E+02  0.21570673441E+02 -0.29112525495E+02  0.50971430070E+02  0.47000000000E+01 0.  1.
         -5    1    3    3    0  502 -0.41753187802E+02 -0.66327210504E+02  0.23832002684E+02  0.82052921318E+02  0.47000000000E+01 0.  1.
        -11    1    4    4    0    0  0.49791448438E+02  0.16841685199E+02 -0.36705558771E+02  0.64110285779E+02  0.00000000000E+00 0.  1.
         11    1    4    4    0    0 -0.43579273423E+02  0.27914851864E+02  0.15988880719E+02  0.54166745641E+02  0.00000000000E+00 0. -1.
<mgrwt>
<rscale>  0 0.12859530E+03</rscale>
<asrwt>0</asrwt>
<pdfrwt beam="1">  1        1 0.17331091E-01 0.13291950E+03</pdfrwt>
<pdfrwt beam="2">  1       -1 0.21330660E-01 0.13291950E+03</pdfrwt>
<totfact> 0.53170252E+03</totfact>
</mgrwt>
</event>
<event>
 8    1  0.1550723E-005  0.1709713E+03  0.7546771E-02  0.1183109E+00
          2   -1    0    0  501    0  0.00000000000E+00  0.00000000000E+00  0.11933042670E+04  0.11933042670E+04  0.00000000000E+00 0. -1.
         -2   -1    0    0    0  501 -0.00000000000E+00 -0.00000000000E+00 -0.22172105251E+02  0.22172105251E+02  0.00000000000E+00 0.  1.
         23    2    1    2    0    0  0.11355861790E+03 -0.26653988512E+02  0.51078577531E+03  0.53864021451E+03  0.12500071051E+03 0.  0.
         23    2    1    2    0    0 -0.11355861790E+03  0.26653988512E+02  0.66034638642E+03  0.67683615772E+03  0.91890366943E+02 0.  0.
          5    1    3    3  502    0 -0.81198742202E+01  0.18020123906E+02  0.12736192381E+02  0.23978278072E+02  0.47000000000E+01 0. -1.
         -5    1    3    3    0  502  0.12167849212E+03 -0.44674112418E+02  0.49804958293E+03  0.51466193644E+03  0.47000000000E+01 0. -1.
        -11    1    4    4    0    0 -0.91793880195E+02  0.54627176745E+02  0.56727703567E+03  0.57724646390E+03  0.00000000000E+00 0. -1.
         11    1    4    4    0    0 -0.21764737705E+02 -0.27973188232E+02  0.93069350746E+02  0.99589693822E+02  0.00000000000E+00 0.  1.
<mgrwt>
<rscale>  0 0.16505094E+03</rscale>
<asrwt>0</asrwt>
<pdfrwt beam="1">  1        2 0.18358522E+00 0.17097126E+03</pdfrwt>
<pdfrwt beam="2">  1       -2 0.34110940E-02 0.17097126E+03</pdfrwt>
<totfact> 0.69281340E+03</totfact>
</mgrwt>
</event>
<event>
 8    1  0.1550723E-005  0.1678742E+03  0.7546771E-02  0.1186452E+00
         -1   -1    0    0    0  501 -0.00000000000E+00  0.00000000000E+00  0.80494884448E+02  0.80494884448E+02  0.00000000000E+00 0. -1.
          1   -1    0    0  501    0  0.00000000000E+00 -0.00000000000E+00 -0.31765327817E+03  0.31765327817E+03  0.00000000000E+00 0.  1.
         23    2    1    2    0    0  0.87614044642E+02 -0.69867502006E+02 -0.87339593610E+02  0.18923519874E+03  0.12499626865E+03 0.  0.
         23    2    1    2    0    0 -0.87614044642E+02  0.69867502006E+02 -0.14981880011E+03  0.20891296388E+03  0.92958404426E+02 0.  0.
          5    1    3    3  502    0  0.93323656166E+02 -0.93278889567E+02 -0.43543009042E+02  0.13902639920E+03  0.47000000000E+01 0. -1.
         -5    1    3    3    0  502 -0.57096115239E+01  0.23411387560E+02 -0.43796584568E+02  0.50208799538E+02  0.47000000000E+01 0. -1.
        -11    1    4    4    0    0 -0.41970901791E+02  0.54692410016E+02 -0.22035423945E+02  0.72376627574E+02  0.00000000000E+00 0. -1.
         11    1    4    4    0    0 -0.45643142852E+02  0.15175091991E+02 -0.12778337617E+03  0.13653633630E+03  0.00000000000E+00 0.  1.
<mgrwt>
<rscale>  0 0.16200459E+03</rscale>
<asrwt>0</asrwt>
<pdfrwt beam="2">  1        1 0.48869735E-01 0.16787423E+03</pdfrwt>
<pdfrwt beam="1">  1       -1 0.12383828E-01 0.16787423E+03</pdfrwt>
<totfact> 0.34671305E+03</totfact>
</mgrwt>
</event>
<event>
 8    1  0.1550723E-005  0.1431728E+03  0.7546771E-02  0.1219733E+00
         -2   -1    0    0    0  501 -0.00000000000E+00  0.00000000000E+00  0.27804206111E+03  0.27804206111E+03  0.00000000000E+00 0.  1.
          2   -1    0    0  501    0  0.00000000000E+00 -0.00000000000E+00 -0.61037443649E+02  0.61037443649E+02  0.00000000000E+00 0. -1.
         23    2    1    2    0    0  0.27196848204E+02  0.64293161748E+02  0.94726390431E+02  0.17167278352E+03  0.12500070543E+03 0.  0.
         23    2    1    2    0    0 -0.27196848204E+02 -0.64293161748E+02  0.12227822703E+03  0.16740672124E+03  0.90552561038E+02 0.  0.
          5    1    3    3  502    0 -0.46809948714E+02  0.22181084971E+02  0.60493663408E+02  0.79779352852E+02  0.47000000000E+01 0.  1.
         -5    1    3    3    0  502  0.74006796917E+02  0.42112076777E+02  0.34232727024E+02  0.91893430668E+02  0.47000000000E+01 0.  1.
        -11    1    4    4    0    0 -0.11557030823E+02 -0.18586553991E+02 -0.11818566072E+02  0.24873750315E+02  0.00000000000E+00 0. -1.
         11    1    4    4    0    0 -0.15639817381E+02 -0.45706607756E+02  0.13409679310E+03  0.14253297092E+03  0.00000000000E+00 0.  1.
<mgrwt>
<rscale>  0 0.13534510E+03</rscale>
<asrwt>0</asrwt>
<pdfrwt beam="2">  1        2 0.93903761E-02 0.14317282E+03</pdfrwt>
<pdfrwt beam="1">  1       -2 0.42775701E-01 0.14317282E+03</pdfrwt>
<totfact> 0.34837028E+03</totfact>
</mgrwt>
</event>
<event>
 8    1  0.1550723E-005  0.1834799E+03  0.7546771E-02  0.1170029E+00
          3   -1    0    0  501    0  0.00000000000E+00  0.00000000000E+00  0.22184073508E+03  0.22184073508E+03  0.00000000000E+00 0. -1.
         -3   -1    0    0    0  501 -0.00000000000E+00 -0.00000000000E+00 -0.17511659412E+03  0.17511659412E+03  0.00000000000E+00 0.  1.
         23    2    1    2    0    0  0.25342783443E+02  0.13190059554E+03 -0.71386589190E+02  0.19687791791E+03  0.12499938268E+03 0.  0.
         23    2    1    2    0    0 -0.25342783443E+02 -0.13190059554E+03  0.11811073015E+03  0.20007941129E+03  0.89674982402E+02 0.  0.
          5    1    3    3  502    0  0.19711035430E+02  0.65246264533E+02 -0.10231792964E+03  0.12303108826E+03  0.47000000000E+01 0. -1.
         -5    1    3    3    0  502  0.56317480130E+01  0.66654331006E+02  0.30931340451E+02  0.73846829652E+02  0.47000000000E+01 0. -1.
        -11    1    4    4    0    0  0.18939036766E+02 -0.37355687467E+02  0.77431732156E+02  0.88032991795E+02  0.00000000000E+00 0.  1.
         11    1    4    4    0    0 -0.44281820209E+02 -0.94544908072E+02  0.40678997992E+02  0.11204641949E+03  0.00000000000E+00 0. -1.
<mgrwt>
<rscale>  0 0.17771872E+03</rscale>
<asrwt>0</asrwt>
<pdfrwt beam="1">  1        3 0.34129344E-01 0.18347989E+03</pdfrwt>
<pdfrwt beam="2">  1       -3 0.26941014E-01 0.18347989E+03</pdfrwt>
<totfact> 0.26694524E+02</totfact>
</mgrwt>
</event>
<event>
 8    1  0.1550723E-005  0.1310723E+03  0.7546771E-02  0.1239828E+00
          2   -1    0    0  501    0  0.00000000000E+00  0.00000000000E+00  0.34599893920E+02  0.34599893920E+02  0.00000000000E+00 0. -1.
         -2   -1    0    0    0  501 -0.00000000000E+00 -0.00000000000E+00 -0.39105500799E+03  0.39105500799E+03  0.00000000000E+00 0.  1.
         23    2    1    2    0    0 -0.33654195189E+02 -0.20540519958E+02 -0.23763041844E+03  0.27138196945E+03  0.12500175901E+03 0.  0.
         23    2    1    2    0    0  0.33654195189E+02  0.20540519958E+02 -0.11882469563E+03  0.15427293246E+03  0.90146056966E+02 0.  0.
          5    1    3    3  502    0 -0.36842376395E+01  0.93042159955E+01 -0.22732821795E+03  0.22759690402E+03  0.47000000000E+01 0. -1.
         -5    1    3    3    0  502 -0.29969957549E+02 -0.29844735954E+02 -0.10302200496E+02  0.43785065430E+02  0.47000000000E+01 0. -1.
        -11    1    4    4    0    0  0.32264746093E+02 -0.10028510733E+02 -0.23760851856E+01  0.33870793448E+02  0.00000000000E+00 0.  1.
         11    1    4    4    0    0  0.13894490957E+01  0.30569030691E+02 -0.11644861044E+03  0.12040213902E+03  0.00000000000E+00 0. -1.
<mgrwt>
<rscale>  0 0.12200352E+03</rscale>
<asrwt>0</asrwt>
<pdfrwt beam="1">  1        2 0.53230604E-02 0.13107234E+03</pdfrwt>
<pdfrwt beam="2">  1       -2 0.60162312E-01 0.13107234E+03</pdfrwt>
<totfact> 0.36175586E+03</totfact>
</mgrwt>
</event>
<event>
 8    1  0.1550723E-005  0.2365825E+03  0.7546771E-02  0.1124783E+00
          2   -1    0    0  501    0  0.00000000000E+00  0.00000000000E+00  0.10376392461E+04  0.10376392461E+04  0.00000000000E+00 0. -1.
         -2   -1    0    0    0  501 -0.00000000000E+00 -0.00000000000E+00 -0.64320103350E+02  0.64320103350E+02  0.00000000000E+00 0.  1.
         23    2    1    2    0    0 -0.13982444636E+03 -0.14416619143E+03  0.24420904725E+03  0.34001374395E+03  0.12504607458E+03 0.  0.
         23    2    1    2    0    0  0.13982444636E+03  0.14416619143E+03  0.72911009549E+03  0.76194560549E+03  0.92869843461E+02 0.  0.
          5    1    3    3  502    0 -0.10824527721E+03 -0.72256361919E+02  0.22346865655E+03  0.25864715799E+03  0.47000000000E+01 0.  1.
         -5    1    3    3    0  502 -0.31579169147E+02 -0.71909829513E+02  0.20740390697E+02  0.81366585961E+02  0.47000000000E+01 0.  1.
        -11    1    4    4    0    0  0.12230890961E+03  0.15653921232E+03  0.67838766278E+03  0.70687609619E+03  0.00000000000E+00 0.  1.
         11    1    4    4    0    0  0.17515536747E+02 -0.12373020886E+02  0.50722432713E+02  0.55069509293E+02  0.00000000000E+00 0. -1.
<mgrwt>
<rscale>  0 0.23265730E+03</rscale>
<asrwt>0</asrwt>
<pdfrwt beam="1">  1        2 0.15963679E+00 0.23658252E+03</pdfrwt>
<pdfrwt beam="2">  1       -2 0.98954013E-02 0.23658252E+03</pdfrwt>
<totfact> 0.16798189E+03</totfact>
</mgrwt>
</event>
<event>
 8    1  0.1550723E-005  0.1269523E+03  0.7546771E-02  0.1246717E+00
          1   -1    0    0  501    0  0.00000000000E+00  0.00000000000E+00  0.46520270986E+03  0.46520270986E+03  0.00000000000E+00 0. -1.
         -1   -1    0    0    0  501 -0.00000000000E+00 -0.00000000000E+00 -0.27166799557E+02  0.27166799557E+02  0.00000000000E+00 0.  1.
         23    2    1    2    0    0  0.17832962067E+02 -0.13307577191E+02  0.20656594244E+03  0.24245902407E+03  0.12498713386E+03 0.  0.
         23    2    1    2    0    0 -0.17832962067E+02  0.13307577191E+02  0.23146996786E+03  0.24991048535E+03  0.91552162823E+02 0.  0.
          5    1    3    3  502    0 -0.28917219861E+02  0.39800559558E+02  0.12479810540E+03  0.13422722249E+03  0.47000000000E+01 0. -1.
         -5    1    3    3    0  502  0.46750181928E+02 -0.53108136748E+02  0.81767837039E+02  0.10823180158E+03  0.47000000000E+01 0. -1.
        -11    1    4    4    0    0 -0.47745259716E+02 -0.13406594391E+02  0.88782235850E+02  0.10169381496E+03  0.00000000000E+00 0.  1.
         11    1    4    4    0    0  0.29912297649E+02  0.26714171581E+02  0.14268773201E+03  0.14821667039E+03  0.00000000000E+00 0. -1.
<mgrwt>
<rscale>  0 0.11783198E+03</rscale>
<asrwt>0</asrwt>
<pdfrwt beam="1">  1        1 0.71569642E-01 0.12695231E+03</pdfrwt>
<pdfrwt beam="2">  1       -1 0.41795080E-02 0.12695231E+03</pdfrwt>
<totfact> 0.10822188E+04</totfact>
</mgrwt>
</event>
<event>
 8    1  0.1550723E-005  0.1252900E+03  0.7546771E-02  0.1252199E+00
         -3   -1    0    0    0  501 -0.00000000000E+00  0.00000000000E+00  0.13188476085E+03  0.13188476085E+03  0.00000000000E+00 0.  1.
          3   -1    0    0  501    0  0.00000000000E+00 -0.00000000000E+00 -0.94880874973E+02  0.94880874973E+02  0.00000000000E+00 0. -1.
         23    2    1    2    0    0 -0.15652632257E+01  0.83816335906E+01  0.55444463593E+02  0.13700973821E+03  0.12499951197E+03 0.  0.
         23    2    1    2    0    0  0.15652632257E+01 -0.83816335906E+01 -0.18440577720E+02  0.89755897603E+02  0.87426337092E+02 0.  0.
          5    1    3    3  502    0  0.90616693582E+01  0.64199220464E+01 -0.39518985037E+02  0.41317906881E+02  0.47000000000E+01 0. -1.
         -5    1    3    3    0  502 -0.10626932584E+02  0.19617115442E+01  0.94963448630E+02  0.95691831334E+02  0.47000000000E+01 0. -1.
        -11    1    4    4    0    0  0.33325670034E+02  0.63821861673E+01  0.18669191578E+02  0.38728171887E+02  0.00000000000E+00 0.  1.
         11    1    4    4    0    0 -0.31760406809E+02 -0.14763819758E+02 -0.37109769298E+02  0.51027725717E+02  0.00000000000E+00 0. -1.
<mgrwt>
<rscale>  0 0.11464675E+03</rscale>
<asrwt>0</asrwt>
<pdfrwt beam="2">  1        3 0.14597058E-01 0.12528998E+03</pdfrwt>
<pdfrwt beam="1">  1       -3 0.20289963E-01 0.12528998E+03</pdfrwt>
<totfact> 0.19238420E+03</totfact>
</mgrwt>
</event>
<event>
 8    1  0.1550723E-005  0.1315367E+03  0.7546771E-02  0.1238842E+00
         -1   -1    0    0    0  501 -0.00000000000E+00  0.00000000000E+00  0.14038104125E+03  0.14038104125E+03  0.00000000000E+00 0.  1.
          1   -1    0    0  501    0  0.00000000000E+00 -0.00000000000E+00 -0.96648671096E+02  0.96648671096E+02  0.00000000000E+00 0. -1.
         23    2    1    2    0    0  0.32584122690E+02 -0.24789083593E+02  0.40587575689E+02  0.13765626876E+03  0.12500269322E+03 0.  0.
         23    2    1    2    0    0 -0.32584122690E+02  0.24789083593E+02  0.31447944626E+01  0.99373443580E+02  0.90492915965E+02 0.  0.
          5    1    3    3  502    0  0.21373701227E+02  0.50366479890E+02  0.22884000607E+02  0.59492729677E+02  0.47000000000E+01 0. -1.
         -5    1    3    3    0  502  0.11210421462E+02 -0.75155563483E+02  0.17703575082E+02  0.78163539087E+02  0.47000000000E+01 0. -1.
        -11    1    4    4    0    0  0.72528377752E+01 -0.29232691525E+02  0.10392359683E+02  0.31861497914E+02  0.00000000000E+00 0.  1.
         11    1    4    4    0    0 -0.39836960465E+02  0.54021775118E+02 -0.72475652199E+01  0.67511945666E+02  0.00000000000E+00 0. -1.
<mgrwt>
<rscale>  0 0.12261634E+03</rscale>
<asrwt>0</asrwt>
<pdfrwt beam="2">  1        1 0.14869026E-01 0.13153668E+03</pdfrwt>
<pdfrwt beam="1">  1       -1 0.21597083E-01 0.13153668E+03</pdfrwt>
<totfact> 0.63438027E+03</totfact>
</mgrwt>
</event>
<event>
 8    1  0.1550723E-005  0.1635322E+03  0.7546771E-02  0.1192468E+00
         -1   -1    0    0    0  501 -0.00000000000E+00  0.00000000000E+00  0.17009156071E+03  0.17009156071E+03  0.00000000000E+00 0.  1.
          1   -1    0    0  501    0  0.00000000000E+00 -0.00000000000E+00 -0.13387726782E+03  0.13387726782E+03  0.00000000000E+00 0. -1.
         23    2    1    2    0    0 -0.53195960500E+02 -0.91023537896E+02  0.27303606615E+02  0.16579585946E+03  0.12501074120E+03 0.  0.
         23    2    1    2    0    0  0.53195960500E+02  0.91023537896E+02  0.89106862742E+01  0.13817296908E+03  0.88866610091E+02 0.  0.
          5    1    3    3  502    0 -0.82888428551E+02 -0.98927305420E+02  0.34933828873E+02  0.13378925871E+03  0.47000000000E+01 0.  1.
         -5    1    3    3    0  502  0.29692468051E+02  0.79037675241E+01 -0.76302222580E+01  0.32006600753E+02  0.47000000000E+01 0.  1.
        -11    1    4    4    0    0  0.38914496443E+02  0.10758280544E+03  0.15223312573E+02  0.11541294254E+03  0.00000000000E+00 0. -1.
         11    1    4    4    0    0  0.14281464058E+02 -0.16559267544E+02 -0.63126262985E+01  0.22760026538E+02  0.00000000000E+00 0.  1.
<mgrwt>
<rscale>  0 0.15670469E+03</rscale>
<asrwt>0</asrwt>
<pdfrwt beam="2">  1        1 0.20596503E-01 0.16353220E+03</pdfrwt>
<pdfrwt beam="1">  1       -1 0.26167932E-01 0.16353220E+03</pdfrwt>
<totfact> 0.30871096E+03</totfact>
</mgrwt>
</event>
<event>
 8    1  0.1550723E-005  0.1541582E+03  0.7546771E-02  0.1203797E+00
          1   -1    0    0  501    0  0.00000000000E+00  0.00000000000E+00  0.94944853863E+03  0.94944853863E+03  0.00000000000E+00 0. -1.
         -1   -1    0    0    0  501 -0.00000000000E+00 -0.00000000000E+00 -0.25169263739E+02  0.25169263739E+02  0.00000000000E+00 0.  1.
         23    2    1    2    0    0  0.63602807437E+02 -0.64006006343E+02  0.30065392557E+03  0.33787204465E+03  0.12499059819E+03 0.  0.
         23    2    1    2    0    0 -0.63602807437E+02  0.64006006343E+02  0.62362534933E+03  0.63674575772E+03  0.91621491424E+02 0.  0.
          5    1    3    3  502    0 -0.16641611004E+02  0.17466660198E+02  0.13058614356E+03  0.13287911170E+03  0.47000000000E+01 0. -1.
         -5    1    3    3    0  502  0.80244418441E+02 -0.81472666541E+02  0.17006778200E+03  0.20499293295E+03  0.47000000000E+01 0. -1.
        -11    1    4    4    0    0  0.14198730767E+02 -0.43108524400E+01  0.23778389563E+02  0.28028542851E+02  0.00000000000E+00 0.  1.
         11    1    4    4    0    0 -0.77801538204E+02  0.68316858783E+02  0.59984695977E+03  0.60871721487E+03  0.00000000000E+00 0. -1.
<mgrwt>
<rscale>  0 0.14732641E+03</rscale>
<asrwt>0</asrwt>
<pdfrwt beam="1">  1        1 0.14606898E+00 0.15415815E+03</pdfrwt>
<pdfrwt beam="2">  1       -1 0.38721952E-02 0.15415815E+03</pdfrwt>
<totfact> 0.44280316E+03</totfact>
</mgrwt>
</event>
<event>
 8    1  0.1550723E-005  0.1699090E+03  0.7546771E-02  0.1182829E+00
         -3   -1    0    0    0  501 -0.00000000000E+00  0.00000000000E+00  0.30985282375E+03  0.30985282375E+03  0.00000000000E+00 0.  1.
          3   -1    0    0  501    0  0.00000000000E+00 -0.00000000000E+00 -0.10686426011E+03  0.10686426011E+03  0.00000000000E+00 0. -1.
         23    2    1    2    0    0 -0.97181940398E+02  0.61641941324E+02  0.20267289611E+03  0.26447186612E+03  0.12500002672E+03 0.  0.
         23    2    1    2    0    0  0.97181940398E+02 -0.61641941324E+02  0.31566752456E+00  0.15224521775E+03  0.99671702158E+02 0.  0.
          5    1    3    3  502    0 -0.10956847892E+03  0.13867409675E+02  0.17689281399E+03  0.20859222005E+03  0.47000000000E+01 0. -1.
         -5    1    3    3    0  502  0.12386538520E+02  0.47774531649E+02  0.25780082123E+02  0.55879646071E+02  0.47000000000E+01 0. -1.
        -11    1    4    4    0    0  0.36158953037E+02 -0.80092918833E+02  0.69403688150E+01  0.88150520425E+02  0.00000000000E+00 0. -1.
         11    1    4    4    0    0  0.61022987361E+02  0.18450977509E+02 -0.66247012905E+01  0.64094697321E+02  0.00000000000E+00 0.  1.
<mgrwt>
<rscale>  0 0.16530955E+03</rscale>
<asrwt>0</asrwt>
<pdfrwt beam="2">  1        3 0.16440656E-01 0.16990899E+03</pdfrwt>
<pdfrwt beam="1">  1       -3 0.47669665E-01 0.16990899E+03</pdfrwt>
<totfact> 0.33347203E+02</totfact>
</mgrwt>
</event>
<event>
 8    1  0.1550723E-005  0.2582448E+03  0.7546771E-02  0.1110539E+00
         -1   -1    0    0    0  501 -0.00000000000E+00  0.00000000000E+00  0.11154983402E+04  0.11154983402E+04  0.00000000000E+00 0.  1.
          1   -1    0    0  501    0  0.00000000000E+00 -0.00000000000E+00 -0.10438998144E+03  0.10438998144E+03  0.00000000000E+00 0. -1.
         23    2    1    2    0    0  0.13094722337E+03 -0.18416086064E+03  0.92724701501E+03  0.96253695837E+03  0.12501188538E+03 0.  0.
         23    2    1    2    0    0 -0.13094722337E+03  0.18416086064E+03  0.83861343798E+02  0.25735136331E+03  0.90192024664E+02 0.  0.
          5    1    3    3  502    0  0.91202902085E+02 -0.19203375699E+03  0.69736578917E+03  0.72906520084E+03  0.47000000000E+01 0.  1.
         -5    1    3    3    0  502  0.39744321286E+02  0.78728963457E+01  0.22988122583E+03  0.23347175753E+03  0.47000000000E+01 0.  1.
        -11    1    4    4    0    0 -0.74934185338E+02  0.12771740363E+03  0.93410716218E+01  0.14837157053E+03  0.00000000000E+00 0.  1.
         11    1    4    4    0    0 -0.56013038033E+02  0.56443457008E+02  0.74520272176E+02  0.10897979278E+03  0.00000000000E+00 0. -1.
<mgrwt>
<rscale>  0 0.25442579E+03</rscale>
<asrwt>0</asrwt>
<pdfrwt beam="2">  1        1 0.16059998E-01 0.25824479E+03</pdfrwt>
<pdfrwt beam="1">  1       -1 0.17161512E+00 0.25824479E+03</pdfrwt>
<totfact> 0.89772805E+01</totfact>
</mgrwt>
</event>
<event>
 8    1  0.1550723E-005  0.2829404E+03  0.7546771E-02  0.1095784E+00
         -1   -1    0    0    0  501 -0.00000000000E+00  0.00000000000E+00  0.13383964976E+03  0.13383964976E+03  0.00000000000E+00 0.  1.
          1   -1    0    0  501    0  0.00000000000E+00 -0.00000000000E+00 -0.61577107054E+03  0.61577107054E+03  0.00000000000E+00 0. -1.
         23    2    1    2    0    0  0.10034645403E+03 -0.23315534253E+03 -0.14660756175E+03  0.31866758844E+03  0.12499772068E+03 0.  0.
         23    2    1    2    0    0 -0.10034645403E+03  0.23315534253E+03 -0.33532385903E+03  0.43094313186E+03  0.94016317088E+02 0.  0.
          5    1    3    3  502    0  0.15583774503E+02 -0.93311569594E+02 -0.12007149043E+03  0.15293513613E+03  0.47000000000E+01 0. -1.
         -5    1    3    3    0  502  0.84762679527E+02 -0.13984377293E+03 -0.26536071321E+02  0.16573245232E+03  0.47000000000E+01 0. -1.
        -11    1    4    4    0    0 -0.11348504118E+03  0.19406575922E+03 -0.30859486697E+03  0.38179990229E+03  0.00000000000E+00 0. -1.
         11    1    4    4    0    0  0.13138587151E+02  0.39089583310E+02 -0.26728992059E+02  0.49143229566E+02  0.00000000000E+00 0.  1.
<mgrwt>
<rscale>  0 0.27982524E+03</rscale>
<asrwt>0</asrwt>
<pdfrwt beam="2">  1        1 0.94734010E-01 0.28294037E+03</pdfrwt>
<pdfrwt beam="1">  1       -1 0.20590716E-01 0.28294037E+03</pdfrwt>
<totfact> 0.65422002E+02</totfact>
</mgrwt>
</event>
<event>
 8    1  0.1550723E-005  0.1925332E+03  0.7546771E-02  0.1161107E+00
         -2   -1    0    0    0  501 -0.00000000000E+00  0.00000000000E+00  0.17673227548E+03  0.17673227548E+03  0.00000000000E+00 0.  1.
          2   -1    0    0  501    0  0.00000000000E+00 -0.00000000000E+00 -0.23643337455E+03  0.23643337455E+03  0.00000000000E+00 0. -1.
         23    2    1    2    0    0 -0.37871177446E+02 -0.14145240613E+03  0.62506127162E+02  0.20242539952E+03  0.12500406856E+03 0.  0.
         23    2    1    2    0    0  0.37871177446E+02  0.14145240613E+03 -0.12220722623E+03  0.21074025050E+03  0.89631678306E+02 0.  0.
          5    1    3    3  502    0 -0.75402792989E+02 -0.13416703376E+03  0.48388601604E+02  0.16139987888E+03  0.47000000000E+01 0.  1.
         -5    1    3    3    0  502  0.37531615543E+02 -0.72853723741E+01  0.14117525559E+02  0.41025520640E+02  0.47000000000E+01 0.  1.
        -11    1    4    4    0    0  0.44828940112E+02  0.61179867263E+02 -0.10299395855E+03  0.12790764452E+03  0.00000000000E+00 0. -1.
         11    1    4    4    0    0 -0.69577626659E+01  0.80272538868E+02 -0.19213267682E+02  0.82832605976E+02  0.00000000000E+00 0.  1.
<mgrwt>
<rscale>  0 0.18709592E+03</rscale>
<asrwt>0</asrwt>
<pdfrwt beam="2">  1        2 0.36374365E-01 0.19253318E+03</pdfrwt>
<pdfrwt beam="1">  1       -2 0.27189581E-01 0.19253318E+03</pdfrwt>
<totfact> 0.17151742E+03</totfact>
</mgrwt>
</event>
<event>
 8    1  0.1550723E-005  0.1323667E+03  0.7546771E-02  0.1236732E+00
         -2   -1    0    0    0  501 -0.00000000000E+00  0.00000000000E+00  0.77570830186E+02  0.77570830186E+02  0.00000000000E+00 0.  1.
          2   -1    0    0  501    0  0.00000000000E+00 -0.00000000000E+00 -0.17702819950E+03  0.17702819950E+03  0.00000000000E+00 0. -1.
         23    2    1    2    0    0 -0.35942273398E+02 -0.24576297220E+02 -0.62058580163E+02  0.14619237850E+03  0.12500041103E+03 0.  0.
         23    2    1    2    0    0  0.35942273398E+02  0.24576297220E+02 -0.37398789155E+02  0.10840665119E+03  0.91964619226E+02 0.  0.
          5    1    3    3  502    0  0.27006604929E+02 -0.55116771705E+02 -0.21618117411E+02  0.65242993750E+02  0.47000000000E+01 0.  1.
         -5    1    3    3    0  502 -0.62948878327E+02  0.30540474485E+02 -0.40440462752E+02  0.80949384754E+02  0.47000000000E+01 0.  1.
        -11    1    4    4    0    0 -0.25697775939E+02  0.62028686819E+01 -0.35235864091E+02  0.44050168970E+02  0.00000000000E+00 0. -1.
         11    1    4    4    0    0  0.61640049337E+02  0.18373428538E+02 -0.21629250642E+01  0.64356482217E+02  0.00000000000E+00 0.  1.
<mgrwt>
<rscale>  0 0.12394217E+03</rscale>
<asrwt>0</asrwt>
<pdfrwt beam="2">  1        2 0.27235107E-01 0.13236670E+03</pdfrwt>
<pdfrwt beam="1">  1       -2 0.11933974E-01 0.13236670E+03</pdfrwt>
<totfact> 0.91797164E+03</totfact>
</mgrwt>
</event>
<event>
 8    1  0.1550723E-005  0.1384480E+03  0.7546771E-02  0.1225390E+00
          2   -1    0    0  501    0  0.00000000000E+00  0.00000000000E+00  0.58517572066E+03  0.58517572066E+03  0.00000000000E+00 0. -1.
         -2   -1    0    0    0  501 -0.00000000000E+00 -0.00000000000E+00 -0.31883595643E+02  0.31883595643E+02  0.00000000000E+00 0.  1.
         23    2    1    2    0    0  0.19839308894E+02 -0.56113940067E+02  0.17913786782E+03  0.22640280485E+03  0.12500192763E+03 0.  0.
         23    2    1    2    0    0 -0.19839308894E+02  0.56113940067E+02  0.37415425720E+03  0.39065651145E+03  0.95282366216E+02 0.  0.
          5    1    3    3  502    0 -0.23168539930E+02 -0.52232251351E+02  0.18878916367E+02  0.60361351931E+02  0.47000000000E+01 0. -1.
         -5    1    3    3    0  502  0.43007848825E+02 -0.38816887153E+01  0.16025895145E+03  0.16604145292E+03  0.47000000000E+01 0. -1.
        -11    1    4    4    0    0 -0.58138019820E+02  0.29953700630E+02  0.23783116439E+03  0.24665951489E+03  0.00000000000E+00 0.  1.
         11    1    4    4    0    0  0.38298710926E+02  0.26160239437E+02  0.13632309281E+03  0.14399699656E+03  0.00000000000E+00 0. -1.
<mgrwt>
<rscale>  0 0.13140207E+03</rscale>
<asrwt>0</asrwt>
<pdfrwt beam="1">  1        2 0.90027026E-01 0.13844802E+03</pdfrwt>
<pdfrwt beam="2">  1       -2 0.49051690E-02 0.13844802E+03</pdfrwt>
<totfact> 0.10013131E+04</totfact>
</mgrwt>
</event>
<event>
 8    1  0.1550723E-005  0.1977790E+03  0.7546771E-02  0.1156134E+00
          1   -1    0    0  501    0  0.00000000000E+00  0.00000000000E+00  0.89922476458E+03  0.89922476458E+03  0.00000000000E+00 0. -1.
         -1   -1    0    0    0  501 -0.00000000000E+00 -0.00000000000E+00 -0.50581945323E+02  0.50581945323E+02  0.00000000000E+00 0.  1.
         23    2    1    2    0    0 -0.89075641681E+02  0.12469307429E+03  0.21705135676E+03  0.29364577520E+03  0.12503486355E+03 0.  0.
         23    2    1    2    0    0  0.89075641681E+02 -0.12469307429E+03  0.63159146249E+03  0.65616093470E+03  0.90313697844E+02 0.  0.
          5    1    3    3  502    0 -0.28543272229E+02 -0.23712392632E+02  0.39074994075E+02  0.54091969051E+02  0.47000000000E+01 0.  1.
         -5    1    3    3    0  502 -0.60532369452E+02  0.14840546692E+03  0.17797636269E+03  0.23955380615E+03  0.47000000000E+01 0.  1.
        -11    1    4    4    0    0 -0.12827802428E+02  0.32641354542E+01  0.31351220612E+02  0.34030958395E+02  0.00000000000E+00 0.  1.
         11    1    4    4    0    0  0.10190344411E+03 -0.12795720975E+03  0.60024024188E+03  0.62212997631E+03  0.00000000000E+00 0. -1.
<mgrwt>
<rscale>  0 0.19260330E+03</rscale>
<asrwt>0</asrwt>
<pdfrwt beam="1">  1        1 0.13834226E+00 0.19777904E+03</pdfrwt>
<pdfrwt beam="2">  1       -1 0.77818384E-02 0.19777904E+03</pdfrwt>
<totfact> 0.17139344E+03</totfact>
</mgrwt>
</event>
<event>
 8    1  0.1550723E-005  0.1266223E+03  0.7546771E-02  0.1250501E+00
          4   -1    0    0  501    0  0.00000000000E+00  0.00000000000E+00  0.10930072193E+03  0.10930072193E+03  0.00000000000E+00 0. -1.
         -4   -1    0    0    0  501 -0.00000000000E+00 -0.00000000000E+00 -0.12401618443E+03  0.12401618443E+03  0.00000000000E+00 0.  1.
         23    2    1    2    0    0 -0.17090734555E+02 -0.10706956385E+02 -0.53073252902E+02  0.13729525423E+03  0.12500593801E+03 0.  0.
         23    2    1    2    0    0  0.17090734555E+02  0.10706956385E+02  0.38357790398E+02  0.96021652127E+02  0.85686086795E+02 0.  0.
          5    1    3    3  502    0 -0.14830100234E+02 -0.13593441030E+02 -0.93843975906E+02  0.96091078284E+02  0.47000000000E+01 0.  1.
         -5    1    3    3    0  502 -0.22606343208E+01  0.28864846446E+01  0.40770723004E+02  0.41204175946E+02  0.47000000000E+01 0.  1.
        -11    1    4    4    0    0 -0.17192179036E+02 -0.21071286765E+02  0.41002129187E+02  0.49201064458E+02  0.00000000000E+00 0.  1.
         11    1    4    4    0    0  0.34282913591E+02  0.31778243150E+02 -0.26443387889E+01  0.46820587668E+02  0.00000000000E+00 0. -1.
<mgrwt>
<rscale>  0 0.11562116E+03</rscale>
<asrwt>0</asrwt>
<pdfrwt beam="1">  1        4 0.16815496E-01 0.12662234E+03</pdfrwt>
<pdfrwt beam="2">  1       -4 0.19079413E-01 0.12662234E+03</pdfrwt>
<totfact> 0.12283909E+03</totfact>
</mgrwt>
</event>
<event>
 8    1  0.1550723E-005  0.1627345E+03  0.7546771E-02  0.1192161E+00
         -2   -1    0    0    0  501 -0.00000000000E+00  0.00000000000E+00  0.24580035759E+02  0.24580035759E+02  0.00000000000E+00 0.  1.
          2   -1    0    0  501    0  0.00000000000E+00 -0.00000000000E+00 -0.94237277460E+03  0.94237277460E+03  0.00000000000E+00 0. -1.
         23    2    1    2    0    0  0.78404662848E+02  0.68635482548E+02 -0.52641335468E+03  0.55099322035E+03  0.12499755305E+03 0.  0.
         23    2    1    2    0    0 -0.78404662848E+02 -0.68635482548E+02 -0.39137938416E+03  0.41595959000E+03  0.94796822476E+02 0.  0.
          5    1    3    3  502    0  0.32915341745E+02  0.47368727727E+02 -0.65810905399E+02  0.87637784991E+02  0.47000000000E+01 0.  1.
         -5    1    3    3    0  502  0.45489321102E+02  0.21266754821E+02 -0.46060244928E+03  0.46335543536E+03  0.47000000000E+01 0.  1.
        -11    1    4    4    0    0  0.19952975385E+02 -0.14151063701E+02 -0.38633028895E+02  0.45726193284E+02  0.00000000000E+00 0.  1.
         11    1    4    4    0    0 -0.98357638233E+02 -0.54484418847E+02 -0.35274635526E+03  0.37023339672E+03  0.00000000000E+00 0. -1.
<mgrwt>
<rscale>  0 0.15696935E+03</rscale>
<asrwt>0</asrwt>
<pdfrwt beam="2">  1        2 0.14498042E+00 0.16273447E+03</pdfrwt>
<pdfrwt beam="1">  1       -2 0.37815443E-02 0.16273447E+03</pdfrwt>
<totfact> 0.83244292E+03</totfact>
</mgrwt>
</event>
<event>
 8    1  0.1550723E-005  0.1264659E+03  0.7546771E-02  0.1243106E+00
          3   -1    0    0  501    0  0.00000000000E+00  0.00000000000E+00  0.25295533552E+03  0.25295533552E+03  0.00000000000E+00 0. -1.
         -3   -1    0    0    0  501 -0.00000000000E+00 -0.00000000000E+00 -0.54689097318E+02  0.54689097318E+02  0.00000000000E+00 0.  1.
         23    2    1    2    0    0 -0.59967270250E+01  0.47421379989E+02  0.73872207517E+02  0.14646067358E+03  0.11708491725E+03 0.  0.
         23    2    1    2    0    0  0.59967270250E+01 -0.47421379989E+02  0.12439403069E+03  0.16118375926E+03  0.90672936224E+02 0.  0.
          5    1    3    3  502    0 -0.31415127302E+02  0.37706273324E+02  0.98056192647E+02  0.10975326960E+03  0.47000000000E+01 0. -1.
         -5    1    3    3    0  502  0.25418400277E+02  0.97151066654E+01 -0.24183985131E+02  0.36707403980E+02  0.47000000000E+01 0.  1.
        -11    1    4    4    0    0  0.80349929176E+01 -0.72927789404E+02  0.71602778129E+02  0.10251820041E+03  0.00000000000E+00 0. -1.
         11    1    4    4    0    0 -0.20382658926E+01  0.25506409415E+02  0.52791252560E+02  0.58665558857E+02  0.00000000000E+00 0.  1.
<mgrwt>
<rscale>  0 0.11999454E+03</rscale>
<asrwt>0</asrwt>
<pdfrwt beam="1">  1        3 0.38916205E-01 0.12646591E+03</pdfrwt>
<pdfrwt beam="2">  1       -3 0.84137074E-02 0.12646591E+03</pdfrwt>
<totfact> 0.14613705E+03</totfact>
</mgrwt>
</event>
<event>
 8    1  0.1550723E-005  0.3960551E+03  0.7546771E-02  0.1046013E+00
          1   -1    0    0  501    0  0.00000000000E+00  0.00000000000E+00  0.11179760529E+04  0.11179760529E+04  0.00000000000E+00 0. -1.
         -1   -1    0    0    0  501 -0.00000000000E+00 -0.00000000000E+00 -0.13690269485E+03  0.13690269485E+03  0.00000000000E+00 0.  1.
         23    2    1    2    0    0  0.35573272999E+03  0.12119658605E+03  0.49444937288E+03  0.63351385582E+03  0.12500094208E+03 0.  0.
         23    2    1    2    0    0 -0.35573272999E+03 -0.12119658605E+03  0.48662398514E+03  0.62136489189E+03  0.89761006609E+02 0.  0.
          5    1    3    3  502    0  0.69176015623E+02  0.64769648717E+02  0.68470113989E+02  0.11700715808E+03  0.47000000000E+01 0. -1.
         -5    1    3    3    0  502  0.28655671437E+03  0.56426937330E+02  0.42597925889E+03  0.51650669774E+03  0.47000000000E+01 0. -1.
        -11    1    4    4    0    0 -0.27127927824E+03 -0.95632578485E+02  0.30384395040E+03  0.41840074458E+03  0.00000000000E+00 0.  1.
         11    1    4    4    0    0 -0.84453451750E+02 -0.25564007562E+02  0.18278003473E+03  0.20296414731E+03  0.00000000000E+00 0. -1.
<mgrwt>
<rscale>  0 0.39361446E+03</rscale>
<asrwt>0</asrwt>
<pdfrwt beam="1">  1        1 0.17199631E+00 0.39605508E+03</pdfrwt>
<pdfrwt beam="2">  1       -1 0.21061954E-01 0.39605508E+03</pdfrwt>
<totfact> 0.24038025E+02</totfact>
</mgrwt>
</event>
<event>
 8    1  0.1550723E-005  0.1301655E+03  0.7546771E-02  0.1242387E+00
         -2   -1    0    0    0  501 -0.00000000000E+00  0.00000000000E+00  0.17896716870E+03  0.17896716870E+03  0.00000000000E+00 0.  1.
          2   -1    0    0  501    0  0.00000000000E+00 -0.00000000000E+00 -0.76904342139E+02  0.76904342139E+02  0.00000000000E+00 0. -1.
         23    2    1    2    0    0 -0.81788805146E+01  0.35373609312E+02  0.93170115282E+02  0.16007409365E+03  0.12499943501E+03 0.  0.
         23    2    1    2    0    0  0.81788805146E+01 -0.35373609312E+02  0.88927112834E+01  0.95797417195E+02  0.88203619568E+02 0.  0.
          5    1    3    3  502    0 -0.25684519137E+02 -0.16688301226E+02  0.99846102498E+02  0.10454438342E+03  0.47000000000E+01 0.  1.
         -5    1    3    3    0  502  0.17505638622E+02  0.52061910538E+02 -0.66759872160E+01  0.55529710226E+02  0.47000000000E+01 0.  1.
        -11    1    4    4    0    0 -0.24559428229E+02 -0.50418187288E+02 -0.68117827496E+01  0.56493889126E+02  0.00000000000E+00 0.  1.
         11    1    4    4    0    0  0.32738308744E+02  0.15044577975E+02  0.15704494033E+02  0.39303528069E+02  0.00000000000E+00 0. -1.
<mgrwt>
<rscale>  0 0.12043159E+03</rscale>
<asrwt>0</asrwt>
<pdfrwt beam="2">  1        2 0.11831437E-01 0.13016545E+03</pdfrwt>
<pdfrwt beam="1">  1       -2 0.27533411E-01 0.13016545E+03</pdfrwt>
<totfact> 0.58785003E+03</totfact>
</mgrwt>
</event>
<event>
 8    1  0.1550723E-005  0.1198475E+03  0.7546771E-02  0.1253280E+00
          1   -1    0    0  501    0  0.00000000000E+00  0.00000000000E+00  0.19428706558E+03  0.19428706558E+03  0.00000000000E+00 0. -1.
         -1   -1    0    0    0  501 -0.00000000000E+00 -0.00000000000E+00 -0.11311996675E+03  0.11311996675E+03  0.00000000000E+00 0.  1.
         23    2    1    2    0    0 -0.41386444321E+02  0.67981385116E+01 -0.61101027465E+02  0.13452420058E+03  0.11226919668E+03 0.  0.
         23    2    1    2    0    0  0.41386444321E+02 -0.67981385116E+01  0.14226812630E+03  0.17288283175E+03  0.88821175932E+02 0.  0.
          5    1    3    3  502    0  0.27449394762E+02  0.33125430467E+02 -0.91505015905E+01  0.44233303017E+02  0.47000000000E+01 0. -1.
         -5    1    3    3    0  502 -0.68835839083E+02 -0.26327291955E+02 -0.51950525875E+02  0.90290897562E+02  0.47000000000E+01 0.  1.
        -11    1    4    4    0    0 -0.22636706194E+02  0.14774997497E+02  0.64088115461E+02  0.69555787406E+02  0.00000000000E+00 0.  1.
         11    1    4    4    0    0  0.64023150515E+02 -0.21573136008E+02  0.78180010835E+02  0.10332704435E+03  0.00000000000E+00 0. -1.
<mgrwt>
<rscale>  0 0.11403229E+03</rscale>
<asrwt>0</asrwt>
<pdfrwt beam="1">  1        1 0.29890318E-01 0.11984751E+03</pdfrwt>
<pdfrwt beam="2">  1       -1 0.17403072E-01 0.11984751E+03</pdfrwt>
<totfact> 0.36811422E+03</totfact>
</mgrwt>
</event>
<event>
 8    1  0.1550723E-005  0.2115337E+03  0.7546771E-02  0.1143872E+00
         -1   -1    0    0    0  501 -0.00000000000E+00  0.00000000000E+00  0.38968785162E+02  0.38968785162E+02  0.00000000000E+00 0.  1.
          1   -1    0    0  501    0  0.00000000000E+00 -0.00000000000E+00 -0.10931145441E+04  0.10931145441E+04  0.00000000000E+00 0. -1.
         23    2    1    2    0    0  0.14804873184E+03 -0.84860228935E+02 -0.65116920103E+03  0.68466621042E+03  0.12500722325E+03 0.  0.
         23    2    1    2    0    0 -0.14804873184E+03  0.84860228935E+02 -0.40297655791E+03  0.44741711885E+03  0.93125112373E+02 0.  0.
          5    1    3    3  502    0  0.15235719174E+03 -0.34122388312E+02 -0.42521467174E+03  0.45299741536E+03  0.47000000000E+01 0.  1.
         -5    1    3    3    0  502 -0.43084599001E+01 -0.50737840624E+02 -0.22595452929E+03  0.23166879506E+03  0.47000000000E+01 0.  1.
        -11    1    4    4    0    0 -0.19704894453E+02  0.55786456276E+02 -0.16781700906E+03  0.17794088934E+03  0.00000000000E+00 0.  1.
         11    1    4    4    0    0 -0.12834383739E+03  0.29073772659E+02 -0.23515954886E+03  0.26947622951E+03  0.00000000000E+00 0. -1.
<mgrwt>
<rscale>  0 0.20711405E+03</rscale>
<asrwt>0</asrwt>
<pdfrwt beam="2">  1        1 0.16817146E+00 0.21153366E+03</pdfrwt>
<pdfrwt beam="1">  1       -1 0.59951981E-02 0.21153366E+03</pdfrwt>
<totfact> 0.18237563E+03</totfact>
</mgrwt>
</event>
<event>
 8    1  0.1550723E-005  0.1287738E+03  0.7546771E-02  0.1244134E+00
          2   -1    0    0  501    0  0.00000000000E+00  0.00000000000E+00  0.95678353563E+02  0.95678353563E+02  0.00000000000E+00 0.  1.
         -2   -1    0    0    0  501 -0.00000000000E+00 -0.00000000000E+00 -0.13139761815E+03  0.13139761815E+03  0.00000000000E+00 0. -1.
         23    2    1    2    0    0 -0.30915274770E+02 -0.20857458955E+01 -0.27089810098E+02  0.13159238383E+03  0.12499037211E+03 0.  0.
         23    2    1    2    0    0  0.30915274770E+02  0.20857458955E+01 -0.86294544890E+01  0.95483587883E+02  0.89902967249E+02 0.  0.
          5    1    3    3  502    0 -0.62765943204E+02 -0.43320274764E+02 -0.17883233732E+02  0.78473625382E+02  0.47000000000E+01 0.  1.
         -5    1    3    3    0  502  0.31850668434E+02  0.41234528868E+02 -0.92065763658E+01  0.53118758448E+02  0.47000000000E+01 0.  1.
        -11    1    4    4    0    0  0.23459104256E+02  0.25216603841E+02  0.32729782219E+02  0.47512580711E+02  0.00000000000E+00 0.  1.
         11    1    4    4    0    0  0.74561705142E+01 -0.23130857945E+02 -0.41359236708E+02  0.47971007172E+02  0.00000000000E+00 0. -1.
<mgrwt>
<rscale>  0 0.11937342E+03</rscale>
<asrwt>0</asrwt>
<pdfrwt beam="1">  1        2 0.14719747E-01 0.12877382E+03</pdfrwt>
<pdfrwt beam="2">  1       -2 0.20215018E-01 0.12877382E+03</pdfrwt>
<totfact> 0.77353543E+03</totfact>
</mgrwt>
</event>
<event>
 8    1  0.1550723E-005  0.1312793E+03  0.7546771E-02  0.1239765E+00
          2   -1    0    0  501    0  0.00000000000E+00  0.00000000000E+00  0.68484226434E+02  0.68484226434E+02  0.00000000000E+00 0. -1.
         -2   -1    0    0    0  501 -0.00000000000E+00 -0.00000000000E+00 -0.20063535869E+03  0.20063535869E+03  0.00000000000E+00 0.  1.
         23    2    1    2    0    0 -0.28116063350E+02 -0.28634390747E+02 -0.10288655032E+03  0.16679299384E+03  0.12499527673E+03 0.  0.
         23    2    1    2    0    0  0.28116063350E+02  0.28634390747E+02 -0.29264581932E+02  0.10232659128E+03  0.89464373780E+02 0.  0.
          5    1    3    3  502    0 -0.64401761910E+02  0.21352846920E+02 -0.42011318553E+02  0.79941052628E+02  0.47000000000E+01 0.  1.
         -5    1    3    3    0  502  0.36285698560E+02 -0.49987237667E+02 -0.60875231769E+02  0.86851941213E+02  0.47000000000E+01 0.  1.
        -11    1    4    4    0    0  0.36975023428E+02  0.51110280215E+02  0.16349754093E+01  0.63103773625E+02  0.00000000000E+00 0. -1.
         11    1    4    4    0    0 -0.88589600774E+01 -0.22475889468E+02 -0.30899557341E+02  0.39222817656E+02  0.00000000000E+00 0.  1.
<mgrwt>
<rscale>  0 0.12204277E+03</rscale>
<asrwt>0</asrwt>
<pdfrwt beam="1">  1        2 0.10536035E-01 0.13127932E+03</pdfrwt>
<pdfrwt beam="2">  1       -2 0.30866978E-01 0.13127932E+03</pdfrwt>
<totfact> 0.55175807E+03</totfact>
</mgrwt>
</event>
<event>
 8    1  0.1550723E-005  0.1851138E+03  0.7546771E-02  0.1166212E+00
         -2   -1    0    0    0  501 -0.00000000000E+00  0.00000000000E+00  0.76035285597E+02  0.76035285597E+02  0.00000000000E+00 0.  1.
          2   -1    0    0  501    0  0.00000000000E+00 -0.00000000000E+00 -0.47996850842E+03  0.47996850842E+03  0.00000000000E+00 0. -1.
         23    2    1    2    0    0  0.64154416761E+02 -0.12052099213E+03 -0.10918770088E+03  0.21491640871E+03  0.12500403983E+03 0.  0.
         23    2    1    2    0    0 -0.64154416761E+02  0.12052099213E+03 -0.29474552195E+03  0.34108738531E+03  0.10404125614E+03 0.  0.
          5    1    3    3  502    0  0.79481540300E+02 -0.60103201455E+02 -0.11488064022E+03  0.15214914252E+03  0.47000000000E+01 0. -1.
         -5    1    3    3    0  502 -0.15327123539E+02 -0.60417790673E+02  0.56929393376E+01  0.62767266183E+02  0.47000000000E+01 0. -1.
        -11    1    4    4    0    0 -0.88353028635E+02  0.11701423464E+03 -0.24206504767E+03  0.28300896820E+03  0.00000000000E+00 0. -1.
         11    1    4    4    0    0  0.24198611874E+02  0.35067574861E+01 -0.52680474275E+02  0.58078417115E+02  0.00000000000E+00 0.  1.
<mgrwt>
<rscale>  0 0.18165343E+03</rscale>
<asrwt>0</asrwt>
<pdfrwt beam="2">  1        2 0.73841309E-01 0.18511377E+03</pdfrwt>
<pdfrwt beam="1">  1       -2 0.11697736E-01 0.18511377E+03</pdfrwt>
<totfact> 0.33039310E+03</totfact>
</mgrwt>
</event>
<event>
 8    1  0.1550723E-005  0.2804133E+03  0.7546771E-02  0.1097323E+00
          1   -1    0    0  501    0  0.00000000000E+00  0.00000000000E+00  0.56583473240E+03  0.56583473240E+03  0.00000000000E+00 0. -1.
         -1   -1    0    0    0  501 -0.00000000000E+00 -0.00000000000E+00 -0.21845998985E+03  0.21845998985E+03  0.00000000000E+00 0.  1.
         23    2    1    2    0    0 -0.16622229824E+03  0.18808724102E+03 -0.69763795182E+02  0.28896128946E+03  0.12499990810E+03 0.  0.
         23    2    1    2    0    0  0.16622229824E+03 -0.18808724102E+03  0.41713853774E+03  0.49533343279E+03  0.91345428491E+02 0.  0.
          5    1    3    3  502    0 -0.16699174248E+03  0.11583834842E+03 -0.27549759604E+02  0.20514834700E+03  0.47000000000E+01 0. -1.
         -5    1    3    3    0  502  0.76944423429E+00  0.72248892592E+02 -0.42214035579E+02  0.83812942467E+02  0.47000000000E+01 0. -1.
        -11    1    4    4    0    0  0.11985902450E+03 -0.74223821020E+02  0.18438400861E+03  0.23210520027E+03  0.00000000000E+00 0.  1.
         11    1    4    4    0    0  0.46363273739E+02 -0.11386342000E+03  0.23275452912E+03  0.26322823251E+03  0.00000000000E+00 0. -1.
<mgrwt>
<rscale>  0 0.27702805E+03</rscale>
<asrwt>0</asrwt>
<pdfrwt beam="1">  1        1 0.87051496E-01 0.28041334E+03</pdfrwt>
<pdfrwt beam="2">  1       -1 0.33609230E-01 0.28041334E+03</pdfrwt>
<totfact> 0.32260991E+02</totfact>
</mgrwt>
</event>
<event>
 8    1  0.1550723E-005  0.1601502E+03  0.7546771E-02  0.1196203E+00
         -1   -1    0    0    0  501 -0.00000000000E+00  0.00000000000E+00  0.28461796920E+03  0.28461796920E+03  0.00000000000E+00 0.  1.
          1   -1    0    0  501    0  0.00000000000E+00 -0.00000000000E+00 -0.18037916621E+03  0.18037916621E+03  0.00000000000E+00 0. -1.
         23    2    1    2    0    0 -0.55039191167E+02  0.83629383169E+02  0.23002599301E+03  0.28028564805E+03  0.12499960300E+03 0.  0.
         23    2    1    2    0    0  0.55039191167E+02 -0.83629383169E+02 -0.12578719002E+03  0.18471148736E+03  0.90954549622E+02 0.  0.
          5    1    3    3  502    0  0.29078301272E+02 -0.97820819972E+01  0.25486474024E+02  0.40160765571E+02  0.47000000000E+01 0.  1.
         -5    1    3    3    0  502 -0.84117492439E+02  0.93411465166E+02  0.20453951898E+03  0.24012488248E+03  0.47000000000E+01 0.  1.
        -11    1    4    4    0    0  0.25946712027E+02 -0.11827146135E+02  0.84341608669E+01  0.29736313158E+02  0.00000000000E+00 0.  1.
         11    1    4    4    0    0  0.29092479140E+02 -0.71802237034E+02 -0.13422135089E+03  0.15497517420E+03  0.00000000000E+00 0. -1.
<mgrwt>
<rscale>  0 0.15352881E+03</rscale>
<asrwt>0</asrwt>
<pdfrwt beam="2">  1        1 0.27750641E-01 0.16015020E+03</pdfrwt>
<pdfrwt beam="1">  1       -1 0.43787380E-01 0.16015020E+03</pdfrwt>
<totfact> 0.87381014E+02</totfact>
</mgrwt>
</event>
<event>
 8    1  0.1550723E-005  0.1449837E+03  0.7546771E-02  0.1216717E+00
          1   -1    0    0  501    0  0.00000000000E+00  0.00000000000E+00  0.45522843421E+03  0.45522843421E+03  0.00000000000E+00 0. -1.
         -1   -1    0    0    0  501 -0.00000000000E+00 -0.00000000000E+00 -0.38025589909E+02  0.38025589909E+02  0.00000000000E+00 0.  1.
         23    2    1    2    0    0 -0.53575252661E+02 -0.50251208645E+02  0.24987965301E+03  0.28889464196E+03  0.12499912599E+03 0.  0.
         23    2    1    2    0    0  0.53575252661E+02  0.50251208645E+02  0.16732319129E+03  0.20435938216E+03  0.91488879454E+02 0.  0.
          5    1    3    3  502    0 -0.94281205525E+02 -0.41175930745E+02  0.17500622282E+03  0.20306075696E+03  0.47000000000E+01 0.  1.
         -5    1    3    3    0  502  0.40705952864E+02 -0.90752778996E+01  0.74873430185E+02  0.85833885006E+02  0.47000000000E+01 0.  1.
        -11    1    4    4    0    0  0.34251643603E+02  0.81072862625E+01  0.50079426416E+01  0.35552533940E+02  0.00000000000E+00 0.  1.
         11    1    4    4    0    0  0.19323609058E+02  0.42143922382E+02  0.16231524865E+03  0.16880684822E+03  0.00000000000E+00 0. -1.
<mgrwt>
<rscale>  0 0.13751156E+03</rscale>
<asrwt>0</asrwt>
<pdfrwt beam="1">  1        1 0.70035140E-01 0.14498370E+03</pdfrwt>
<pdfrwt beam="2">  1       -1 0.58500910E-02 0.14498370E+03</pdfrwt>
<totfact> 0.68282074E+03</totfact>
</mgrwt>
</event>
<event>
 8    1  0.1550723E-005  0.2065823E+03  0.7546771E-02  0.1148296E+00
         -2   -1    0    0    0  501 -0.00000000000E+00  0.00000000000E+00  0.10327254810E+03  0.10327254810E+03  0.00000000000E+00 0.  1.
          2   -1    0    0  501    0  0.00000000000E+00 -0.00000000000E+00 -0.38950091284E+03  0.38950091284E+03  0.00000000000E+00 0. -1.
         23    2    1    2    0    0 -0.18029466418E+02 -0.16349228513E+03 -0.10479885594E+03  0.23164421598E+03  0.12498581374E+03 0.  0.
         23    2    1    2    0    0  0.18029466418E+02  0.16349228513E+03 -0.18142950880E+03  0.26112924496E+03  0.90647818259E+02 0.  0.
          5    1    3    3  502    0 -0.68632049376E+02 -0.68103308843E+02 -0.34761242270E+02  0.10285355045E+03  0.47000000000E+01 0.  1.
         -5    1    3    3    0  502  0.50602582958E+02 -0.95388976285E+02 -0.70037613668E+02  0.12879066553E+03  0.47000000000E+01 0.  1.
        -11    1    4    4    0    0 -0.88194334652E+01  0.35704043463E+02  0.99078297788E+00  0.36790525644E+02  0.00000000000E+00 0.  1.
         11    1    4    4    0    0  0.26848899884E+02  0.12778824166E+03 -0.18242029178E+03  0.22433871932E+03  0.00000000000E+00 0. -1.
<mgrwt>
<rscale>  0 0.20171969E+03</rscale>
<asrwt>0</asrwt>
<pdfrwt beam="2">  1        2 0.59923217E-01 0.20658229E+03</pdfrwt>
<pdfrwt beam="1">  1       -2 0.15888085E-01 0.20658229E+03</pdfrwt>
<totfact> 0.25275084E+03</totfact>
</mgrwt>
</event>
<event>
 8    1  0.1550723E-005  0.1365022E+03  0.7546771E-02  0.1230296E+00
          3   -1    0    0  501    0  0.00000000000E+00  0.00000000000E+00  0.62957330122E+02  0.62957330122E+02  0.00000000000E+00 0. -1.
         -3   -1    0    0    0  501 -0.00000000000E+00 -0.00000000000E+00 -0.23715820868E+03  0.23715820868E+03  0.00000000000E+00 0.  1.
         23    2    1    2    0    0 -0.88139542761E+01  0.54109481629E+02 -0.11690734660E+03  0.17972248765E+03  0.12500929199E+03 0.  0.
         23    2    1    2    0    0  0.88139542761E+01 -0.54109481629E+02 -0.57293531961E+02  0.12039305116E+03  0.90589271825E+02 0.  0.
          5    1    3    3  502    0 -0.16674348443E+02 -0.15125253840E+02  0.17066636049E+02  0.28638562564E+02  0.47000000000E+01 0.  1.
         -5    1    3    3    0  502  0.78603941669E+01  0.69234735470E+02 -0.13397398265E+03  0.15108392508E+03  0.47000000000E+01 0.  1.
        -11    1    4    4    0    0 -0.70116389288E+01 -0.34432417006E+02 -0.79402608839E+02  0.86830459585E+02  0.00000000000E+00 0.  1.
         11    1    4    4    0    0  0.15825593205E+02 -0.19677064624E+02  0.22109076879E+02  0.33562591570E+02  0.00000000000E+00 0. -1.
<mgrwt>
<rscale>  0 0.12810461E+03</rscale>
<asrwt>0</asrwt>
<pdfrwt beam="1">  1        3 0.96857433E-02 0.13650218E+03</pdfrwt>
<pdfrwt beam="2">  1       -3 0.36485878E-01 0.13650218E+03</pdfrwt>
<totfact> 0.13286718E+03</totfact>
</mgrwt>
</event>
<event>
 8    1  0.1550723E-005  0.1754861E+03  0.7546771E-02  0.1178761E+00
          2   -1    0    0  501    0  0.00000000000E+00  0.00000000000E+00  0.45165476413E+03  0.45165476413E+03  0.00000000000E+00 0. -1.
         -2   -1    0    0    0  501 -0.00000000000E+00 -0.00000000000E+00 -0.59707322139E+02  0.59707322139E+02  0.00000000000E+00 0.  1.
         23    2    1    2    0    0 -0.12149784443E+03  0.20219307000E+02  0.18554662961E+03  0.25538780265E+03  0.12499932562E+03 0.  0.
         23    2    1    2    0    0  0.12149784443E+03 -0.20219307000E+02  0.20640081238E+03  0.25597428362E+03  0.88039718010E+02 0.  0.
          5    1    3    3  502    0 -0.47537937968E+02 -0.39438766840E+02  0.13296293399E+03  0.14668504931E+03  0.47000000000E+01 0. -1.
         -5    1    3    3    0  502 -0.73959906461E+02  0.59658073840E+02  0.52583695622E+02  0.10870275334E+03  0.47000000000E+01 0. -1.
        -11    1    4    4    0    0  0.64196445723E+02 -0.15674417581E+02  0.18182236417E+03  0.19345863414E+03  0.00000000000E+00 0.  1.
         11    1    4    4    0    0  0.57301398707E+02 -0.45448894185E+01  0.24578448205E+02  0.62515649479E+02  0.00000000000E+00 0. -1.
<mgrwt>
<rscale>  0 0.16912685E+03</rscale>
<asrwt>0</asrwt>
<pdfrwt beam="1">  1        2 0.69485346E-01 0.17548612E+03</pdfrwt>
<pdfrwt beam="2">  1       -2 0.91857422E-02 0.17548612E+03</pdfrwt>
<totfact> 0.51717213E+03</totfact>
</mgrwt>
</event>
<event>
 8    1  0.1550723E-005  0.2165536E+03  0.7546771E-02  0.1140059E+00
          1   -1    0    0  501    0  0.00000000000E+00  0.00000000000E+00  0.59409020278E+03  0.59409020278E+03  0.00000000000E+00 0. -1.
         -1   -1    0    0    0  501 -0.00000000000E+00 -0.00000000000E+00 -0.76367235862E+02  0.76367235862E+02  0.00000000000E+00 0.  1.
         23    2    1    2    0    0  0.17099527407E+03 -0.45039732263E+02  0.19435007139E+03  0.29097663861E+03  0.12500997054E+03 0.  0.
         23    2    1    2    0    0 -0.17099527407E+03  0.45039732263E+02  0.32337289553E+03  0.37948080003E+03  0.90375255424E+02 0.  0.
          5    1    3    3  502    0  0.10817846698E+03 -0.20776471366E+02  0.19438062345E+03  0.22347294971E+03  0.47000000000E+01 0. -1.
         -5    1    3    3    0  502  0.62816807089E+02 -0.24263260898E+02 -0.30552057331E-01  0.67503688904E+02  0.47000000000E+01 0. -1.
        -11    1    4    4    0    0 -0.11538069671E+03  0.50811480758E+02  0.14299652737E+03  0.19063713853E+03  0.00000000000E+00 0. -1.
         11    1    4    4    0    0 -0.55614577359E+02 -0.57717484947E+01  0.18037636816E+03  0.18884366150E+03  0.00000000000E+00 0.  1.
<mgrwt>
<rscale>  0 0.21191425E+03</rscale>
<asrwt>0</asrwt>
<pdfrwt beam="1">  1        1 0.91398490E-01 0.21655358E+03</pdfrwt>
<pdfrwt beam="2">  1       -1 0.11748806E-01 0.21655358E+03</pdfrwt>
<totfact> 0.16827741E+03</totfact>
</mgrwt>
</event>
<event>
 8    1  0.1550723E-005  0.1331563E+03  0.7546771E-02  0.1235901E+00
         -2   -1    0    0    0  501 -0.00000000000E+00  0.00000000000E+00  0.30373499500E+03  0.30373499500E+03  0.00000000000E+00 0.  1.
          2   -1    0    0  501    0  0.00000000000E+00 -0.00000000000E+00 -0.65262940107E+02  0.65262940107E+02  0.00000000000E+00 0. -1.
         23    2    1    2    0    0  0.82971773418E+01 -0.45128717180E+02  0.23154138558E+03  0.26709924836E+03  0.12500060389E+03 0.  0.
         23    2    1    2    0    0 -0.82971773418E+01  0.45128717180E+02  0.69306693142E+01  0.10189868674E+03  0.90718597415E+02 0.  0.
          5    1    3    3  502    0 -0.47512847808E+02 -0.58967395375E+00  0.38872388406E+02  0.61570861636E+02  0.47000000000E+01 0. -1.
         -5    1    3    3    0  502  0.55810025150E+02 -0.44539043227E+02  0.19266899717E+03  0.20552838673E+03  0.47000000000E+01 0. -1.
        -11    1    4    4    0    0 -0.34459949033E+02  0.10919740914E+01  0.30017832075E+02  0.45713791543E+02  0.00000000000E+00 0.  1.
         11    1    4    4    0    0  0.26162771691E+02  0.44036743089E+02 -0.23087162761E+02  0.56184895201E+02  0.00000000000E+00 0. -1.
<mgrwt>
<rscale>  0 0.12446914E+03</rscale>
<asrwt>0</asrwt>
<pdfrwt beam="2">  1        2 0.10040453E-01 0.13315628E+03</pdfrwt>
<pdfrwt beam="1">  1       -2 0.46728460E-01 0.13315628E+03</pdfrwt>
<totfact> 0.26923985E+03</totfact>
</mgrwt>
</event>
<event>
 8    1  0.1550723E-005  0.2188063E+03  0.7546771E-02  0.1137277E+00
          2   -1    0    0  501    0  0.00000000000E+00  0.00000000000E+00  0.10761907081E+04  0.10761907081E+04  0.00000000000E+00 0. -1.
         -2   -1    0    0    0  501 -0.00000000000E+00 -0.00000000000E+00 -0.71011751348E+02  0.71011751348E+02  0.00000000000E+00 0.  1.
         23    2    1    2    0    0 -0.13455864746E+03 -0.12723730114E+03  0.14445115321E+03  0.26218761489E+03  0.11653690114E+03 0.  0.
         23    2    1    2    0    0  0.13455864746E+03  0.12723730114E+03  0.86072780349E+03  0.88501484452E+03  0.90019791695E+02 0.  0.
          5    1    3    3  502    0 -0.15246562070E+02 -0.48690183806E+02  0.10025077328E+03  0.11258551949E+03  0.47000000000E+01 0. -1.
         -5    1    3    3    0  502 -0.11931208539E+03 -0.78547117336E+02  0.44200379930E+02  0.14960209540E+03  0.47000000000E+01 0.  1.
        -11    1    4    4    0    0  0.49217718537E+02  0.42588666593E+02  0.14072559867E+03  0.15504796826E+03  0.00000000000E+00 0.  1.
         11    1    4    4    0    0  0.85340928925E+02  0.84648634549E+02  0.72000220482E+03  0.72996687626E+03  0.00000000000E+00 0. -1.
<mgrwt>
<rscale>  0 0.21550843E+03</rscale>
<asrwt>0</asrwt>
<pdfrwt beam="1">  1        2 0.16556779E+00 0.21880633E+03</pdfrwt>
<pdfrwt beam="2">  1       -2 0.10924886E-01 0.21880633E+03</pdfrwt>
<totfact> 0.13606214E+03</totfact>
</mgrwt>
</event>
<event>
 8    1  0.1550723E-005  0.4079066E+03  0.7546771E-02  0.1041778E+00
         -1   -1    0    0    0  501 -0.00000000000E+00  0.00000000000E+00  0.10040138146E+04  0.10040138146E+04  0.00000000000E+00 0.  1.
          1   -1    0    0  501    0  0.00000000000E+00 -0.00000000000E+00 -0.26880614952E+03  0.26880614952E+03  0.00000000000E+00 0. -1.
         23    2    1    2    0    0  0.11714814397E+03 -0.37016127914E+03  0.77026173544E+03  0.87160249391E+03  0.12507879959E+03 0.  0.
         23    2    1    2    0    0 -0.11714814397E+03  0.37016127914E+03 -0.35054070345E+02  0.40121747022E+03  0.94887356139E+02 0.  0.
          5    1    3    3  502    0  0.28082536377E+02 -0.26902954631E+03  0.46672519401E+03  0.53946271637E+03  0.47000000000E+01 0.  1.
         -5    1    3    3    0  502  0.89065607589E+02 -0.10113173283E+03  0.30353654143E+03  0.33213977754E+03  0.47000000000E+01 0.  1.
        -11    1    4    4    0    0 -0.12443878710E+03  0.25350079559E+03 -0.32933278406E+02  0.28431015797E+03  0.00000000000E+00 0.  1.
         11    1    4    4    0    0  0.72906431323E+01  0.11666048355E+03 -0.21207919394E+01  0.11690731225E+03  0.00000000000E+00 0. -1.
<mgrwt>
<rscale>  0 0.40583500E+03</rscale>
<asrwt>0</asrwt>
<pdfrwt beam="2">  1        1 0.41354793E-01 0.40790657E+03</pdfrwt>
<pdfrwt beam="1">  1       -1 0.15446366E+00 0.40790657E+03</pdfrwt>
<totfact> 0.34677489E+01</totfact>
</mgrwt>
</event>
<event>
 8    1  0.1550723E-005  0.1274077E+03  0.7546771E-02  0.1245301E+00
          1   -1    0    0  501    0  0.00000000000E+00  0.00000000000E+00  0.99712783174E+02  0.99712783174E+02  0.00000000000E+00 0. -1.
         -1   -1    0    0    0  501 -0.00000000000E+00 -0.00000000000E+00 -0.12819860379E+03  0.12819860379E+03  0.00000000000E+00 0.  1.
         23    2    1    2    0    0  0.23743018973E+02  0.67210595682E+01 -0.33945946537E+02  0.13185237369E+03  0.12499527019E+03 0.  0.
         23    2    1    2    0    0 -0.23743018973E+02 -0.67210595682E+01  0.54601259182E+01  0.96059013278E+02  0.92674794120E+02 0.  0.
          5    1    3    3  502    0  0.38431901712E+02  0.69143474100E+01  0.40128613485E+02  0.56189099383E+02  0.47000000000E+01 0.  1.
         -5    1    3    3    0  502 -0.14688882738E+02 -0.19328784185E+00 -0.74074560022E+02  0.75663274306E+02  0.47000000000E+01 0.  1.
        -11    1    4    4    0    0 -0.11475758900E+02 -0.33636012785E+02 -0.32346903677E+02  0.48056181453E+02  0.00000000000E+00 0.  1.
         11    1    4    4    0    0 -0.12267260073E+02  0.26914953216E+02  0.37807029596E+02  0.48002831825E+02  0.00000000000E+00 0. -1.
<mgrwt>
<rscale>  0 0.11867400E+03</rscale>
<asrwt>0</asrwt>
<pdfrwt beam="1">  1        1 0.15340428E-01 0.12740770E+03</pdfrwt>
<pdfrwt beam="2">  1       -1 0.19722862E-01 0.12740770E+03</pdfrwt>
<totfact> 0.70343849E+03</totfact>
</mgrwt>
</event>
<event>
 7    1  0.1550723E-005  0.2781755E+03  0.7546771E-02  0.1096690E+00
          2   -1    0    0  501    0  0.00000000000E+00  0.00000000000E+00  0.45395155134E+03  0.45395155134E+03  0.00000000000E+00 0. -1.
         -2   -1    0    0    0  501 -0.00000000000E+00 -0.00000000000E+00 -0.42615551810E+02  0.42615551810E+02  0.00000000000E+00 0.  1.
         23    2    1    2    0    0  0.38559878035E+02 -0.34990898704E+01  0.23426893563E+03  0.25444239404E+03  0.91432433308E+02 0.  0.
          5    1    1    2  502    0  0.35738125657E+02  0.29561895176E+02  0.15256736114E+03  0.15953058941E+03  0.47000000000E+01 0. -1.
         -5    1    1    2    0  502 -0.74298003692E+02 -0.26062805306E+02  0.24499702754E+02  0.82594119694E+02  0.47000000000E+01 0.  1.
        -11    1    3    3    0    0 -0.21359762905E+02  0.24995988424E+02  0.81948805249E+02  0.88298616016E+02  0.00000000000E+00 0.  1.
         11    1    3    3    0    0  0.59919640940E+02 -0.28495078295E+02  0.15232013038E+03  0.16614377803E+03  0.00000000000E+00 0. -1.
<mgrwt>
<rscale>  0 0.27817545E+03</rscale>
<asrwt>0</asrwt>
<pdfrwt beam="1">  1        2 0.69838697E-01 0.27817545E+03</pdfrwt>
<pdfrwt beam="2">  1       -2 0.65562390E-02 0.27817545E+03</pdfrwt>
<totfact> 0.89040012E+03</totfact>
</mgrwt>
</event>
<event>
 8    1  0.1550723E-005  0.1429766E+03  0.7546771E-02  0.1220611E+00
          2   -1    0    0  501    0  0.00000000000E+00  0.00000000000E+00  0.74325928179E+02  0.74325928179E+02  0.00000000000E+00 0. -1.
         -2   -1    0    0    0  501 -0.00000000000E+00 -0.00000000000E+00 -0.30963991054E+03  0.30963991054E+03  0.00000000000E+00 0.  1.
         23    2    1    2    0    0 -0.69155933186E+02  0.59182427184E+01 -0.23038543500E+03  0.27114525397E+03  0.12499892558E+03 0.  0.
         23    2    1    2    0    0  0.69155933186E+02 -0.59182427184E+01 -0.49285473538E+01  0.11282058475E+03  0.88806672455E+02 0.  0.
          5    1    3    3  502    0 -0.69435079399E+02 -0.44100673756E+02 -0.18855818682E+03  0.20577264029E+03  0.47000000000E+01 0.  1.
         -5    1    3    3    0  502  0.27914621306E+00  0.50018916474E+02 -0.41827248186E+02  0.65372613675E+02  0.47000000000E+01 0.  1.
        -11    1    4    4    0    0  0.26999097594E+02 -0.14173372411E+02  0.40238625864E+02  0.50487451588E+02  0.00000000000E+00 0. -1.
         11    1    4    4    0    0  0.42156835591E+02  0.82551296930E+01 -0.45167173218E+02  0.62333133162E+02  0.00000000000E+00 0.  1.
<mgrwt>
<rscale>  0 0.13472309E+03</rscale>
<asrwt>0</asrwt>
<pdfrwt beam="1">  1        2 0.11434758E-01 0.14297657E+03</pdfrwt>
<pdfrwt beam="2">  1       -2 0.47636909E-01 0.14297657E+03</pdfrwt>
<totfact> 0.22215580E+03</totfact>
</mgrwt>
</event>
<event>
 8    1  0.1550723E-005  0.1468027E+03  0.7546771E-02  0.1213413E+00
         -1   -1    0    0    0  501 -0.00000000000E+00  0.00000000000E+00  0.44995167538E+02  0.44995167538E+02  0.00000000000E+00 0.  1.
          1   -1    0    0  501    0  0.00000000000E+00 -0.00000000000E+00 -0.40141067219E+03  0.40141067219E+03  0.00000000000E+00 0. -1.
         23    2    1    2    0    0  0.66634095166E+02  0.38549677701E+02 -0.21198991407E+03  0.25785800535E+03  0.12499938786E+03 0.  0.
         23    2    1    2    0    0 -0.66634095166E+02 -0.38549677701E+02 -0.14442559059E+03  0.18854783438E+03  0.93623471123E+02 0.  0.
          5    1    3    3  502    0  0.26268013708E+01  0.73363974329E+02 -0.99217729453E+02  0.12351283598E+03  0.47000000000E+01 0.  1.
         -5    1    3    3    0  502  0.64007293795E+02 -0.34814296629E+02 -0.11277218462E+03  0.13434516936E+03  0.47000000000E+01 0.  1.
        -11    1    4    4    0    0 -0.56337323702E+02 -0.39744354178E+02 -0.15746072814E+03  0.17189353867E+03  0.00000000000E+00 0. -1.
         11    1    4    4    0    0 -0.10296771464E+02  0.11946764778E+01  0.13035137556E+02  0.16654295709E+02  0.00000000000E+00 0.  1.
<mgrwt>
<rscale>  0 0.13993743E+03</rscale>
<asrwt>0</asrwt>
<pdfrwt beam="2">  1        1 0.61755485E-01 0.14680268E+03</pdfrwt>
<pdfrwt beam="1">  1       -1 0.69223338E-02 0.14680268E+03</pdfrwt>
<totfact> 0.62362136E+03</totfact>
</mgrwt>
</event>
<event>
 8    1  0.1550723E-005  0.2168375E+03  0.7546771E-02  0.1139972E+00
         -1   -1    0    0    0  501 -0.00000000000E+00  0.00000000000E+00  0.96287080563E+02  0.96287080563E+02  0.00000000000E+00 0.  1.
          1   -1    0    0  501    0  0.00000000000E+00 -0.00000000000E+00 -0.73214637438E+03  0.73214637438E+03  0.00000000000E+00 0. -1.
         23    2    1    2    0    0 -0.69700398788E+01 -0.17704489521E+03 -0.68431591681E+02  0.22737941245E+03  0.12500015235E+03 0.  0.
         23    2    1    2    0    0  0.69700398788E+01  0.17704489521E+03 -0.56742770213E+03  0.60105404249E+03  0.88872315568E+02 0.  0.
          5    1    3    3  502    0 -0.45796382430E+02 -0.12015570713E+03  0.20921936312E+01  0.12869020893E+03  0.47000000000E+01 0. -1.
         -5    1    3    3    0  502  0.38826342551E+02 -0.56889188080E+02 -0.70523785313E+02  0.98689203518E+02  0.47000000000E+01 0. -1.
        -11    1    4    4    0    0 -0.39368380297E+02  0.87213883779E+02 -0.23971780681E+03  0.25810997229E+03  0.00000000000E+00 0. -1.
         11    1    4    4    0    0  0.46338420175E+02  0.89831011431E+02 -0.32770989532E+03  0.34294407021E+03  0.00000000000E+00 0.  1.
<mgrwt>
<rscale>  0 0.21202571E+03</rscale>
<asrwt>0</asrwt>
<pdfrwt beam="2">  1        1 0.11263790E+00 0.21683753E+03</pdfrwt>
<pdfrwt beam="1">  1       -1 0.14813398E-01 0.21683753E+03</pdfrwt>
<totfact> 0.86795919E+02</totfact>
</mgrwt>
</event>
<event>
 7    1  0.1550723E-005  0.1578724E+03  0.7546771E-02  0.1213290E+00
          2   -1    0    0  501    0  0.00000000000E+00  0.00000000000E+00  0.37280356632E+02  0.37280356632E+02  0.00000000000E+00 0. -1.
         -2   -1    0    0    0  501 -0.00000000000E+00 -0.00000000000E+00 -0.44950483851E+03  0.44950483851E+03  0.00000000000E+00 0.  1.
         23    2    1    2    0    0 -0.70961975987E+01 -0.32250630872E+02 -0.12105561267E+03  0.15557075075E+03  0.91963785914E+02 0.  0.
          5    1    1    2  502    0 -0.11387405884E+02 -0.11951666917E+02  0.14075325678E+02  0.22197300462E+02  0.47000000000E+01 0. -1.
         -5    1    1    2    0  502  0.18483603482E+02  0.44202297789E+02 -0.30524419489E+03  0.30901714393E+03  0.47000000000E+01 0.  1.
        -11    1    3    3    0    0 -0.27640783152E+02 -0.52615873749E+02 -0.10916224505E+03  0.12429335786E+03  0.00000000000E+00 0.  1.
         11    1    3    3    0    0  0.20544585554E+02  0.20365242877E+02 -0.11893367619E+02  0.31277392896E+02  0.00000000000E+00 0. -1.
<mgrwt>
<rscale>  0 0.14002887E+03</rscale>
<asrwt>0</asrwt>
<pdfrwt beam="1">  1        2 0.57354397E-02 0.15787241E+03</pdfrwt>
<pdfrwt beam="2">  1       -2 0.69154588E-01 0.15787241E+03</pdfrwt>
<totfact> 0.24850901E+03</totfact>
</mgrwt>
</event>
<event>
 8    1  0.1550723E-005  0.1705357E+03  0.7546771E-02  0.1183464E+00
         -1   -1    0    0    0  501 -0.00000000000E+00  0.00000000000E+00  0.40969336722E+02  0.40969336722E+02  0.00000000000E+00 0.  1.
          1   -1    0    0  501    0  0.00000000000E+00 -0.00000000000E+00 -0.62122808818E+03  0.62122808818E+03  0.00000000000E+00 0. -1.
         23    2    1    2    0    0  0.73940279117E+02  0.89370920433E+02 -0.31769703212E+03  0.36057429389E+03  0.12501236301E+03 0.  0.
         23    2    1    2    0    0 -0.73940279117E+02 -0.89370920433E+02 -0.26256171934E+03  0.30162313101E+03  0.92647344269E+02 0.  0.
          5    1    3    3  502    0  0.46049101258E+02  0.22892631884E+02 -0.21916051624E+02  0.56098089450E+02  0.47000000000E+01 0. -1.
         -5    1    3    3    0  502  0.27891177859E+02  0.66478288549E+02 -0.29578098049E+03  0.30447620444E+03  0.47000000000E+01 0. -1.
        -11    1    4    4    0    0 -0.37156016096E+02 -0.40108354932E+02 -0.32755969025E+02  0.63735415385E+02  0.00000000000E+00 0.  1.
         11    1    4    4    0    0 -0.36784263021E+02 -0.49262565501E+02 -0.22980575031E+03  0.23788771562E+03  0.00000000000E+00 0. -1.
<mgrwt>
<rscale>  0 0.16472428E+03</rscale>
<asrwt>0</asrwt>
<pdfrwt beam="2">  1        1 0.95573552E-01 0.17053568E+03</pdfrwt>
<pdfrwt beam="1">  1       -1 0.63029749E-02 0.17053568E+03</pdfrwt>
<totfact> 0.40709034E+03</totfact>
</mgrwt>
</event>
<event>
 8    1  0.1550723E-005  0.1545185E+03  0.7546771E-02  0.1204271E+00
         -1   -1    0    0    0  501 -0.00000000000E+00  0.00000000000E+00  0.24387217979E+02  0.24387217979E+02  0.00000000000E+00 0.  1.
          1   -1    0    0  501    0  0.00000000000E+00 -0.00000000000E+00 -0.81215542110E+03  0.81215542110E+03  0.00000000000E+00 0. -1.
         23    2    1    2    0    0 -0.65587267837E+02 -0.62852492241E+02 -0.45921468539E+03  0.48451428723E+03  0.12499536701E+03 0.  0.
         23    2    1    2    0    0  0.65587267837E+02  0.62852492241E+02 -0.32855351774E+03  0.35202835185E+03  0.87888685305E+02 0.  0.
          5    1    3    3  502    0  0.13533367625E+02 -0.72657595362E+02 -0.19973846955E+03  0.21302540793E+03  0.47000000000E+01 0.  1.
         -5    1    3    3    0  502 -0.79120635463E+02  0.98051031213E+01 -0.25947621583E+03  0.27148887931E+03  0.47000000000E+01 0.  1.
        -11    1    4    4    0    0  0.11891311212E+02  0.69012666867E+02 -0.15136294824E+03  0.16677797687E+03  0.00000000000E+00 0.  1.
         11    1    4    4    0    0  0.53695956626E+02 -0.61601746257E+01 -0.17719056950E+03  0.18525037498E+03  0.00000000000E+00 0. -1.
<mgrwt>
<rscale>  0 0.14695039E+03</rscale>
<asrwt>0</asrwt>
<pdfrwt beam="2">  1        1 0.12494699E+00 0.15451850E+03</pdfrwt>
<pdfrwt beam="1">  1       -1 0.37518797E-02 0.15451850E+03</pdfrwt>
<totfact> 0.59392843E+03</totfact>
</mgrwt>
</event>
<event>
 8    1  0.1550723E-005  0.1669392E+03  0.7546771E-02  0.1188047E+00
         -2   -1    0    0    0  501 -0.00000000000E+00  0.00000000000E+00  0.61302038545E+02  0.61302038545E+02  0.00000000000E+00 0.  1.
          2   -1    0    0  501    0  0.00000000000E+00 -0.00000000000E+00 -0.43792086271E+03  0.43792086271E+03  0.00000000000E+00 0. -1.
         23    2    1    2    0    0  0.10330586914E+03 -0.39636968850E+02 -0.12033911731E+03  0.20579162793E+03  0.12500199626E+03 0.  0.
         23    2    1    2    0    0 -0.10330586914E+03  0.39636968850E+02 -0.25627970685E+03  0.29343127333E+03  0.90440212974E+02 0.  0.
          5    1    3    3  502    0  0.51695742757E+02 -0.76370761433E+02 -0.33567467454E+02  0.98253793272E+02  0.47000000000E+01 0. -1.
         -5    1    3    3    0  502  0.51610126387E+02  0.36733792583E+02 -0.86771649855E+02  0.10753783465E+03  0.47000000000E+01 0. -1.
        -11    1    4    4    0    0 -0.79157609837E+02 -0.16737689897E+02 -0.15967957614E+03  0.17900738670E+03  0.00000000000E+00 0. -1.
         11    1    4    4    0    0 -0.24148259307E+02  0.56374658747E+02 -0.96600130716E+02  0.11442388663E+03  0.00000000000E+00 0.  1.
<mgrwt>
<rscale>  0 0.16057675E+03</rscale>
<asrwt>0</asrwt>
<pdfrwt beam="2">  1        2 0.67372440E-01 0.16693918E+03</pdfrwt>
<pdfrwt beam="1">  1       -2 0.94310829E-02 0.16693918E+03</pdfrwt>
<totfact> 0.51192724E+03</totfact>
</mgrwt>
</event>
<event>
 8    1  0.1550723E-005  0.1810807E+03  0.7546771E-02  0.1174318E+00
          2   -1    0    0  501    0  0.00000000000E+00  0.00000000000E+00  0.40808510492E+03  0.40808510492E+03  0.00000000000E+00 0.  1.
         -2   -1    0    0    0  501 -0.00000000000E+00 -0.00000000000E+00 -0.12365905812E+03  0.12365905812E+03  0.00000000000E+00 0. -1.
         23    2    1    2    0    0  0.12188139400E+03 -0.48056269766E+02 -0.28866823589E+02  0.18336714235E+03  0.12500294445E+03 0.  0.
         23    2    1    2    0    0 -0.12188139400E+03  0.48056269766E+02  0.31329287038E+03  0.34837702069E+03  0.77779474456E+02 0.  0.
          5    1    3    3  502    0  0.14520637396E+03 -0.38626174923E+02 -0.39840881381E+02  0.15551931795E+03  0.47000000000E+01 0. -1.
         -5    1    3    3    0  502 -0.23324979961E+02 -0.94300948427E+01  0.10974057792E+02  0.27847824392E+02  0.47000000000E+01 0. -1.
        -11    1    4    4    0    0 -0.61864702173E+02 -0.12541378603E+02  0.17343808957E+03  0.18456786954E+03  0.00000000000E+00 0.  1.
         11    1    4    4    0    0 -0.60016691826E+02  0.60597648368E+02  0.13985478081E+03  0.16380915115E+03  0.00000000000E+00 0. -1.
<mgrwt>
<rscale>  0 0.17342957E+03</rscale>
<asrwt>0</asrwt>
<pdfrwt beam="1">  1        2 0.62782323E-01 0.18108069E+03</pdfrwt>
<pdfrwt beam="2">  1       -2 0.19024471E-01 0.18108069E+03</pdfrwt>
<totfact> 0.17706000E+03</totfact>
</mgrwt>
</event>
<event>
 7    1  0.1550723E-005  0.2635613E+03  0.7546771E-02  0.1105022E+00
         -1   -1    0    0    0  501 -0.00000000000E+00  0.00000000000E+00  0.17388411467E+02  0.17388411467E+02  0.00000000000E+00 0.  1.
          1   -1    0    0  501    0  0.00000000000E+00 -0.00000000000E+00 -0.99871944132E+03  0.99871944132E+03  0.00000000000E+00 0. -1.
         23    2    1    2    0    0  0.22005508439E+02  0.36064000870E+02 -0.37192741694E+03  0.38497953314E+03  0.89968788520E+02 0.  0.
          5    1    1    2  502    0 -0.10260594555E+02 -0.93582709396E+02 -0.25498800739E+03  0.27185285949E+03  0.47000000000E+01 0. -1.
         -5    1    1    2    0  502 -0.11744913884E+02  0.57518708525E+02 -0.35441560553E+03  0.35927546016E+03  0.47000000000E+01 0.  1.
        -11    1    3    3    0    0  0.38703577167E+02 -0.16903476104E+02 -0.12714452226E+03  0.13397546018E+03  0.00000000000E+00 0.  1.
         11    1    3    3    0    0 -0.16698068728E+02  0.52967476974E+02 -0.24478289467E+03  0.25100407296E+03  0.00000000000E+00 0. -1.
<mgrwt>
<rscale>  0 0.26356134E+03</rscale>
<asrwt>0</asrwt>
<pdfrwt beam="2">  1        1 0.15364918E+00 0.26356134E+03</pdfrwt>
<pdfrwt beam="1">  1       -1 0.26751396E-02 0.26356134E+03</pdfrwt>
<totfact> 0.71461627E+03</totfact>
</mgrwt>
</event>
<event>
 8    1  0.1550723E-005  0.1842100E+03  0.7546771E-02  0.1169113E+00
         -2   -1    0    0    0  501 -0.00000000000E+00  0.00000000000E+00  0.28261257328E+03  0.28261257328E+03  0.00000000000E+00 0.  1.
          2   -1    0    0  501    0  0.00000000000E+00 -0.00000000000E+00 -0.12179064847E+03  0.12179064847E+03  0.00000000000E+00 0. -1.
         23    2    1    2    0    0  0.13518168005E+03  0.56493434361E+01  0.15595627901E+03  0.24136211790E+03  0.12500923684E+03 0.  0.
         23    2    1    2    0    0 -0.13518168005E+03 -0.56493434361E+01  0.48656457989E+01  0.16304110385E+03  0.90844511864E+02 0.  0.
          5    1    3    3  502    0  0.11777378771E+03 -0.48100732813E+02  0.11317495507E+03  0.17033791716E+03  0.47000000000E+01 0.  1.
         -5    1    3    3    0  502  0.17407892335E+02  0.53750076249E+02  0.42781323944E+02  0.71024200740E+02  0.47000000000E+01 0.  1.
        -11    1    4    4    0    0 -0.46773254388E+01  0.26254236778E+02 -0.86012803238E+01  0.28020427286E+02  0.00000000000E+00 0.  1.
         11    1    4    4    0    0 -0.13050435461E+03 -0.31903580214E+02  0.13466926123E+02  0.13502067657E+03  0.00000000000E+00 0. -1.
<mgrwt>
<rscale>  0 0.17865318E+03</rscale>
<asrwt>0</asrwt>
<pdfrwt beam="2">  1        2 0.18737023E-01 0.18420996E+03</pdfrwt>
<pdfrwt beam="1">  1       -2 0.43478857E-01 0.18420996E+03</pdfrwt>
<totfact> 0.14977305E+03</totfact>
</mgrwt>
</event>
<event>
 8    1  0.1550723E-005  0.1301213E+03  0.7546771E-02  0.1241057E+00
         -4   -1    0    0    0  501 -0.00000000000E+00  0.00000000000E+00  0.20326393232E+03  0.20326393232E+03  0.00000000000E+00 0.  1.
          4   -1    0    0  501    0  0.00000000000E+00 -0.00000000000E+00 -0.82087248910E+02  0.82087248910E+02  0.00000000000E+00 0. -1.
         23    2    1    2    0    0  0.33755600808E+02  0.12950050763E+02  0.13358155719E+03  0.18648215618E+03  0.12499767099E+03 0.  0.
         23    2    1    2    0    0 -0.33755600808E+02 -0.12950050763E+02 -0.12404873779E+02  0.98869025049E+02  0.91181460945E+02 0.  0.
          5    1    3    3  502    0  0.31976639740E+02 -0.22387150596E+02  0.14402338799E+03  0.14929338997E+03  0.47000000000E+01 0.  1.
         -5    1    3    3    0  502  0.17789610683E+01  0.35337201359E+02 -0.10441830794E+02  0.37188766216E+02  0.47000000000E+01 0.  1.
        -11    1    4    4    0    0 -0.56006313889E+02 -0.27181215652E+02  0.11427328718E+02  0.63293834782E+02  0.00000000000E+00 0.  1.
         11    1    4    4    0    0  0.22250713081E+02  0.14231164889E+02 -0.23832202498E+02  0.35575190268E+02  0.00000000000E+00 0. -1.
<mgrwt>
<rscale>  0 0.12124534E+03</rscale>
<asrwt>0</asrwt>
<pdfrwt beam="2">  1        4 0.12628808E-01 0.13012134E+03</pdfrwt>
<pdfrwt beam="1">  1       -4 0.31271374E-01 0.13012134E+03</pdfrwt>
<totfact> 0.81908814E+02</totfact>
</mgrwt>
</event>
<event>
 8    1  0.1550723E-005  0.1311331E+03  0.7546771E-02  0.1240204E+00
         -2   -1    0    0    0  501 -0.00000000000E+00  0.00000000000E+00  0.26149564681E+02  0.26149564681E+02  0.00000000000E+00 0. -1.
          2   -1    0    0  501    0  0.00000000000E+00 -0.00000000000E+00 -0.49995502520E+03  0.49995502520E+03  0.00000000000E+00 0.  1.
         23    2    1    2    0    0 -0.34834996043E+02  0.18908783981E+02 -0.27658686986E+03  0.30609833612E+03  0.12499950293E+03 0.  0.
         23    2    1    2    0    0  0.34834996043E+02 -0.18908783981E+02 -0.19721859066E+03  0.22000625377E+03  0.89087373595E+02 0.  0.
          5    1    3    3  502    0 -0.69829138176E+02  0.18896040183E+02 -0.86965745980E+02  0.11321793077E+03  0.47000000000E+01 0.  1.
         -5    1    3    3    0  502  0.34994142132E+02  0.12743797377E-01 -0.18962112388E+03  0.19288040535E+03  0.47000000000E+01 0.  1.
        -11    1    4    4    0    0  0.26559125670E+02  0.34405391431E+02 -0.92713627473E+02  0.10239597080E+03  0.00000000000E+00 0. -1.
         11    1    4    4    0    0  0.82758703731E+01 -0.53314175411E+02 -0.10450496319E+03  0.11761028297E+03  0.00000000000E+00 0.  1.
<mgrwt>
<rscale>  0 0.12177077E+03</rscale>
<asrwt>0</asrwt>
<pdfrwt beam="2">  1        2 0.76916146E-01 0.13113312E+03</pdfrwt>
<pdfrwt beam="1">  1       -2 0.40230106E-02 0.13113312E+03</pdfrwt>
<totfact> 0.15976196E+04</totfact>
</mgrwt>
</event>
<event>
 8    1  0.1550723E-005  0.1583037E+03  0.7546771E-02  0.1198624E+00
         -1   -1    0    0    0  501 -0.00000000000E+00  0.00000000000E+00  0.87635064212E+02  0.87635064212E+02  0.00000000000E+00 0.  1.
          1   -1    0    0  501    0  0.00000000000E+00 -0.00000000000E+00 -0.36915329679E+03  0.36915329679E+03  0.00000000000E+00 0. -1.
         23    2    1    2    0    0  0.38914290212E+02  0.88998494339E+02 -0.15019473120E+02  0.15901462607E+03  0.12500005101E+03 0.  0.
         23    2    1    2    0    0 -0.38914290212E+02 -0.88998494339E+02 -0.26649875946E+03  0.29777373494E+03  0.90623145212E+02 0.  0.
          5    1    3    3  502    0  0.29596470468E+02  0.53784651499E+01 -0.57185295828E+02  0.64785237597E+02  0.47000000000E+01 0. -1.
         -5    1    3    3    0  502  0.93178197437E+01  0.83620029190E+02  0.42165822708E+02  0.94229388468E+02  0.47000000000E+01 0. -1.
        -11    1    4    4    0    0 -0.18050487024E+02 -0.71997836875E+02 -0.25958220311E+03  0.26998597883E+03  0.00000000000E+00 0. -1.
         11    1    4    4    0    0 -0.20863803189E+02 -0.17000657464E+02 -0.69165563557E+01  0.27787756108E+02  0.00000000000E+00 0.  1.
<mgrwt>
<rscale>  0 0.15151445E+03</rscale>
<asrwt>0</asrwt>
<pdfrwt beam="2">  1        1 0.56792814E-01 0.15830372E+03</pdfrwt>
<pdfrwt beam="1">  1       -1 0.13482318E-01 0.15830372E+03</pdfrwt>
<totfact> 0.25102241E+03</totfact>
</mgrwt>
</event>
<event>
 8    1  0.1550723E-005  0.1743624E+03  0.7546771E-02  0.1179945E+00
         -1   -1    0    0    0  501 -0.00000000000E+00  0.00000000000E+00  0.97130055164E+02  0.97130055164E+02  0.00000000000E+00 0.  1.
          1   -1    0    0  501    0  0.00000000000E+00 -0.00000000000E+00 -0.43385836209E+03  0.43385836209E+03  0.00000000000E+00 0. -1.
         23    2    1    2    0    0 -0.39417204222E+02  0.11499276826E+03 -0.13928486462E+02  0.17491783063E+03  0.12500076798E+03 0.  0.
         23    2    1    2    0    0  0.39417204222E+02 -0.11499276826E+03 -0.32279982046E+03  0.35607058663E+03  0.88371295274E+02 0.  0.
          5    1    3    3  502    0 -0.29433626174E+02  0.69187157777E+02 -0.69197404161E+02  0.10229160226E+03  0.47000000000E+01 0. -1.
         -5    1    3    3    0  502 -0.99835780478E+01  0.45805610485E+02  0.55268917699E+02  0.72626228362E+02  0.47000000000E+01 0. -1.
        -11    1    4    4    0    0  0.74409333847E+01 -0.98112732253E+02 -0.14905059282E+03  0.17859886601E+03  0.00000000000E+00 0.  1.
         11    1    4    4    0    0  0.31976270837E+02 -0.16880036009E+02 -0.17374922764E+03  0.17747172062E+03  0.00000000000E+00 0. -1.
<mgrwt>
<rscale>  0 0.16800447E+03</rscale>
<asrwt>0</asrwt>
<pdfrwt beam="2">  1        1 0.66747440E-01 0.17436239E+03</pdfrwt>
<pdfrwt beam="1">  1       -1 0.14943086E-01 0.17436239E+03</pdfrwt>
<totfact> 0.17447777E+03</totfact>
</mgrwt>
</event>
<event>
 8    1  0.1550723E-005  0.1878437E+03  0.7546771E-02  0.1165636E+00
         -1   -1    0    0    0  501 -0.00000000000E+00  0.00000000000E+00  0.29833032105E+03  0.29833032105E+03  0.00000000000E+00 0.  1.
          1   -1    0    0  501    0  0.00000000000E+00 -0.00000000000E+00 -0.16606495222E+03  0.16606495222E+03  0.00000000000E+00 0. -1.
         23    2    1    2    0    0 -0.15711739157E+02  0.13932674542E+03  0.20906710303E+03  0.28105925150E+03  0.12500579406E+03 0.  0.
         23    2    1    2    0    0  0.15711739157E+02 -0.13932674542E+03 -0.76801734200E+02  0.18333602177E+03  0.89748480567E+02 0.  0.
          5    1    3    3  502    0 -0.27168882632E+02  0.44293715160E+02  0.12281964368E+01  0.52188886295E+02  0.47000000000E+01 0. -1.
         -5    1    3    3    0  502  0.11457143475E+02  0.95033030263E+02  0.20783890659E+03  0.22887036521E+03  0.47000000000E+01 0. -1.
        -11    1    4    4    0    0  0.51924646174E+02 -0.99382345950E+02 -0.45636132749E+02  0.12106063018E+03  0.00000000000E+00 0. -1.
         11    1    4    4    0    0 -0.36212907017E+02 -0.39944399474E+02 -0.31165601451E+02  0.62275391590E+02  0.00000000000E+00 0.  1.
<mgrwt>
<rscale>  0 0.18225693E+03</rscale>
<asrwt>0</asrwt>
<pdfrwt beam="2">  1        1 0.25548454E-01 0.18784368E+03</pdfrwt>
<pdfrwt beam="1">  1       -1 0.45896973E-01 0.18784368E+03</pdfrwt>
<totfact> 0.89292926E+02</totfact>
</mgrwt>
</event>
<event>
 8    1  0.1550723E-005  0.1252038E+03  0.7546771E-02  0.1245873E+00
          1   -1    0    0  501    0  0.00000000000E+00  0.00000000000E+00  0.20696956946E+03  0.20696956946E+03  0.00000000000E+00 0. -1.
         -1   -1    0    0    0  501 -0.00000000000E+00 -0.00000000000E+00 -0.67198894082E+02  0.67198894082E+02  0.00000000000E+00 0.  1.
         23    2    1    2    0    0 -0.11005207336E+02  0.41385408743E+02  0.36343816940E+02  0.13037199756E+03  0.11765253109E+03 0.  0.
         23    2    1    2    0    0  0.11005207336E+02 -0.41385408743E+02  0.10342685844E+03  0.14379646599E+03  0.90257641991E+02 0.  0.
          5    1    3    3  502    0  0.31200001232E+02  0.99933211331E+01  0.63038785208E+02  0.71198911400E+02  0.47000000000E+01 0. -1.
         -5    1    3    3    0  502 -0.42205208568E+02  0.31392087610E+02 -0.26694968268E+02  0.59173086159E+02  0.47000000000E+01 0.  1.
        -11    1    4    4    0    0  0.11595644689E+02  0.14897058896E+02 -0.67715424487E+01  0.20055800324E+02  0.00000000000E+00 0.  1.
         11    1    4    4    0    0 -0.59043735284E+00 -0.56282467639E+02  0.11019840089E+03  0.12374066566E+03  0.00000000000E+00 0. -1.
<mgrwt>
<rscale>  0 0.11833305E+03</rscale>
<asrwt>0</asrwt>
<pdfrwt beam="1">  1        1 0.31841472E-01 0.12520377E+03</pdfrwt>
<pdfrwt beam="2">  1       -1 0.10338292E-01 0.12520377E+03</pdfrwt>
<totfact> 0.76567370E+03</totfact>
</mgrwt>
</event>
<event>
 8    1  0.1550723E-005  0.1607260E+03  0.7546771E-02  0.1195694E+00
          2   -1    0    0  501    0  0.00000000000E+00  0.00000000000E+00  0.31364337230E+03  0.31364337230E+03  0.00000000000E+00 0. -1.
         -2   -1    0    0    0  501 -0.00000000000E+00 -0.00000000000E+00 -0.70585591577E+02  0.70585591577E+02  0.00000000000E+00 0.  1.
         23    2    1    2    0    0 -0.10108357626E+03 -0.15971734441E+00  0.15132731034E+03  0.22075509651E+03  0.12495976504E+03 0.  0.
         23    2    1    2    0    0  0.10108357626E+03  0.15971734441E+00  0.91730470382E+02  0.16347386737E+03  0.89951716023E+02 0.  0.
          5    1    3    3  502    0 -0.70050387954E+01  0.46324611514E+02  0.16618049414E+02  0.49932852580E+02  0.47000000000E+01 0.  1.
         -5    1    3    3    0  502 -0.94078537469E+02 -0.46484328859E+02  0.13470926092E+03  0.17082224393E+03  0.47000000000E+01 0.  1.
        -11    1    4    4    0    0  0.85512890993E+02  0.34029198969E+02  0.41593208770E+02  0.10099720751E+03  0.00000000000E+00 0.  1.
         11    1    4    4    0    0  0.15570685271E+02 -0.33869481624E+02  0.50137261612E+02  0.62476659860E+02  0.00000000000E+00 0. -1.
<mgrwt>
<rscale>  0 0.15395664E+03</rscale>
<asrwt>0</asrwt>
<pdfrwt beam="1">  1        2 0.48252826E-01 0.16072603E+03</pdfrwt>
<pdfrwt beam="2">  1       -2 0.10859322E-01 0.16072603E+03</pdfrwt>
<totfact> 0.58491920E+03</totfact>
</mgrwt>
</event>
<event>
 8    1  0.1550723E-005  0.1271418E+03  0.7546771E-02  0.1248078E+00
          1   -1    0    0  501    0  0.00000000000E+00  0.00000000000E+00  0.54000474791E+02  0.54000474791E+02  0.00000000000E+00 0. -1.
         -1   -1    0    0    0  501 -0.00000000000E+00 -0.00000000000E+00 -0.28443825758E+03  0.28443825758E+03  0.00000000000E+00 0.  1.
         23    2    1    2    0    0  0.47119825458E+00  0.23252356833E+02 -0.20908069444E+03  0.24470343082E+03  0.12499655253E+03 0.  0.
         23    2    1    2    0    0 -0.47119825458E+00 -0.23252356833E+02 -0.21357088347E+02  0.93735301545E+02  0.88256939710E+02 0.  0.
          5    1    3    3  502    0  0.13215713798E+02  0.32489671817E+02 -0.22137481429E+03  0.22418548630E+03  0.47000000000E+01 0. -1.
         -5    1    3    3    0  502 -0.12744515543E+02 -0.92373149841E+01  0.12294119850E+02  0.20517944523E+02  0.47000000000E+01 0. -1.
        -11    1    4    4    0    0 -0.20352856801E+02  0.27288027321E+02 -0.19844226579E+02  0.39403915333E+02  0.00000000000E+00 0.  1.
         11    1    4    4    0    0  0.19881658547E+02 -0.50540384154E+02 -0.15128617683E+01  0.54331386212E+02  0.00000000000E+00 0. -1.
<mgrwt>
<rscale>  0 0.11703022E+03</rscale>
<asrwt>0</asrwt>
<pdfrwt beam="1">  1        1 0.83077652E-02 0.12714178E+03</pdfrwt>
<pdfrwt beam="2">  1       -1 0.43759733E-01 0.12714178E+03</pdfrwt>
<totfact> 0.41344704E+03</totfact>
</mgrwt>
</event>
<event>
 8    1  0.1550723E-005  0.2570958E+03  0.7546771E-02  0.1111136E+00
          2   -1    0    0  501    0  0.00000000000E+00  0.00000000000E+00  0.85892382437E+03  0.85892382437E+03  0.00000000000E+00 0. -1.
         -2   -1    0    0    0  501 -0.00000000000E+00 -0.00000000000E+00 -0.11745406914E+03  0.11745406914E+03  0.00000000000E+00 0.  1.
         23    2    1    2    0    0 -0.22461635850E+03  0.46065936788E+01  0.76182561788E+02  0.26814553019E+03  0.12499805369E+03 0.  0.
         23    2    1    2    0    0  0.22461635850E+03 -0.46065936788E+01  0.66528719343E+03  0.70823236332E+03  0.92262134709E+02 0.  0.
          5    1    3    3  502    0 -0.21643792582E+03 -0.31080647308E+02  0.75009894459E+02  0.23121409264E+03  0.47000000000E+01 0. -1.
         -5    1    3    3    0  502 -0.81784326862E+01  0.35687240987E+02  0.11726673299E+01  0.36931437545E+02  0.47000000000E+01 0. -1.
        -11    1    4    4    0    0  0.13449710227E+03 -0.47617450745E+02  0.40953583051E+03  0.43367786271E+03  0.00000000000E+00 0.  1.
         11    1    4    4    0    0  0.90119256239E+02  0.43010857066E+02  0.25575136293E+03  0.27455450062E+03  0.00000000000E+00 0. -1.
<mgrwt>
<rscale>  0 0.25346317E+03</rscale>
<asrwt>0</asrwt>
<pdfrwt beam="1">  1        2 0.13214212E+00 0.25709578E+03</pdfrwt>
<pdfrwt beam="2">  1       -2 0.18069857E-01 0.25709578E+03</pdfrwt>
<totfact> 0.81171435E+02</totfact>
</mgrwt>
</event>
<event>
 8    1  0.1550723E-005  0.1312590E+03  0.7546771E-02  0.1238409E+00
         -2   -1    0    0    0  501 -0.00000000000E+00  0.00000000000E+00  0.12170044467E+03  0.12170044467E+03  0.00000000000E+00 0.  1.
          2   -1    0    0  501    0  0.00000000000E+00 -0.00000000000E+00 -0.11073284323E+03  0.11073284323E+03  0.00000000000E+00 0. -1.
         23    2    1    2    0    0  0.38845132401E+02 -0.95896360966E+01  0.32855648623E+01  0.13130007650E+03  0.12501203830E+03 0.  0.
         23    2    1    2    0    0 -0.38845132401E+02  0.95896360966E+01  0.76820365718E+01  0.10113321140E+03  0.92563531321E+02 0.  0.
          5    1    3    3  502    0 -0.23719625657E+02 -0.41437810561E+02 -0.26596646613E+02  0.54856033364E+02  0.47000000000E+01 0. -1.
         -5    1    3    3    0  502  0.62564758059E+02  0.31848174465E+02  0.29882211475E+02  0.76444043132E+02  0.47000000000E+01 0. -1.
        -11    1    4    4    0    0  0.89272720055E+01  0.73939907307E+01  0.41157235348E+02  0.42758453034E+02  0.00000000000E+00 0.  1.
         11    1    4    4    0    0 -0.47772404407E+02  0.21956453659E+01 -0.33475198776E+02  0.58374758367E+02  0.00000000000E+00 0. -1.
<mgrwt>
<rscale>  0 0.12288703E+03</rscale>
<asrwt>0</asrwt>
<pdfrwt beam="2">  1        2 0.17035822E-01 0.13125896E+03</pdfrwt>
<pdfrwt beam="1">  1       -2 0.18723145E-01 0.13125896E+03</pdfrwt>
<totfact> 0.74387126E+03</totfact>
</mgrwt>
</event>
<event>
 8    1  0.1550723E-005  0.1269462E+03  0.7546771E-02  0.1247397E+00
         -1   -1    0    0    0  501 -0.00000000000E+00  0.00000000000E+00  0.12020857838E+03  0.12020857838E+03  0.00000000000E+00 0.  1.
          1   -1    0    0  501    0  0.00000000000E+00 -0.00000000000E+00 -0.10081701346E+03  0.10081701346E+03  0.00000000000E+00 0. -1.
         23    2    1    2    0    0 -0.17861009100E+02 -0.13120738474E+02  0.57559549925E+01  0.12707659559E+03  0.12499664278E+03 0.  0.
         23    2    1    2    0    0  0.17861009100E+02  0.13120738474E+02  0.13635609932E+02  0.93948996249E+02  0.90273554344E+02 0.  0.
          5    1    3    3  502    0 -0.44475391631E+02  0.36576494952E+02 -0.24694141768E+02  0.62831449780E+02  0.47000000000E+01 0. -1.
         -5    1    3    3    0  502  0.26614382532E+02 -0.49697233427E+02  0.30450096760E+02  0.64245145813E+02  0.47000000000E+01 0. -1.
        -11    1    4    4    0    0  0.13210603297E+02 -0.65562205963E+01 -0.36781850072E+02  0.39628380773E+02  0.00000000000E+00 0. -1.
         11    1    4    4    0    0  0.46504058026E+01  0.19676959071E+02  0.50417460004E+02  0.54320615476E+02  0.00000000000E+00 0.  1.
<mgrwt>
<rscale>  0 0.11743078E+03</rscale>
<asrwt>0</asrwt>
<pdfrwt beam="2">  1        1 0.15510310E-01 0.12694617E+03</pdfrwt>
<pdfrwt beam="1">  1       -1 0.18493627E-01 0.12694617E+03</pdfrwt>
<totfact> 0.76832385E+03</totfact>
</mgrwt>
</event>
<event>
 8    1  0.1550723E-005  0.1261487E+03  0.7546771E-02  0.1243988E+00
         -2   -1    0    0    0  501 -0.00000000000E+00  0.00000000000E+00  0.36947419097E+03  0.36947419097E+03  0.00000000000E+00 0.  1.
          2   -1    0    0  501    0  0.00000000000E+00 -0.00000000000E+00 -0.10161534937E+03  0.10161534937E+03  0.00000000000E+00 0. -1.
         23    2    1    2    0    0  0.22138330334E+02 -0.36192769350E+02  0.32919396731E+03  0.35253674424E+03  0.11880010818E+03 0.  0.
         23    2    1    2    0    0 -0.22138330334E+02  0.36192769350E+02 -0.61335125709E+02  0.11855279609E+03  0.92156093621E+02 0.  0.
          5    1    3    3  502    0  0.16721156838E+02  0.36115834645E+02  0.50194997619E+02  0.64230665450E+02  0.47000000000E+01 0. -1.
         -5    1    3    3    0  502  0.54171734964E+01 -0.72308603995E+02  0.27899896969E+03  0.28830607880E+03  0.47000000000E+01 0.  1.
        -11    1    4    4    0    0 -0.25043342978E+02  0.81350741598E+01  0.19611406420E+02  0.32832236002E+02  0.00000000000E+00 0.  1.
         11    1    4    4    0    0  0.29050126441E+01  0.28057695190E+02 -0.80946532129E+02  0.85720560087E+02  0.00000000000E+00 0. -1.
<mgrwt>
<rscale>  0 0.11946166E+03</rscale>
<asrwt>0</asrwt>
<pdfrwt beam="2">  1        2 0.15633131E-01 0.12614867E+03</pdfrwt>
<pdfrwt beam="1">  1       -2 0.56842183E-01 0.12614867E+03</pdfrwt>
<totfact> 0.10719223E+03</totfact>
</mgrwt>
</event>
<event>
 7    1  0.1550723E-005  0.1792149E+03  0.7546771E-02  0.1194712E+00
         -1   -1    0    0    0  501 -0.00000000000E+00  0.00000000000E+00  0.42642432765E+03  0.42642432765E+03  0.00000000000E+00 0.  1.
          1   -1    0    0  501    0  0.00000000000E+00 -0.00000000000E+00 -0.50788702109E+02  0.50788702109E+02  0.00000000000E+00 0. -1.
         23    2    1    2    0    0  0.26182850773E+02  0.26327742319E+02  0.66432681220E+02  0.11982745928E+03  0.92556075834E+02 0.  0.
          5    1    1    2  502    0  0.69919483181E+02 -0.34253422795E+01  0.18972065089E+03  0.20227823034E+03  0.47000000000E+01 0. -1.
         -5    1    1    2    0  502 -0.96102333954E+02 -0.22902400040E+02  0.11948229344E+03  0.15510734014E+03  0.47000000000E+01 0.  1.
        -11    1    3    3    0    0 -0.27977268630E+02 -0.11274461362E+02  0.36685695539E+02  0.47494013267E+02  0.00000000000E+00 0.  1.
         11    1    3    3    0    0  0.54160119403E+02  0.37602203681E+02  0.29746985681E+02  0.72333446016E+02  0.00000000000E+00 0. -1.
<mgrwt>
<rscale>  0 0.15478645E+03</rscale>
<asrwt>0</asrwt>
<pdfrwt beam="2">  1        1 0.78136468E-02 0.17921491E+03</pdfrwt>
<pdfrwt beam="1">  1       -1 0.65603740E-01 0.17921491E+03</pdfrwt>
<totfact> 0.21523353E+03</totfact>
</mgrwt>
</event>
<event>
 8    1  0.1550723E-005  0.1689828E+03  0.7546771E-02  0.1185384E+00
         -1   -1    0    0    0  501 -0.00000000000E+00  0.00000000000E+00  0.31424367271E+03  0.31424367271E+03  0.00000000000E+00 0.  1.
          1   -1    0    0  501    0  0.00000000000E+00 -0.00000000000E+00 -0.84620356898E+02  0.84620356898E+02  0.00000000000E+00 0. -1.
         23    2    1    2    0    0  0.10552259492E+03  0.42370333011E+02  0.17373146265E+03  0.24235880739E+03  0.12499962897E+03 0.  0.
         23    2    1    2    0    0 -0.10552259492E+03 -0.42370333011E+02  0.55891853164E+02  0.15650522223E+03  0.91867960547E+02 0.  0.
          5    1    3    3  502    0  0.70719273657E+02  0.74751180981E+02  0.60497531463E+02  0.11946127422E+03  0.47000000000E+01 0. -1.
         -5    1    3    3    0  502  0.34803321267E+02 -0.32380847970E+02  0.11323393119E+03  0.12289753317E+03  0.47000000000E+01 0. -1.
        -11    1    4    4    0    0 -0.62153806683E+02  0.17635749415E+02  0.14812959097E+01  0.64624372958E+02  0.00000000000E+00 0. -1.
         11    1    4    4    0    0 -0.43368788241E+02 -0.60006082425E+02  0.54410557255E+02  0.91880849268E+02  0.00000000000E+00 0.  1.
<mgrwt>
<rscale>  0 0.16296987E+03</rscale>
<asrwt>0</asrwt>
<pdfrwt beam="2">  1        1 0.13018517E-01 0.16898275E+03</pdfrwt>
<pdfrwt beam="1">  1       -1 0.48345180E-01 0.16898275E+03</pdfrwt>
<totfact> 0.19322172E+03</totfact>
</mgrwt>
</event>
<event>
 7    1  0.1550723E-005  0.2697089E+03  0.7546771E-02  0.1134898E+00
         -1   -1    0    0    0  501 -0.00000000000E+00  0.00000000000E+00  0.12420397842E+04  0.12420397842E+04  0.00000000000E+00 0.  1.
          1   -1    0    0  501    0  0.00000000000E+00 -0.00000000000E+00 -0.10196520301E+03  0.10196520301E+03  0.00000000000E+00 0. -1.
         23    2    1    2    0    0  0.46192606652E+02 -0.50184960759E+02 -0.47790729650E+02  0.12590528641E+03  0.94424044131E+02 0.  0.
          5    1    1    2  502    0  0.23196976152E+02 -0.99350919925E+02  0.37405620120E+03  0.38774841928E+03  0.47000000000E+01 0. -1.
         -5    1    1    2    0  502 -0.69389582804E+02  0.14953588068E+03  0.81380910960E+03  0.83035128150E+03  0.47000000000E+01 0.  1.
        -11    1    3    3    0    0  0.49125851332E+02 -0.32788806783E+02 -0.73770663206E+02  0.94501671251E+02  0.00000000000E+00 0. -1.
         11    1    3    3    0    0 -0.29332446800E+01 -0.17396153976E+02  0.25979933556E+02  0.31403615160E+02  0.00000000000E+00 0.  1.
<mgrwt>
<rscale>  0 0.21864355E+03</rscale>
<asrwt>0</asrwt>
<pdfrwt beam="2">  1        1 0.15686955E-01 0.26970889E+03</pdfrwt>
<pdfrwt beam="1">  1       -1 0.19108303E+00 0.26970889E+03</pdfrwt>
<totfact> 0.67657293E+01</totfact>
</mgrwt>
</event>
<event>
 8    1  0.2029105E-005  0.3447627E+03  0.7546771E-02  0.1065936E+00
          2   -1    0    0  501    0  0.00000000000E+00  0.00000000000E+00  0.79290742556E+03  0.79290742556E+03  0.00000000000E+00 0. -1.
         -2   -1    0    0    0  501 -0.00000000000E+00 -0.00000000000E+00 -0.14746779637E+03  0.14746779637E+03  0.00000000000E+00 0.  1.
         23    2    1    2    0    0  0.30251406867E+03 -0.10826872294E+03  0.27001069182E+03  0.43791221574E+03  0.12499782752E+03 0.  0.
         23    2    1    2    0    0 -0.30251406867E+03  0.10826872294E+03  0.37542893737E+03  0.50246300619E+03  0.91023664299E+02 0.  0.
          5    1    3    3  502    0  0.94803250114E+02 -0.76690433441E+02  0.15842569788E+03  0.19997467480E+03  0.47000000000E+01 0.  1.
         -5    1    3    3    0  502  0.20771081856E+03 -0.31578289495E+02  0.11158499394E+03  0.23793754094E+03  0.47000000000E+01 0.  1.
        -11    1    4    4    0    0 -0.16776913391E+03  0.10496929057E+03  0.20162687916E+03  0.28252156140E+03  0.00000000000E+00 0. -1.
         11    1    4    4    0    0 -0.13474493477E+03  0.32994323652E+01  0.17380205820E+03  0.21994144479E+03  0.00000000000E+00 0.  1.
<mgrwt>
<rscale>  0 0.34202700E+03</rscale>
<asrwt>0</asrwt>
<pdfrwt beam="1">  1        2 0.12198576E+00 0.34476272E+03</pdfrwt>
<pdfrwt beam="2">  1       -2 0.22687354E-01 0.34476272E+03</pdfrwt>
<totfact> 0.60611062E+02</totfact>
</mgrwt>
</event>
<event>
 8    1  0.1550723E-005  0.1440352E+03  0.7546771E-02  0.1218024E+00
          3   -1    0    0  501    0  0.00000000000E+00  0.00000000000E+00  0.32945228296E+03  0.32945228296E+03  0.00000000000E+00 0. -1.
         -3   -1    0    0    0  501 -0.00000000000E+00 -0.00000000000E+00 -0.59049081900E+02  0.59049081900E+02  0.00000000000E+00 0.  1.
         23    2    1    2    0    0 -0.66345170653E+02  0.26805320689E+02  0.78461307764E+02  0.16401923288E+03  0.12500370016E+03 0.  0.
         23    2    1    2    0    0  0.66345170653E+02 -0.26805320689E+02  0.19194189329E+03  0.22448213198E+03  0.91816830098E+02 0.  0.
          5    1    3    3  502    0 -0.66375346967E+02  0.50855703955E+02  0.10066662280E+03  0.13094979288E+03  0.47000000000E+01 0.  1.
         -5    1    3    3    0  502  0.30176314010E-01 -0.24050383266E+02 -0.22205315038E+02  0.33069439998E+02  0.47000000000E+01 0.  1.
        -11    1    4    4    0    0  0.29569734824E+02  0.33895448222E+02  0.84280175595E+02  0.95532291012E+02  0.00000000000E+00 0.  1.
         11    1    4    4    0    0  0.36775435829E+02 -0.60700768911E+02  0.10766171770E+03  0.12894984096E+03  0.00000000000E+00 0. -1.
<mgrwt>
<rscale>  0 0.13656707E+03</rscale>
<asrwt>0</asrwt>
<pdfrwt beam="1">  1        3 0.50684965E-01 0.14403518E+03</pdfrwt>
<pdfrwt beam="2">  1       -3 0.90844744E-02 0.14403518E+03</pdfrwt>
<totfact> 0.78470121E+02</totfact>
</mgrwt>
</event>
<event>
 8    1  0.1550723E-005  0.1462685E+03  0.7546771E-02  0.1215108E+00
          1   -1    0    0  501    0  0.00000000000E+00  0.00000000000E+00  0.73765806943E+02  0.73765806943E+02  0.00000000000E+00 0. -1.
         -1   -1    0    0    0  501 -0.00000000000E+00 -0.00000000000E+00 -0.24089376623E+03  0.24089376623E+03  0.00000000000E+00 0.  1.
         23    2    1    2    0    0  0.66716746316E+02 -0.36309818680E+02 -0.11198716034E+03  0.18421618767E+03  0.12499981020E+03 0.  0.
         23    2    1    2    0    0 -0.66716746316E+02  0.36309818680E+02 -0.55140798951E+02  0.13044338550E+03  0.90583894486E+02 0.  0.
          5    1    3    3  502    0  0.13419216009E+00 -0.70794168104E+02 -0.59068535120E+02  0.92320171611E+02  0.47000000000E+01 0. -1.
         -5    1    3    3    0  502  0.66582554156E+02  0.34484349424E+02 -0.52918625218E+02  0.91896016063E+02  0.47000000000E+01 0. -1.
        -11    1    4    4    0    0 -0.25895530880E+02 -0.25177124798E+02 -0.42145468303E+02  0.55504113642E+02  0.00000000000E+00 0.  1.
         11    1    4    4    0    0 -0.40821215437E+02  0.61486943479E+02 -0.12995330648E+02  0.74939271859E+02  0.00000000000E+00 0. -1.
<mgrwt>
<rscale>  0 0.13868580E+03</rscale>
<asrwt>0</asrwt>
<pdfrwt beam="1">  1        1 0.11348586E-01 0.14626852E+03</pdfrwt>
<pdfrwt beam="2">  1       -1 0.37060580E-01 0.14626852E+03</pdfrwt>
<totfact> 0.36882537E+03</totfact>
</mgrwt>
</event>
<event>
 8    1  0.1550723E-005  0.2379890E+03  0.7546771E-02  0.1123806E+00
         -1   -1    0    0    0  501 -0.00000000000E+00  0.00000000000E+00  0.10703287328E+03  0.10703287328E+03  0.00000000000E+00 0.  1.
          1   -1    0    0  501    0  0.00000000000E+00 -0.00000000000E+00 -0.61991818681E+03  0.61991818681E+03  0.00000000000E+00 0. -1.
         23    2    1    2    0    0 -0.17561871446E+02  0.20175553994E+03 -0.10063603509E+03  0.25839194636E+03  0.12500027665E+03 0.  0.
         23    2    1    2    0    0  0.17561871446E+02 -0.20175553994E+03 -0.41224927845E+03  0.46855911373E+03  0.92652351576E+02 0.  0.
          5    1    3    3  502    0  0.44060625777E+01  0.13835328879E+03 -0.14035746595E+01  0.13851030982E+03  0.47000000000E+01 0. -1.
         -5    1    3    3    0  502 -0.21967934024E+02  0.63402251152E+02 -0.99232460429E+02  0.11988163654E+03  0.47000000000E+01 0. -1.
        -11    1    4    4    0    0  0.46205978179E+02 -0.10632560871E+03 -0.16203913424E+03  0.19924057948E+03  0.00000000000E+00 0.  1.
         11    1    4    4    0    0 -0.28644106733E+02 -0.95429931233E+02 -0.25021014420E+03  0.26931853425E+03  0.00000000000E+00 0. -1.
<mgrwt>
<rscale>  0 0.23407279E+03</rscale>
<asrwt>0</asrwt>
<pdfrwt beam="2">  1        1 0.95372028E-01 0.23798905E+03</pdfrwt>
<pdfrwt beam="1">  1       -1 0.16466596E-01 0.23798905E+03</pdfrwt>
<totfact> 0.93150493E+02</totfact>
</mgrwt>
</event>
<event>
 8    1  0.1550723E-005  0.1908093E+03  0.7546771E-02  0.1162429E+00
          1   -1    0    0  501    0  0.00000000000E+00  0.00000000000E+00  0.67366505993E+03  0.67366505993E+03  0.00000000000E+00 0. -1.
         -1   -1    0    0    0  501 -0.00000000000E+00 -0.00000000000E+00 -0.54167720307E+02  0.54167720307E+02  0.00000000000E+00 0.  1.
         23    2    1    2    0    0  0.14414835512E+03  0.25366571987E+01  0.20834525624E+03  0.28251716485E+03  0.12499207864E+03 0.  0.
         23    2    1    2    0    0 -0.14414835512E+03 -0.25366571987E+01  0.41115208338E+03  0.44531561539E+03  0.92058561385E+02 0.  0.
          5    1    3    3  502    0  0.69682462612E+02 -0.59762944930E+02  0.12004142268E+03  0.15119288456E+03  0.47000000000E+01 0.  1.
         -5    1    3    3    0  502  0.74465892507E+02  0.62299602129E+02  0.88303833564E+02  0.13132428029E+03  0.47000000000E+01 0.  1.
        -11    1    4    4    0    0 -0.50944487846E+02 -0.16481357654E+01  0.27889334204E+03  0.28351288053E+03  0.00000000000E+00 0. -1.
         11    1    4    4    0    0 -0.93203867273E+02 -0.88852143330E+00  0.13225874134E+03  0.16180273485E+03  0.00000000000E+00 0.  1.
<mgrwt>
<rscale>  0 0.18566666E+03</rscale>
<asrwt>0</asrwt>
<pdfrwt beam="1">  1        1 0.10364077E+00 0.19080934E+03</pdfrwt>
<pdfrwt beam="2">  1       -1 0.83334959E-02 0.19080934E+03</pdfrwt>
<totfact> 0.23891977E+03</totfact>
</mgrwt>
</event>
<event>
 8    1  0.1550723E-005  0.1596439E+03  0.7546771E-02  0.1197106E+00
         -1   -1    0    0    0  501 -0.00000000000E+00  0.00000000000E+00  0.39631597206E+02  0.39631597206E+02  0.00000000000E+00 0.  1.
          1   -1    0    0  501    0  0.00000000000E+00 -0.00000000000E+00 -0.55442309651E+03  0.55442309651E+03  0.00000000000E+00 0. -1.
         23    2    1    2    0    0 -0.69777645118E+02 -0.70648829665E+02 -0.23801716421E+03  0.28659789288E+03  0.12500401934E+03 0.  0.
         23    2    1    2    0    0  0.69777645118E+02  0.70648829665E+02 -0.27677433509E+03  0.30745680084E+03  0.89807989212E+02 0.  0.
          5    1    3    3  502    0 -0.10291851795E+03 -0.71388749745E+02 -0.19900683233E+03  0.23519010234E+03  0.47000000000E+01 0. -1.
         -5    1    3    3    0  502  0.33140872832E+02  0.73992007941E+00 -0.39010331888E+02  0.51407790536E+02  0.47000000000E+01 0. -1.
        -11    1    4    4    0    0  0.27674599801E+02  0.79713080667E+02 -0.22383563708E+03  0.23921214670E+03  0.00000000000E+00 0. -1.
         11    1    4    4    0    0  0.42103045316E+02 -0.90642510017E+01 -0.52938698014E+02  0.68244654139E+02  0.00000000000E+00 0.  1.
<mgrwt>
<rscale>  0 0.15277372E+03</rscale>
<asrwt>0</asrwt>
<pdfrwt beam="2">  1        1 0.85295859E-01 0.15964392E+03</pdfrwt>
<pdfrwt beam="1">  1       -1 0.60971689E-02 0.15964392E+03</pdfrwt>
<totfact> 0.49824722E+03</totfact>
</mgrwt>
</event>
<event>
 8    1  0.1550723E-005  0.1340135E+03  0.7546771E-02  0.1234588E+00
          1   -1    0    0  501    0  0.00000000000E+00  0.00000000000E+00  0.24410329926E+03  0.24410329926E+03  0.00000000000E+00 0. -1.
         -1   -1    0    0    0  501 -0.00000000000E+00 -0.00000000000E+00 -0.66811887672E+02  0.66811887672E+02  0.00000000000E+00 0.  1.
         23    2    1    2    0    0 -0.45390374419E+02  0.16545224118E+02  0.40464680522E+02  0.13998928775E+03  0.12500231912E+03 0.  0.
         23    2    1    2    0    0  0.45390374419E+02 -0.16545224118E+02  0.13682673106E+03  0.17092589917E+03  0.90333150863E+02 0.  0.
          5    1    3    3  502    0 -0.20752903174E+02  0.16629430715E+02  0.84829898517E+02  0.89024842816E+02  0.47000000000E+01 0. -1.
         -5    1    3    3    0  502 -0.24637471245E+02 -0.84206597213E-01 -0.44365217995E+02  0.50964444937E+02  0.47000000000E+01 0. -1.
        -11    1    4    4    0    0  0.12244101212E+02  0.37029068419E+02  0.44756130994E+02  0.59364814360E+02  0.00000000000E+00 0. -1.
         11    1    4    4    0    0  0.33146273207E+02 -0.53574292537E+02  0.92070600068E+02  0.11156108482E+03  0.00000000000E+00 0.  1.
<mgrwt>
<rscale>  0 0.12530821E+03</rscale>
<asrwt>0</asrwt>
<pdfrwt beam="1">  1        1 0.37554353E-01 0.13401347E+03</pdfrwt>
<pdfrwt beam="2">  1       -1 0.10278752E-01 0.13401347E+03</pdfrwt>
<totfact> 0.63283309E+03</totfact>
</mgrwt>
</event>
<event>
 8    1  0.1550723E-005  0.1280300E+03  0.7546771E-02  0.1244695E+00
         -3   -1    0    0    0  501 -0.00000000000E+00  0.00000000000E+00  0.24551040574E+02  0.24551040574E+02  0.00000000000E+00 0.  1.
          3   -1    0    0  501    0  0.00000000000E+00 -0.00000000000E+00 -0.51743785800E+03  0.51743785800E+03  0.00000000000E+00 0. -1.
         23    2    1    2    0    0  0.23089254487E+01  0.27572861270E+02 -0.24848908549E+03  0.27953264153E+03  0.12500431295E+03 0.  0.
         23    2    1    2    0    0 -0.23089254487E+01 -0.27572861270E+02 -0.24439773194E+03  0.26245625705E+03  0.91582976983E+02 0.  0.
          5    1    3    3  502    0  0.59441146353E+01  0.77414630584E+02 -0.15484706413E+03  0.17328606637E+03  0.47000000000E+01 0. -1.
         -5    1    3    3    0  502 -0.36351891865E+01 -0.49841769314E+02 -0.93642021356E+02  0.10624657516E+03  0.47000000000E+01 0. -1.
        -11    1    4    4    0    0 -0.36594618169E+02 -0.21691087251E+02 -0.20722105470E+03  0.21154251311E+03  0.00000000000E+00 0. -1.
         11    1    4    4    0    0  0.34285692720E+02 -0.58817740185E+01 -0.37176677243E+02  0.50913743938E+02  0.00000000000E+00 0.  1.
<mgrwt>
<rscale>  0 0.11903629E+03</rscale>
<asrwt>0</asrwt>
<pdfrwt beam="2">  1        3 0.79605824E-01 0.12802997E+03</pdfrwt>
<pdfrwt beam="1">  1       -3 0.37770832E-02 0.12802997E+03</pdfrwt>
<totfact> 0.12236405E+03</totfact>
</mgrwt>
</event>
<event>
 8    1  0.1550723E-005  0.1332211E+03  0.7546771E-02  0.1235671E+00
          1   -1    0    0  501    0  0.00000000000E+00  0.00000000000E+00  0.24809868134E+03  0.24809868134E+03  0.00000000000E+00 0. -1.
         -1   -1    0    0    0  501 -0.00000000000E+00 -0.00000000000E+00 -0.56703649557E+02  0.56703649557E+02  0.00000000000E+00 0.  1.
         23    2    1    2    0    0 -0.45684574818E+02 -0.58379013950E+01  0.88595393996E+02  0.15999062152E+03  0.12500677449E+03 0.  0.
         23    2    1    2    0    0  0.45684574818E+02  0.58379013950E+01  0.10279963779E+03  0.14481170937E+03  0.91002770141E+02 0.  0.
          5    1    3    3  502    0 -0.20526003836E+02  0.51954617335E+02  0.65782248554E+01  0.56444327777E+02  0.47000000000E+01 0. -1.
         -5    1    3    3    0  502 -0.25158570981E+02 -0.57792518730E+02  0.82017169141E+02  0.10354629375E+03  0.47000000000E+01 0. -1.
        -11    1    4    4    0    0 -0.23301962015E+02  0.57623283891E+01  0.40370608364E+01  0.24340988526E+02  0.00000000000E+00 0.  1.
         11    1    4    4    0    0  0.68986536833E+02  0.75573005916E-01  0.98762576953E+02  0.12047072085E+03  0.00000000000E+00 0. -1.
<mgrwt>
<rscale>  0 0.12461571E+03</rscale>
<asrwt>0</asrwt>
<pdfrwt beam="1">  1        1 0.38169027E-01 0.13322108E+03</pdfrwt>
<pdfrwt beam="2">  1       -1 0.87236385E-02 0.13322108E+03</pdfrwt>
<totfact> 0.79573147E+03</totfact>
</mgrwt>
</event>
<event>
 8    1  0.1550723E-005  0.1357246E+03  0.7546771E-02  0.1231464E+00
          1   -1    0    0  501    0  0.00000000000E+00  0.00000000000E+00  0.16623657935E+03  0.16623657935E+03  0.00000000000E+00 0. -1.
         -1   -1    0    0    0  501 -0.00000000000E+00 -0.00000000000E+00 -0.13578530180E+03  0.13578530180E+03  0.00000000000E+00 0.  1.
         23    2    1    2    0    0  0.20506034005E+02 -0.48731999103E+02 -0.73340655859E+02  0.15427253063E+03  0.12500342691E+03 0.  0.
         23    2    1    2    0    0 -0.20506034005E+02  0.48731999103E+02  0.10379193341E+03  0.14774935051E+03  0.90894444107E+02 0.  0.
          5    1    3    3  502    0 -0.38564478263E+02 -0.63562455580E+02 -0.36744796015E+02  0.83064280995E+02  0.47000000000E+01 0.  1.
         -5    1    3    3    0  502  0.59070512268E+02  0.14830456476E+02 -0.36595859844E+02  0.71208249639E+02  0.47000000000E+01 0.  1.
        -11    1    4    4    0    0 -0.43497967517E+02  0.25125111173E+02  0.10321654852E+03  0.11479111585E+03  0.00000000000E+00 0. -1.
         11    1    4    4    0    0  0.22991933512E+02  0.23606887930E+02  0.57538488688E+00  0.32958234663E+02  0.00000000000E+00 0.  1.
<mgrwt>
<rscale>  0 0.12733537E+03</rscale>
<asrwt>0</asrwt>
<pdfrwt beam="1">  1        1 0.25574858E-01 0.13572458E+03</pdfrwt>
<pdfrwt beam="2">  1       -1 0.20890047E-01 0.13572458E+03</pdfrwt>
<totfact> 0.33626214E+03</totfact>
</mgrwt>
</event>
<event>
 8    1  0.1550723E-005  0.1444672E+03  0.7546771E-02  0.1216561E+00
          1   -1    0    0  501    0  0.00000000000E+00  0.00000000000E+00  0.13235583250E+03  0.13235583250E+03  0.00000000000E+00 0. -1.
         -1   -1    0    0    0  501 -0.00000000000E+00 -0.00000000000E+00 -0.14216870986E+03  0.14216870986E+03  0.00000000000E+00 0.  1.
         23    2    1    2    0    0 -0.12971933717E+02  0.71231172260E+02 -0.43484255794E+02  0.15086961111E+03  0.12501443152E+03 0.  0.
         23    2    1    2    0    0  0.12971933717E+02 -0.71231172260E+02  0.33671378426E+02  0.12365493125E+03  0.94417314791E+02 0.  0.
          5    1    3    3  502    0  0.47088444660E+02  0.15996633503E+02 -0.47644744566E+02  0.69031337729E+02  0.47000000000E+01 0. -1.
         -5    1    3    3    0  502 -0.60060378377E+02  0.55234538757E+02  0.41604887720E+01  0.81838273377E+02  0.47000000000E+01 0. -1.
        -11    1    4    4    0    0 -0.30127642319E+02 -0.58547377242E+01 -0.12058184064E+02  0.32975029772E+02  0.00000000000E+00 0.  1.
         11    1    4    4    0    0  0.43099576036E+02 -0.65376434536E+02  0.45729562490E+02  0.90679901481E+02  0.00000000000E+00 0. -1.
<mgrwt>
<rscale>  0 0.13762502E+03</rscale>
<asrwt>0</asrwt>
<pdfrwt beam="1">  1        1 0.20362436E-01 0.14446716E+03</pdfrwt>
<pdfrwt beam="2">  1       -1 0.21872109E-01 0.14446716E+03</pdfrwt>
<totfact> 0.41766079E+03</totfact>
</mgrwt>
</event>
<event>
 8    1  0.1550723E-005  0.1372121E+03  0.7546771E-02  0.1229300E+00
         -1   -1    0    0    0  501 -0.00000000000E+00  0.00000000000E+00  0.40959415285E+02  0.40959415285E+02  0.00000000000E+00 0.  1.
          1   -1    0    0  501    0  0.00000000000E+00 -0.00000000000E+00 -0.36250765591E+03  0.36250765591E+03  0.00000000000E+00 0. -1.
         23    2    1    2    0    0 -0.59916160226E+01  0.56265878888E+02 -0.17611925636E+03  0.22326026252E+03  0.12500161508E+03 0.  0.
         23    2    1    2    0    0  0.59916160226E+01 -0.56265878888E+02 -0.14542898426E+03  0.18020680867E+03  0.90128551731E+02 0.  0.
          5    1    3    3  502    0 -0.18527595497E+02 -0.25731715358E+02 -0.42138923190E+01  0.32330169480E+02  0.47000000000E+01 0.  1.
         -5    1    3    3    0  502  0.12535979475E+02  0.81997594246E+02 -0.17190536404E+03  0.19093009304E+03  0.47000000000E+01 0.  1.
        -11    1    4    4    0    0  0.10477347433E+02 -0.76642727001E+02 -0.78950029171E+02  0.11053049135E+03  0.00000000000E+00 0.  1.
         11    1    4    4    0    0 -0.44857314100E+01  0.20376848113E+02 -0.66478955092E+02  0.69676317321E+02  0.00000000000E+00 0. -1.
<mgrwt>
<rscale>  0 0.12876521E+03</rscale>
<asrwt>0</asrwt>
<pdfrwt beam="2">  1        1 0.55770408E-01 0.13721207E+03</pdfrwt>
<pdfrwt beam="1">  1       -1 0.63014486E-02 0.13721207E+03</pdfrwt>
<totfact> 0.81252985E+03</totfact>
</mgrwt>
</event>
<event>
 8    1  0.1550723E-005  0.1563691E+03  0.7546771E-02  0.1201028E+00
          3   -1    0    0  501    0  0.00000000000E+00  0.00000000000E+00  0.77480938019E+02  0.77480938019E+02  0.00000000000E+00 0. -1.
         -3   -1    0    0    0  501 -0.00000000000E+00 -0.00000000000E+00 -0.28058516385E+03  0.28058516385E+03  0.00000000000E+00 0.  1.
         23    2    1    2    0    0  0.41715686806E+02  0.84181364242E+02 -0.69631149407E+02  0.17117180810E+03  0.12499836123E+03 0.  0.
         23    2    1    2    0    0 -0.41715686806E+02 -0.84181364242E+02 -0.13347307642E+03  0.18689429376E+03  0.91036884289E+02 0.  0.
          5    1    3    3  502    0  0.23347506693E+02  0.11327004304E+03 -0.32256864355E+02  0.12015741349E+03  0.47000000000E+01 0.  1.
         -5    1    3    3    0  502  0.18368180113E+02 -0.29088678794E+02 -0.37374285053E+02  0.51014394614E+02  0.47000000000E+01 0.  1.
        -11    1    4    4    0    0 -0.17301770148E+02 -0.72125297973E+02 -0.14040950094E+03  0.15879621473E+03  0.00000000000E+00 0.  1.
         11    1    4    4    0    0 -0.24413916658E+02 -0.12056066269E+02  0.69364245183E+01  0.28098079036E+02  0.00000000000E+00 0. -1.
<mgrwt>
<rscale>  0 0.14954897E+03</rscale>
<asrwt>0</asrwt>
<pdfrwt beam="1">  1        3 0.11920144E-01 0.15636909E+03</pdfrwt>
<pdfrwt beam="2">  1       -3 0.43166948E-01 0.15636909E+03</pdfrwt>
<totfact> 0.69442913E+02</totfact>
</mgrwt>
</event>
<event>
 8    1  0.1550723E-005  0.1346873E+03  0.7546771E-02  0.1233955E+00
         -2   -1    0    0    0  501 -0.00000000000E+00  0.00000000000E+00  0.42861868354E+02  0.42861868354E+02  0.00000000000E+00 0.  1.
          2   -1    0    0  501    0  0.00000000000E+00 -0.00000000000E+00 -0.38193868059E+03  0.38193868059E+03  0.00000000000E+00 0. -1.
         23    2    1    2    0    0 -0.48639778879E+02  0.12254927842E+02 -0.10982488336E+03  0.17378770578E+03  0.12499860130E+03 0.  0.
         23    2    1    2    0    0  0.48639778879E+02 -0.12254927842E+02 -0.22925192888E+03  0.25101284317E+03  0.89078556323E+02 0.  0.
          5    1    3    3  502    0 -0.86315289298E+02  0.28999961316E+02 -0.60952949013E+02  0.10967533413E+03  0.47000000000E+01 0.  1.
         -5    1    3    3    0  502  0.37675510419E+02 -0.16745033474E+02 -0.48871934348E+02  0.64112371647E+02  0.47000000000E+01 0.  1.
        -11    1    4    4    0    0  0.71050686832E+02 -0.58326763806E+01 -0.20641191358E+03  0.21837604786E+03  0.00000000000E+00 0. -1.
         11    1    4    4    0    0 -0.22410907953E+02 -0.64222514613E+01 -0.22840015301E+02  0.32636795309E+02  0.00000000000E+00 0.  1.
<mgrwt>
<rscale>  0 0.12571574E+03</rscale>
<asrwt>0</asrwt>
<pdfrwt beam="2">  1        2 0.58759796E-01 0.13468727E+03</pdfrwt>
<pdfrwt beam="1">  1       -2 0.65941337E-02 0.13468727E+03</pdfrwt>
<totfact> 0.10181216E+04</totfact>
</mgrwt>
</event>
<event>
 8    1  0.1550723E-005  0.1371273E+03  0.7546771E-02  0.1228975E+00
          1   -1    0    0  501    0  0.00000000000E+00  0.00000000000E+00  0.17028218939E+03  0.17028218939E+03  0.00000000000E+00 0. -1.
         -1   -1    0    0    0  501 -0.00000000000E+00 -0.00000000000E+00 -0.89690694764E+02  0.89690694764E+02  0.00000000000E+00 0.  1.
         23    2    1    2    0    0 -0.14319877929E+02 -0.54598723194E+02  0.26063610791E+02  0.13958230347E+03  0.12497130933E+03 0.  0.
         23    2    1    2    0    0  0.14319877929E+02  0.54598723194E+02  0.54527883837E+02  0.12039058069E+03  0.91293605057E+02 0.  0.
          5    1    3    3  502    0 -0.32489049269E+02 -0.42007879547E+02  0.71292248903E+02  0.89021767114E+02  0.47000000000E+01 0.  1.
         -5    1    3    3    0  502  0.18169171340E+02 -0.12590843647E+02 -0.45228638112E+02  0.50560536354E+02  0.47000000000E+01 0.  1.
        -11    1    4    4    0    0  0.45738954207E+02  0.23371092813E+02  0.56102972871E+02  0.76064469209E+02  0.00000000000E+00 0. -1.
         11    1    4    4    0    0 -0.31419076278E+02  0.31227630382E+02 -0.15750890333E+01  0.44326111479E+02  0.00000000000E+00 0.  1.
<mgrwt>
<rscale>  0 0.12898150E+03</rscale>
<asrwt>0</asrwt>
<pdfrwt beam="1">  1        1 0.26197260E-01 0.13712734E+03</pdfrwt>
<pdfrwt beam="2">  1       -1 0.13798568E-01 0.13712734E+03</pdfrwt>
<totfact> 0.62955497E+03</totfact>
</mgrwt>
</event>
<event>
 8    1  0.1550723E-005  0.1279619E+03  0.7546771E-02  0.1245764E+00
         -2   -1    0    0    0  501 -0.00000000000E+00  0.00000000000E+00  0.73613558116E+02  0.73613558116E+02  0.00000000000E+00 0.  1.
          2   -1    0    0  501    0  0.00000000000E+00 -0.00000000000E+00 -0.19895389936E+03  0.19895389936E+03  0.00000000000E+00 0. -1.
         23    2    1    2    0    0 -0.27146358763E+02 -0.26561759394E+01 -0.16701222671E+02  0.12904719319E+03  0.12502106689E+03 0.  0.
         23    2    1    2    0    0  0.27146358763E+02  0.26561759394E+01 -0.10863911857E+03  0.14352026429E+03  0.89730864877E+02 0.  0.
          5    1    3    3  502    0 -0.67743728147E+02 -0.66633833798E+01 -0.42655126815E+02  0.80468398921E+02  0.47000000000E+01 0.  1.
         -5    1    3    3    0  502  0.40597369384E+02  0.40072074404E+01  0.25953904144E+02  0.48578794269E+02  0.47000000000E+01 0.  1.
        -11    1    4    4    0    0  0.26393859461E+02  0.44345518651E+02 -0.52797194371E+02  0.73828887132E+02  0.00000000000E+00 0.  1.
         11    1    4    4    0    0  0.75249930138E+00 -0.41689342712E+02 -0.55841924204E+02  0.69691377154E+02  0.00000000000E+00 0. -1.
<mgrwt>
<rscale>  0 0.11839783E+03</rscale>
<asrwt>0</asrwt>
<pdfrwt beam="2">  1        2 0.30608292E-01 0.12796190E+03</pdfrwt>
<pdfrwt beam="1">  1       -2 0.11325163E-01 0.12796190E+03</pdfrwt>
<totfact> 0.87661655E+03</totfact>
</mgrwt>
</event>
<event>
 8    1  0.1550723E-005  0.1380407E+03  0.7546771E-02  0.1227586E+00
         -1   -1    0    0    0  501 -0.00000000000E+00  0.00000000000E+00  0.26209503114E+03  0.26209503114E+03  0.00000000000E+00 0.  1.
          1   -1    0    0  501    0  0.00000000000E+00 -0.00000000000E+00 -0.96174403644E+02  0.96174403644E+02  0.00000000000E+00 0. -1.
         23    2    1    2    0    0 -0.58225217343E+02 -0.63143862315E+01  0.20153397929E+03  0.24427687428E+03  0.12500079637E+03 0.  0.
         23    2    1    2    0    0  0.58225217343E+02  0.63143862315E+01 -0.35613351790E+02  0.11399256050E+03  0.91082081752E+02 0.  0.
          5    1    3    3  502    0 -0.73931253043E+02 -0.13440263549E+02  0.21101352410E+03  0.22404300528E+03  0.47000000000E+01 0.  1.
         -5    1    3    3    0  502  0.15706035700E+02  0.71258773171E+01 -0.94795448138E+01  0.20233869003E+02  0.47000000000E+01 0.  1.
        -11    1    4    4    0    0  0.43440882550E+02  0.35361863476E+02  0.11030017822E+02  0.57089692225E+02  0.00000000000E+00 0.  1.
         11    1    4    4    0    0  0.14784334794E+02 -0.29047477245E+02 -0.46643369612E+02  0.56902868278E+02  0.00000000000E+00 0. -1.
<mgrwt>
<rscale>  0 0.12991197E+03</rscale>
<asrwt>0</asrwt>
<pdfrwt beam="2">  1        1 0.14796062E-01 0.13804074E+03</pdfrwt>
<pdfrwt beam="1">  1       -1 0.40322312E-01 0.13804074E+03</pdfrwt>
<totfact> 0.22439679E+03</totfact>
</mgrwt>
</event>
<event>
 7    1  0.1550723E-005  0.1487648E+03  0.7546771E-02  0.1221567E+00
         -2   -1    0    0    0  501 -0.00000000000E+00  0.00000000000E+00  0.40781808816E+02  0.40781808816E+02  0.00000000000E+00 0.  1.
          2   -1    0    0  501    0  0.00000000000E+00 -0.00000000000E+00 -0.41709829321E+03  0.41709829321E+03  0.00000000000E+00 0. -1.
         23    2    1    2    0    0 -0.24247980460E+02 -0.23112160892E+02 -0.22615001269E+03  0.24650142815E+03  0.92179115317E+02 0.  0.
          5    1    1    2  502    0  0.63058988116E+02  0.42349305805E+02 -0.14955231881E+03  0.16780311602E+03  0.47000000000E+01 0. -1.
         -5    1    1    2    0  502 -0.38811007656E+02 -0.19237144913E+02 -0.61415290056E+00  0.43575557867E+02  0.47000000000E+01 0.  1.
        -11    1    3    3    0    0 -0.53347620728E+02  0.96888236120E+01 -0.12662647113E+03  0.13774652493E+03  0.00000000000E+00 0.  1.
         11    1    3    3    0    0  0.29099640267E+02 -0.32800984504E+02 -0.99523541560E+02  0.10875490321E+03  0.00000000000E+00 0. -1.
<mgrwt>
<rscale>  0 0.13405010E+03</rscale>
<asrwt>0</asrwt>
<pdfrwt beam="2">  1        2 0.64168973E-01 0.14876483E+03</pdfrwt>
<pdfrwt beam="1">  1       -2 0.62741240E-02 0.14876483E+03</pdfrwt>
<totfact> 0.10065493E+04</totfact>
</mgrwt>
</event>
<event>
 8    1  0.1550723E-005  0.2521877E+03  0.7546771E-02  0.1114004E+00
         -2   -1    0    0    0  501 -0.00000000000E+00  0.00000000000E+00  0.14315478382E+03  0.14315478382E+03  0.00000000000E+00 0. -1.
          2   -1    0    0  501    0  0.00000000000E+00 -0.00000000000E+00 -0.43225332589E+03  0.43225332589E+03  0.00000000000E+00 0.  1.
         23    2    1    2    0    0  0.12358534413E+03 -0.18082454932E+03 -0.10356115959E+03  0.27262345466E+03  0.12501111684E+03 0.  0.
         23    2    1    2    0    0 -0.12358534413E+03  0.18082454932E+03 -0.18553738248E+03  0.30278465505E+03  0.96351295360E+02 0.  0.
          5    1    3    3  502    0  0.15770116459E+02  0.15351994981E+02 -0.28844667609E+02  0.36585313617E+02  0.47000000000E+01 0. -1.
         -5    1    3    3    0  502  0.10781522768E+03 -0.19617654430E+03 -0.74716491979E+02  0.23603814104E+03  0.47000000000E+01 0. -1.
        -11    1    4    4    0    0 -0.24591393960E+02  0.63073240753E+02 -0.84700251769E+01  0.68225447470E+02  0.00000000000E+00 0.  1.
         11    1    4    4    0    0 -0.98993950174E+02  0.11775130856E+03 -0.17706735730E+03  0.23455920758E+03  0.00000000000E+00 0. -1.
<mgrwt>
<rscale>  0 0.24889665E+03</rscale>
<asrwt>0</asrwt>
<pdfrwt beam="2">  1        2 0.66500511E-01 0.25218770E+03</pdfrwt>
<pdfrwt beam="1">  1       -2 0.22023813E-01 0.25218770E+03</pdfrwt>
<totfact> 0.13018078E+03</totfact>
</mgrwt>
</event>
<event>
 8    1  0.1550723E-005  0.1571341E+03  0.7546771E-02  0.1199965E+00
         -2   -1    0    0    0  501 -0.00000000000E+00  0.00000000000E+00  0.42368280687E+02  0.42368280687E+02  0.00000000000E+00 0.  1.
          2   -1    0    0  501    0  0.00000000000E+00 -0.00000000000E+00 -0.50852815340E+03  0.50852815340E+03  0.00000000000E+00 0. -1.
         23    2    1    2    0    0  0.17897172188E+02 -0.93520195529E+02 -0.30067146905E+03  0.33925574275E+03  0.12499916377E+03 0.  0.
         23    2    1    2    0    0 -0.17897172188E+02  0.93520195529E+02 -0.16548840367E+03  0.21164069134E+03  0.91318315462E+02 0.  0.
          5    1    3    3  502    0 -0.25252998053E+02 -0.95621211262E+02 -0.26546353759E+03  0.28332686026E+03  0.47000000000E+01 0. -1.
         -5    1    3    3    0  502  0.43150170241E+02  0.21010157329E+01 -0.35207931455E+02  0.55928882487E+02  0.47000000000E+01 0. -1.
        -11    1    4    4    0    0 -0.10950563821E+01  0.10645531298E+03 -0.15485296874E+03  0.18791853218E+03  0.00000000000E+00 0. -1.
         11    1    4    4    0    0 -0.16802115806E+02 -0.12935117452E+02 -0.10635434930E+02  0.23722159160E+02  0.00000000000E+00 0.  1.
<mgrwt>
<rscale>  0 0.15041400E+03</rscale>
<asrwt>0</asrwt>
<pdfrwt beam="2">  1        2 0.78235101E-01 0.15713410E+03</pdfrwt>
<pdfrwt beam="1">  1       -2 0.65181970E-02 0.15713410E+03</pdfrwt>
<totfact> 0.76773664E+03</totfact>
</mgrwt>
</event>
<event>
 8    1  0.1550723E-005  0.1298924E+03  0.7546771E-02  0.1243061E+00
         -1   -1    0    0    0  501 -0.00000000000E+00  0.00000000000E+00  0.49367343762E+03  0.49367343762E+03  0.00000000000E+00 0.  1.
          1   -1    0    0  501    0  0.00000000000E+00 -0.00000000000E+00 -0.25948627137E+02  0.25948627137E+02  0.00000000000E+00 0. -1.
         23    2    1    2    0    0  0.19166115423E+02  0.13913162595E+02  0.30210983840E+03  0.32885010395E+03  0.12771499651E+03 0.  0.
         23    2    1    2    0    0 -0.19166115423E+02 -0.13913162595E+02  0.16561497208E+03  0.19077196081E+03  0.91677183531E+02 0.  0.
          5    1    3    3  502    0  0.48332985866E+02  0.58350572473E+02  0.16139957874E+03  0.17836137712E+03  0.47000000000E+01 0. -1.
         -5    1    3    3    0  502 -0.29166870443E+02 -0.44437409877E+02  0.14071025966E+03  0.15048872682E+03  0.47000000000E+01 0.  1.
        -11    1    4    4    0    0  0.20177778873E+02 -0.40256706625E+02  0.59905811608E+02  0.74942988017E+02  0.00000000000E+00 0.  1.
         11    1    4    4    0    0 -0.39343894296E+02  0.26343544029E+02  0.10570916047E+03  0.11582897279E+03  0.00000000000E+00 0. -1.
<mgrwt>
<rscale>  0 0.12002186E+03</rscale>
<asrwt>0</asrwt>
<pdfrwt beam="2">  1        1 0.39920968E-02 0.12989240E+03</pdfrwt>
<pdfrwt beam="1">  1       -1 0.75949753E-01 0.12989240E+03</pdfrwt>
<totfact> 0.39593118E+03</totfact>
</mgrwt>
</event>
<event>
 8    1  0.1550723E-005  0.1256372E+03  0.7546771E-02  0.1250581E+00
         -1   -1    0    0    0  501 -0.00000000000E+00  0.00000000000E+00  0.48375353897E+03  0.48375353897E+03  0.00000000000E+00 0.  1.
          1   -1    0    0  501    0  0.00000000000E+00 -0.00000000000E+00 -0.28954590061E+02  0.28954590061E+02  0.00000000000E+00 0. -1.
         23    2    1    2    0    0 -0.50190846003E+01 -0.11586602817E+02  0.36319128446E+03  0.38430797140E+03  0.12500106879E+03 0.  0.
         23    2    1    2    0    0  0.50190846003E+01  0.11586602817E+02  0.91607664447E+02  0.12840015763E+03  0.89079715531E+02 0.  0.
          5    1    3    3  502    0 -0.63764924146E+02  0.57786089753E+01  0.18557539425E+03  0.19636617536E+03  0.47000000000E+01 0.  1.
         -5    1    3    3    0  502  0.58745839545E+02 -0.17365211793E+02  0.17761589021E+03  0.18794179604E+03  0.47000000000E+01 0.  1.
        -11    1    4    4    0    0 -0.34174526332E+02  0.31064687538E+02  0.48383623103E+02  0.66887129154E+02  0.00000000000E+00 0. -1.
         11    1    4    4    0    0  0.39193610933E+02 -0.19478084721E+02  0.43224041344E+02  0.61513028477E+02  0.00000000000E+00 0.  1.
<mgrwt>
<rscale>  0 0.11557486E+03</rscale>
<asrwt>0</asrwt>
<pdfrwt beam="2">  1        1 0.44545527E-02 0.12563721E+03</pdfrwt>
<pdfrwt beam="1">  1       -1 0.74423616E-01 0.12563721E+03</pdfrwt>
<totfact> 0.35406582E+03</totfact>
</mgrwt>
</event>
<event>
 8    1  0.1550723E-005  0.2770247E+03  0.7546771E-02  0.1099258E+00
          2   -1    0    0  501    0  0.00000000000E+00  0.00000000000E+00  0.33658739570E+03  0.33658739570E+03  0.00000000000E+00 0. -1.
         -2   -1    0    0    0  501 -0.00000000000E+00 -0.00000000000E+00 -0.24291822555E+03  0.24291822555E+03  0.00000000000E+00 0.  1.
         23    2    1    2    0    0 -0.20333612995E+03 -0.14014886114E+03 -0.46818111243E+02  0.28095308381E+03  0.12552057498E+03 0.  0.
         23    2    1    2    0    0  0.20333612995E+03  0.14014886114E+03  0.14048728140E+03  0.29855253744E+03  0.91704178522E+02 0.  0.
          5    1    3    3  502    0 -0.42555131259E+02  0.11925243020E+02 -0.39523175717E+02  0.59475390174E+02  0.47000000000E+01 0. -1.
         -5    1    3    3    0  502 -0.16078099869E+03 -0.15207410416E+03 -0.72949355263E+01  0.22147769364E+03  0.47000000000E+01 0. -1.
        -11    1    4    4    0    0  0.66984375458E+02  0.10057528842E+03  0.74778562774E+02  0.14210604719E+03  0.00000000000E+00 0. -1.
         11    1    4    4    0    0  0.13635175449E+03  0.39573572716E+02  0.65708718623E+02  0.15644649025E+03  0.00000000000E+00 0.  1.
<mgrwt>
<rscale>  0 0.27356242E+03</rscale>
<asrwt>0</asrwt>
<pdfrwt beam="1">  1        2 0.51782676E-01 0.27702473E+03</pdfrwt>
<pdfrwt beam="2">  1       -2 0.37372035E-01 0.27702473E+03</pdfrwt>
<totfact> 0.65670477E+02</totfact>
</mgrwt>
</event>
<event>
 8    1  0.1550723E-005  0.1688589E+03  0.7546771E-02  0.1185600E+00
          1   -1    0    0  501    0  0.00000000000E+00  0.00000000000E+00  0.48301438251E+03  0.48301438251E+03  0.00000000000E+00 0. -1.
         -1   -1    0    0    0  501 -0.00000000000E+00 -0.00000000000E+00 -0.53015801912E+02  0.53015801912E+02  0.00000000000E+00 0.  1.
         23    2    1    2    0    0 -0.22746505899E+02  0.11122252104E+03  0.18139622284E+03  0.24782640744E+03  0.12500194337E+03 0.  0.
         23    2    1    2    0    0  0.22746505899E+02 -0.11122252104E+03  0.24860235776E+03  0.28820377698E+03  0.91490065381E+02 0.  0.
          5    1    3    3  502    0  0.35366570131E+02  0.83321109933E+02  0.15165632112E+03  0.17667747841E+03  0.47000000000E+01 0.  1.
         -5    1    3    3    0  502 -0.58113076029E+02  0.27901411111E+02  0.29739901720E+02  0.71148929028E+02  0.47000000000E+01 0.  1.
        -11    1    4    4    0    0  0.23485736569E+02 -0.99676236773E+02  0.25513314789E+03  0.27491790620E+03  0.00000000000E+00 0. -1.
         11    1    4    4    0    0 -0.73923067067E+00 -0.11546284271E+02 -0.65307901323E+01  0.13285870773E+02  0.00000000000E+00 0.  1.
<mgrwt>
<rscale>  0 0.16277363E+03</rscale>
<asrwt>0</asrwt>
<pdfrwt beam="1">  1        1 0.74309902E-01 0.16885893E+03</pdfrwt>
<pdfrwt beam="2">  1       -1 0.81562775E-02 0.16885893E+03</pdfrwt>
<totfact> 0.38658716E+03</totfact>
</mgrwt>
</event>
<event>
 8    1  0.1550723E-005  0.1321604E+03  0.7546771E-02  0.1236947E+00
         -3   -1    0    0    0  501 -0.00000000000E+00  0.00000000000E+00  0.35642882199E+03  0.35642882199E+03  0.00000000000E+00 0.  1.
          3   -1    0    0  501    0  0.00000000000E+00 -0.00000000000E+00 -0.38792684816E+02  0.38792684816E+02  0.00000000000E+00 0. -1.
         23    2    1    2    0    0 -0.16621464413E+01 -0.42877662955E+02  0.19927323646E+03  0.23911543187E+03  0.12500044111E+03 0.  0.
         23    2    1    2    0    0  0.16621464413E+01  0.42877662955E+02  0.11836290071E+03  0.15610607493E+03  0.92293410682E+02 0.  0.
          5    1    3    3  502    0  0.18227118037E+02  0.29810871643E+01  0.18628333047E+03  0.18725566460E+03  0.47000000000E+01 0. -1.
         -5    1    3    3    0  502 -0.19889264478E+02 -0.45858750119E+02  0.12989905990E+02  0.51859767273E+02  0.47000000000E+01 0. -1.
        -11    1    4    4    0    0  0.46291044052E+02  0.30205328446E+02  0.60667665217E+02  0.82071847967E+02  0.00000000000E+00 0. -1.
         11    1    4    4    0    0 -0.44628897610E+02  0.12672334509E+02  0.57695235494E+02  0.74034226967E+02  0.00000000000E+00 0.  1.
<mgrwt>
<rscale>  0 0.12380621E+03</rscale>
<asrwt>0</asrwt>
<pdfrwt beam="2">  1        3 0.59681056E-02 0.13216038E+03</pdfrwt>
<pdfrwt beam="1">  1       -3 0.54835201E-01 0.13216038E+03</pdfrwt>
<totfact> 0.13036488E+03</totfact>
</mgrwt>
</event>
<event>
 8    1  0.1550723E-005  0.3933985E+03  0.7546771E-02  0.1046599E+00
          1   -1    0    0  501    0  0.00000000000E+00  0.00000000000E+00  0.12076026941E+04  0.12076026941E+04  0.00000000000E+00 0. -1.
         -1   -1    0    0    0  501 -0.00000000000E+00 -0.00000000000E+00 -0.13440820215E+03  0.13440820215E+03  0.00000000000E+00 0.  1.
         23    2    1    2    0    0 -0.11749955037E+03  0.35768052191E+03  0.37551265865E+03  0.54384935903E+03  0.11410901990E+03 0.  0.
         23    2    1    2    0    0  0.11749955037E+03 -0.35768052191E+03  0.69768183330E+03  0.79816153721E+03  0.92522423648E+02 0.  0.
          5    1    3    3  502    0 -0.17336058355E+01  0.12748242165E+02  0.62154331519E+02  0.63645691088E+02  0.47000000000E+01 0. -1.
         -5    1    3    3    0  502 -0.11576594453E+03  0.34493227975E+03  0.31335832713E+03  0.48020366794E+03  0.47000000000E+01 0.  1.
        -11    1    4    4    0    0 -0.95261585951E+01 -0.98807912972E+02  0.17242141053E+03  0.19895450277E+03  0.00000000000E+00 0.  1.
         11    1    4    4    0    0  0.12702570896E+03 -0.25887260894E+03  0.52526042277E+03  0.59920703445E+03  0.00000000000E+00 0. -1.
<mgrwt>
<rscale>  0 0.39196300E+03</rscale>
<asrwt>0</asrwt>
<pdfrwt beam="1">  1        1 0.18578502E+00 0.39339849E+03</pdfrwt>
<pdfrwt beam="2">  1       -1 0.20678186E-01 0.39339849E+03</pdfrwt>
<totfact> 0.21375442E+02</totfact>
</mgrwt>
</event>
<event>
 8    1  0.1550723E-005  0.1581346E+03  0.7546771E-02  0.1195625E+00
         -1   -1    0    0    0  501 -0.00000000000E+00  0.00000000000E+00  0.38333663105E+02  0.38333663105E+02  0.00000000000E+00 0.  1.
          1   -1    0    0  501    0  0.00000000000E+00 -0.00000000000E+00 -0.60472940449E+03  0.60472940449E+03  0.00000000000E+00 0. -1.
         23    2    1    2    0    0 -0.52999836654E+01  0.11256943831E+03 -0.24531082429E+03  0.29186287501E+03  0.11093497657E+03 0.  0.
         23    2    1    2    0    0  0.52999836654E+01 -0.11256943831E+03 -0.32108491709E+03  0.35120019258E+03  0.86868193364E+02 0.  0.
          5    1    3    3  502    0  0.35365691506E+02  0.35329169741E+00 -0.34894227316E+02  0.49905451112E+02  0.47000000000E+01 0. -1.
         -5    1    3    3    0  502 -0.40665675171E+02  0.11221614661E+03 -0.21041659697E+03  0.24195742390E+03  0.47000000000E+01 0.  1.
        -11    1    4    4    0    0  0.11696873836E+02 -0.50525172569E+02 -0.46614240840E+02  0.69731609545E+02  0.00000000000E+00 0.  1.
         11    1    4    4    0    0 -0.63968901707E+01 -0.62044265738E+02 -0.27447067625E+03  0.28146858304E+03  0.00000000000E+00 0. -1.
<mgrwt>
<rscale>  0 0.15401486E+03</rscale>
<asrwt>0</asrwt>
<pdfrwt beam="2">  1        1 0.93035292E-01 0.15813455E+03</pdfrwt>
<pdfrwt beam="1">  1       -1 0.58974867E-02 0.15813455E+03</pdfrwt>
<totfact> 0.46528138E+03</totfact>
</mgrwt>
</event>
<event>
 7    1  0.1550723E-005  0.1857916E+03  0.7546771E-02  0.1180202E+00
          2   -1    0    0  501    0  0.00000000000E+00  0.00000000000E+00  0.19173364729E+03  0.19173364729E+03  0.00000000000E+00 0. -1.
         -2   -1    0    0    0  501 -0.00000000000E+00 -0.00000000000E+00 -0.21264559997E+03  0.21264559997E+03  0.00000000000E+00 0.  1.
         23    2    1    2    0    0  0.55999797460E+02  0.63718552434E+02  0.11922320979E+03  0.17166403793E+03  0.89768240082E+02 0.  0.
          5    1    1    2  502    0  0.24606414729E+02 -0.71686803195E+02 -0.62892529814E+01  0.76197887774E+02  0.47000000000E+01 0. -1.
         -5    1    1    2    0  502 -0.80606212189E+02  0.79682507607E+01 -0.13384590948E+03  0.15651732156E+03  0.47000000000E+01 0.  1.
        -11    1    3    3    0    0  0.62894599999E+02  0.47891021172E+02  0.12939054717E+03  0.15162847462E+03  0.00000000000E+00 0. -1.
         11    1    3    3    0    0 -0.68948025394E+01  0.15827531262E+02 -0.10167337382E+02  0.20035563315E+02  0.00000000000E+00 0.  1.
<mgrwt>
<rscale>  0 0.16776207E+03</rscale>
<asrwt>0</asrwt>
<pdfrwt beam="1">  1        2 0.29497484E-01 0.18579156E+03</pdfrwt>
<pdfrwt beam="2">  1       -2 0.32714708E-01 0.18579156E+03</pdfrwt>
<totfact> 0.15395729E+03</totfact>
</mgrwt>
</event>
<event>
 8    1  0.1550723E-005  0.1551848E+03  0.7546771E-02  0.1202274E+00
         -2   -1    0    0    0  501 -0.00000000000E+00  0.00000000000E+00  0.10574635934E+03  0.10574635934E+03  0.00000000000E+00 0.  1.
          2   -1    0    0  501    0  0.00000000000E+00 -0.00000000000E+00 -0.23732069842E+03  0.23732069842E+03  0.00000000000E+00 0. -1.
         23    2    1    2    0    0  0.89483774522E+02 -0.21211960807E+02  0.37424648073E+01  0.15522994233E+03  0.12500014307E+03 0.  0.
         23    2    1    2    0    0 -0.89483774522E+02  0.21211960807E+02 -0.13531680389E+03  0.18783711543E+03  0.92275952092E+02 0.  0.
          5    1    3    3  502    0 -0.11430947235E+02 -0.48127840654E+02  0.92227899750E+01  0.50538158412E+02  0.47000000000E+01 0.  1.
         -5    1    3    3    0  502  0.10091472176E+03  0.26915879847E+02 -0.54803251677E+01  0.10469178391E+03  0.47000000000E+01 0.  1.
        -11    1    4    4    0    0 -0.38106705650E+02  0.19882703440E+02 -0.12910136097E+03  0.13606838103E+03  0.00000000000E+00 0. -1.
         11    1    4    4    0    0 -0.51377068872E+02  0.13292573674E+01 -0.62154429213E+01  0.51768734403E+02  0.00000000000E+00 0.  1.
<mgrwt>
<rscale>  0 0.14854363E+03</rscale>
<asrwt>0</asrwt>
<pdfrwt beam="2">  1        2 0.36510876E-01 0.15518482E+03</pdfrwt>
<pdfrwt beam="1">  1       -2 0.16268671E-01 0.15518482E+03</pdfrwt>
<totfact> 0.40847178E+03</totfact>
</mgrwt>
</event>
<event>
 8    1  0.1550723E-005  0.1460387E+03  0.7546771E-02  0.1212804E+00
         -2   -1    0    0    0  501 -0.00000000000E+00  0.00000000000E+00  0.20658414595E+03  0.20658414595E+03  0.00000000000E+00 0. -1.
          2   -1    0    0  501    0  0.00000000000E+00 -0.00000000000E+00 -0.90346752882E+02  0.90346752882E+02  0.00000000000E+00 0.  1.
         23    2    1    2    0    0  0.74901187232E+02  0.96060205724E+01  0.42750678693E+02  0.15216739046E+03  0.12499932284E+03 0.  0.
         23    2    1    2    0    0 -0.74901187232E+02 -0.96060205724E+01  0.73486714377E+02  0.14476350838E+03  0.99265868694E+02 0.  0.
          5    1    3    3  502    0  0.13907100114E+02  0.20661527621E+02 -0.40796949724E+02  0.48029025224E+02  0.47000000000E+01 0.  1.
         -5    1    3    3    0  502  0.60994087118E+02 -0.11055507049E+02  0.83547628417E+02  0.10413836523E+03  0.47000000000E+01 0.  1.
        -11    1    4    4    0    0 -0.28028607771E+02 -0.33530067621E+02  0.80574696737E+02  0.91663242592E+02  0.00000000000E+00 0. -1.
         11    1    4    4    0    0 -0.46872579460E+02  0.23924047048E+02 -0.70879823598E+01  0.53100265784E+02  0.00000000000E+00 0.  1.
<mgrwt>
<rscale>  0 0.14039084E+03</rscale>
<asrwt>0</asrwt>
<pdfrwt beam="2">  1        2 0.13899501E-01 0.14603867E+03</pdfrwt>
<pdfrwt beam="1">  1       -2 0.31782176E-01 0.14603867E+03</pdfrwt>
<totfact> 0.37775897E+03</totfact>
</mgrwt>
</event>
<event>
 7    1  0.1550723E-005  0.1543074E+03  0.7546771E-02  0.1210508E+00
          3   -1    0    0  501    0  0.00000000000E+00  0.00000000000E+00  0.12242316848E+03  0.12242316848E+03  0.00000000000E+00 0. -1.
         -3   -1    0    0    0  501 -0.00000000000E+00 -0.00000000000E+00 -0.17043436980E+03  0.17043436980E+03  0.00000000000E+00 0.  1.
         23    2    1    2    0    0 -0.67816093832E+02 -0.80929851603E+01 -0.77969491878E+02  0.13566884599E+03  0.87534422464E+02 0.  0.
          5    1    1    2  502    0  0.23155671066E+02  0.72048539480E+02  0.19941163610E+02  0.78402277708E+02  0.47000000000E+01 0. -1.
         -5    1    1    2    0  502  0.44660422766E+02 -0.63955554320E+02  0.10017126948E+02  0.78786414579E+02  0.47000000000E+01 0.  1.
        -11    1    3    3    0    0 -0.36823505330E+02  0.31719970822E+02 -0.77698876097E+01  0.49218881003E+02  0.00000000000E+00 0. -1.
         11    1    3    3    0    0 -0.30992588502E+02 -0.39812955983E+02 -0.70199604269E+02  0.86449964983E+02  0.00000000000E+00 0.  1.
<mgrwt>
<rscale>  0 0.14211713E+03</rscale>
<asrwt>0</asrwt>
<pdfrwt beam="1">  1        3 0.18834334E-01 0.15430744E+03</pdfrwt>
<pdfrwt beam="2">  1       -3 0.26220672E-01 0.15430744E+03</pdfrwt>
<totfact> 0.80934707E+02</totfact>
</mgrwt>
</event>
<event>
 7    1  0.1550723E-005  0.1523022E+03  0.7546771E-02  0.1219651E+00
         -2   -1    0    0    0  501 -0.00000000000E+00  0.00000000000E+00  0.35781999183E+03  0.35781999183E+03  0.00000000000E+00 0.  1.
          2   -1    0    0  501    0  0.00000000000E+00 -0.00000000000E+00 -0.48907617271E+02  0.48907617271E+02  0.00000000000E+00 0. -1.
         23    2    1    2    0    0 -0.23315280719E+02  0.97408027256E+01  0.52975628370E+02  0.10890284420E+03  0.91732909698E+02 0.  0.
          5    1    1    2  502    0 -0.68131435451E+01 -0.26645164339E+02 -0.99798663112E+01  0.29632270234E+02  0.47000000000E+01 0. -1.
         -5    1    1    2    0  502  0.30128424264E+02  0.16904361613E+02  0.26591661250E+03  0.26819249466E+03  0.47000000000E+01 0.  1.
        -11    1    3    3    0    0  0.92181081079E+01 -0.12630478325E+02  0.65610159264E+02  0.67447724191E+02  0.00000000000E+00 0.  1.
         11    1    3    3    0    0 -0.32533388827E+02  0.22371281050E+02 -0.12634530894E+02  0.41455120013E+02  0.00000000000E+00 0. -1.
<mgrwt>
<rscale>  0 0.13540393E+03</rscale>
<asrwt>0</asrwt>
<pdfrwt beam="2">  1        2 0.75242490E-02 0.15230224E+03</pdfrwt>
<pdfrwt beam="1">  1       -2 0.55049228E-01 0.15230224E+03</pdfrwt>
<totfact> 0.28080955E+03</totfact>
</mgrwt>
</event>
<event>
 8    1  0.1550723E-005  0.1256269E+03  0.7546771E-02  0.1249584E+00
          2   -1    0    0  501    0  0.00000000000E+00  0.00000000000E+00  0.41845678069E+03  0.41845678069E+03  0.00000000000E+00 0. -1.
         -2   -1    0    0    0  501 -0.00000000000E+00 -0.00000000000E+00 -0.28336647455E+02  0.28336647455E+02  0.00000000000E+00 0.  1.
         23    2    1    2    0    0  0.12455599319E+02 -0.17969413828E+01  0.21266964107E+03  0.24700303663E+03  0.12499501156E+03 0.  0.
         23    2    1    2    0    0 -0.12455599319E+02  0.17969413828E+01  0.17745049216E+03  0.19979039151E+03  0.90934880119E+02 0.  0.
          5    1    3    3  502    0 -0.39884922018E+02 -0.41304549927E+02  0.12290101582E+03  0.13573364556E+03  0.47000000000E+01 0. -1.
         -5    1    3    3    0  502  0.52340521338E+02  0.39507608544E+02  0.89768625259E+02  0.11126939106E+03  0.47000000000E+01 0. -1.
        -11    1    4    4    0    0 -0.48782797385E+02 -0.71437095918E+01  0.67065556510E+02  0.83238108925E+02  0.00000000000E+00 0.  1.
         11    1    4    4    0    0  0.36327198065E+02  0.89406509746E+01  0.11038493565E+03  0.11655228259E+03  0.00000000000E+00 0. -1.
<mgrwt>
<rscale>  0 0.11615142E+03</rscale>
<asrwt>0</asrwt>
<pdfrwt beam="1">  1        2 0.64377962E-01 0.12562692E+03</pdfrwt>
<pdfrwt beam="2">  1       -2 0.43594845E-02 0.12562692E+03</pdfrwt>
<totfact> 0.17125775E+04</totfact>
</mgrwt>
</event>
<event>
 8    1  0.1550723E-005  0.3994931E+03  0.7546771E-02  0.1044793E+00
          1   -1    0    0  501    0  0.00000000000E+00  0.00000000000E+00  0.15804777559E+04  0.15804777559E+04  0.00000000000E+00 0. -1.
         -1   -1    0    0    0  501 -0.00000000000E+00 -0.00000000000E+00 -0.10469650071E+03  0.10469650071E+03  0.00000000000E+00 0.  1.
         23    2    1    2    0    0 -0.17797993990E+03 -0.33510580926E+03  0.54266658322E+03  0.67385591339E+03  0.12498803563E+03 0.  0.
         23    2    1    2    0    0  0.17797993990E+03  0.33510580926E+03  0.93311467201E+03  0.10113183433E+04  0.89939078963E+02 0.  0.
          5    1    3    3  502    0 -0.52174539706E+02 -0.18858442576E+03  0.35008052336E+03  0.40107945730E+03  0.47000000000E+01 0.  1.
         -5    1    3    3    0  502 -0.12580540019E+03 -0.14652138350E+03  0.19258605986E+03  0.27277645608E+03  0.47000000000E+01 0.  1.
        -11    1    4    4    0    0  0.98055111681E+02  0.14830051711E+03  0.54453128369E+03  0.57281948921E+03  0.00000000000E+00 0.  1.
         11    1    4    4    0    0  0.79924828216E+02  0.18680529215E+03  0.38858338832E+03  0.43849885406E+03  0.00000000000E+00 0. -1.
<mgrwt>
<rscale>  0 0.39708594E+03</rscale>
<asrwt>0</asrwt>
<pdfrwt beam="1">  1        1 0.24315041E+00 0.39949314E+03</pdfrwt>
<pdfrwt beam="2">  1       -1 0.16107155E-01 0.39949314E+03</pdfrwt>
<totfact> 0.17851679E+02</totfact>
</mgrwt>
</event>
<event>
 8    1  0.1550723E-005  0.1350779E+03  0.7546771E-02  0.1232713E+00
          1   -1    0    0  501    0  0.00000000000E+00  0.00000000000E+00  0.37076696427E+02  0.37076696427E+02  0.00000000000E+00 0. -1.
         -1   -1    0    0    0  501 -0.00000000000E+00 -0.00000000000E+00 -0.38902844549E+03  0.38902844549E+03  0.00000000000E+00 0.  1.
         23    2    1    2    0    0  0.45067146022E+02  0.24216975245E+02 -0.21936984970E+03  0.25762212347E+03  0.12501407122E+03 0.  0.
         23    2    1    2    0    0 -0.45067146022E+02 -0.24216975245E+02 -0.13258189936E+03  0.16848301844E+03  0.90504463565E+02 0.  0.
          5    1    3    3  502    0 -0.80308449299E+00  0.69698498918E+02 -0.12430224532E+03  0.14258914365E+03  0.47000000000E+01 0.  1.
         -5    1    3    3    0  502  0.45870230514E+02 -0.45481523673E+02 -0.95067604384E+02  0.11503297982E+03  0.47000000000E+01 0.  1.
        -11    1    4    4    0    0  0.48520401100E+01 -0.92217951778E+01  0.11347644362E+02  0.15406259510E+02  0.00000000000E+00 0. -1.
         11    1    4    4    0    0 -0.49919186131E+02 -0.14995180067E+02 -0.14392954372E+03  0.15307675893E+03  0.00000000000E+00 0.  1.
<mgrwt>
<rscale>  0 0.12651999E+03</rscale>
<asrwt>0</asrwt>
<pdfrwt beam="1">  1        1 0.57041071E-02 0.13507786E+03</pdfrwt>
<pdfrwt beam="2">  1       -1 0.59850530E-01 0.13507786E+03</pdfrwt>
<totfact> 0.38805135E+03</totfact>
</mgrwt>
</event>
<event>
 8    1  0.1550723E-005  0.1871194E+03  0.7546771E-02  0.1166001E+00
         -3   -1    0    0    0  501 -0.00000000000E+00  0.00000000000E+00  0.31037401076E+03  0.31037401076E+03  0.00000000000E+00 0.  1.
          3   -1    0    0  501    0  0.00000000000E+00 -0.00000000000E+00 -0.11710141012E+03  0.11710141012E+03  0.00000000000E+00 0. -1.
         23    2    1    2    0    0  0.37059310531E+02 -0.13422604807E+03  0.18048830793E+03  0.25998021807E+03  0.12499463992E+03 0.  0.
         23    2    1    2    0    0 -0.37059310531E+02  0.13422604807E+03  0.12784292709E+02  0.16749520282E+03  0.92201845686E+02 0.  0.
          5    1    3    3  502    0 -0.38727750030E+02 -0.34817496349E+02  0.95089054975E+02  0.10851780983E+03  0.47000000000E+01 0. -1.
         -5    1    3    3    0  502  0.75787060561E+02 -0.99408551724E+02  0.85399252954E+02  0.15146240824E+03  0.47000000000E+01 0. -1.
        -11    1    4    4    0    0 -0.49377425102E+02  0.66330990447E+02  0.41780012888E+02  0.92647179560E+02  0.00000000000E+00 0.  1.
         11    1    4    4    0    0  0.12318114571E+02  0.67895057626E+02 -0.28995720180E+02  0.74848023256E+02  0.00000000000E+00 0. -1.
<mgrwt>
<rscale>  0 0.18187483E+03</rscale>
<asrwt>0</asrwt>
<pdfrwt beam="2">  1        3 0.18015602E-01 0.18711944E+03</pdfrwt>
<pdfrwt beam="1">  1       -3 0.47749847E-01 0.18711944E+03</pdfrwt>
<totfact> 0.28661668E+02</totfact>
</mgrwt>
</event>
<event>
 8    1  0.1550723E-005  0.2226747E+03  0.7546771E-02  0.1135303E+00
         -1   -1    0    0    0  501 -0.00000000000E+00  0.00000000000E+00  0.14250246118E+03  0.14250246118E+03  0.00000000000E+00 0.  1.
          1   -1    0    0  501    0  0.00000000000E+00 -0.00000000000E+00 -0.59549302990E+03  0.59549302990E+03  0.00000000000E+00 0. -1.
         23    2    1    2    0    0  0.16498972303E+03  0.82079158991E+02  0.18943159458E+02  0.22347897102E+03  0.12500164059E+03 0.  0.
         23    2    1    2    0    0 -0.16498972303E+03 -0.82079158991E+02 -0.47193372818E+03  0.51451652006E+03  0.89706234861E+02 0.  0.
          5    1    3    3  502    0  0.17605090248E+03  0.91667160969E+02 -0.68919417155E+00  0.19854307758E+03  0.47000000000E+01 0.  1.
         -5    1    3    3    0  502 -0.11061179451E+02 -0.95880019777E+01  0.19632353630E+02  0.24935893443E+02  0.47000000000E+01 0.  1.
        -11    1    4    4    0    0 -0.10026584910E+02 -0.42651789713E+02 -0.79850381564E+02  0.91081233010E+02  0.00000000000E+00 0.  1.
         11    1    4    4    0    0 -0.15496313812E+03 -0.39427369278E+02 -0.39208334661E+03  0.42343528705E+03  0.00000000000E+00 0. -1.
<mgrwt>
<rscale>  0 0.21810558E+03</rscale>
<asrwt>0</asrwt>
<pdfrwt beam="2">  1        1 0.91614311E-01 0.22267467E+03</pdfrwt>
<pdfrwt beam="1">  1       -1 0.21923456E-01 0.22267467E+03</pdfrwt>
<totfact> 0.61998198E+02</totfact>
</mgrwt>
</event>
<event>
 8    1  0.1550723E-005  0.1358104E+03  0.7546771E-02  0.1231100E+00
         -2   -1    0    0    0  501 -0.00000000000E+00  0.00000000000E+00  0.38656499311E+03  0.38656499311E+03  0.00000000000E+00 0.  1.
          2   -1    0    0  501    0  0.00000000000E+00 -0.00000000000E+00 -0.60116710582E+02  0.60116710582E+02  0.00000000000E+00 0. -1.
         23    2    1    2    0    0 -0.20883857544E+02 -0.48812367610E+02  0.31158882909E+03  0.33990008459E+03  0.12500274538E+03 0.  0.
         23    2    1    2    0    0  0.20883857544E+02  0.48812367610E+02  0.14859453436E+02  0.10678161910E+03  0.91447952870E+02 0.  0.
          5    1    3    3  502    0 -0.24794522987E+02 -0.85633474558E+02  0.15450420900E+03  0.17844186990E+03  0.47000000000E+01 0. -1.
         -5    1    3    3    0  502  0.39106654431E+01  0.36821106948E+02  0.15708462009E+03  0.16145821469E+03  0.47000000000E+01 0. -1.
        -11    1    4    4    0    0  0.41851868715E+02 -0.43455994255E+01 -0.11835651148E+02  0.43709790521E+02  0.00000000000E+00 0. -1.
         11    1    4    4    0    0 -0.20968011171E+02  0.53157967035E+02  0.26695104584E+02  0.63071828581E+02  0.00000000000E+00 0.  1.
<mgrwt>
<rscale>  0 0.12757406E+03</rscale>
<asrwt>0</asrwt>
<pdfrwt beam="2">  1        2 0.92487249E-02 0.13581042E+03</pdfrwt>
<pdfrwt beam="1">  1       -2 0.59471536E-01 0.13581042E+03</pdfrwt>
<totfact> 0.18413759E+03</totfact>
</mgrwt>
</event>
<event>
 8    1  0.1550723E-005  0.1303876E+03  0.7546771E-02  0.1239870E+00
          1   -1    0    0  501    0  0.00000000000E+00  0.00000000000E+00  0.72817460605E+03  0.72817460605E+03  0.00000000000E+00 0. -1.
         -1   -1    0    0    0  501 -0.00000000000E+00 -0.00000000000E+00 -0.19749830816E+02  0.19749830816E+02  0.00000000000E+00 0.  1.
         23    2    1    2    0    0  0.36684453115E+02 -0.52186114287E+01  0.29363415956E+03  0.32128170771E+03  0.12501173160E+03 0.  0.
         23    2    1    2    0    0 -0.36684453115E+02  0.52186114287E+01  0.41479061567E+03  0.42664272916E+03  0.92735001438E+02 0.  0.
          5    1    3    3  502    0  0.64933464104E+02 -0.41054584397E+02  0.23211071643E+03  0.24453897101E+03  0.47000000000E+01 0. -1.
         -5    1    3    3    0  502 -0.28249010990E+02  0.35835972969E+02  0.61523443133E+02  0.76742736695E+02  0.47000000000E+01 0. -1.
        -11    1    4    4    0    0  0.16350176568E+02  0.33608141052E+02  0.11654550399E+03  0.12239154350E+03  0.00000000000E+00 0.  1.
         11    1    4    4    0    0 -0.53034629682E+02 -0.28389529623E+02  0.29824511168E+03  0.30425118566E+03  0.00000000000E+00 0. -1.
<mgrwt>
<rscale>  0 0.12197731E+03</rscale>
<asrwt>0</asrwt>
<pdfrwt beam="1">  1        1 0.11202684E+00 0.13038756E+03</pdfrwt>
<pdfrwt beam="2">  1       -1 0.30384361E-02 0.13038756E+03</pdfrwt>
<totfact> 0.94204105E+03</totfact>
</mgrwt>
</event>
<event>
 8    1  0.1550723E-005  0.1955900E+03  0.7546771E-02  0.1158013E+00
         -2   -1    0    0    0  501 -0.00000000000E+00  0.00000000000E+00  0.50259800659E+02  0.50259800659E+02  0.00000000000E+00 0.  1.
          2   -1    0    0  501    0  0.00000000000E+00 -0.00000000000E+00 -0.97081334953E+03  0.97081334953E+03  0.00000000000E+00 0. -1.
         23    2    1    2    0    0 -0.14918189417E+03 -0.19382527361E+02 -0.20159164554E+03  0.28088187480E+03  0.12499806449E+03 0.  0.
         23    2    1    2    0    0  0.14918189417E+03  0.19382527361E+02 -0.71896190333E+03  0.74019127539E+03  0.91356367057E+02 0.  0.
          5    1    3    3  502    0 -0.88496279000E+02  0.18313558709E+02 -0.30633973538E+02  0.95537993302E+02  0.47000000000E+01 0. -1.
         -5    1    3    3    0  502 -0.60685615168E+02 -0.37696086071E+02 -0.17095767200E+03  0.18534388150E+03  0.47000000000E+01 0. -1.
        -11    1    4    4    0    0  0.15888464118E+03  0.25810215054E+02 -0.69689259705E+03  0.71524107001E+03  0.00000000000E+00 0. -1.
         11    1    4    4    0    0 -0.97027470127E+01 -0.64276876922E+01 -0.22069306285E+02  0.24950205381E+02  0.00000000000E+00 0.  1.
<mgrwt>
<rscale>  0 0.19049768E+03</rscale>
<asrwt>0</asrwt>
<pdfrwt beam="2">  1        2 0.14935589E+00 0.19558997E+03</pdfrwt>
<pdfrwt beam="1">  1       -2 0.77322778E-02 0.19558997E+03</pdfrwt>
<totfact> 0.27132757E+03</totfact>
</mgrwt>
</event>
<event>
 8    1  0.1550723E-005  0.1323847E+03  0.7546771E-02  0.1231614E+00
          1   -1    0    0  501    0  0.00000000000E+00  0.00000000000E+00  0.71814454624E+02  0.71814454624E+02  0.00000000000E+00 0. -1.
         -1   -1    0    0    0  501 -0.00000000000E+00 -0.00000000000E+00 -0.21212705333E+03  0.21212705333E+03  0.00000000000E+00 0.  1.
         23    2    1    2    0    0 -0.43070830377E+02 -0.66423762507E+01 -0.91228582716E+02  0.16077428774E+03  0.12500599867E+03 0.  0.
         23    2    1    2    0    0  0.43070830377E+02  0.66423762507E+01 -0.49084015994E+02  0.12316722022E+03  0.10421950834E+03 0.  0.
          5    1    3    3  502    0 -0.77955406656E+02 -0.33801317952E+01 -0.19131766359E+02  0.80477234060E+02  0.47000000000E+01 0.  1.
         -5    1    3    3    0  502  0.34884576279E+02 -0.32622444555E+01 -0.72096816356E+02  0.80297053681E+02  0.47000000000E+01 0.  1.
        -11    1    4    4    0    0  0.31308286897E+02  0.17018638657E+02 -0.80510322686E+02  0.88044051186E+02  0.00000000000E+00 0.  1.
         11    1    4    4    0    0  0.11762543480E+02 -0.10376262406E+02  0.31426306692E+02  0.35123169033E+02  0.00000000000E+00 0. -1.
<mgrwt>
<rscale>  0 0.12723708E+03</rscale>
<asrwt>0</asrwt>
<pdfrwt beam="1">  1        1 0.11048378E-01 0.13238473E+03</pdfrwt>
<pdfrwt beam="2">  1       -1 0.32634931E-01 0.13238473E+03</pdfrwt>
<totfact> 0.47245138E+03</totfact>
</mgrwt>
</event>
<event>
 8    1  0.1550723E-005  0.1354115E+03  0.7546771E-02  0.1232808E+00
         -1   -1    0    0    0  501 -0.00000000000E+00  0.00000000000E+00  0.33530603138E+02  0.33530603138E+02  0.00000000000E+00 0.  1.
          1   -1    0    0  501    0  0.00000000000E+00 -0.00000000000E+00 -0.44674126654E+03  0.44674126654E+03  0.00000000000E+00 0. -1.
         23    2    1    2    0    0  0.48413191355E+02 -0.19166036321E+02 -0.17928805135E+03  0.22467858976E+03  0.12500035718E+03 0.  0.
         23    2    1    2    0    0 -0.48413191355E+02  0.19166036321E+02 -0.23392261205E+03  0.25559327992E+03  0.88864853923E+02 0.  0.
          5    1    3    3  502    0  0.69407374413E+02 -0.56141251647E+02 -0.96836244369E+02  0.13178987815E+03  0.47000000000E+01 0. -1.
         -5    1    3    3    0  502 -0.20994183059E+02  0.36975215326E+02 -0.82451806980E+02  0.92888711612E+02  0.47000000000E+01 0. -1.
        -11    1    4    4    0    0 -0.51730869268E+02 -0.25845615381E+02 -0.13463253334E+03  0.14652644029E+03  0.00000000000E+00 0. -1.
         11    1    4    4    0    0  0.33176779135E+01  0.45011651701E+02 -0.99290078714E+02  0.10906683963E+03  0.00000000000E+00 0.  1.
<mgrwt>
<rscale>  0 0.12645804E+03</rscale>
<asrwt>0</asrwt>
<pdfrwt beam="2">  1        1 0.68729419E-01 0.13541146E+03</pdfrwt>
<pdfrwt beam="1">  1       -1 0.51585548E-02 0.13541146E+03</pdfrwt>
<totfact> 0.83964269E+03</totfact>
</mgrwt>
</event>
<event>
 8    1  0.1550723E-005  0.1468761E+03  0.7546771E-02  0.1213437E+00
          3   -1    0    0  501    0  0.00000000000E+00  0.00000000000E+00  0.42122416458E+02  0.42122416458E+02  0.00000000000E+00 0. -1.
         -3   -1    0    0    0  501 -0.00000000000E+00 -0.00000000000E+00 -0.47681696843E+03  0.47681696843E+03  0.00000000000E+00 0.  1.
         23    2    1    2    0    0  0.77119570371E+02  0.43507922611E+00 -0.32065972268E+03  0.35269708737E+03  0.12499984106E+03 0.  0.
         23    2    1    2    0    0 -0.77119570371E+02 -0.43507922611E+00 -0.11403482929E+03  0.16624229751E+03  0.93193034943E+02 0.  0.
          5    1    3    3  502    0  0.90652226515E+02  0.43273529854E+02 -0.19997097366E+03  0.22383231416E+03  0.47000000000E+01 0. -1.
         -5    1    3    3    0  502 -0.13532656144E+02 -0.42838450628E+02 -0.12068874902E+03  0.12886477321E+03  0.47000000000E+01 0. -1.
        -11    1    4    4    0    0 -0.16723276892E+02  0.42877677721E+02 -0.51918803409E+02  0.69381016022E+02  0.00000000000E+00 0.  1.
         11    1    4    4    0    0 -0.60396293479E+02 -0.43312756947E+02 -0.62116025883E+02  0.96861281490E+02  0.00000000000E+00 0. -1.
<mgrwt>
<rscale>  0 0.13991952E+03</rscale>
<asrwt>0</asrwt>
<pdfrwt beam="1">  1        3 0.64803721E-02 0.14687606E+03</pdfrwt>
<pdfrwt beam="2">  1       -3 0.73356452E-01 0.14687606E+03</pdfrwt>
<totfact> 0.63366253E+02</totfact>
</mgrwt>
</event>
<event>
 8    1  0.1550723E-005  0.1256684E+03  0.7546771E-02  0.1248623E+00
         -2   -1    0    0    0  501 -0.00000000000E+00  0.00000000000E+00  0.51572055215E+03  0.51572055215E+03  0.00000000000E+00 0. -1.
          2   -1    0    0  501    0  0.00000000000E+00 -0.00000000000E+00 -0.23547483511E+02  0.23547483511E+02  0.00000000000E+00 0.  1.
         23    2    1    2    0    0 -0.61262215568E+01  0.11241171379E+02  0.31004600336E+03  0.33454606162E+03  0.12501459362E+03 0.  0.
         23    2    1    2    0    0  0.61262215568E+01 -0.11241171379E+02  0.18212706528E+03  0.20472197405E+03  0.92611685153E+02 0.  0.
          5    1    3    3  502    0 -0.35916364488E+02  0.46292080395E+02  0.76540899452E+02  0.96506690101E+02  0.47000000000E+01 0. -1.
         -5    1    3    3    0  502  0.29790142931E+02 -0.35050909016E+02  0.23350510391E+03  0.23803937152E+03  0.47000000000E+01 0. -1.
        -11    1    4    4    0    0 -0.38205924605E+02  0.13691140490E+02  0.60108078121E+02  0.72526692040E+02  0.00000000000E+00 0. -1.
         11    1    4    4    0    0  0.44332146162E+02 -0.24932311869E+02  0.12201898716E+03  0.13219528201E+03  0.00000000000E+00 0.  1.
<mgrwt>
<rscale>  0 0.11671147E+03</rscale>
<asrwt>0</asrwt>
<pdfrwt beam="2">  1        2 0.36226902E-02 0.12566839E+03</pdfrwt>
<pdfrwt beam="1">  1       -2 0.79341615E-01 0.12566839E+03</pdfrwt>
<totfact> 0.33292646E+03</totfact>
</mgrwt>
</event>
<event>
 8    1  0.1550723E-005  0.1904810E+03  0.7546771E-02  0.1165125E+00
         -3   -1    0    0    0  501 -0.00000000000E+00  0.00000000000E+00  0.12535730241E+03  0.12535730241E+03  0.00000000000E+00 0.  1.
          3   -1    0    0  501    0  0.00000000000E+00 -0.00000000000E+00 -0.24834159625E+03  0.24834159625E+03  0.00000000000E+00 0. -1.
         23    2    1    2    0    0 -0.11455979231E+03  0.86799307733E+02 -0.53594166640E+02  0.19787712722E+03  0.12499982777E+03 0.  0.
         23    2    1    2    0    0  0.11455979231E+03 -0.86799307733E+02 -0.69390127203E+02  0.17582177144E+03  0.73757980724E+02 0.  0.
          5    1    3    3  502    0 -0.80064589904E+02 -0.16017616344E+02 -0.26839232575E+02  0.86077505744E+02  0.47000000000E+01 0.  1.
         -5    1    3    3    0  502 -0.34495202411E+02  0.10281692408E+03 -0.26754934065E+02  0.11179962148E+03  0.47000000000E+01 0.  1.
        -11    1    4    4    0    0  0.15647984720E+02 -0.37553826272E+02 -0.48616113187E+02  0.63393026074E+02  0.00000000000E+00 0. -1.
         11    1    4    4    0    0  0.98911807594E+02 -0.49245481461E+02 -0.20774014016E+02  0.11242874536E+03  0.00000000000E+00 0.  1.
<mgrwt>
<rscale>  0 0.18279543E+03</rscale>
<asrwt>0</asrwt>
<pdfrwt beam="2">  1        3 0.38206399E-01 0.19048103E+03</pdfrwt>
<pdfrwt beam="1">  1       -3 0.19285739E-01 0.19048103E+03</pdfrwt>
<totfact> 0.39451132E+02</totfact>
</mgrwt>
</event>
<event>
 8    1  0.1550723E-005  0.2136266E+03  0.7546771E-02  0.1142341E+00
         -3   -1    0    0    0  501 -0.00000000000E+00  0.00000000000E+00  0.85833354027E+02  0.85833354027E+02  0.00000000000E+00 0.  1.
          3   -1    0    0  501    0  0.00000000000E+00 -0.00000000000E+00 -0.53988623902E+03  0.53988623902E+03  0.00000000000E+00 0. -1.
         23    2    1    2    0    0  0.16777808170E+03  0.43151168638E+02 -0.13929625113E+03  0.25502898717E+03  0.12499932265E+03 0.  0.
         23    2    1    2    0    0 -0.16777808170E+03 -0.43151168638E+02 -0.31475663386E+03  0.37069060588E+03  0.91259403189E+02 0.  0.
          5    1    3    3  502    0  0.25744116782E+02 -0.31431999242E+02  0.23507775852E+01  0.40967624784E+02  0.47000000000E+01 0. -1.
         -5    1    3    3    0  502  0.14203396492E+03  0.74583167879E+02 -0.14164702871E+03  0.21406136238E+03  0.47000000000E+01 0. -1.
        -11    1    4    4    0    0 -0.63476150416E+02  0.85576059710E+01 -0.49293181147E+02  0.80822472117E+02  0.00000000000E+00 0.  1.
         11    1    4    4    0    0 -0.10430193129E+03 -0.51708774609E+02 -0.26546345272E+03  0.28986813376E+03  0.00000000000E+00 0. -1.
<mgrwt>
<rscale>  0 0.20902477E+03</rscale>
<asrwt>0</asrwt>
<pdfrwt beam="2">  1        3 0.83059419E-01 0.21362663E+03</pdfrwt>
<pdfrwt beam="1">  1       -3 0.13205132E-01 0.21362663E+03</pdfrwt>
<totfact> 0.15606097E+02</totfact>
</mgrwt>
</event>
<event>
 8    1  0.1550723E-005  0.1263656E+03  0.7546771E-02  0.1251307E+00
          2   -1    0    0  501    0  0.00000000000E+00  0.00000000000E+00  0.30833368515E+03  0.30833368515E+03  0.00000000000E+00 0. -1.
         -2   -1    0    0    0  501 -0.00000000000E+00 -0.00000000000E+00 -0.37851510229E+02  0.37851510229E+02  0.00000000000E+00 0.  1.
         23    2    1    2    0    0  0.96115350174E+01  0.15808141918E+02  0.13343853032E+03  0.18377733675E+03  0.12500395662E+03 0.  0.
         23    2    1    2    0    0 -0.96115350174E+01 -0.15808141918E+02  0.13704364460E+03  0.16240785863E+03  0.85164975569E+02 0.  0.
          5    1    3    3  502    0 -0.17286741664E+02  0.36643046817E+02 -0.50445608374E+01  0.41098441715E+02  0.47000000000E+01 0.  1.
         -5    1    3    3    0  502  0.26898276681E+02 -0.20834904900E+02  0.13848309116E+03  0.14267889503E+03  0.47000000000E+01 0.  1.
        -11    1    4    4    0    0  0.22191735862E+02  0.83971952879E+01  0.11364474560E+03  0.11609528083E+03  0.00000000000E+00 0. -1.
         11    1    4    4    0    0 -0.31803270880E+02 -0.24205337206E+02  0.23398898999E+02  0.46312577798E+02  0.00000000000E+00 0.  1.
<mgrwt>
<rscale>  0 0.11515695E+03</rscale>
<asrwt>0</asrwt>
<pdfrwt beam="1">  1        2 0.47435950E-01 0.12636561E+03</pdfrwt>
<pdfrwt beam="2">  1       -2 0.58233095E-02 0.12636561E+03</pdfrwt>
<totfact> 0.15349735E+04</totfact>
</mgrwt>
</event>
<event>
 8    1  0.1550723E-005  0.2447382E+03  0.7546771E-02  0.1117587E+00
         -2   -1    0    0    0  501 -0.00000000000E+00  0.00000000000E+00  0.13954147274E+03  0.13954147274E+03  0.00000000000E+00 0. -1.
          2   -1    0    0  501    0  0.00000000000E+00 -0.00000000000E+00 -0.42915215103E+03  0.42915215103E+03  0.00000000000E+00 0.  1.
         23    2    1    2    0    0  0.11155691400E+03 -0.17840009047E+03 -0.18889108566E+03  0.30915471197E+03  0.12500102541E+03 0.  0.
         23    2    1    2    0    0 -0.11155691400E+03  0.17840009047E+03 -0.10071959264E+03  0.25953891180E+03  0.11377378018E+03 0.  0.
          5    1    3    3  502    0  0.89362698923E+02 -0.32914589696E+02 -0.54628769647E+02  0.10988837357E+03  0.47000000000E+01 0. -1.
         -5    1    3    3    0  502  0.22194215074E+02 -0.14548550077E+03 -0.13426231601E+03  0.19926633840E+03  0.47000000000E+01 0. -1.
        -11    1    4    4    0    0 -0.78803269527E+02  0.32347955744E+02 -0.60709538010E+02  0.10460398431E+03  0.00000000000E+00 0.  1.
         11    1    4    4    0    0 -0.32753644470E+02  0.14605213472E+03 -0.40010054632E+02  0.15493492749E+03  0.00000000000E+00 0. -1.
<mgrwt>
<rscale>  0 0.24334142E+03</rscale>
<asrwt>0</asrwt>
<pdfrwt beam="2">  1        2 0.66023408E-01 0.24473821E+03</pdfrwt>
<pdfrwt beam="1">  1       -2 0.21467919E-01 0.24473821E+03</pdfrwt>
<totfact> 0.13710726E+03</totfact>
</mgrwt>
</event>
<event>
 8    1  0.1550723E-005  0.1374409E+03  0.7546771E-02  0.1229217E+00
         -2   -1    0    0    0  501 -0.00000000000E+00  0.00000000000E+00  0.22023045411E+03  0.22023045411E+03  0.00000000000E+00 0.  1.
          2   -1    0    0  501    0  0.00000000000E+00 -0.00000000000E+00 -0.67431196426E+02  0.67431196426E+02  0.00000000000E+00 0. -1.
         23    2    1    2    0    0 -0.56257385797E+02  0.10016694652E+02  0.80239900886E+02  0.15914914652E+03  0.12499912605E+03 0.  0.
         23    2    1    2    0    0  0.56257385797E+02 -0.10016694652E+02  0.72559356798E+02  0.12851250402E+03  0.89360929954E+02 0.  0.
          5    1    3    3  502    0  0.16561519712E+02 -0.38504299947E+02  0.52268143195E+02  0.67163337042E+02  0.47000000000E+01 0.  1.
         -5    1    3    3    0  502 -0.72818905509E+02  0.48520994600E+02  0.27971757692E+02  0.91985809475E+02  0.47000000000E+01 0.  1.
        -11    1    4    4    0    0 -0.94068731132E+01  0.17165847626E+02  0.50403250390E+02  0.54070724393E+02  0.00000000000E+00 0.  1.
         11    1    4    4    0    0  0.65664258910E+02 -0.27182542279E+02  0.22156106407E+02  0.74441779627E+02  0.00000000000E+00 0. -1.
<mgrwt>
<rscale>  0 0.12882022E+03</rscale>
<asrwt>0</asrwt>
<pdfrwt beam="2">  1        2 0.10374030E-01 0.13744093E+03</pdfrwt>
<pdfrwt beam="1">  1       -2 0.33881608E-01 0.13744093E+03</pdfrwt>
<totfact> 0.47606600E+03</totfact>
</mgrwt>
</event>
<event>
 8    1  0.1550723E-005  0.2229865E+03  0.7546771E-02  0.1134747E+00
         -1   -1    0    0    0  501 -0.00000000000E+00  0.00000000000E+00  0.11609697813E+04  0.11609697813E+04  0.00000000000E+00 0.  1.
          1   -1    0    0  501    0  0.00000000000E+00 -0.00000000000E+00 -0.47376139108E+02  0.47376139108E+02  0.00000000000E+00 0. -1.
         23    2    1    2    0    0  0.33087090303E+02 -0.18167219207E+03  0.81593044587E+03  0.84585191676E+03  0.12499372654E+03 0.  0.
         23    2    1    2    0    0 -0.33087090303E+02  0.18167219207E+03  0.29766319634E+03  0.36249400366E+03  0.93268340391E+02 0.  0.
          5    1    3    3  502    0  0.31194607821E+01 -0.17780652457E+03  0.54728883930E+03  0.57547550325E+03  0.47000000000E+01 0.  1.
         -5    1    3    3    0  502  0.29967629521E+02 -0.38656675031E+01  0.26864160657E+03  0.27037641351E+03  0.47000000000E+01 0.  1.
        -11    1    4    4    0    0  0.23114298456E+02  0.92777240233E+01  0.46029314920E+02  0.52335884326E+02  0.00000000000E+00 0.  1.
         11    1    4    4    0    0 -0.56201388759E+02  0.17239446805E+03  0.25163388142E+03  0.31015811934E+03  0.00000000000E+00 0. -1.
<mgrwt>
<rscale>  0 0.21884544E+03</rscale>
<asrwt>0</asrwt>
<pdfrwt beam="2">  1        1 0.72886376E-02 0.22298649E+03</pdfrwt>
<pdfrwt beam="1">  1       -1 0.17861071E+00 0.22298649E+03</pdfrwt>
<totfact> 0.23187684E+02</totfact>
</mgrwt>
</event>
<event>
 8    1  0.1550723E-005  0.1267447E+03  0.7546771E-02  0.1246746E+00
         -2   -1    0    0    0  501 -0.00000000000E+00  0.00000000000E+00  0.37047374117E+02  0.37047374117E+02  0.00000000000E+00 0.  1.
          2   -1    0    0  501    0  0.00000000000E+00 -0.00000000000E+00 -0.34223521775E+03  0.34223521775E+03  0.00000000000E+00 0. -1.
         23    2    1    2    0    0 -0.14658343513E+02  0.14916386787E+02 -0.13951644634E+03  0.18849155681E+03  0.12500745003E+03 0.  0.
         23    2    1    2    0    0  0.14658343513E+02 -0.14916386787E+02 -0.16567139729E+03  0.19079103505E+03  0.92286735475E+02 0.  0.
          5    1    3    3  502    0  0.50248279099E+01  0.40218333863E+02 -0.14919803579E+03  0.15467678286E+03  0.47000000000E+01 0. -1.
         -5    1    3    3    0  502 -0.19683171423E+02 -0.25301947075E+02  0.96815894505E+01  0.33814773951E+02  0.47000000000E+01 0. -1.
        -11    1    4    4    0    0  0.41986324151E+02  0.21158336392E+02 -0.10547646412E+03  0.11548078238E+03  0.00000000000E+00 0. -1.
         11    1    4    4    0    0 -0.27327980638E+02 -0.36074723179E+02 -0.60194933174E+02  0.75310252675E+02  0.00000000000E+00 0.  1.
<mgrwt>
<rscale>  0 0.11781507E+03</rscale>
<asrwt>0</asrwt>
<pdfrwt beam="2">  1        2 0.52651573E-01 0.12674474E+03</pdfrwt>
<pdfrwt beam="1">  1       -2 0.56995959E-02 0.12674474E+03</pdfrwt>
<totfact> 0.14202879E+04</totfact>
</mgrwt>
</event>
<event>
 8    1  0.1550723E-005  0.1348183E+03  0.7546771E-02  0.1233673E+00
          1   -1    0    0  501    0  0.00000000000E+00  0.00000000000E+00  0.71881810498E+03  0.71881810498E+03  0.00000000000E+00 0. -1.
         -1   -1    0    0    0  501 -0.00000000000E+00 -0.00000000000E+00 -0.21525224019E+02  0.21525224019E+02  0.00000000000E+00 0.  1.
         23    2    1    2    0    0  0.41787284557E+02  0.28371639591E+02  0.28181632740E+03  0.31240423653E+03  0.12499935012E+03 0.  0.
         23    2    1    2    0    0 -0.41787284557E+02 -0.28371639591E+02  0.41547655357E+03  0.42793909248E+03  0.89218682014E+02 0.  0.
          5    1    3    3  502    0 -0.12849920561E+01  0.21792095703E+00 -0.12587974353E+02  0.13499844164E+02  0.47000000000E+01 0. -1.
         -5    1    3    3    0  502  0.43072276613E+02  0.28153718634E+02  0.29440430175E+03  0.29890439236E+03  0.47000000000E+01 0. -1.
        -11    1    4    4    0    0 -0.22991412652E+02  0.28734741427E+02  0.95132118754E+02  0.10200201194E+03  0.00000000000E+00 0. -1.
         11    1    4    4    0    0 -0.18795871905E+02 -0.57106381018E+02  0.32034443481E+03  0.32593708054E+03  0.00000000000E+00 0.  1.
<mgrwt>
<rscale>  0 0.12589764E+03</rscale>
<asrwt>0</asrwt>
<pdfrwt beam="1">  1        1 0.11058738E+00 0.13481827E+03</pdfrwt>
<pdfrwt beam="2">  1       -1 0.33115735E-02 0.13481827E+03</pdfrwt>
<totfact> 0.84839021E+03</totfact>
</mgrwt>
</event>
<event>
 8    1  0.1550723E-005  0.1950898E+03  0.7546771E-02  0.1158108E+00
         -2   -1    0    0    0  501 -0.00000000000E+00  0.00000000000E+00  0.25673973927E+03  0.25673973927E+03  0.00000000000E+00 0. -1.
          2   -1    0    0  501    0  0.00000000000E+00 -0.00000000000E+00 -0.18600715615E+03  0.18600715615E+03  0.00000000000E+00 0.  1.
         23    2    1    2    0    0  0.63760037426E+02  0.13551792912E+03  0.15267367367E+03  0.24772824586E+03  0.12501832538E+03 0.  0.
         23    2    1    2    0    0 -0.63760037426E+02 -0.13551792912E+03 -0.81941090545E+02  0.19501864956E+03  0.94273431415E+02 0.  0.
          5    1    3    3  502    0  0.26594093214E+02 -0.10457361996E+02 -0.52527722277E+01  0.29432700010E+02  0.47000000000E+01 0.  1.
         -5    1    3    3    0  502  0.37165944213E+02  0.14597529111E+03  0.15792644590E+03  0.21829554585E+03  0.47000000000E+01 0.  1.
        -11    1    4    4    0    0 -0.27074669509E+02 -0.13670168298E+03 -0.56581788532E+02  0.15040574009E+03  0.00000000000E+00 0. -1.
         11    1    4    4    0    0 -0.36685367918E+02  0.11837538647E+01 -0.25359302013E+02  0.44612909466E+02  0.00000000000E+00 0.  1.
<mgrwt>
<rscale>  0 0.19039260E+03</rscale>
<asrwt>0</asrwt>
<pdfrwt beam="2">  1        2 0.28616485E-01 0.19508981E+03</pdfrwt>
<pdfrwt beam="1">  1       -2 0.39498422E-01 0.19508981E+03</pdfrwt>
<totfact> 0.11208022E+03</totfact>
</mgrwt>
</event>
<event>
 8    1  0.1550723E-005  0.1598724E+03  0.7546771E-02  0.1196034E+00
          1   -1    0    0  501    0  0.00000000000E+00  0.00000000000E+00  0.91157049582E+02  0.91157049582E+02  0.00000000000E+00 0. -1.
         -1   -1    0    0    0  501 -0.00000000000E+00 -0.00000000000E+00 -0.29339496460E+03  0.29339496460E+03  0.00000000000E+00 0.  1.
         23    2    1    2    0    0  0.38641634054E+02 -0.91860493151E+02 -0.18883931142E+03  0.24742570031E+03  0.12501066175E+03 0.  0.
         23    2    1    2    0    0 -0.38641634054E+02  0.91860493151E+02 -0.13398603594E+02  0.13712631387E+03  0.93233992152E+02 0.  0.
          5    1    3    3  502    0  0.37183776628E+02 -0.11299242791E+03 -0.98487019387E+02  0.15450470865E+03  0.47000000000E+01 0. -1.
         -5    1    3    3    0  502  0.14578574269E+01  0.21131934755E+02 -0.90352292035E+02  0.92920991658E+02  0.47000000000E+01 0. -1.
        -11    1    4    4    0    0  0.19129096569E+02  0.25805993112E+02 -0.34221822350E+02  0.46936177315E+02  0.00000000000E+00 0.  1.
         11    1    4    4    0    0 -0.57770730623E+02  0.66054500039E+02  0.20823218757E+02  0.90190136553E+02  0.00000000000E+00 0. -1.
<mgrwt>
<rscale>  0 0.15367018E+03</rscale>
<asrwt>0</asrwt>
<pdfrwt beam="1">  1        1 0.14024162E-01 0.15987242E+03</pdfrwt>
<pdfrwt beam="2">  1       -1 0.45137687E-01 0.15987242E+03</pdfrwt>
<totfact> 0.19807888E+03</totfact>
</mgrwt>
</event>
<event>
 8    1  0.1550723E-005  0.1502857E+03  0.7546771E-02  0.1209128E+00
          2   -1    0    0  501    0  0.00000000000E+00  0.00000000000E+00  0.33008965902E+03  0.33008965902E+03  0.00000000000E+00 0. -1.
         -2   -1    0    0    0  501 -0.00000000000E+00 -0.00000000000E+00 -0.57314637201E+02  0.57314637201E+02  0.00000000000E+00 0.  1.
         23    2    1    2    0    0  0.60736847160E+02 -0.57211330507E+02  0.13281131393E+03  0.20056083071E+03  0.12499480296E+03 0.  0.
         23    2    1    2    0    0 -0.60736847160E+02  0.57211330507E+02  0.13996370789E+03  0.18684346551E+03  0.91425052017E+02 0.  0.
          5    1    3    3  502    0  0.48123983503E+02 -0.96097194453E+02  0.10837893812E+03  0.15270452776E+03  0.47000000000E+01 0. -1.
         -5    1    3    3    0  502  0.12612863657E+02  0.38885863945E+02  0.24432375802E+02  0.47856302947E+02  0.47000000000E+01 0. -1.
        -11    1    4    4    0    0 -0.18135898104E+02  0.57387200734E+02  0.26715913229E+02  0.65847867299E+02  0.00000000000E+00 0. -1.
         11    1    4    4    0    0 -0.42600949056E+02 -0.17587022692E+00  0.11324779467E+03  0.12099559821E+03  0.00000000000E+00 0.  1.
<mgrwt>
<rscale>  0 0.14316865E+03</rscale>
<asrwt>0</asrwt>
<pdfrwt beam="1">  1        2 0.50783023E-01 0.15028573E+03</pdfrwt>
<pdfrwt beam="2">  1       -2 0.88176367E-02 0.15028573E+03</pdfrwt>
<totfact> 0.76561481E+03</totfact>
</mgrwt>
</event>
<event>
 8    1  0.1550723E-005  0.1315430E+03  0.7546771E-02  0.1238541E+00
          1   -1    0    0  501    0  0.00000000000E+00  0.00000000000E+00  0.25044409116E+03  0.25044409116E+03  0.00000000000E+00 0. -1.
         -1   -1    0    0    0  501 -0.00000000000E+00 -0.00000000000E+00 -0.28113347576E+03  0.28113347576E+03  0.00000000000E+00 0.  1.
         23    2    1    2    0    0  0.40324042559E+02 -0.73387178586E+01 -0.25449423702E+03  0.28648014280E+03  0.12499468131E+03 0.  0.
         23    2    1    2    0    0 -0.40324042559E+02  0.73387178586E+01  0.22380485242E+03  0.24509742412E+03  0.91127658575E+02 0.  0.
          5    1    3    3  502    0  0.26888957650E+02  0.47297050698E+02 -0.48995974866E+02  0.73367040293E+02  0.47000000000E+01 0. -1.
         -5    1    3    3    0  502  0.13435084909E+02 -0.54635768557E+02 -0.20549826215E+03  0.21311310251E+03  0.47000000000E+01 0. -1.
        -11    1    4    4    0    0 -0.37352465136E+02 -0.31832521233E+02  0.17854421499E+03  0.18516628410E+03  0.00000000000E+00 0. -1.
         11    1    4    4    0    0 -0.29715774236E+01  0.39171239091E+02  0.45260637427E+02  0.59931140025E+02  0.00000000000E+00 0.  1.
<mgrwt>
<rscale>  0 0.12280458E+03</rscale>
<asrwt>0</asrwt>
<pdfrwt beam="1">  1        1 0.38529860E-01 0.13154298E+03</pdfrwt>
<pdfrwt beam="2">  1       -1 0.43251304E-01 0.13154298E+03</pdfrwt>
<totfact> 0.59280364E+02</totfact>
</mgrwt>
</event>
<event>
 8    1  0.1550723E-005  0.1592385E+03  0.7546771E-02  0.1200164E+00
         -1   -1    0    0    0  501 -0.00000000000E+00  0.00000000000E+00  0.16009985904E+04  0.16009985904E+04  0.00000000000E+00 0.  1.
          1   -1    0    0  501    0  0.00000000000E+00 -0.00000000000E+00 -0.13163453447E+02  0.13163453447E+02  0.00000000000E+00 0. -1.
         23    2    1    2    0    0 -0.69197026705E+02 -0.70309182118E+02  0.10290949350E+04  0.10413420543E+04  0.12500111638E+03 0.  0.
         23    2    1    2    0    0  0.69197026705E+02  0.70309182118E+02  0.55874020191E+03  0.57281998956E+03  0.78743365532E+02 0.  0.
          5    1    3    3  502    0 -0.74628005925E+02 -0.67069905321E+02  0.10285510978E+04  0.10334443199E+04  0.47000000000E+01 0. -1.
         -5    1    3    3    0  502  0.54309792202E+01 -0.32392767973E+01  0.54383720053E+00  0.78977343815E+01  0.47000000000E+01 0. -1.
        -11    1    4    4    0    0  0.28372420273E+02  0.77870145910E+02  0.41544428284E+03  0.42363038843E+03  0.00000000000E+00 0. -1.
         11    1    4    4    0    0  0.40824606431E+02 -0.75609637923E+01  0.14329591907E+03  0.14918960113E+03  0.00000000000E+00 0.  1.
<mgrwt>
<rscale>  0 0.15025198E+03</rscale>
<asrwt>0</asrwt>
<pdfrwt beam="2">  1        1 0.20251480E-02 0.15923846E+03</pdfrwt>
<pdfrwt beam="1">  1       -1 0.24630732E+00 0.15923846E+03</pdfrwt>
<totfact> 0.49522412E+02</totfact>
</mgrwt>
</event>
<event>
 8    1  0.1550723E-005  0.1333017E+03  0.7546771E-02  0.1235326E+00
         -1   -1    0    0    0  501 -0.00000000000E+00  0.00000000000E+00  0.14496802090E+02  0.14496802090E+02  0.00000000000E+00 0.  1.
          1   -1    0    0  501    0  0.00000000000E+00 -0.00000000000E+00 -0.97423315760E+03  0.97423315760E+03  0.00000000000E+00 0. -1.
         23    2    1    2    0    0 -0.34029739294E+02  0.31404602956E+02 -0.48046447519E+03  0.49861353103E+03  0.12500027665E+03 0.  0.
         23    2    1    2    0    0  0.34029739294E+02 -0.31404602956E+02 -0.47927188032E+03  0.49011642866E+03  0.91478446290E+02 0.  0.
          5    1    3    3  502    0 -0.10910661280E+02  0.22611986768E+02 -0.47103718803E+03  0.47172923058E+03  0.47000000000E+01 0.  1.
         -5    1    3    3    0  502 -0.23119078013E+02  0.87926161884E+01 -0.94272871650E+01  0.26884300454E+02  0.47000000000E+01 0.  1.
        -11    1    4    4    0    0 -0.28611736964E+02  0.52292818433E+01 -0.10989940914E+03  0.11368314303E+03  0.00000000000E+00 0.  1.
         11    1    4    4    0    0  0.62641476258E+02 -0.36633884799E+02 -0.36937247118E+03  0.37643328563E+03  0.00000000000E+00 0. -1.
<mgrwt>
<rscale>  0 0.12483616E+03</rscale>
<asrwt>0</asrwt>
<pdfrwt beam="2">  1        1 0.14988204E+00 0.13330169E+03</pdfrwt>
<pdfrwt beam="1">  1       -1 0.22302770E-02 0.13330169E+03</pdfrwt>
<totfact> 0.94206789E+03</totfact>
</mgrwt>
</event>
<event>
 8    1  0.1550723E-005  0.1737584E+03  0.7546771E-02  0.1179943E+00
         -2   -1    0    0    0  501 -0.00000000000E+00  0.00000000000E+00  0.88112856742E+02  0.88112856742E+02  0.00000000000E+00 0.  1.
          2   -1    0    0  501    0  0.00000000000E+00 -0.00000000000E+00 -0.31075120484E+03  0.31075120484E+03  0.00000000000E+00 0. -1.
         23    2    1    2    0    0 -0.10792596468E+03 -0.54032644042E+02 -0.83027661919E+02  0.19257619588E+03  0.12499783238E+03 0.  0.
         23    2    1    2    0    0  0.10792596468E+03  0.54032644042E+02 -0.13961068618E+03  0.20628786571E+03  0.92173745553E+02 0.  0.
          5    1    3    3  502    0 -0.88375303491E+02  0.56341714297E+01 -0.93367214063E+02  0.12876903672E+03  0.47000000000E+01 0. -1.
         -5    1    3    3    0  502 -0.19550661187E+02 -0.59666815472E+02  0.10339552144E+02  0.63807159159E+02  0.47000000000E+01 0. -1.
        -11    1    4    4    0    0  0.23637719789E+02  0.26431015876E+02  0.58320900549E+01  0.35935409716E+02  0.00000000000E+00 0.  1.
         11    1    4    4    0    0  0.84288244889E+02  0.27601628166E+02 -0.14544277624E+03  0.17035245599E+03  0.00000000000E+00 0. -1.
<mgrwt>
<rscale>  0 0.16800616E+03</rscale>
<asrwt>0</asrwt>
<pdfrwt beam="2">  1        2 0.47807878E-01 0.17375845E+03</pdfrwt>
<pdfrwt beam="1">  1       -2 0.13555824E-01 0.17375845E+03</pdfrwt>
<totfact> 0.41531769E+03</totfact>
</mgrwt>
</event>
<event>
 8    1  0.1550723E-005  0.1633101E+03  0.7546771E-02  0.1192922E+00
          2   -1    0    0  501    0  0.00000000000E+00  0.00000000000E+00  0.89145292899E+03  0.89145292899E+03  0.00000000000E+00 0. -1.
         -2   -1    0    0    0  501 -0.00000000000E+00 -0.00000000000E+00 -0.25362479446E+02  0.25362479446E+02  0.00000000000E+00 0.  1.
         23    2    1    2    0    0 -0.10277958796E+03  0.21931416238E+02  0.44892929860E+03  0.47771089663E+03  0.12500221957E+03 0.  0.
         23    2    1    2    0    0  0.10277958796E+03 -0.21931416238E+02  0.41716115094E+03  0.43910451181E+03  0.88004066459E+02 0.  0.
          5    1    3    3  502    0  0.56564432333E+01  0.36556965433E+02  0.22905845889E+03  0.23207385605E+03  0.47000000000E+01 0.  1.
         -5    1    3    3    0  502 -0.10843603119E+03 -0.14625549196E+02  0.21987083971E+03  0.24563704058E+03  0.47000000000E+01 0.  1.
        -11    1    4    4    0    0  0.17777594519E+02 -0.21668893882E+02  0.24123318394E+02  0.36979971867E+02  0.00000000000E+00 0.  1.
         11    1    4    4    0    0  0.85001993443E+02 -0.26252235605E+00  0.39303783255E+03  0.40212453994E+03  0.00000000000E+00 0. -1.
<mgrwt>
<rscale>  0 0.15631430E+03</rscale>
<asrwt>0</asrwt>
<pdfrwt beam="1">  1        2 0.13714658E+00 0.16331009E+03</pdfrwt>
<pdfrwt beam="2">  1       -2 0.39019206E-02 0.16331009E+03</pdfrwt>
<totfact> 0.85544307E+03</totfact>
</mgrwt>
</event>
<event>
 8    1  0.1550723E-005  0.1715210E+03  0.7546771E-02  0.1182716E+00
         -2   -1    0    0    0  501 -0.00000000000E+00  0.00000000000E+00  0.57120035331E+03  0.57120035331E+03  0.00000000000E+00 0. -1.
          2   -1    0    0  501    0  0.00000000000E+00 -0.00000000000E+00 -0.47800563419E+02  0.47800563419E+02  0.00000000000E+00 0.  1.
         23    2    1    2    0    0 -0.68720057641E+02 -0.95226136586E+02  0.35696237798E+03  0.39603229784E+03  0.12501591189E+03 0.  0.
         23    2    1    2    0    0  0.68720057641E+02  0.95226136586E+02  0.16643741192E+03  0.22296861890E+03  0.90681472834E+02 0.  0.
          5    1    3    3  502    0  0.17457245571E+02 -0.76131549517E+02  0.21504146497E+03  0.22883550841E+03  0.47000000000E+01 0. -1.
         -5    1    3    3    0  502 -0.86177303212E+02 -0.19094587069E+02  0.14192091301E+03  0.16719678942E+03  0.47000000000E+01 0. -1.
        -11    1    4    4    0    0  0.66682815617E+02  0.22676606916E+02  0.11174672502E+03  0.13209147191E+03  0.00000000000E+00 0. -1.
         11    1    4    4    0    0  0.20372420248E+01  0.72549529670E+02  0.54690686900E+02  0.90877146984E+02  0.00000000000E+00 0.  1.
<mgrwt>
<rscale>  0 0.16541477E+03</rscale>
<asrwt>0</asrwt>
<pdfrwt beam="2">  1        2 0.73539332E-02 0.17152097E+03</pdfrwt>
<pdfrwt beam="1">  1       -2 0.87876973E-01 0.17152097E+03</pdfrwt>
<totfact> 0.10744224E+03</totfact>
</mgrwt>
</event>
<event>
 8    1  0.1550723E-005  0.1607966E+03  0.7546771E-02  0.1193730E+00
         -1   -1    0    0    0  501 -0.00000000000E+00  0.00000000000E+00  0.40624593225E+03  0.40624593225E+03  0.00000000000E+00 0.  1.
          1   -1    0    0  501    0  0.00000000000E+00 -0.00000000000E+00 -0.58706544296E+02  0.58706544296E+02  0.00000000000E+00 0. -1.
         23    2    1    2    0    0 -0.96393161336E+02  0.48640601875E+02  0.23369315267E+03  0.28366889429E+03  0.11915537034E+03 0.  0.
         23    2    1    2    0    0  0.96393161336E+02 -0.48640601875E+02  0.11384623529E+03  0.18128358226E+03  0.90803205914E+02 0.  0.
          5    1    3    3  502    0 -0.90686455037E+02  0.56193664898E+02  0.24556154642E+03  0.26777663113E+03  0.47000000000E+01 0. -1.
         -5    1    3    3    0  502 -0.57067062998E+01 -0.75530630230E+01 -0.11868393754E+02  0.15892263153E+02  0.47000000000E+01 0.  1.
        -11    1    4    4    0    0  0.10507011847E+03 -0.23211607303E+02  0.11045156817E+03  0.15420135349E+03  0.00000000000E+00 0.  1.
         11    1    4    4    0    0 -0.86769571325E+01 -0.25428994572E+02  0.33946671199E+01  0.27082228765E+02  0.00000000000E+00 0. -1.
<mgrwt>
<rscale>  0 0.15562232E+03</rscale>
<asrwt>0</asrwt>
<pdfrwt beam="2">  1        1 0.90317763E-02 0.16079662E+03</pdfrwt>
<pdfrwt beam="1">  1       -1 0.62499372E-01 0.16079662E+03</pdfrwt>
<totfact> 0.19373308E+03</totfact>
</mgrwt>
</event>
<event>
 7    1  0.1550723E-005  0.1439025E+03  0.7546771E-02  0.1222593E+00
         -1   -1    0    0    0  501 -0.00000000000E+00  0.00000000000E+00  0.51543853072E+03  0.51543853072E+03  0.00000000000E+00 0.  1.
          1   -1    0    0  501    0  0.00000000000E+00 -0.00000000000E+00 -0.50306254416E+02  0.50306254416E+02  0.00000000000E+00 0. -1.
         23    2    1    2    0    0  0.32899914802E+02  0.30092759391E+02  0.34222585466E+02  0.11144192354E+03  0.96229612933E+02 0.  0.
          5    1    1    2  502    0  0.44320404435E+02  0.18310734383E+02  0.99414850556E+02  0.11047616826E+03  0.47000000000E+01 0. -1.
         -5    1    1    2    0  502 -0.77220319238E+02 -0.48403493774E+02  0.33149484028E+03  0.34382669333E+03  0.47000000000E+01 0.  1.
        -11    1    3    3    0    0 -0.14674604396E+02 -0.27421417382E+02  0.14023504964E+02  0.34116518534E+02  0.00000000000E+00 0.  1.
         11    1    3    3    0    0  0.47574519198E+02  0.57514176773E+02  0.20199080502E+02  0.77325405009E+02  0.00000000000E+00 0. -1.
<mgrwt>
<rscale>  0 0.13333256E+03</rscale>
<asrwt>0</asrwt>
<pdfrwt beam="2">  1        1 0.77394241E-02 0.14390250E+03</pdfrwt>
<pdfrwt beam="1">  1       -1 0.79298232E-01 0.14390250E+03</pdfrwt>
<totfact> 0.14805994E+03</totfact>
</mgrwt>
</event>
<event>
 8    1  0.1550723E-005  0.1538272E+03  0.7546771E-02  0.1203419E+00
          1   -1    0    0  501    0  0.00000000000E+00  0.00000000000E+00  0.41730281855E+02  0.41730281855E+02  0.00000000000E+00 0. -1.
         -1   -1    0    0    0  501 -0.00000000000E+00 -0.00000000000E+00 -0.74365741633E+03  0.74365741633E+03  0.00000000000E+00 0.  1.
         23    2    1    2    0    0 -0.14359716361E+02  0.88319650797E+02 -0.60113840201E+03  0.62050799433E+03  0.12512485958E+03 0.  0.
         23    2    1    2    0    0  0.14359716361E+02 -0.88319650797E+02 -0.10078873247E+03  0.16487970386E+03  0.94975712583E+02 0.  0.
          5    1    3    3  502    0  0.23736073302E+02  0.77986020236E+02 -0.18186534192E+03  0.19935474190E+03  0.47000000000E+01 0.  1.
         -5    1    3    3    0  502 -0.38095789663E+02  0.10333630562E+02 -0.41927306009E+03  0.42115325243E+03  0.47000000000E+01 0.  1.
        -11    1    4    4    0    0  0.32057367517E+02 -0.80150589977E+02 -0.11275682775E+03  0.14200666917E+03  0.00000000000E+00 0.  1.
         11    1    4    4    0    0 -0.17697651156E+02 -0.81690608205E+01  0.11968095279E+02  0.22873034686E+02  0.00000000000E+00 0. -1.
<mgrwt>
<rscale>  0 0.14762736E+03</rscale>
<asrwt>0</asrwt>
<pdfrwt beam="1">  1        1 0.64200435E-02 0.15382715E+03</pdfrwt>
<pdfrwt beam="2">  1       -1 0.11440883E+00 0.15382715E+03</pdfrwt>
<totfact> 0.86189714E+02</totfact>
</mgrwt>
</event>
<event>
 8    1  0.1550723E-005  0.1308060E+03  0.7546771E-02  0.1239332E+00
         -1   -1    0    0    0  501 -0.00000000000E+00  0.00000000000E+00  0.21740107113E+03  0.21740107113E+03  0.00000000000E+00 0.  1.
          1   -1    0    0  501    0  0.00000000000E+00 -0.00000000000E+00 -0.63556328900E+02  0.63556328900E+02  0.00000000000E+00 0. -1.
         23    2    1    2    0    0  0.30511324777E+02  0.23502689377E+02  0.11330397364E+03  0.17305493864E+03  0.12500761575E+03 0.  0.
         23    2    1    2    0    0 -0.30511324777E+02 -0.23502689377E+02  0.40540768584E+02  0.10790246139E+03  0.92282554741E+02 0.  0.
          5    1    3    3  502    0  0.40556787956E+02 -0.43585882081E+02  0.71796381808E+02  0.93388396532E+02  0.47000000000E+01 0.  1.
         -5    1    3    3    0  502 -0.10045463178E+02  0.67088571458E+02  0.41507591835E+02  0.79666542103E+02  0.47000000000E+01 0.  1.
        -11    1    4    4    0    0 -0.52521268636E+02  0.14421269503E+02  0.32188867865E+02  0.63265945719E+02  0.00000000000E+00 0.  1.
         11    1    4    4    0    0  0.22009943859E+02 -0.37923958881E+02  0.83519007190E+01  0.44636515674E+02  0.00000000000E+00 0. -1.
<mgrwt>
<rscale>  0 0.12231157E+03</rscale>
<asrwt>0</asrwt>
<pdfrwt beam="2">  1        1 0.97778969E-02 0.13080604E+03</pdfrwt>
<pdfrwt beam="1">  1       -1 0.33446318E-01 0.13080604E+03</pdfrwt>
<totfact> 0.53209340E+03</totfact>
</mgrwt>
</event>
<event>
 8    1  0.1550723E-005  0.1271769E+03  0.7546771E-02  0.1246422E+00
          3   -1    0    0  501    0  0.00000000000E+00  0.00000000000E+00  0.44259960426E+02  0.44259960426E+02  0.00000000000E+00 0. -1.
         -3   -1    0    0    0  501 -0.00000000000E+00 -0.00000000000E+00 -0.28318059774E+03  0.28318059774E+03  0.00000000000E+00 0.  1.
         23    2    1    2    0    0 -0.23226731907E+02 -0.23874566610E+01 -0.16072649825E+03  0.20495600872E+03  0.12501510808E+03 0.  0.
         23    2    1    2    0    0  0.23226731907E+02  0.23874566610E+01 -0.78194139070E+02  0.12248454945E+03  0.91339807552E+02 0.  0.
          5    1    3    3  502    0 -0.63849402863E+02 -0.53693466798E+01 -0.14907569144E+03  0.16233061297E+03  0.47000000000E+01 0.  1.
         -5    1    3    3    0  502  0.40622670955E+02  0.29818900188E+01 -0.11650806807E+02  0.42625395751E+02  0.47000000000E+01 0.  1.
        -11    1    4    4    0    0 -0.27909493496E+02  0.18230201929E+02 -0.54621015994E+02  0.63990120158E+02  0.00000000000E+00 0.  1.
         11    1    4    4    0    0  0.51136225404E+02 -0.15842745268E+02 -0.23573123076E+02  0.58494429288E+02  0.00000000000E+00 0. -1.
<mgrwt>
<rscale>  0 0.11800692E+03</rscale>
<asrwt>0</asrwt>
<pdfrwt beam="1">  1        3 0.68092244E-02 0.12717688E+03</pdfrwt>
<pdfrwt beam="2">  1       -3 0.43566247E-01 0.12717688E+03</pdfrwt>
<totfact> 0.16559121E+03</totfact>
</mgrwt>
</event>
<event>
 8    1  0.1550723E-005  0.1463655E+03  0.7546771E-02  0.1215143E+00
          2   -1    0    0  501    0  0.00000000000E+00  0.00000000000E+00  0.32388368503E+03  0.32388368503E+03  0.00000000000E+00 0. -1.
         -2   -1    0    0    0  501 -0.00000000000E+00 -0.00000000000E+00 -0.69711617860E+02  0.69711617860E+02  0.00000000000E+00 0.  1.
         23    2    1    2    0    0 -0.23402179210E+02  0.72453080565E+02  0.44379307788E+02  0.15294563771E+03  0.12500293701E+03 0.  0.
         23    2    1    2    0    0  0.23402179210E+02 -0.72453080565E+02  0.20979275938E+03  0.24064966518E+03  0.90011935797E+02 0.  0.
          5    1    3    3  502    0  0.93376015802E+01 -0.33397370561E+02  0.54698079735E+01  0.35420106761E+02  0.47000000000E+01 0. -1.
         -5    1    3    3    0  502 -0.32739780790E+02  0.10585045113E+03  0.38909499814E+02  0.11752553095E+03  0.47000000000E+01 0. -1.
        -11    1    4    4    0    0  0.48948972534E+02 -0.25879554940E+02  0.15382527873E+03  0.16348690973E+03  0.00000000000E+00 0. -1.
         11    1    4    4    0    0 -0.25546793324E+02 -0.46573525624E+02  0.55967480656E+02  0.77162755453E+02  0.00000000000E+00 0.  1.
<mgrwt>
<rscale>  0 0.13866054E+03</rscale>
<asrwt>0</asrwt>
<pdfrwt beam="1">  1        2 0.49828259E-01 0.14636545E+03</pdfrwt>
<pdfrwt beam="2">  1       -2 0.10724864E-01 0.14636545E+03</pdfrwt>
<totfact> 0.57339492E+03</totfact>
</mgrwt>
</event>
<event>
 8    1  0.1550723E-005  0.1332386E+03  0.7546771E-02  0.1235093E+00
         -2   -1    0    0    0  501 -0.00000000000E+00  0.00000000000E+00  0.50102528713E+02  0.50102528713E+02  0.00000000000E+00 0.  1.
          2   -1    0    0  501    0  0.00000000000E+00 -0.00000000000E+00 -0.28671734759E+03  0.28671734759E+03  0.00000000000E+00 0. -1.
         23    2    1    2    0    0  0.34092354036E+02 -0.31130804337E+02 -0.10529819415E+03  0.16982411151E+03  0.12498441334E+03 0.  0.
         23    2    1    2    0    0 -0.34092354036E+02  0.31130804337E+02 -0.13131662473E+03  0.16699576480E+03  0.92261118280E+02 0.  0.
          5    1    3    3  502    0  0.30276650101E+02 -0.17640559936E+02 -0.13343463285E+03  0.13803896602E+03  0.47000000000E+01 0.  1.
         -5    1    3    3    0  502  0.38157039343E+01 -0.13490244401E+02  0.28136438707E+02  0.31785145486E+02  0.47000000000E+01 0.  1.
        -11    1    4    4    0    0  0.19908478572E+02  0.36953605809E+02 -0.28566476885E+02  0.50773616209E+02  0.00000000000E+00 0. -1.
         11    1    4    4    0    0 -0.54000832608E+02 -0.58228014722E+01 -0.10275014785E+03  0.11622214859E+03  0.00000000000E+00 0.  1.
<mgrwt>
<rscale>  0 0.12498509E+03</rscale>
<asrwt>0</asrwt>
<pdfrwt beam="2">  1        2 0.44110361E-01 0.13323858E+03</pdfrwt>
<pdfrwt beam="1">  1       -2 0.77080813E-02 0.13323858E+03</pdfrwt>
<totfact> 0.10857413E+04</totfact>
</mgrwt>
</event>
<event>
 8    1  0.1550723E-005  0.1385420E+03  0.7546771E-02  0.1226961E+00
          1   -1    0    0  501    0  0.00000000000E+00  0.00000000000E+00  0.48541635110E+02  0.48541635110E+02  0.00000000000E+00 0.  1.
         -1   -1    0    0    0  501 -0.00000000000E+00 -0.00000000000E+00 -0.31564098931E+03  0.31564098931E+03  0.00000000000E+00 0. -1.
         23    2    1    2    0    0  0.36767545117E+02 -0.47083638092E+02 -0.16125780740E+03  0.21259812729E+03  0.12500064771E+03 0.  0.
         23    2    1    2    0    0 -0.36767545117E+02  0.47083638092E+02 -0.10584154681E+03  0.15158449714E+03  0.90590868149E+02 0.  0.
          5    1    3    3  502    0 -0.40243451287E+02  0.36962381966E+01 -0.79236201746E+02  0.89071113249E+02  0.47000000000E+01 0. -1.
         -5    1    3    3    0  502  0.77010996405E+02 -0.50779876289E+02 -0.82021605651E+02  0.12352701404E+03  0.47000000000E+01 0. -1.
        -11    1    4    4    0    0 -0.78026518176E+01  0.58024760577E+02 -0.22576672615E+02  0.62749186144E+02  0.00000000000E+00 0.  1.
         11    1    4    4    0    0 -0.28964893300E+02 -0.10941122485E+02 -0.83264874191E+02  0.88835310992E+02  0.00000000000E+00 0. -1.
<mgrwt>
<rscale>  0 0.13033413E+03</rscale>
<asrwt>0</asrwt>
<pdfrwt beam="1">  1        1 0.74679440E-02 0.13854199E+03</pdfrwt>
<pdfrwt beam="2">  1       -1 0.48560151E-01 0.13854199E+03</pdfrwt>
<totfact> 0.39774450E+03</totfact>
</mgrwt>
</event>
<event>
 8    1  0.1550723E-005  0.1803189E+03  0.7546771E-02  0.1173176E+00
         -1   -1    0    0    0  501 -0.00000000000E+00  0.00000000000E+00  0.69928813899E+02  0.69928813899E+02  0.00000000000E+00 0.  1.
          1   -1    0    0  501    0  0.00000000000E+00 -0.00000000000E+00 -0.43961184374E+03  0.43961184374E+03  0.00000000000E+00 0. -1.
         23    2    1    2    0    0  0.12742644846E+03 -0.25547575144E+02 -0.13010622250E+03  0.22235674667E+03  0.12499886117E+03 0.  0.
         23    2    1    2    0    0 -0.12742644846E+03  0.25547575144E+02 -0.23957680734E+03  0.28718391096E+03  0.90484107644E+02 0.  0.
          5    1    3    3  502    0  0.78254411969E+02  0.47285005416E+02 -0.56106605352E+02  0.10737628180E+03  0.47000000000E+01 0. -1.
         -5    1    3    3    0  502  0.49172036495E+02 -0.72832580560E+02 -0.73999617145E+02  0.11498046487E+03  0.47000000000E+01 0. -1.
        -11    1    4    4    0    0 -0.81149165690E+02  0.17419188300E+02 -0.22201797455E+03  0.23702446337E+03  0.00000000000E+00 0. -1.
         11    1    4    4    0    0 -0.46277282774E+02  0.81283868444E+01 -0.17558832791E+02  0.50159447591E+02  0.00000000000E+00 0.  1.
<mgrwt>
<rscale>  0 0.17455871E+03</rscale>
<asrwt>0</asrwt>
<pdfrwt beam="2">  1        1 0.67632592E-01 0.18031887E+03</pdfrwt>
<pdfrwt beam="1">  1       -1 0.10758279E-01 0.18031887E+03</pdfrwt>
<totfact> 0.28660972E+03</totfact>
</mgrwt>
</event>
<event>
 8    1  0.1550723E-005  0.1696075E+03  0.7546771E-02  0.1182973E+00
          2   -1    0    0  501    0  0.00000000000E+00  0.00000000000E+00  0.51927203449E+03  0.51927203449E+03  0.00000000000E+00 0. -1.
         -2   -1    0    0    0  501 -0.00000000000E+00 -0.00000000000E+00 -0.65729359795E+02  0.65729359795E+02  0.00000000000E+00 0.  1.
         23    2    1    2    0    0  0.86888200431E+01  0.11192273046E+03  0.92828518772E+02  0.19334897198E+03  0.12713967863E+03 0.  0.
         23    2    1    2    0    0 -0.86888200431E+01 -0.11192273046E+03  0.36071415592E+03  0.39165242230E+03  0.10331855799E+03 0.  0.
          5    1    3    3  502    0  0.53117361799E+02  0.22081820081E+02  0.69492459436E+02  0.90334671201E+02  0.47000000000E+01 0. -1.
         -5    1    3    3    0  502 -0.44428541756E+02  0.89840910378E+02  0.23336059337E+02  0.10301430078E+03  0.47000000000E+01 0.  1.
        -11    1    4    4    0    0  0.44661440716E+02 -0.29206165997E+02  0.14619139516E+03  0.15562637449E+03  0.00000000000E+00 0.  1.
         11    1    4    4    0    0 -0.53350260759E+02 -0.82716564463E+02  0.21452276076E+03  0.23602604781E+03  0.00000000000E+00 0. -1.
<mgrwt>
<rscale>  0 0.16517693E+03</rscale>
<asrwt>0</asrwt>
<pdfrwt beam="1">  1        2 0.79888003E-01 0.16960746E+03</pdfrwt>
<pdfrwt beam="2">  1       -2 0.10112210E-01 0.16960746E+03</pdfrwt>
<totfact> 0.38056108E+03</totfact>
</mgrwt>
</event>
<event>
 8    1  0.1550723E-005  0.1522688E+03  0.7546771E-02  0.1206917E+00
         -1   -1    0    0    0  501 -0.00000000000E+00  0.00000000000E+00  0.30322083091E+03  0.30322083091E+03  0.00000000000E+00 0.  1.
          1   -1    0    0  501    0  0.00000000000E+00 -0.00000000000E+00 -0.71488427263E+02  0.71488427263E+02  0.00000000000E+00 0. -1.
         23    2    1    2    0    0  0.63981354162E+02 -0.58882967699E+02  0.18924322070E+03  0.24289662188E+03  0.12499981909E+03 0.  0.
         23    2    1    2    0    0 -0.63981354162E+02  0.58882967699E+02  0.42489182945E+02  0.13181263630E+03  0.89489791903E+02 0.  0.
          5    1    3    3  502    0  0.21750936596E+02  0.27741953412E+02  0.11721448786E+03  0.12249100124E+03  0.47000000000E+01 0. -1.
         -5    1    3    3    0  502  0.42230417566E+02 -0.86624921111E+02  0.72028732847E+02  0.12040562064E+03  0.47000000000E+01 0. -1.
        -11    1    4    4    0    0 -0.12821658536E+02  0.20157312676E+02  0.60602488249E+02  0.65141183317E+02  0.00000000000E+00 0.  1.
         11    1    4    4    0    0 -0.51159695626E+02  0.38725655023E+02 -0.18113305304E+02  0.66671452981E+02  0.00000000000E+00 0. -1.
<mgrwt>
<rscale>  0 0.14487436E+03</rscale>
<asrwt>0</asrwt>
<pdfrwt beam="2">  1        1 0.10998220E-01 0.15226875E+03</pdfrwt>
<pdfrwt beam="1">  1       -1 0.46649358E-01 0.15226875E+03</pdfrwt>
<totfact> 0.25639742E+03</totfact>
</mgrwt>
</event>
<event>
 8    1  0.1550723E-005  0.1323105E+03  0.7546771E-02  0.1237021E+00
          2   -1    0    0  501    0  0.00000000000E+00  0.00000000000E+00  0.77327048169E+02  0.77327048169E+02  0.00000000000E+00 0. -1.
         -2   -1    0    0    0  501 -0.00000000000E+00 -0.00000000000E+00 -0.18687219022E+03  0.18687219022E+03  0.00000000000E+00 0.  1.
         23    2    1    2    0    0 -0.63149311881E+01  0.42905568597E+02 -0.92634277899E+02  0.16151526042E+03  0.12500121493E+03 0.  0.
         23    2    1    2    0    0  0.63149311881E+01 -0.42905568597E+02 -0.16910864152E+02  0.10268397797E+03  0.91527350188E+02 0.  0.
          5    1    3    3  502    0  0.44272262674E+02  0.45293691524E+01  0.49213906209E+01  0.45020645407E+02  0.47000000000E+01 0.  1.
         -5    1    3    3    0  502 -0.50587193862E+02  0.38376199444E+02 -0.97555668519E+02  0.11649461501E+03  0.47000000000E+01 0.  1.
        -11    1    4    4    0    0 -0.39648974329E+02 -0.13714118479E+02 -0.23083703152E+02  0.47885024404E+02  0.00000000000E+00 0. -1.
         11    1    4    4    0    0  0.45963905517E+02 -0.29191450118E+02  0.61728389995E+01  0.54798953564E+02  0.00000000000E+00 0.  1.
<mgrwt>
<rscale>  0 0.12375954E+03</rscale>
<asrwt>0</asrwt>
<pdfrwt beam="1">  1        2 0.11896469E-01 0.13231051E+03</pdfrwt>
<pdfrwt beam="2">  1       -2 0.28749568E-01 0.13231051E+03</pdfrwt>
<totfact> 0.54144014E+03</totfact>
</mgrwt>
</event>
<event>
 8    1  0.1550723E-005  0.1255743E+03  0.7546771E-02  0.1249780E+00
          1   -1    0    0  501    0  0.00000000000E+00  0.00000000000E+00  0.99411191941E+02  0.99411191941E+02  0.00000000000E+00 0. -1.
         -1   -1    0    0    0  501 -0.00000000000E+00 -0.00000000000E+00 -0.12235998123E+03  0.12235998123E+03  0.00000000000E+00 0.  1.
         23    2    1    2    0    0 -0.11686945058E+02 -0.24972853786E+01 -0.32510373862E+02  0.12971445076E+03  0.12500437275E+03 0.  0.
         23    2    1    2    0    0  0.11686945058E+02  0.24972853786E+01  0.95615845689E+01  0.92056722418E+02  0.90775520510E+02 0.  0.
          5    1    3    3  502    0  0.23926107520E+02  0.47576100764E+02 -0.41179854292E+02  0.67481955992E+02  0.47000000000E+01 0.  1.
         -5    1    3    3    0  502 -0.35613052578E+02 -0.50073386143E+02  0.86694804299E+01  0.62232494764E+02  0.47000000000E+01 0.  1.
        -11    1    4    4    0    0 -0.14268483885E+02 -0.56801761344E+01 -0.35914466294E+02  0.39060247342E+02  0.00000000000E+00 0.  1.
         11    1    4    4    0    0  0.25955428943E+02  0.81774615130E+01  0.45476050862E+02  0.52996475076E+02  0.00000000000E+00 0. -1.
<mgrwt>
<rscale>  0 0.11603813E+03</rscale>
<asrwt>0</asrwt>
<pdfrwt beam="1">  1        1 0.15294030E-01 0.12557434E+03</pdfrwt>
<pdfrwt beam="2">  1       -1 0.18824612E-01 0.12557434E+03</pdfrwt>
<totfact> 0.75993339E+03</totfact>
</mgrwt>
</event>
<event>
 8    1  0.1550723E-005  0.1751052E+03  0.7546771E-02  0.1178400E+00
         -2   -1    0    0    0  501 -0.00000000000E+00  0.00000000000E+00  0.48714918312E+02  0.48714918312E+02  0.00000000000E+00 0.  1.
          2   -1    0    0  501    0  0.00000000000E+00 -0.00000000000E+00 -0.55508498804E+03  0.55508498804E+03  0.00000000000E+00 0. -1.
         23    2    1    2    0    0  0.69294533238E+02 -0.10116851261E+03 -0.27850757457E+03  0.32898067669E+03  0.12500006504E+03 0.  0.
         23    2    1    2    0    0 -0.69294533238E+02  0.10116851261E+03 -0.22786249515E+03  0.27481922966E+03  0.92560747677E+02 0.  0.
          5    1    3    3  502    0 -0.35948594081E+02 -0.16000282654E+02 -0.64350296323E+02  0.75573547609E+02  0.47000000000E+01 0. -1.
         -5    1    3    3    0  502  0.10524312732E+03 -0.85168229961E+02 -0.21415727825E+03  0.25340712908E+03  0.47000000000E+01 0. -1.
        -11    1    4    4    0    0 -0.23335458533E+02  0.99765147892E+02 -0.18735596254E+03  0.21354129590E+03  0.00000000000E+00 0. -1.
         11    1    4    4    0    0 -0.45959074705E+02  0.14033647232E+01 -0.40506532615E+02  0.61277933751E+02  0.00000000000E+00 0.  1.
<mgrwt>
<rscale>  0 0.16947205E+03</rscale>
<asrwt>0</asrwt>
<pdfrwt beam="2">  1        2 0.85397695E-01 0.17510516E+03</pdfrwt>
<pdfrwt beam="1">  1       -2 0.74946025E-02 0.17510516E+03</pdfrwt>
<totfact> 0.56482695E+03</totfact>
</mgrwt>
</event>
<event>
 8    1  0.1550723E-005  0.1455366E+03  0.7546771E-02  0.1216092E+00
          1   -1    0    0  501    0  0.00000000000E+00  0.00000000000E+00  0.22005040735E+02  0.22005040735E+02  0.00000000000E+00 0. -1.
         -1   -1    0    0    0  501 -0.00000000000E+00 -0.00000000000E+00 -0.12830186277E+04  0.12830186277E+04  0.00000000000E+00 0.  1.
         23    2    1    2    0    0 -0.64013149800E+02  0.38193821897E+02 -0.10762329403E+04  0.10860286598E+04  0.12499782620E+03 0.  0.
         23    2    1    2    0    0  0.64013149800E+02 -0.38193821897E+02 -0.18478064662E+03  0.21899500868E+03  0.90876152435E+02 0.  0.
          5    1    3    3  502    0 -0.40490503903E+02  0.13872993736E+01 -0.97276747461E+03  0.97362213161E+03  0.47000000000E+01 0. -1.
         -5    1    3    3    0  502 -0.23522645896E+02  0.36806522523E+02 -0.10346546574E+03  0.11240652815E+03  0.47000000000E+01 0. -1.
        -11    1    4    4    0    0  0.65031207066E+02 -0.10169369288E+02 -0.17851144876E+03  0.19025985205E+03  0.00000000000E+00 0.  1.
         11    1    4    4    0    0 -0.10180572663E+01 -0.28024452608E+02 -0.62691978642E+01  0.28735156628E+02  0.00000000000E+00 0. -1.
<mgrwt>
<rscale>  0 0.13796623E+03</rscale>
<asrwt>0</asrwt>
<pdfrwt beam="1">  1        1 0.33853902E-02 0.14553662E+03</pdfrwt>
<pdfrwt beam="2">  1       -1 0.19738752E+00 0.14553662E+03</pdfrwt>
<totfact> 0.49697884E+02</totfact>
</mgrwt>
</event>
<event>
 8    1  0.1550723E-005  0.1325491E+03  0.7546771E-02  0.1236745E+00
          4   -1    0    0  501    0  0.00000000000E+00  0.00000000000E+00  0.46779837853E+02  0.46779837853E+02  0.00000000000E+00 0. -1.
         -4   -1    0    0    0  501 -0.00000000000E+00 -0.00000000000E+00 -0.29434079295E+03  0.29434079295E+03  0.00000000000E+00 0.  1.
         23    2    1    2    0    0 -0.30987985284E+02 -0.31334665579E+02 -0.12599068420E+03  0.18287405093E+03  0.12500859770E+03 0.  0.
         23    2    1    2    0    0  0.30987985284E+02  0.31334665579E+02 -0.12157027089E+03  0.15824657987E+03  0.91216954437E+02 0.  0.
          5    1    3    3  502    0 -0.76705522156E+02  0.50014342379E-01 -0.75479178069E+02  0.10771692510E+03  0.47000000000E+01 0. -1.
         -5    1    3    3    0  502  0.45717536872E+02 -0.31384679921E+02 -0.50511506134E+02  0.75157125832E+02  0.47000000000E+01 0. -1.
        -11    1    4    4    0    0  0.10463315736E+02  0.21356145341E+02  0.92005240651E+01  0.25499324758E+02  0.00000000000E+00 0. -1.
         11    1    4    4    0    0  0.20524669548E+02  0.99785202376E+01 -0.13077079496E+03  0.13274725511E+03  0.00000000000E+00 0.  1.
<mgrwt>
<rscale>  0 0.12393388E+03</rscale>
<asrwt>0</asrwt>
<pdfrwt beam="1">  1        4 0.71968980E-02 0.13254911E+03</pdfrwt>
<pdfrwt beam="2">  1       -4 0.45283200E-01 0.13254911E+03</pdfrwt>
<totfact> 0.10266782E+03</totfact>
</mgrwt>
</event>
<event>
 8    1  0.1550723E-005  0.1938561E+03  0.7546771E-02  0.1159762E+00
          3   -1    0    0  501    0  0.00000000000E+00  0.00000000000E+00  0.69585924159E+03  0.69585924159E+03  0.00000000000E+00 0. -1.
         -3   -1    0    0    0  501 -0.00000000000E+00 -0.00000000000E+00 -0.54146260227E+02  0.54146260227E+02  0.00000000000E+00 0.  1.
         23    2    1    2    0    0 -0.49424383760E+02 -0.13966309460E+03  0.45773408390E+03  0.49709221975E+03  0.12502653188E+03 0.  0.
         23    2    1    2    0    0  0.49424383760E+02  0.13966309460E+03  0.18397889747E+03  0.25291328207E+03  0.90378890395E+02 0.  0.
          5    1    3    3  502    0 -0.77366866274E+02 -0.64733012481E+02  0.34006555036E+03  0.35474309499E+03  0.47000000000E+01 0.  1.
         -5    1    3    3    0  502  0.27942482514E+02 -0.74930082119E+02  0.11766853354E+03  0.14234912476E+03  0.47000000000E+01 0.  1.
        -11    1    4    4    0    0  0.11832442676E+02  0.26103445611E+02 -0.51613013939E+01  0.29121050883E+02  0.00000000000E+00 0.  1.
         11    1    4    4    0    0  0.37591941084E+02  0.11355964899E+03  0.18914019886E+03  0.22379223118E+03  0.00000000000E+00 0. -1.
<mgrwt>
<rscale>  0 0.18856490E+03</rscale>
<asrwt>0</asrwt>
<pdfrwt beam="1">  1        3 0.10705526E+00 0.19385609E+03</pdfrwt>
<pdfrwt beam="2">  1       -3 0.83301944E-02 0.19385609E+03</pdfrwt>
<totfact> 0.18834100E+02</totfact>
</mgrwt>
</event>
<event>
 8    1  0.1550723E-005  0.1608458E+03  0.7546771E-02  0.1195156E+00
         -2   -1    0    0    0  501 -0.00000000000E+00  0.00000000000E+00  0.50423902675E+02  0.50423902675E+02  0.00000000000E+00 0.  1.
          2   -1    0    0  501    0  0.00000000000E+00 -0.00000000000E+00 -0.46410934609E+03  0.46410934609E+03  0.00000000000E+00 0. -1.
         23    2    1    2    0    0 -0.13794749784E+02  0.10026331072E+03 -0.16273346843E+03  0.22880896903E+03  0.12501334314E+03 0.  0.
         23    2    1    2    0    0  0.13794749784E+02 -0.10026331072E+03 -0.25095197498E+03  0.28572427973E+03  0.91752077258E+02 0.  0.
          5    1    3    3  502    0 -0.59306815082E+02  0.95202012664E+02 -0.95846743469E+02  0.14761236318E+03  0.47000000000E+01 0.  1.
         -5    1    3    3    0  502  0.45512065297E+02  0.50612980567E+01 -0.66886724960E+02  0.81196605850E+02  0.47000000000E+01 0.  1.
        -11    1    4    4    0    0 -0.36923879099E+02 -0.60162804155E+02 -0.11077613803E+03  0.13135558080E+03  0.00000000000E+00 0. -1.
         11    1    4    4    0    0  0.50718628884E+02 -0.40100506567E+02 -0.14017583696E+03  0.15436869893E+03  0.00000000000E+00 0.  1.
<mgrwt>
<rscale>  0 0.15441002E+03</rscale>
<asrwt>0</asrwt>
<pdfrwt beam="2">  1        2 0.71401436E-01 0.16084577E+03</pdfrwt>
<pdfrwt beam="1">  1       -2 0.77575237E-02 0.16084577E+03</pdfrwt>
<totfact> 0.65038639E+03</totfact>
</mgrwt>
</event>
<event>
 8    1  0.1550723E-005  0.1882107E+03  0.7546771E-02  0.1165099E+00
         -2   -1    0    0    0  501 -0.00000000000E+00  0.00000000000E+00  0.16872416681E+03  0.16872416681E+03  0.00000000000E+00 0.  1.
          2   -1    0    0  501    0  0.00000000000E+00 -0.00000000000E+00 -0.21495201380E+03  0.21495201380E+03  0.00000000000E+00 0. -1.
         23    2    1    2    0    0  0.73654586875E+02 -0.11988438815E+03  0.44108295880E+02  0.19331015660E+03  0.12500404069E+03 0.  0.
         23    2    1    2    0    0 -0.73654586875E+02  0.11988438815E+03 -0.90336142869E+02  0.19036602402E+03  0.91001866471E+02 0.  0.
          5    1    3    3  502    0  0.73141697667E+02 -0.11756703405E+03 -0.10041349794E+02  0.13890512639E+03  0.47000000000E+01 0.  1.
         -5    1    3    3    0  502  0.51288920737E+00 -0.23173541037E+01  0.54149645674E+02  0.54405030209E+02  0.47000000000E+01 0.  1.
        -11    1    4    4    0    0 -0.42920255504E+02  0.12847200144E+03 -0.69358158302E+02  0.15217673149E+03  0.00000000000E+00 0. -1.
         11    1    4    4    0    0 -0.30734331371E+02 -0.85876132857E+01 -0.20977984567E+02  0.38189292521E+02  0.00000000000E+00 0.  1.
<mgrwt>
<rscale>  0 0.18282274E+03</rscale>
<asrwt>0</asrwt>
<pdfrwt beam="2">  1        2 0.33069540E-01 0.18821072E+03</pdfrwt>
<pdfrwt beam="1">  1       -2 0.25957564E-01 0.18821072E+03</pdfrwt>
<totfact> 0.20631238E+03</totfact>
</mgrwt>
</event>
<event>
 8    1  0.1550723E-005  0.1566964E+03  0.7546771E-02  0.1200298E+00
         -2   -1    0    0    0  501 -0.00000000000E+00  0.00000000000E+00  0.94000524752E+02  0.94000524752E+02  0.00000000000E+00 0.  1.
          2   -1    0    0  501    0  0.00000000000E+00 -0.00000000000E+00 -0.22188111920E+03  0.22188111920E+03  0.00000000000E+00 0. -1.
         23    2    1    2    0    0  0.81106547480E+02 -0.48477162494E+02 -0.66159150235E+02  0.17009057635E+03  0.12500185469E+03 0.  0.
         23    2    1    2    0    0 -0.81106547480E+02  0.48477162494E+02 -0.61721444218E+02  0.14579106761E+03  0.92288630880E+02 0.  0.
          5    1    3    3  502    0  0.57936744282E+02  0.35728264376E+02 -0.19498952087E+02  0.70961076273E+02  0.47000000000E+01 0.  1.
         -5    1    3    3    0  502  0.23169803198E+02 -0.84205426870E+02 -0.46660198148E+02  0.99129500079E+02  0.47000000000E+01 0.  1.
        -11    1    4    4    0    0 -0.37204400388E+02  0.92365439452E+01  0.21418274429E+02  0.43911543264E+02  0.00000000000E+00 0.  1.
         11    1    4    4    0    0 -0.43902147092E+02  0.39240618549E+02 -0.83139718647E+02  0.10187952434E+03  0.00000000000E+00 0. -1.
<mgrwt>
<rscale>  0 0.15014288E+03</rscale>
<asrwt>0</asrwt>
<pdfrwt beam="2">  1        2 0.34135557E-01 0.15669643E+03</pdfrwt>
<pdfrwt beam="1">  1       -2 0.14461619E-01 0.15669643E+03</pdfrwt>
<totfact> 0.53314171E+03</totfact>
</mgrwt>
</event>
<event>
 8    1  0.1756861E-005  0.2702738E+03  0.7546771E-02  0.1103367E+00
          2   -1    0    0  501    0  0.00000000000E+00  0.00000000000E+00  0.91739727104E+03  0.91739727104E+03  0.00000000000E+00 0. -1.
         -2   -1    0    0    0  501 -0.00000000000E+00 -0.00000000000E+00 -0.81939326964E+02  0.81939326964E+02  0.00000000000E+00 0.  1.
         23    2    1    2    0    0 -0.23833548663E+03  0.24887307032E+02  0.28562700004E+03  0.39323110813E+03  0.12499895602E+03 0.  0.
         23    2    1    2    0    0  0.23833548663E+03 -0.24887307032E+02  0.54983094403E+03  0.60610548988E+03  0.87330496419E+02 0.  0.
          5    1    3    3  502    0 -0.26266253891E+02  0.49386532055E+02  0.70549043320E+02  0.90156548044E+02  0.47000000000E+01 0. -1.
         -5    1    3    3    0  502 -0.21206923274E+03 -0.24499225024E+02  0.21507795672E+03  0.30307456008E+03  0.47000000000E+01 0. -1.
        -11    1    4    4    0    0  0.12237699925E+03  0.28734927236E+02  0.30647013605E+03  0.33124880420E+03  0.00000000000E+00 0.  1.
         11    1    4    4    0    0  0.11595848738E+03 -0.53622234268E+02  0.24336080798E+03  0.27485668568E+03  0.00000000000E+00 0. -1.
<mgrwt>
<rscale>  0 0.26638434E+03</rscale>
<asrwt>0</asrwt>
<pdfrwt beam="1">  1        2 0.14113803E+00 0.27027379E+03</pdfrwt>
<pdfrwt beam="2">  1       -2 0.12606051E-01 0.27027379E+03</pdfrwt>
<totfact> 0.13511168E+03</totfact>
</mgrwt>
</event>
<event>
 7    1  0.1550723E-005  0.6591570E+03  0.7546771E-02  0.9789747E-01
          2   -1    0    0  501    0  0.00000000000E+00  0.00000000000E+00  0.81418102438E+03  0.81418102438E+03  0.00000000000E+00 0. -1.
         -2   -1    0    0    0  501 -0.00000000000E+00 -0.00000000000E+00 -0.13341256393E+03  0.13341256393E+03  0.00000000000E+00 0.  1.
         23    2    1    2    0    0  0.17369303345E+03  0.72253216495E+02  0.41882698781E+03  0.46840865859E+03  0.92740652139E+02 0.  0.
          5    1    1    2  502    0 -0.28215923935E+03 -0.75534177224E+02  0.20147281002E+03  0.35486987962E+03  0.47000000000E+01 0. -1.
         -5    1    1    2    0  502  0.10846620590E+03  0.32809607285E+01  0.60468662615E+02  0.12431505011E+03  0.47000000000E+01 0.  1.
        -11    1    3    3    0    0  0.15853086705E+03  0.92777088760E+02  0.35590965463E+03  0.40051380284E+03  0.00000000000E+00 0. -1.
         11    1    3    3    0    0  0.15162166404E+02 -0.20523872264E+02  0.62917333180E+02  0.67894855750E+02  0.00000000000E+00 0.  1.
<mgrwt>
<rscale>  0 0.65915697E+03</rscale>
<asrwt>0</asrwt>
<pdfrwt beam="1">  1        2 0.12525862E+00 0.65915697E+03</pdfrwt>
<pdfrwt beam="2">  1       -2 0.20525010E-01 0.65915697E+03</pdfrwt>
<totfact> 0.69011822E+02</totfact>
</mgrwt>
</event>
<event>
 8    1  0.1550723E-005  0.2179426E+03  0.7546771E-02  0.1137635E+00
         -2   -1    0    0    0  501 -0.00000000000E+00  0.00000000000E+00  0.16333265505E+03  0.16333265505E+03  0.00000000000E+00 0.  1.
          2   -1    0    0  501    0  0.00000000000E+00 -0.00000000000E+00 -0.27662204511E+03  0.27662204511E+03  0.00000000000E+00 0. -1.
         23    2    1    2    0    0 -0.17203838971E+03 -0.47713754494E+02 -0.69934430962E+02  0.22888817662E+03  0.12500065144E+03 0.  0.
         23    2    1    2    0    0  0.17203838971E+03  0.47713754494E+02 -0.43354959092E+02  0.21106652354E+03  0.10390194888E+03 0.  0.
          5    1    3    3  502    0 -0.15832949417E+03 -0.52457250356E+02 -0.10125998776E+02  0.16716643709E+03  0.47000000000E+01 0. -1.
         -5    1    3    3    0  502 -0.13708895541E+02  0.47434958618E+01 -0.59808432186E+02  0.61721739529E+02  0.47000000000E+01 0. -1.
        -11    1    4    4    0    0  0.31155254377E+02 -0.26030304396E+02  0.12574258659E+02  0.42501042376E+02  0.00000000000E+00 0.  1.
         11    1    4    4    0    0  0.14088313533E+03  0.73744058890E+02 -0.55929217751E+02  0.16856548117E+03  0.00000000000E+00 0. -1.
<mgrwt>
<rscale>  0 0.21504096E+03</rscale>
<asrwt>0</asrwt>
<pdfrwt beam="2">  1        2 0.42557237E-01 0.21794259E+03</pdfrwt>
<pdfrwt beam="1">  1       -2 0.25128101E-01 0.21794259E+03</pdfrwt>
<totfact> 0.16710855E+03</totfact>
</mgrwt>
</event>
<event>
 8    1  0.1550723E-005  0.1681663E+03  0.7546771E-02  0.1187296E+00
          2   -1    0    0  501    0  0.00000000000E+00  0.00000000000E+00  0.47515400870E+03  0.47515400870E+03  0.00000000000E+00 0. -1.
         -2   -1    0    0    0  501 -0.00000000000E+00 -0.00000000000E+00 -0.52475407558E+02  0.52475407558E+02  0.00000000000E+00 0.  1.
         23    2    1    2    0    0  0.36216497566E+02 -0.10652432570E+03  0.27726146425E+03  0.32427429262E+03  0.12498332143E+03 0.  0.
         23    2    1    2    0    0 -0.36216497566E+02  0.10652432570E+03  0.14541713689E+03  0.20335512363E+03  0.86879778683E+02 0.  0.
          5    1    3    3  502    0  0.42856548001E+02  0.15494456110E+02  0.79574014030E+02  0.91819799530E+02  0.47000000000E+01 0. -1.
         -5    1    3    3    0  502 -0.66400504358E+01 -0.12201878181E+03  0.19768745022E+03  0.23245449309E+03  0.47000000000E+01 0. -1.
        -11    1    4    4    0    0 -0.14747160494E+02 -0.69909010838E+01 -0.15760590619E+01  0.16396200864E+02  0.00000000000E+00 0.  1.
         11    1    4    4    0    0 -0.21469337072E+02  0.11351522679E+03  0.14699319595E+03  0.18695892277E+03  0.00000000000E+00 0. -1.
<mgrwt>
<rscale>  0 0.16124726E+03</rscale>
<asrwt>0</asrwt>
<pdfrwt beam="1">  1        2 0.73100614E-01 0.16816628E+03</pdfrwt>
<pdfrwt beam="2">  1       -2 0.80731400E-02 0.16816628E+03</pdfrwt>
<totfact> 0.59723737E+03</totfact>
</mgrwt>
</event>
<event>
 8    1  0.1550723E-005  0.1266163E+03  0.7546771E-02  0.1247872E+00
         -3   -1    0    0    0  501 -0.00000000000E+00  0.00000000000E+00  0.10282547548E+03  0.10282547548E+03  0.00000000000E+00 0.  1.
          3   -1    0    0  501    0  0.00000000000E+00 -0.00000000000E+00 -0.13843624160E+03  0.13843624160E+03  0.00000000000E+00 0. -1.
         23    2    1    2    0    0 -0.99951632129E+00  0.20217028796E+02  0.26813467219E+02  0.12942427703E+03  0.12498781610E+03 0.  0.
         23    2    1    2    0    0  0.99951632129E+00 -0.20217028796E+02 -0.62424233341E+02  0.11183744005E+03  0.90559929340E+02 0.  0.
          5    1    3    3  502    0 -0.50815523575E+02  0.30665024440E+02 -0.17198247642E+02  0.61971210107E+02  0.47000000000E+01 0.  1.
         -5    1    3    3    0  502  0.49816007254E+02 -0.10447995645E+02  0.44011714862E+02  0.67453066919E+02  0.47000000000E+01 0.  1.
        -11    1    4    4    0    0  0.42538936537E+02 -0.24306058908E+02 -0.45281742418E+02  0.66714180035E+02  0.00000000000E+00 0. -1.
         11    1    4    4    0    0 -0.41539420216E+02  0.40890301124E+01 -0.17142490922E+02  0.45123260012E+02  0.00000000000E+00 0.  1.
<mgrwt>
<rscale>  0 0.11715148E+03</rscale>
<asrwt>0</asrwt>
<pdfrwt beam="2">  1        3 0.21297883E-01 0.12661628E+03</pdfrwt>
<pdfrwt beam="1">  1       -3 0.15819304E-01 0.12661628E+03</pdfrwt>
<totfact> 0.15421509E+03</totfact>
</mgrwt>
</event>
<event>
 8    1  0.1550723E-005  0.1293960E+03  0.7546771E-02  0.1242789E+00
          1   -1    0    0  501    0  0.00000000000E+00  0.00000000000E+00  0.18275735977E+02  0.18275735977E+02  0.00000000000E+00 0.  1.
         -1   -1    0    0    0  501 -0.00000000000E+00 -0.00000000000E+00 -0.73278722695E+03  0.73278722695E+03  0.00000000000E+00 0. -1.
         23    2    1    2    0    0  0.32338898774E+02 -0.84102540515E+01 -0.48935080188E+03  0.50616946158E+03  0.12500711894E+03 0.  0.
         23    2    1    2    0    0 -0.32338898774E+02  0.84102540515E+01 -0.22516068910E+03  0.24489350135E+03  0.90326930334E+02 0.  0.
          5    1    3    3  502    0  0.21377000485E+02 -0.66533210794E+02 -0.26037882510E+03  0.26963469147E+03  0.47000000000E+01 0.  1.
         -5    1    3    3    0  502  0.10961898289E+02  0.58122956743E+02 -0.22897197679E+03  0.23653477010E+03  0.47000000000E+01 0.  1.
        -11    1    4    4    0    0 -0.13047835537E+02  0.47691620744E+02 -0.88233154656E+02  0.10114260369E+03  0.00000000000E+00 0.  1.
         11    1    4    4    0    0 -0.19291063237E+02 -0.39281366692E+02 -0.13692753444E+03  0.14375089766E+03  0.00000000000E+00 0. -1.
<mgrwt>
<rscale>  0 0.12018705E+03</rscale>
<asrwt>0</asrwt>
<pdfrwt beam="1">  1        1 0.28116519E-02 0.12939597E+03</pdfrwt>
<pdfrwt beam="2">  1       -1 0.11273649E+00 0.12939597E+03</pdfrwt>
<totfact> 0.27534659E+03</totfact>
</mgrwt>
</event>
<event>
 8    1  0.1550723E-005  0.1771416E+03  0.7546771E-02  0.1176733E+00
          2   -1    0    0  501    0  0.00000000000E+00  0.00000000000E+00  0.36941581049E+03  0.36941581049E+03  0.00000000000E+00 0. -1.
         -2   -1    0    0    0  501 -0.00000000000E+00 -0.00000000000E+00 -0.80937989421E+02  0.80937989421E+02  0.00000000000E+00 0.  1.
         23    2    1    2    0    0 -0.73136992998E+02 -0.10200695393E+03  0.88855183094E+02  0.19817766058E+03  0.12499881277E+03 0.  0.
         23    2    1    2    0    0  0.73136992998E+02  0.10200695393E+03  0.19962263797E+03  0.25217613933E+03  0.89382152922E+02 0.  0.
          5    1    3    3  502    0 -0.82364724675E+02 -0.10559759428E+03  0.28713117363E+02  0.13704500318E+03  0.47000000000E+01 0. -1.
         -5    1    3    3    0  502  0.92277316762E+01  0.35906403496E+01  0.60142065732E+02  0.61132657397E+02  0.47000000000E+01 0. -1.
        -11    1    4    4    0    0 -0.25456376994E+01  0.68688387866E+02  0.11416675884E+03  0.13326148627E+03  0.00000000000E+00 0. -1.
         11    1    4    4    0    0  0.75682630698E+02  0.33318566065E+02  0.85455879134E+02  0.11891465306E+03  0.00000000000E+00 0.  1.
<mgrwt>
<rscale>  0 0.17107389E+03</rscale>
<asrwt>0</asrwt>
<pdfrwt beam="1">  1        2 0.56833201E-01 0.17714159E+03</pdfrwt>
<pdfrwt beam="2">  1       -2 0.12451999E-01 0.17714159E+03</pdfrwt>
<totfact> 0.39634500E+03</totfact>
</mgrwt>
</event>
<event>
 8    1  0.1550723E-005  0.1276748E+03  0.7546771E-02  0.1245619E+00
         -4   -1    0    0    0  501 -0.00000000000E+00  0.00000000000E+00  0.31031636187E+03  0.31031636187E+03  0.00000000000E+00 0.  1.
          4   -1    0    0  501    0  0.00000000000E+00 -0.00000000000E+00 -0.40231517746E+02  0.40231517746E+02  0.00000000000E+00 0. -1.
         23    2    1    2    0    0 -0.84035726662E+01 -0.24561995548E+02  0.17205277852E+03  0.21424990990E+03  0.12500781430E+03 0.  0.
         23    2    1    2    0    0  0.84035726662E+01  0.24561995548E+02  0.98032065605E+02  0.13629796972E+03  0.91065575294E+02 0.  0.
          5    1    3    3  502    0  0.13669121882E+02 -0.17524516397E+02 -0.14011353510E+02  0.26690102944E+02  0.47000000000E+01 0. -1.
         -5    1    3    3    0  502 -0.22072694548E+02 -0.70374791510E+01  0.18606413203E+03  0.18755980695E+03  0.47000000000E+01 0. -1.
        -11    1    4    4    0    0 -0.37144662942E+02 -0.22360572962E+00  0.18869041494E+02  0.41663133721E+02  0.00000000000E+00 0. -1.
         11    1    4    4    0    0  0.45548235608E+02  0.24785601277E+02  0.79163024112E+02  0.94634835997E+02  0.00000000000E+00 0.  1.
<mgrwt>
<rscale>  0 0.11848380E+03</rscale>
<asrwt>0</asrwt>
<pdfrwt beam="2">  1        4 0.61894645E-02 0.12767484E+03</pdfrwt>
<pdfrwt beam="1">  1       -4 0.47740977E-01 0.12767484E+03</pdfrwt>
<totfact> 0.11715759E+03</totfact>
</mgrwt>
</event>
<event>
 8    1  0.1550723E-005  0.1254281E+03  0.7546771E-02  0.1251562E+00
          1   -1    0    0  501    0  0.00000000000E+00  0.00000000000E+00  0.17993014231E+02  0.17993014231E+02  0.00000000000E+00 0. -1.
         -1   -1    0    0    0  501 -0.00000000000E+00 -0.00000000000E+00 -0.64578050083E+03  0.64578050083E+03  0.00000000000E+00 0.  1.
         23    2    1    2    0    0  0.10415582086E+02  0.10008521240E+01 -0.40544237386E+03  0.42440042829E+03  0.12499087548E+03 0.  0.
         23    2    1    2    0    0 -0.10415582086E+02 -0.10008521240E+01 -0.22234511274E+03  0.23937308678E+03  0.88049074150E+02 0.  0.
          5    1    3    3  502    0  0.45344152574E+02 -0.20187244764E+02 -0.67240926609E+02  0.83708119290E+02  0.47000000000E+01 0. -1.
         -5    1    3    3    0  502 -0.34928570488E+02  0.21188096888E+02 -0.33820144725E+03  0.34069230900E+03  0.47000000000E+01 0. -1.
        -11    1    4    4    0    0  0.25572603908E+02 -0.33636818346E+01 -0.17014863403E+02  0.30899482241E+02  0.00000000000E+00 0. -1.
         11    1    4    4    0    0 -0.35988185995E+02  0.23628297106E+01 -0.20533024934E+03  0.20847360454E+03  0.00000000000E+00 0.  1.
<mgrwt>
<rscale>  0 0.11501079E+03</rscale>
<asrwt>0</asrwt>
<pdfrwt beam="1">  1        1 0.27681561E-02 0.12542809E+03</pdfrwt>
<pdfrwt beam="2">  1       -1 0.99350844E-01 0.12542809E+03</pdfrwt>
<totfact> 0.37273715E+03</totfact>
</mgrwt>
</event>
<event>
 8    1  0.1550723E-005  0.1524198E+03  0.7546771E-02  0.1204463E+00
          1   -1    0    0  501    0  0.00000000000E+00  0.00000000000E+00  0.20406201049E+03  0.20406201049E+03  0.00000000000E+00 0. -1.
         -1   -1    0    0    0  501 -0.00000000000E+00 -0.00000000000E+00 -0.17661165828E+03  0.17661165828E+03  0.00000000000E+00 0.  1.
         23    2    1    2    0    0 -0.33220398584E+01  0.93479686648E+02 -0.11207244922E+03  0.18918780907E+03  0.12034245079E+03 0.  0.
         23    2    1    2    0    0  0.33220398584E+01 -0.93479686648E+02  0.13952280143E+03  0.19148585970E+03  0.91927877077E+02 0.  0.
          5    1    3    3  502    0  0.58847162713E+01 -0.12251149152E+02  0.16838150595E+02  0.22143483389E+02  0.47000000000E+01 0. -1.
         -5    1    3    3    0  502 -0.92067561297E+01  0.10573083580E+03 -0.12891059982E+03  0.16704432568E+03  0.47000000000E+01 0.  1.
        -11    1    4    4    0    0  0.31779724546E+02 -0.56796841815E+02  0.28314870970E+02  0.70975799047E+02  0.00000000000E+00 0.  1.
         11    1    4    4    0    0 -0.28457684688E+02 -0.36682844833E+02  0.11120793046E+03  0.12051006066E+03  0.00000000000E+00 0. -1.
<mgrwt>
<rscale>  0 0.14679889E+03</rscale>
<asrwt>0</asrwt>
<pdfrwt beam="1">  1        1 0.31394155E-01 0.15241979E+03</pdfrwt>
<pdfrwt beam="2">  1       -1 0.27171024E-01 0.15241979E+03</pdfrwt>
<totfact> 0.17006193E+03</totfact>
</mgrwt>
</event>
<event>
 8    1  0.1550723E-005  0.1459195E+03  0.7546771E-02  0.1212967E+00
          1   -1    0    0  501    0  0.00000000000E+00  0.00000000000E+00  0.64533464130E+02  0.64533464130E+02  0.00000000000E+00 0. -1.
         -1   -1    0    0    0  501 -0.00000000000E+00 -0.00000000000E+00 -0.33767458741E+03  0.33767458741E+03  0.00000000000E+00 0.  1.
         23    2    1    2    0    0  0.19540688576E+02 -0.72708187013E+02 -0.22595297690E+03  0.26897442588E+03  0.12499670012E+03 0.  0.
         23    2    1    2    0    0 -0.19540688576E+02  0.72708187013E+02 -0.47188146379E+02  0.13323362566E+03  0.99278189337E+02 0.  0.
          5    1    3    3  502    0 -0.28619911725E+02 -0.83035121712E+02 -0.97439164258E+02  0.13126466210E+03  0.47000000000E+01 0.  1.
         -5    1    3    3    0  502  0.48160600301E+02  0.10326934698E+02 -0.12851381264E+03  0.13770976378E+03  0.47000000000E+01 0.  1.
        -11    1    4    4    0    0 -0.48156420865E+01 -0.25164583756E+02 -0.94163921565E+01  0.27296796984E+02  0.00000000000E+00 0.  1.
         11    1    4    4    0    0 -0.14725046490E+02  0.97872770769E+02 -0.37771754222E+02  0.10593682867E+03  0.00000000000E+00 0. -1.
<mgrwt>
<rscale>  0 0.14026912E+03</rscale>
<asrwt>0</asrwt>
<pdfrwt beam="1">  1        1 0.99282254E-02 0.14591948E+03</pdfrwt>
<pdfrwt beam="2">  1       -1 0.51949936E-01 0.14591948E+03</pdfrwt>
<totfact> 0.24084782E+03</totfact>
</mgrwt>
</event>
<event>
 8    1  0.1550723E-005  0.1440426E+03  0.7546771E-02  0.1217901E+00
         -2   -1    0    0    0  501 -0.00000000000E+00  0.00000000000E+00  0.25897857010E+02  0.25897857010E+02  0.00000000000E+00 0.  1.
          2   -1    0    0  501    0  0.00000000000E+00 -0.00000000000E+00 -0.65840421665E+03  0.65840421665E+03  0.00000000000E+00 0. -1.
         23    2    1    2    0    0 -0.60094679075E+02 -0.44365210209E+02 -0.32989340369E+03  0.35996933875E+03  0.12316097074E+03 0.  0.
         23    2    1    2    0    0  0.60094679075E+02  0.44365210209E+02 -0.30261295596E+03  0.32433273492E+03  0.89651991029E+02 0.  0.
          5    1    3    3  502    0  0.10802076892E+02  0.22903791439E+02 -0.17412841175E+03  0.17602290279E+03  0.47000000000E+01 0. -1.
         -5    1    3    3    0  502 -0.70896755966E+02 -0.67269001648E+02 -0.15576499194E+03  0.18394643596E+03  0.47000000000E+01 0.  1.
        -11    1    4    4    0    0 -0.21093349290E+02  0.13616193488E+01 -0.30340719673E+02  0.36977596755E+02  0.00000000000E+00 0. -1.
         11    1    4    4    0    0  0.81188028365E+02  0.43003590860E+02 -0.27227223628E+03  0.28735513816E+03  0.00000000000E+00 0.  1.
<mgrwt>
<rscale>  0 0.13665605E+03</rscale>
<asrwt>0</asrwt>
<pdfrwt beam="2">  1        2 0.10129295E+00 0.14404259E+03</pdfrwt>
<pdfrwt beam="1">  1       -2 0.39842861E-02 0.14404259E+03</pdfrwt>
<totfact> 0.11961210E+04</totfact>
</mgrwt>
</event>
<event>
 8    1  0.1550723E-005  0.1679113E+03  0.7546771E-02  0.1187059E+00
          1   -1    0    0  501    0  0.00000000000E+00  0.00000000000E+00  0.70077591001E+03  0.70077591001E+03  0.00000000000E+00 0. -1.
         -1   -1    0    0    0  501 -0.00000000000E+00 -0.00000000000E+00 -0.39394723650E+02  0.39394723650E+02  0.00000000000E+00 0.  1.
         23    2    1    2    0    0  0.92939445131E+02  0.62714239177E+02  0.22475487590E+03  0.28055115557E+03  0.12499352140E+03 0.  0.
         23    2    1    2    0    0 -0.92939445131E+02 -0.62714239177E+02  0.43662631045E+03  0.45961947809E+03  0.89647718328E+02 0.  0.
          5    1    3    3  502    0  0.10706031114E+03  0.30115520645E+02  0.96292548184E+02  0.14718423707E+03  0.47000000000E+01 0.  1.
         -5    1    3    3    0  502 -0.14120866012E+02  0.32598718531E+02  0.12846232772E+03  0.13336691850E+03  0.47000000000E+01 0.  1.
        -11    1    4    4    0    0 -0.11082169258E+03 -0.55834938294E+02  0.38770451126E+03  0.40707956954E+03  0.00000000000E+00 0.  1.
         11    1    4    4    0    0  0.17882247451E+02 -0.68793008830E+01  0.48921799190E+02  0.52539908551E+02  0.00000000000E+00 0. -1.
<mgrwt>
<rscale>  0 0.16145933E+03</rscale>
<asrwt>0</asrwt>
<pdfrwt beam="1">  1        1 0.10781167E+00 0.16791128E+03</pdfrwt>
<pdfrwt beam="2">  1       -1 0.60607273E-02 0.16791128E+03</pdfrwt>
<totfact> 0.36394570E+03</totfact>
</mgrwt>
</event>
<event>
 8    1  0.1550723E-005  0.1254121E+03  0.7546771E-02  0.1246793E+00
          1   -1    0    0  501    0  0.00000000000E+00  0.00000000000E+00  0.65728070713E+03  0.65728070713E+03  0.00000000000E+00 0. -1.
         -1   -1    0    0    0  501 -0.00000000000E+00 -0.00000000000E+00 -0.21258808024E+02  0.21258808024E+02  0.00000000000E+00 0.  1.
         23    2    1    2    0    0  0.10124491935E+02 -0.54213596025E+00  0.24142269752E+03  0.27205349708E+03  0.12500154856E+03 0.  0.
         23    2    1    2    0    0 -0.10124491935E+02  0.54213596025E+00  0.39459920158E+03  0.40648601808E+03  0.97054385550E+02 0.  0.
          5    1    3    3  502    0  0.63562821663E+02 -0.19384454454E+02  0.15369629438E+03  0.16751307495E+03  0.47000000000E+01 0. -1.
         -5    1    3    3    0  502 -0.53438329727E+02  0.18842318494E+02  0.87726403144E+02  0.10454042213E+03  0.47000000000E+01 0. -1.
        -11    1    4    4    0    0 -0.49795735375E+02 -0.14592655174E+02  0.26736890154E+03  0.27235765155E+03  0.00000000000E+00 0. -1.
         11    1    4    4    0    0  0.39671243440E+02  0.15134791134E+02  0.12723030005E+03  0.13412836653E+03  0.00000000000E+00 0.  1.
<mgrwt>
<rscale>  0 0.11778705E+03</rscale>
<asrwt>0</asrwt>
<pdfrwt beam="1">  1        1 0.10112009E+00 0.12541207E+03</pdfrwt>
<pdfrwt beam="2">  1       -1 0.32705864E-02 0.12541207E+03</pdfrwt>
<totfact> 0.97632064E+03</totfact>
</mgrwt>
</event>
<event>
 8    1  0.1550723E-005  0.1363821E+03  0.7546771E-02  0.1230270E+00
          1   -1    0    0  501    0  0.00000000000E+00  0.00000000000E+00  0.29790164851E+03  0.29790164851E+03  0.00000000000E+00 0. -1.
         -1   -1    0    0    0  501 -0.00000000000E+00 -0.00000000000E+00 -0.50296742549E+02  0.50296742549E+02  0.00000000000E+00 0.  1.
         23    2    1    2    0    0  0.52424414594E+02 -0.15067875200E+02  0.11575372853E+03  0.17888263168E+03  0.12499884056E+03 0.  0.
         23    2    1    2    0    0 -0.52424414594E+02  0.15067875200E+02  0.13185117744E+03  0.16931575938E+03  0.91146767761E+02 0.  0.
          5    1    3    3  502    0 -0.34502390160E+02  0.11037552712E+00  0.20545280992E+01  0.34881774543E+02  0.47000000000E+01 0. -1.
         -5    1    3    3    0  502  0.86926804754E+02 -0.15178250727E+02  0.11369920043E+03  0.14400085714E+03  0.47000000000E+01 0. -1.
        -11    1    4    4    0    0 -0.42466541601E+02 -0.97986863977E+01  0.10212802412E+02  0.44762961740E+02  0.00000000000E+00 0.  1.
         11    1    4    4    0    0 -0.99578729928E+01  0.24866561598E+02  0.12163837503E+03  0.12455279764E+03  0.00000000000E+00 0. -1.
<mgrwt>
<rscale>  0 0.12812135E+03</rscale>
<asrwt>0</asrwt>
<pdfrwt beam="1">  1        1 0.45831022E-01 0.13638207E+03</pdfrwt>
<pdfrwt beam="2">  1       -1 0.77379606E-02 0.13638207E+03</pdfrwt>
<totfact> 0.76193831E+03</totfact>
</mgrwt>
</event>
<event>
 8    1  0.1550723E-005  0.3031908E+03  0.7546771E-02  0.1085118E+00
          3   -1    0    0  501    0  0.00000000000E+00  0.00000000000E+00  0.39819193056E+03  0.39819193056E+03  0.00000000000E+00 0. -1.
         -3   -1    0    0    0  501 -0.00000000000E+00 -0.00000000000E+00 -0.50138709716E+03  0.50138709716E+03  0.00000000000E+00 0.  1.
         23    2    1    2    0    0 -0.25781250893E+03 -0.99158695348E+02 -0.38771257739E+03  0.49218462041E+03  0.12499968511E+03 0.  0.
         23    2    1    2    0    0  0.25781250893E+03  0.99158695348E+02  0.28451741079E+03  0.40739440731E+03  0.93382597088E+02 0.  0.
          5    1    3    3  502    0 -0.17442376529E+03 -0.31178634835E+02 -0.15380671853E+03  0.23467925735E+03  0.47000000000E+01 0.  1.
         -5    1    3    3    0  502 -0.83388743645E+02 -0.67980060512E+02 -0.23390585886E+03  0.25750536306E+03  0.47000000000E+01 0.  1.
        -11    1    4    4    0    0  0.73395402863E+02  0.24011906272E+02  0.14488005515E+03  0.16417578136E+03  0.00000000000E+00 0. -1.
         11    1    4    4    0    0  0.18441710607E+03  0.75146789076E+02  0.13963735564E+03  0.24321862595E+03  0.00000000000E+00 0.  1.
<mgrwt>
<rscale>  0 0.30024596E+03</rscale>
<asrwt>0</asrwt>
<pdfrwt beam="1">  1        3 0.61260297E-01 0.30319079E+03</pdfrwt>
<pdfrwt beam="2">  1       -3 0.77136477E-01 0.30319079E+03</pdfrwt>
<totfact> 0.10563946E+01</totfact>
</mgrwt>
</event>
<event>
 8    1  0.1550723E-005  0.1409075E+03  0.7546771E-02  0.1227311E+00
         -2   -1    0    0    0  501 -0.00000000000E+00  0.00000000000E+00  0.49550042581E+02  0.49550042581E+02  0.00000000000E+00 0.  1.
          2   -1    0    0  501    0  0.00000000000E+00 -0.00000000000E+00 -0.29967187614E+03  0.29967187614E+03  0.00000000000E+00 0. -1.
         23    2    1    2    0    0 -0.66274413976E+00 -0.64968907915E+02 -0.15477889929E+03  0.20931177441E+03  0.12503404743E+03 0.  0.
         23    2    1    2    0    0  0.66274413976E+00  0.64968907915E+02 -0.95342934273E+02  0.13991014431E+03  0.79140224540E+02 0.  0.
          5    1    3    3  502    0 -0.59074713398E+02 -0.14745075818E+02 -0.48598427237E+02  0.78045731170E+02  0.47000000000E+01 0.  1.
         -5    1    3    3    0  502  0.58411969258E+02 -0.50223832097E+02 -0.10618047205E+03  0.13126604324E+03  0.47000000000E+01 0.  1.
        -11    1    4    4    0    0 -0.23237541750E+02  0.55012623336E+02 -0.97061676788E+02  0.11396201636E+03  0.00000000000E+00 0. -1.
         11    1    4    4    0    0  0.23900285889E+02  0.99562845790E+01  0.17187425147E+01  0.25948127949E+02  0.00000000000E+00 0.  1.
<mgrwt>
<rscale>  0 0.13009761E+03</rscale>
<asrwt>0</asrwt>
<pdfrwt beam="2">  1        2 0.46103366E-01 0.14090746E+03</pdfrwt>
<pdfrwt beam="1">  1       -2 0.76230833E-02 0.14090746E+03</pdfrwt>
<totfact> 0.10583441E+04</totfact>
</mgrwt>
</event>
<event>
 7    1  0.1550723E-005  0.1615274E+03  0.7546771E-02  0.1196069E+00
          1   -1    0    0  501    0  0.00000000000E+00  0.00000000000E+00  0.41375205554E+03  0.41375205554E+03  0.00000000000E+00 0. -1.
         -1   -1    0    0    0  501 -0.00000000000E+00 -0.00000000000E+00 -0.58166896661E+02  0.58166896661E+02  0.00000000000E+00 0.  1.
         23    2    1    2    0    0  0.86541347305E+02 -0.40821138020E+02  0.23752792856E+03  0.27184739944E+03  0.91245392391E+02 0.  0.
          5    1    1    2  502    0 -0.11008266219E+03  0.64040291499E+02  0.85752481704E+02  0.15360641123E+03  0.47000000000E+01 0. -1.
         -5    1    1    2    0  502  0.23541314889E+02 -0.23219153479E+02  0.32304748613E+02  0.46465141535E+02  0.47000000000E+01 0.  1.
        -11    1    3    3    0    0  0.10113165491E+03 -0.21485409723E+02  0.15891285176E+03  0.18958514950E+03  0.00000000000E+00 0.  1.
         11    1    3    3    0    0 -0.14590307605E+02 -0.19335728298E+02  0.78615076803E+02  0.82262249943E+02  0.00000000000E+00 0. -1.
<mgrwt>
<rscale>  0 0.15364098E+03</rscale>
<asrwt>0</asrwt>
<pdfrwt beam="1">  1        1 0.63654161E-01 0.16152745E+03</pdfrwt>
<pdfrwt beam="2">  1       -1 0.89487536E-02 0.16152745E+03</pdfrwt>
<totfact> 0.40905114E+03</totfact>
</mgrwt>
</event>
<event>
 8    1  0.1550723E-005  0.1322161E+03  0.7546771E-02  0.1237388E+00
         -2   -1    0    0    0  501 -0.00000000000E+00  0.00000000000E+00  0.96172954317E+02  0.96172954317E+02  0.00000000000E+00 0.  1.
          2   -1    0    0  501    0  0.00000000000E+00 -0.00000000000E+00 -0.20842800881E+03  0.20842800881E+03  0.00000000000E+00 0. -1.
         23    2    1    2    0    0  0.40468662416E+02  0.14776540753E+02  0.24782694134E+02  0.13451872601E+03  0.12500018770E+03 0.  0.
         23    2    1    2    0    0 -0.40468662416E+02 -0.14776540753E+02 -0.13703774863E+03  0.17008223711E+03  0.91063516506E+02 0.  0.
          5    1    3    3  502    0  0.24526077467E+02  0.69481780111E+02  0.49375568263E+01  0.73998079101E+02  0.47000000000E+01 0. -1.
         -5    1    3    3    0  502  0.15942584949E+02 -0.54705239357E+02  0.19845137307E+02  0.60520646913E+02  0.47000000000E+01 0. -1.
        -11    1    4    4    0    0  0.82865841867E+01  0.74457490673E+01  0.91298459282E+01  0.14403497608E+02  0.00000000000E+00 0.  1.
         11    1    4    4    0    0 -0.48755246602E+02 -0.22222289821E+02 -0.14616759456E+03  0.15567873951E+03  0.00000000000E+00 0. -1.
<mgrwt>
<rscale>  0 0.12352766E+03</rscale>
<asrwt>0</asrwt>
<pdfrwt beam="2">  1        2 0.32065847E-01 0.13221613E+03</pdfrwt>
<pdfrwt beam="1">  1       -2 0.14795839E-01 0.13221613E+03</pdfrwt>
<totfact> 0.54379193E+03</totfact>
</mgrwt>
</event>
<event>
 8    1  0.1550723E-005  0.1358465E+03  0.7546771E-02  0.1230070E+00
          4   -1    0    0  501    0  0.00000000000E+00  0.00000000000E+00  0.19592501882E+03  0.19592501882E+03  0.00000000000E+00 0. -1.
         -4   -1    0    0    0  501 -0.00000000000E+00 -0.00000000000E+00 -0.75880573218E+02  0.75880573218E+02  0.00000000000E+00 0.  1.
         23    2    1    2    0    0 -0.48404673026E+02 -0.22043352776E+02  0.70467145994E+02  0.15303562381E+03  0.12500144686E+03 0.  0.
         23    2    1    2    0    0  0.48404673026E+02  0.22043352776E+02  0.49577299605E+02  0.11876996822E+03  0.93912059627E+02 0.  0.
          5    1    3    3  502    0 -0.11148929616E+02 -0.19690300976E+02 -0.34502135310E+02  0.41527026441E+02  0.47000000000E+01 0. -1.
         -5    1    3    3    0  502 -0.37255743410E+02 -0.23530517996E+01  0.10496928130E+03  0.11150859737E+03  0.47000000000E+01 0. -1.
        -11    1    4    4    0    0  0.61045520919E+02  0.23057797154E+02  0.69385544555E+02  0.95250046861E+02  0.00000000000E+00 0. -1.
         11    1    4    4    0    0 -0.12640847894E+02 -0.10144443780E+01 -0.19808244950E+02  0.23519921362E+02  0.00000000000E+00 0.  1.
<mgrwt>
<rscale>  0 0.12825364E+03</rscale>
<asrwt>0</asrwt>
<pdfrwt beam="1">  1        4 0.30142310E-01 0.13584654E+03</pdfrwt>
<pdfrwt beam="2">  1       -4 0.11673934E-01 0.13584654E+03</pdfrwt>
<totfact> 0.10137529E+03</totfact>
</mgrwt>
</event>
<event>
 8    1  0.1550723E-005  0.1307074E+03  0.7546771E-02  0.1239621E+00
         -2   -1    0    0    0  501 -0.00000000000E+00  0.00000000000E+00  0.26999975019E+02  0.26999975019E+02  0.00000000000E+00 0.  1.
          2   -1    0    0  501    0  0.00000000000E+00 -0.00000000000E+00 -0.57935269306E+03  0.57935269306E+03  0.00000000000E+00 0. -1.
         23    2    1    2    0    0  0.30659470203E+02  0.22790725903E+02 -0.19047340339E+03  0.23100766033E+03  0.12500000572E+03 0.  0.
         23    2    1    2    0    0 -0.30659470203E+02 -0.22790725903E+02 -0.36187931465E+03  0.37534500775E+03  0.92020737725E+02 0.  0.
          5    1    3    3  502    0 -0.70616476469E+01  0.54093147439E+01  0.16788973660E+02  0.19572613266E+02  0.47000000000E+01 0. -1.
         -5    1    3    3    0  502  0.37721117850E+02  0.17381411159E+02 -0.20726237705E+03  0.21143504707E+03  0.47000000000E+01 0. -1.
        -11    1    4    4    0    0 -0.19662165994E+02  0.32551513594E+02 -0.90560617769E+02  0.98221317948E+02  0.00000000000E+00 0.  1.
         11    1    4    4    0    0 -0.10997304209E+02 -0.55342239496E+02 -0.27131869688E+03  0.27712368980E+03  0.00000000000E+00 0. -1.
<mgrwt>
<rscale>  0 0.12213177E+03</rscale>
<asrwt>0</asrwt>
<pdfrwt beam="2">  1        2 0.89131182E-01 0.13070739E+03</pdfrwt>
<pdfrwt beam="1">  1       -2 0.41538424E-02 0.13070739E+03</pdfrwt>
<totfact> 0.12930052E+04</totfact>
</mgrwt>
</event>
<event>
 8    1  0.1550723E-005  0.1751748E+03  0.7546771E-02  0.1178766E+00
         -2   -1    0    0    0  501 -0.00000000000E+00  0.00000000000E+00  0.32530162985E+02  0.32530162985E+02  0.00000000000E+00 0.  1.
          2   -1    0    0  501    0  0.00000000000E+00 -0.00000000000E+00 -0.83294843815E+03  0.83294843815E+03  0.00000000000E+00 0. -1.
         23    2    1    2    0    0 -0.30498690481E+02  0.11886788413E+03 -0.47370501601E+03  0.50505709255E+03  0.12500592203E+03 0.  0.
         23    2    1    2    0    0  0.30498690481E+02 -0.11886788413E+03 -0.32671325915E+03  0.36042150859E+03  0.90013144299E+02 0.  0.
          5    1    3    3  502    0 -0.22681583044E+02 -0.21175659232E+02 -0.13148948719E+03  0.13518297968E+03  0.47000000000E+01 0.  1.
         -5    1    3    3    0  502 -0.78171074369E+01  0.14004354336E+03 -0.34221552882E+03  0.36987411287E+03  0.47000000000E+01 0.  1.
        -11    1    4    4    0    0  0.39024410083E+01 -0.31836630667E+02 -0.14471918151E+02  0.35188584982E+02  0.00000000000E+00 0.  1.
         11    1    4    4    0    0  0.26596249473E+02 -0.87031253462E+02 -0.31224134100E+03  0.32523292361E+03  0.00000000000E+00 0. -1.
<mgrwt>
<rscale>  0 0.16912237E+03</rscale>
<asrwt>0</asrwt>
<pdfrwt beam="2">  1        2 0.12814590E+00 0.17517484E+03</pdfrwt>
<pdfrwt beam="1">  1       -2 0.50046411E-02 0.17517484E+03</pdfrwt>
<totfact> 0.64491547E+03</totfact>
</mgrwt>
</event>
<event>
 8    1  0.1550723E-005  0.1378748E+03  0.7546771E-02  0.1228119E+00
         -1   -1    0    0    0  501 -0.00000000000E+00  0.00000000000E+00  0.13145885821E+03  0.13145885821E+03  0.00000000000E+00 0.  1.
          1   -1    0    0  501    0  0.00000000000E+00 -0.00000000000E+00 -0.12385506001E+03  0.12385506001E+03  0.00000000000E+00 0. -1.
         23    2    1    2    0    0  0.52635475157E+02 -0.24762126054E+02  0.39094122998E+02  0.14331018212E+03  0.12500320682E+03 0.  0.
         23    2    1    2    0    0 -0.52635475157E+02  0.24762126054E+02 -0.31490324793E+02  0.11200373610E+03  0.90385508865E+02 0.  0.
          5    1    3    3  502    0  0.80937782200E+01 -0.62082433003E+02 -0.14146685820E+02  0.64358033323E+02  0.47000000000E+01 0.  1.
         -5    1    3    3    0  502  0.44541696937E+02  0.37320306949E+02  0.53240808818E+02  0.78952148801E+02  0.47000000000E+01 0.  1.
        -11    1    4    4    0    0  0.20685243383E+02  0.24857413124E+02 -0.33990198348E+00  0.32340157922E+02  0.00000000000E+00 0.  1.
         11    1    4    4    0    0 -0.73320718539E+02 -0.95287069883E-01 -0.31150422810E+02  0.79663578177E+02  0.00000000000E+00 0. -1.
<mgrwt>
<rscale>  0 0.12955418E+03</rscale>
<asrwt>0</asrwt>
<pdfrwt beam="2">  1        1 0.19054625E-01 0.13787479E+03</pdfrwt>
<pdfrwt beam="1">  1       -1 0.20224440E-01 0.13787479E+03</pdfrwt>
<totfact> 0.51436952E+03</totfact>
</mgrwt>
</event>
<event>
 8    1  0.1550723E-005  0.1268697E+03  0.7546771E-02  0.1246745E+00
          1   -1    0    0  501    0  0.00000000000E+00  0.00000000000E+00  0.12860715240E+03  0.12860715240E+03  0.00000000000E+00 0. -1.
         -1   -1    0    0    0  501 -0.00000000000E+00 -0.00000000000E+00 -0.95153250315E+02  0.95153250315E+02  0.00000000000E+00 0.  1.
         23    2    1    2    0    0  0.12709811947E+02  0.17623687543E+02  0.17472772225E+02  0.12806728028E+03  0.12499518722E+03 0.  0.
         23    2    1    2    0    0 -0.12709811947E+02 -0.17623687543E+02  0.15981129864E+02  0.95693122435E+02  0.91813089956E+02 0.  0.
          5    1    3    3  502    0 -0.13287851994E+02  0.66943441985E+02  0.22186938455E+02  0.71918993829E+02  0.47000000000E+01 0.  1.
         -5    1    3    3    0  502  0.25997663941E+02 -0.49319754442E+02 -0.47141662304E+01  0.56148286455E+02  0.47000000000E+01 0.  1.
        -11    1    4    4    0    0 -0.42721245795E+02  0.10062001307E+02 -0.12822406688E+02  0.45724860042E+02  0.00000000000E+00 0.  1.
         11    1    4    4    0    0  0.30011433848E+02 -0.27685688850E+02  0.28803536552E+02  0.49968262393E+02  0.00000000000E+00 0. -1.
<mgrwt>
<rscale>  0 0.11781569E+03</rscale>
<asrwt>0</asrwt>
<pdfrwt beam="1">  1        1 0.19785716E-01 0.12686974E+03</pdfrwt>
<pdfrwt beam="2">  1       -1 0.14638962E-01 0.12686974E+03</pdfrwt>
<totfact> 0.81324997E+03</totfact>
</mgrwt>
</event>
<event>
 8    1  0.1550723E-005  0.2769364E+03  0.7546771E-02  0.1099306E+00
          2   -1    0    0  501    0  0.00000000000E+00  0.00000000000E+00  0.17761961453E+04  0.17761961453E+04  0.00000000000E+00 0. -1.
         -2   -1    0    0    0  501 -0.00000000000E+00 -0.00000000000E+00 -0.41682341574E+02  0.41682341574E+02  0.00000000000E+00 0.  1.
         23    2    1    2    0    0 -0.59363687211E+02 -0.23989230242E+03  0.99727101394E+03  0.10350088024E+04  0.12498552574E+03 0.  0.
         23    2    1    2    0    0  0.59363687211E+02  0.23989230242E+03  0.73724278982E+03  0.78286968453E+03  0.91025533184E+02 0.  0.
          5    1    3    3  502    0 -0.37659864892E+02 -0.23132270762E+03  0.73077902012E+03  0.76745587933E+03  0.47000000000E+01 0. -1.
         -5    1    3    3    0  502 -0.21703822319E+02 -0.85695947973E+01  0.26649199383E+03  0.26755292305E+03  0.47000000000E+01 0. -1.
        -11    1    4    4    0    0  0.35587679063E+02  0.71285126417E+02  0.13248110043E+03  0.15459396535E+03  0.00000000000E+00 0.  1.
         11    1    4    4    0    0  0.23776008148E+02  0.16860717600E+03  0.60476168939E+03  0.62827571918E+03  0.00000000000E+00 0. -1.
<mgrwt>
<rscale>  0 0.27347779E+03</rscale>
<asrwt>0</asrwt>
<pdfrwt beam="1">  1        2 0.27326089E+00 0.27693636E+03</pdfrwt>
<pdfrwt beam="2">  1       -2 0.64126693E-02 0.27693636E+03</pdfrwt>
<totfact> 0.13005158E+03</totfact>
</mgrwt>
</event>
<event>
 8    1  0.1550723E-005  0.1278398E+03  0.7546771E-02  0.1245206E+00
          3   -1    0    0  501    0  0.00000000000E+00  0.00000000000E+00  0.69880320882E+03  0.69880320882E+03  0.00000000000E+00 0. -1.
         -3   -1    0    0    0  501 -0.00000000000E+00 -0.00000000000E+00 -0.18597198652E+02  0.18597198652E+02  0.00000000000E+00 0.  1.
         23    2    1    2    0    0  0.19347299801E+02 -0.18588008933E+02  0.31358923987E+03  0.33864618354E+03  0.12499277650E+03 0.  0.
         23    2    1    2    0    0 -0.19347299801E+02  0.18588008933E+02  0.36661677029E+03  0.37875422393E+03  0.91252801593E+02 0.  0.
          5    1    3    3  502    0 -0.68849411953E+01  0.20812005198E+02  0.98219943195E+00  0.22440960126E+02  0.47000000000E+01 0. -1.
         -5    1    3    3    0  502  0.26232240997E+02 -0.39400014132E+02  0.31260704044E+03  0.31620522341E+03  0.47000000000E+01 0. -1.
        -11    1    4    4    0    0 -0.54520746998E+02  0.13150984307E+02  0.17209302313E+03  0.18100129517E+03  0.00000000000E+00 0.  1.
         11    1    4    4    0    0  0.35173447197E+02  0.54370246263E+01  0.19452374716E+03  0.19775292876E+03  0.00000000000E+00 0. -1.
<mgrwt>
<rscale>  0 0.11873047E+03</rscale>
<asrwt>0</asrwt>
<pdfrwt beam="1">  1        3 0.10750817E+00 0.12783985E+03</pdfrwt>
<pdfrwt beam="2">  1       -3 0.28611080E-02 0.12783985E+03</pdfrwt>
<totfact> 0.96295844E+02</totfact>
</mgrwt>
</event>
<event>
 8    1  0.1550723E-005  0.3758301E+03  0.7546771E-02  0.1053400E+00
          3   -1    0    0  501    0  0.00000000000E+00  0.00000000000E+00  0.27280979452E+03  0.27280979452E+03  0.00000000000E+00 0. -1.
         -3   -1    0    0    0  501 -0.00000000000E+00 -0.00000000000E+00 -0.58997591536E+03  0.58997591536E+03  0.00000000000E+00 0.  1.
         23    2    1    2    0    0 -0.34657944886E+03 -0.74205182574E+02 -0.32445902332E+03  0.49650975310E+03  0.12499821444E+03 0.  0.
         23    2    1    2    0    0  0.34657944886E+03  0.74205182574E+02  0.72929024771E+01  0.36627595679E+03  0.92093249492E+02 0.  0.
          5    1    3    3  502    0 -0.32906286588E+03 -0.95600389244E+02 -0.31846460343E+03  0.46782859870E+03  0.47000000000E+01 0.  1.
         -5    1    3    3    0  502 -0.17516582976E+02  0.21395206670E+02 -0.59944198927E+01  0.28681154395E+02  0.47000000000E+01 0.  1.
        -11    1    4    4    0    0  0.46579491440E+02  0.42602289581E+02 -0.10943426436E+02  0.64065300144E+02  0.00000000000E+00 0. -1.
         11    1    4    4    0    0  0.29999995742E+03  0.31602892993E+02  0.18236328913E+02  0.30221065664E+03  0.00000000000E+00 0.  1.
<mgrwt>
<rscale>  0 0.37339996E+03</rscale>
<asrwt>0</asrwt>
<pdfrwt beam="1">  1        3 0.41970737E-01 0.37583012E+03</pdfrwt>
<pdfrwt beam="2">  1       -3 0.90765526E-01 0.37583012E+03</pdfrwt>
<totfact> 0.15982854E+01</totfact>
</mgrwt>
</event>
<event>
 8    1  0.1550723E-005  0.1757408E+03  0.7546771E-02  0.1178178E+00
         -1   -1    0    0    0  501 -0.00000000000E+00  0.00000000000E+00  0.16997493249E+03  0.16997493249E+03  0.00000000000E+00 0.  1.
          1   -1    0    0  501    0  0.00000000000E+00 -0.00000000000E+00 -0.15924685841E+03  0.15924685841E+03  0.00000000000E+00 0. -1.
         23    2    1    2    0    0 -0.12254943465E+03  0.15498320882E+02  0.15405412034E+02  0.17641469989E+03  0.12500503084E+03 0.  0.
         23    2    1    2    0    0  0.12254943465E+03 -0.15498320882E+02 -0.46773379564E+01  0.15280709101E+03  0.89830772508E+02 0.  0.
          5    1    3    3  502    0 -0.37186788119E+02 -0.46667936499E+02  0.34369031738E+02  0.69022270683E+02  0.47000000000E+01 0.  1.
         -5    1    3    3    0  502 -0.85362646527E+02  0.62166257381E+02 -0.18963619704E+02  0.10739242921E+03  0.47000000000E+01 0.  1.
        -11    1    4    4    0    0  0.68879543991E+02  0.27905859768E+02  0.23949994311E+02  0.78081565156E+02  0.00000000000E+00 0.  1.
         11    1    4    4    0    0  0.53669890655E+02 -0.43404180651E+02 -0.28627332267E+02  0.74725525851E+02  0.00000000000E+00 0. -1.
<mgrwt>
<rscale>  0 0.16968341E+03</rscale>
<asrwt>0</asrwt>
<pdfrwt beam="2">  1        1 0.24499517E-01 0.17574077E+03</pdfrwt>
<pdfrwt beam="1">  1       -1 0.26149990E-01 0.17574077E+03</pdfrwt>
<totfact> 0.24865334E+03</totfact>
</mgrwt>
</event>
<event>
 8    1  0.1550723E-005  0.1914952E+03  0.7546771E-02  0.1162260E+00
         -2   -1    0    0    0  501 -0.00000000000E+00  0.00000000000E+00  0.24828342985E+02  0.24828342985E+02  0.00000000000E+00 0. -1.
          2   -1    0    0  501    0  0.00000000000E+00 -0.00000000000E+00 -0.14207115506E+04  0.14207115506E+04  0.00000000000E+00 0.  1.
         23    2    1    2    0    0  0.11205095029E+03  0.92144922663E+02 -0.53973530096E+03  0.57269939826E+03  0.12499721369E+03 0.  0.
         23    2    1    2    0    0 -0.11205095029E+03 -0.92144922663E+02 -0.85614790661E+03  0.87284049528E+03  0.88403563141E+02 0.  0.
          5    1    3    3  502    0  0.12078658570E+03  0.66168149165E+02 -0.52161294318E+03  0.53950882823E+03  0.47000000000E+01 0. -1.
         -5    1    3    3    0  502 -0.87356354104E+01  0.25976773498E+02 -0.18122357788E+02  0.33190570034E+02  0.47000000000E+01 0. -1.
        -11    1    4    4    0    0 -0.12645705795E+02  0.16296210253E+02 -0.67191902851E+02  0.70286785048E+02  0.00000000000E+00 0. -1.
         11    1    4    4    0    0 -0.99405244495E+02 -0.10844113292E+03 -0.78895600376E+03  0.80255371023E+03  0.00000000000E+00 0.  1.
<mgrwt>
<rscale>  0 0.18584799E+03</rscale>
<asrwt>0</asrwt>
<pdfrwt beam="2">  1        2 0.21857102E+00 0.19149518E+03</pdfrwt>
<pdfrwt beam="1">  1       -2 0.38197448E-02 0.19149518E+03</pdfrwt>
<totfact> 0.44111698E+03</totfact>
</mgrwt>
</event>
<event>
 8    1  0.1550723E-005  0.1901545E+03  0.7546771E-02  0.1163181E+00
          2   -1    0    0  501    0  0.00000000000E+00  0.00000000000E+00  0.26984569722E+03  0.26984569722E+03  0.00000000000E+00 0.  1.
         -2   -1    0    0    0  501 -0.00000000000E+00 -0.00000000000E+00 -0.17740319069E+03  0.17740319069E+03  0.00000000000E+00 0. -1.
         23    2    1    2    0    0 -0.63436227944E+02 -0.12846440269E+03 -0.79006750105E+02  0.20591451148E+03  0.12502584414E+03 0.  0.
         23    2    1    2    0    0  0.63436227944E+02  0.12846440269E+03  0.17144925663E+03  0.24133437642E+03  0.91214998057E+02 0.  0.
          5    1    3    3  502    0 -0.97820125684E+02 -0.10113580943E+03 -0.38425559052E+02  0.14593095123E+03  0.47000000000E+01 0. -1.
         -5    1    3    3    0  502  0.34383897739E+02 -0.27328593255E+02 -0.40581191053E+02  0.59983560251E+02  0.47000000000E+01 0. -1.
        -11    1    4    4    0    0  0.81366645935E+02  0.10157874765E+03  0.16171777251E+03  0.20758470799E+03  0.00000000000E+00 0.  1.
         11    1    4    4    0    0 -0.17930417991E+02  0.26885655039E+02  0.97314841174E+01  0.33749668433E+02  0.00000000000E+00 0. -1.
<mgrwt>
<rscale>  0 0.18486014E+03</rscale>
<asrwt>0</asrwt>
<pdfrwt beam="1">  1        2 0.41514723E-01 0.19015446E+03</pdfrwt>
<pdfrwt beam="2">  1       -2 0.27292798E-01 0.19015446E+03</pdfrwt>
<totfact> 0.14772075E+03</totfact>
</mgrwt>
</event>
<event>
 8    1  0.1550723E-005  0.1467975E+03  0.7546771E-02  0.1214234E+00
         -1   -1    0    0    0  501 -0.00000000000E+00  0.00000000000E+00  0.44962640719E+02  0.44962640719E+02  0.00000000000E+00 0.  1.
          1   -1    0    0  501    0  0.00000000000E+00 -0.00000000000E+00 -0.39660031946E+03  0.39660031946E+03  0.00000000000E+00 0. -1.
         23    2    1    2    0    0 -0.85515012111E+01  0.76488621192E+02 -0.17361331380E+03  0.22735671583E+03  0.12500342458E+03 0.  0.
         23    2    1    2    0    0  0.85515012111E+01 -0.76488621192E+02 -0.17802436494E+03  0.21420624435E+03  0.90928561319E+02 0.  0.
          5    1    3    3  502    0 -0.46341430701E+02  0.93617172617E+02 -0.11555296154E+03  0.15584055996E+03  0.47000000000E+01 0. -1.
         -5    1    3    3    0  502  0.37789929490E+02 -0.17128551425E+02 -0.58060352268E+02  0.71516155869E+02  0.47000000000E+01 0. -1.
        -11    1    4    4    0    0  0.24476676056E+02 -0.36897868593E+02 -0.16682999720E+02  0.47316834817E+02  0.00000000000E+00 0.  1.
         11    1    4    4    0    0 -0.15925174845E+02 -0.39590752599E+02 -0.16134136522E+03  0.16688940953E+03  0.00000000000E+00 0. -1.
<mgrwt>
<rscale>  0 0.13932947E+03</rscale>
<asrwt>0</asrwt>
<pdfrwt beam="2">  1        1 0.61015434E-01 0.14679746E+03</pdfrwt>
<pdfrwt beam="1">  1       -1 0.69173293E-02 0.14679746E+03</pdfrwt>
<totfact> 0.63388188E+03</totfact>
</mgrwt>
</event>
<event>
 8    1  0.1550723E-005  0.2526748E+03  0.7546771E-02  0.1114323E+00
          1   -1    0    0  501    0  0.00000000000E+00  0.00000000000E+00  0.23622298976E+03  0.23622298976E+03  0.00000000000E+00 0. -1.
         -1   -1    0    0    0  501 -0.00000000000E+00 -0.00000000000E+00 -0.25359158660E+03  0.25359158660E+03  0.00000000000E+00 0.  1.
         23    2    1    2    0    0 -0.16066415960E+03  0.14969175792E+03 -0.23356831092E+02  0.25375203141E+03  0.12499582921E+03 0.  0.
         23    2    1    2    0    0  0.16066415960E+03 -0.14969175792E+03  0.59882342546E+01  0.23606254496E+03  0.86423790790E+02 0.  0.
          5    1    3    3  502    0 -0.11833426473E+03  0.64695000812E+02 -0.65210814523E+02  0.14987655477E+03  0.47000000000E+01 0.  1.
         -5    1    3    3    0  502 -0.42329894865E+02  0.84996757104E+02  0.41853983432E+02  0.10387547664E+03  0.47000000000E+01 0.  1.
        -11    1    4    4    0    0  0.44376617455E+02 -0.22935527417E+02 -0.32757217027E+02  0.59735733543E+02  0.00000000000E+00 0.  1.
         11    1    4    4    0    0  0.11628754214E+03 -0.12675623050E+03  0.38745451282E+02  0.17632681141E+03  0.00000000000E+00 0. -1.
<mgrwt>
<rscale>  0 0.24839524E+03</rscale>
<asrwt>0</asrwt>
<pdfrwt beam="1">  1        1 0.36341999E-01 0.25267479E+03</pdfrwt>
<pdfrwt beam="2">  1       -1 0.39014090E-01 0.25267479E+03</pdfrwt>
<totfact> 0.76770767E+02</totfact>
</mgrwt>
</event>
<event>
 8    1  0.1550723E-005  0.1580722E+03  0.7546771E-02  0.1199590E+00
          2   -1    0    0  501    0  0.00000000000E+00  0.00000000000E+00  0.70431480555E+03  0.70431480555E+03  0.00000000000E+00 0. -1.
         -2   -1    0    0    0  501 -0.00000000000E+00 -0.00000000000E+00 -0.34872549017E+02  0.34872549017E+02  0.00000000000E+00 0.  1.
         23    2    1    2    0    0  0.78522836201E+02  0.56544665489E+02  0.21839647148E+03  0.26959940608E+03  0.12499474389E+03 0.  0.
         23    2    1    2    0    0 -0.78522836201E+02 -0.56544665489E+02  0.45104578505E+03  0.46958794849E+03  0.87791834228E+02 0.  0.
          5    1    3    3  502    0  0.53076872155E+02 -0.33333400366E+02  0.10752598076E+03  0.12454796858E+03  0.47000000000E+01 0. -1.
         -5    1    3    3    0  502  0.25445964046E+02  0.89878065855E+02  0.11087049072E+03  0.14505143750E+03  0.47000000000E+01 0. -1.
        -11    1    4    4    0    0 -0.12498919577E+02  0.16223274679E+02  0.24795513495E+02  0.32159526138E+02  0.00000000000E+00 0.  1.
         11    1    4    4    0    0 -0.66023916624E+02 -0.72767940168E+02  0.42625027156E+03  0.43742842236E+03  0.00000000000E+00 0. -1.
<mgrwt>
<rscale>  0 0.15072057E+03</rscale>
<asrwt>0</asrwt>
<pdfrwt beam="1">  1        2 0.10835611E+00 0.15807220E+03</pdfrwt>
<pdfrwt beam="2">  1       -2 0.53650080E-02 0.15807220E+03</pdfrwt>
<totfact> 0.71079347E+03</totfact>
</mgrwt>
</event>
<event>
 7    1  0.1550723E-005  0.2879839E+03  0.7546771E-02  0.1117459E+00
          2   -1    0    0  501    0  0.00000000000E+00  0.00000000000E+00  0.58329114086E+03  0.58329114086E+03  0.00000000000E+00 0. -1.
         -2   -1    0    0    0  501 -0.00000000000E+00 -0.00000000000E+00 -0.89806486472E+02  0.89806486472E+02  0.00000000000E+00 0.  1.
         23    2    1    2    0    0 -0.10236433575E+03 -0.53452693824E+02  0.27375660255E+03  0.31086133542E+03  0.91413591479E+02 0.  0.
          5    1    1    2  502    0  0.34669810832E+02 -0.86077934109E+02  0.17922772742E+03  0.20188133841E+03  0.47000000000E+01 0. -1.
         -5    1    1    2    0  502  0.67694524920E+02  0.13953062793E+03  0.40500324424E+02  0.16035495351E+03  0.47000000000E+01 0.  1.
        -11    1    3    3    0    0 -0.11166806485E+03 -0.66622073523E+02  0.25409206951E+03  0.28543131779E+03  0.00000000000E+00 0. -1.
         11    1    3    3    0    0  0.93037290996E+01  0.13169379699E+02  0.19664533041E+02  0.25430017628E+02  0.00000000000E+00 0.  1.
<mgrwt>
<rscale>  0 0.24353636E+03</rscale>
<asrwt>0</asrwt>
<pdfrwt beam="1">  1        2 0.89737096E-01 0.28798388E+03</pdfrwt>
<pdfrwt beam="2">  1       -2 0.13816383E-01 0.28798388E+03</pdfrwt>
<totfact> 0.20450205E+03</totfact>
</mgrwt>
</event>
<event>
 8    1  0.1550723E-005  0.1698894E+03  0.7546771E-02  0.1184608E+00
         -1   -1    0    0    0  501 -0.00000000000E+00  0.00000000000E+00  0.57364383035E+02  0.57364383035E+02  0.00000000000E+00 0.  1.
          1   -1    0    0  501    0  0.00000000000E+00 -0.00000000000E+00 -0.62004047522E+03  0.62004047522E+03  0.00000000000E+00 0. -1.
         23    2    1    2    0    0 -0.65630288211E+02 -0.94486957830E+02 -0.11182383739E+03  0.20338875145E+03  0.12500917437E+03 0.  0.
         23    2    1    2    0    0  0.65630288211E+02  0.94486957830E+02 -0.45085225480E+03  0.47401610681E+03  0.90489744885E+02 0.  0.
          5    1    3    3  502    0 -0.21734762966E+02 -0.51549626878E+02  0.18611757934E+02  0.59146018343E+02  0.47000000000E+01 0.  1.
         -5    1    3    3    0  502 -0.43895525245E+02 -0.42937330952E+02 -0.13043559533E+03  0.14424273311E+03  0.47000000000E+01 0.  1.
        -11    1    4    4    0    0  0.44122421025E+01  0.80416722446E+02 -0.20464792577E+03  0.21992519331E+03  0.00000000000E+00 0.  1.
         11    1    4    4    0    0  0.61218046109E+02  0.14070235384E+02 -0.24620432902E+03  0.25409091350E+03  0.00000000000E+00 0. -1.
<mgrwt>
<rscale>  0 0.16367641E+03</rscale>
<asrwt>0</asrwt>
<pdfrwt beam="2">  1        1 0.95390842E-01 0.16988942E+03</pdfrwt>
<pdfrwt beam="1">  1       -1 0.88252897E-02 0.16988942E+03</pdfrwt>
<totfact> 0.24530191E+03</totfact>
</mgrwt>
</event>
<event>
 8    1  0.4216941E-005  0.3781856E+03  0.7546771E-02  0.1052532E+00
         -2   -1    0    0    0  501 -0.00000000000E+00  0.00000000000E+00  0.17768015539E+03  0.17768015539E+03  0.00000000000E+00 0.  1.
          2   -1    0    0  501    0  0.00000000000E+00 -0.00000000000E+00 -0.12922041357E+04  0.12922041357E+04  0.00000000000E+00 0. -1.
         23    2    1    2    0    0  0.13319687412E+03 -0.33114668345E+03 -0.10092240313E+03  0.39142010069E+03  0.12499932217E+03 0.  0.
         23    2    1    2    0    0 -0.13319687412E+03  0.33114668345E+03 -0.10136015772E+04  0.10784641904E+04  0.91089623226E+02 0.  0.
          5    1    3    3  502    0  0.39089532141E+02 -0.23921481654E+03 -0.37570850996E+02  0.24532708538E+03  0.47000000000E+01 0.  1.
         -5    1    3    3    0  502  0.94107341975E+02 -0.91931866906E+02 -0.63351552135E+02  0.14609301532E+03  0.47000000000E+01 0.  1.
        -11    1    4    4    0    0 -0.57376763926E+02  0.16766592725E+03 -0.63330553453E+03  0.65763200672E+03  0.00000000000E+00 0.  1.
         11    1    4    4    0    0 -0.75820110190E+02  0.16348075620E+03 -0.38029604268E+03  0.42083218370E+03  0.00000000000E+00 0. -1.
<mgrwt>
<rscale>  0 0.37570760E+03</rscale>
<asrwt>0</asrwt>
<pdfrwt beam="2">  1        2 0.19880063E+00 0.37818562E+03</pdfrwt>
<pdfrwt beam="1">  1       -2 0.27335409E-01 0.37818562E+03</pdfrwt>
<totfact> 0.21314054E+02</totfact>
</mgrwt>
</event>
<event>
 8    1  0.1550723E-005  0.1789089E+03  0.7546771E-02  0.1173634E+00
         -1   -1    0    0    0  501 -0.00000000000E+00  0.00000000000E+00  0.21554855400E+04  0.21554855400E+04  0.00000000000E+00 0.  1.
          1   -1    0    0  501    0  0.00000000000E+00 -0.00000000000E+00 -0.23446514246E+02  0.23446514246E+02  0.00000000000E+00 0. -1.
         23    2    1    2    0    0  0.72892106974E+02  0.10521776695E+03  0.18131109205E+04  0.18219164641E+04  0.12499741860E+03 0.  0.
         23    2    1    2    0    0 -0.72892106974E+02 -0.10521776695E+03  0.31892810532E+03  0.35701559014E+03  0.96752041297E+02 0.  0.
          5    1    3    3  502    0  0.14528275762E+02  0.11398388946E+03  0.98473997656E+03  0.99143245321E+03  0.47000000000E+01 0.  1.
         -5    1    3    3    0  502  0.58363831212E+02 -0.87661225043E+01  0.82837094390E+03  0.83048401092E+03  0.47000000000E+01 0.  1.
        -11    1    4    4    0    0 -0.38686531462E+02 -0.11207348104E+03  0.28350490364E+03  0.30729813416E+03  0.00000000000E+00 0.  1.
         11    1    4    4    0    0 -0.34205575512E+02  0.68557140847E+01  0.35423201683E+02  0.49717455981E+02  0.00000000000E+00 0. -1.
<mgrwt>
<rscale>  0 0.17410472E+03</rscale>
<asrwt>0</asrwt>
<pdfrwt beam="2">  1        1 0.36071577E-02 0.17890889E+03</pdfrwt>
<pdfrwt beam="1">  1       -1 0.33161301E+00 0.17890889E+03</pdfrwt>
<totfact> 0.65384448E+01</totfact>
</mgrwt>
</event>
<event>
 8    1  0.1550723E-005  0.2872359E+03  0.7546771E-02  0.1093137E+00
         -1   -1    0    0    0  501 -0.00000000000E+00  0.00000000000E+00  0.10161474167E+03  0.10161474167E+03  0.00000000000E+00 0.  1.
          1   -1    0    0  501    0  0.00000000000E+00 -0.00000000000E+00 -0.14514352667E+04  0.14514352667E+04  0.00000000000E+00 0. -1.
         23    2    1    2    0    0  0.15840679461E+03  0.20962092482E+03 -0.15483696385E+03  0.32631112314E+03  0.11606385747E+03 0.  0.
         23    2    1    2    0    0 -0.15840679461E+03 -0.20962092482E+03 -0.11949835612E+04  0.12267388853E+04  0.88707025427E+02 0.  0.
          5    1    3    3  502    0  0.86979807623E+02  0.12207042858E+03 -0.15150657839E+03  0.21317366104E+03  0.47000000000E+01 0. -1.
         -5    1    3    3    0  502  0.71426986987E+02  0.87550496245E+02 -0.33303854584E+01  0.11313746210E+03  0.47000000000E+01 0.  1.
        -11    1    4    4    0    0 -0.20386622305E+02 -0.27654418416E+02 -0.61231104996E+02  0.70211319927E+02  0.00000000000E+00 0.  1.
         11    1    4    4    0    0 -0.13802017230E+03 -0.18196650641E+03 -0.11337524562E+04  0.11565275654E+04  0.00000000000E+00 0. -1.
<mgrwt>
<rscale>  0 0.28472241E+03</rscale>
<asrwt>0</asrwt>
<pdfrwt beam="2">  1        1 0.22329774E+00 0.28723590E+03</pdfrwt>
<pdfrwt beam="1">  1       -1 0.15633037E-01 0.28723590E+03</pdfrwt>
<totfact> 0.23257383E+02</totfact>
</mgrwt>
</event>
<event>
 8    1  0.1550723E-005  0.1808612E+03  0.7546771E-02  0.1173937E+00
          2   -1    0    0  501    0  0.00000000000E+00  0.00000000000E+00  0.23888657875E+03  0.23888657875E+03  0.00000000000E+00 0. -1.
         -2   -1    0    0    0  501 -0.00000000000E+00 -0.00000000000E+00 -0.11826408687E+03  0.11826408687E+03  0.00000000000E+00 0.  1.
         23    2    1    2    0    0  0.25851477543E+02  0.12813153341E+03  0.50965770424E+02  0.18790502969E+03  0.12499920672E+03 0.  0.
         23    2    1    2    0    0 -0.25851477543E+02 -0.12813153341E+03  0.69656721450E+02  0.16924563593E+03  0.81890400502E+02 0.  0.
          5    1    3    3  502    0 -0.35825021217E+02  0.93706754633E+02 -0.41834385654E+00  0.10043233055E+03  0.47000000000E+01 0. -1.
         -5    1    3    3    0  502  0.61676498760E+02  0.34424778777E+02  0.51384114280E+02  0.87472699132E+02  0.47000000000E+01 0. -1.
        -11    1    4    4    0    0 -0.54922592896E+02 -0.78774455466E+02  0.52523410841E+02  0.10945599449E+03  0.00000000000E+00 0.  1.
         11    1    4    4    0    0  0.29071115353E+02 -0.49357077944E+02  0.17133310609E+02  0.59789641440E+02  0.00000000000E+00 0. -1.
<mgrwt>
<rscale>  0 0.17380532E+03</rscale>
<asrwt>0</asrwt>
<pdfrwt beam="1">  1        2 0.36751781E-01 0.18086125E+03</pdfrwt>
<pdfrwt beam="2">  1       -2 0.18194475E-01 0.18086125E+03</pdfrwt>
<totfact> 0.33904647E+03</totfact>
</mgrwt>
</event>
<event>
 8    1  0.1550723E-005  0.2511053E+03  0.7546771E-02  0.1114991E+00
          3   -1    0    0  501    0  0.00000000000E+00  0.00000000000E+00  0.38206200366E+03  0.38206200366E+03  0.00000000000E+00 0. -1.
         -3   -1    0    0    0  501 -0.00000000000E+00 -0.00000000000E+00 -0.15577312976E+03  0.15577312976E+03  0.00000000000E+00 0.  1.
         23    2    1    2    0    0 -0.14876940963E+03 -0.15905190872E+03  0.10578953160E+03  0.27247993613E+03  0.12499617469E+03 0.  0.
         23    2    1    2    0    0  0.14876940963E+03  0.15905190872E+03  0.12049934230E+03  0.26535519729E+03  0.91996969087E+02 0.  0.
          5    1    3    3  502    0 -0.43540237082E+02 -0.13642657424E+03  0.63901659879E+02  0.15688682079E+03  0.47000000000E+01 0.  1.
         -5    1    3    3    0  502 -0.10522917255E+03 -0.22625334486E+02  0.41887871724E+02  0.11559311534E+03  0.47000000000E+01 0.  1.
        -11    1    4    4    0    0  0.59569802127E+01  0.59646459720E+02  0.14724174250E+02  0.61725092773E+02  0.00000000000E+00 0.  1.
         11    1    4    4    0    0  0.14281242942E+03  0.99405449004E+02  0.10577516805E+03  0.20363010452E+03  0.00000000000E+00 0. -1.
<mgrwt>
<rscale>  0 0.24735000E+03</rscale>
<asrwt>0</asrwt>
<pdfrwt beam="1">  1        3 0.58778769E-01 0.25110534E+03</pdfrwt>
<pdfrwt beam="2">  1       -3 0.23965097E-01 0.25110534E+03</pdfrwt>
<totfact> 0.11616326E+02</totfact>
</mgrwt>
</event>
<event>
 8    1  0.1550723E-005  0.1448814E+03  0.7546771E-02  0.1217075E+00
          3   -1    0    0  501    0  0.00000000000E+00  0.00000000000E+00  0.77170427294E+02  0.77170427294E+02  0.00000000000E+00 0. -1.
         -3   -1    0    0    0  501 -0.00000000000E+00 -0.00000000000E+00 -0.24073564131E+03  0.24073564131E+03  0.00000000000E+00 0.  1.
         23    2    1    2    0    0  0.31552460043E+00  0.73252840517E+02 -0.13441235424E+03  0.19762920924E+03  0.12499818068E+03 0.  0.
         23    2    1    2    0    0 -0.31552460043E+00 -0.73252840517E+02 -0.29152859783E+02  0.12027685937E+03  0.90832568314E+02 0.  0.
          5    1    3    3  502    0  0.34169904482E+02  0.94151297019E+02 -0.71912491130E+02  0.12339183718E+03  0.47000000000E+01 0.  1.
         -5    1    3    3    0  502 -0.33854379882E+02 -0.20898456502E+02 -0.62499863105E+02  0.74237372054E+02  0.47000000000E+01 0.  1.
        -11    1    4    4    0    0  0.36247613387E+02 -0.16093503892E+02 -0.34016609085E+02  0.52249593658E+02  0.00000000000E+00 0.  1.
         11    1    4    4    0    0 -0.36563137987E+02 -0.57159336624E+02  0.48637493024E+01  0.68027265711E+02  0.00000000000E+00 0. -1.
<mgrwt>
<rscale>  0 0.13725185E+03</rscale>
<asrwt>0</asrwt>
<pdfrwt beam="1">  1        3 0.11872373E-01 0.14488141E+03</pdfrwt>
<pdfrwt beam="2">  1       -3 0.37036252E-01 0.14488141E+03</pdfrwt>
<totfact> 0.92913742E+02</totfact>
</mgrwt>
</event>
<event>
 8    1  0.1550723E-005  0.1602987E+03  0.7546771E-02  0.1195682E+00
          2   -1    0    0  501    0  0.00000000000E+00  0.00000000000E+00  0.16198863449E+03  0.16198863449E+03  0.00000000000E+00 0. -1.
         -2   -1    0    0    0  501 -0.00000000000E+00 -0.00000000000E+00 -0.32789623216E+03  0.32789623216E+03  0.00000000000E+00 0.  1.
         23    2    1    2    0    0  0.82973003280E+02  0.56017828877E+02 -0.27290436307E+03  0.31650032550E+03  0.12519244480E+03 0.  0.
         23    2    1    2    0    0 -0.82973003280E+02 -0.56017828877E+02  0.10699676540E+03  0.17338454115E+03  0.92689669758E+02 0.  0.
          5    1    3    3  502    0  0.92028629266E+02  0.61125813631E+02 -0.12003510909E+03  0.16320585501E+03  0.47000000000E+01 0. -1.
         -5    1    3    3    0  502 -0.90556259860E+01 -0.51079847544E+01 -0.15286925398E+03  0.15329447049E+03  0.47000000000E+01 0. -1.
        -11    1    4    4    0    0 -0.60162120247E+02  0.77908400965E+01  0.21659538745E+02  0.64415165301E+02  0.00000000000E+00 0.  1.
         11    1    4    4    0    0 -0.22810883033E+02 -0.63808668973E+02  0.85337226651E+02  0.10896937585E+03  0.00000000000E+00 0. -1.
<mgrwt>
<rscale>  0 0.15396680E+03</rscale>
<asrwt>0</asrwt>
<pdfrwt beam="1">  1        2 0.24921329E-01 0.16029867E+03</pdfrwt>
<pdfrwt beam="2">  1       -2 0.50445573E-01 0.16029867E+03</pdfrwt>
<totfact> 0.80810471E+02</totfact>
</mgrwt>
</event>
<event>
 8    1  0.1550723E-005  0.1294987E+03  0.7546771E-02  0.1240847E+00
         -1   -1    0    0    0  501 -0.00000000000E+00  0.00000000000E+00  0.22554566081E+02  0.22554566081E+02  0.00000000000E+00 0.  1.
          1   -1    0    0  501    0  0.00000000000E+00 -0.00000000000E+00 -0.61784899873E+03  0.61784899873E+03  0.00000000000E+00 0. -1.
         23    2    1    2    0    0 -0.31198473840E+02 -0.13097742091E+02 -0.25892189927E+03  0.28950036932E+03  0.12500007317E+03 0.  0.
         23    2    1    2    0    0  0.31198473840E+02  0.13097742091E+02 -0.33637253338E+03  0.35090319550E+03  0.94030185482E+02 0.  0.
          5    1    3    3  502    0 -0.69441294732E+02 -0.41167817513E+02 -0.17943469107E+03  0.19681407717E+03  0.47000000000E+01 0. -1.
         -5    1    3    3    0  502  0.38242820892E+02  0.28070075421E+02 -0.79487208209E+02  0.92686292152E+02  0.47000000000E+01 0. -1.
        -11    1    4    4    0    0 -0.56754080275E+01 -0.26007128539E+02 -0.31105701428E+02  0.40940757839E+02  0.00000000000E+00 0.  1.
         11    1    4    4    0    0  0.36873881867E+02  0.39104870630E+02 -0.30526683195E+03  0.30996243766E+03  0.00000000000E+00 0. -1.
<mgrwt>
<rscale>  0 0.12137413E+03</rscale>
<asrwt>0</asrwt>
<pdfrwt beam="2">  1        1 0.95053704E-01 0.12949870E+03</pdfrwt>
<pdfrwt beam="1">  1       -1 0.34699328E-02 0.12949870E+03</pdfrwt>
<totfact> 0.97769813E+03</totfact>
</mgrwt>
</event>
<event>
 8    1  0.1550723E-005  0.1212349E+03  0.7546771E-02  0.1252620E+00
         -3   -1    0    0    0  501 -0.00000000000E+00  0.00000000000E+00  0.65721593651E+02  0.65721593651E+02  0.00000000000E+00 0.  1.
          3   -1    0    0  501    0  0.00000000000E+00 -0.00000000000E+00 -0.21690252417E+03  0.21690252417E+03  0.00000000000E+00 0. -1.
         23    2    1    2    0    0  0.33084543633E+02 -0.82245286623E+01 -0.24660415695E+02  0.12371758960E+03  0.11634292405E+03 0.  0.
         23    2    1    2    0    0 -0.33084543633E+02  0.82245286623E+01 -0.12652051482E+03  0.15890652822E+03  0.89897798300E+02 0.  0.
          5    1    3    3  502    0  0.55188775508E+02 -0.48199681058E+02 -0.25680929060E+02  0.77785669076E+02  0.47000000000E+01 0. -1.
         -5    1    3    3    0  502 -0.22104231875E+02  0.39975152396E+02  0.10205133652E+01  0.45931920528E+02  0.47000000000E+01 0.  1.
        -11    1    4    4    0    0  0.23017615818E+02 -0.18691870455E+02 -0.64806696902E+02  0.71267837222E+02  0.00000000000E+00 0. -1.
         11    1    4    4    0    0 -0.56102159451E+02  0.26916399118E+02 -0.61713817921E+02  0.87638690993E+02  0.00000000000E+00 0.  1.
<mgrwt>
<rscale>  0 0.11440694E+03</rscale>
<asrwt>0</asrwt>
<pdfrwt beam="2">  1        3 0.33369619E-01 0.12123492E+03</pdfrwt>
<pdfrwt beam="1">  1       -3 0.10111014E-01 0.12123492E+03</pdfrwt>
<totfact> 0.14358683E+03</totfact>
</mgrwt>
</event>
<event>
 8    1  0.1550723E-005  0.2402227E+03  0.7546771E-02  0.1122232E+00
          1   -1    0    0  501    0  0.00000000000E+00  0.00000000000E+00  0.10727013648E+03  0.10727013648E+03  0.00000000000E+00 0. -1.
         -1   -1    0    0    0  501 -0.00000000000E+00 -0.00000000000E+00 -0.57426994959E+03  0.57426994959E+03  0.00000000000E+00 0.  1.
         23    2    1    2    0    0 -0.20501955600E+03 -0.65699013038E+01 -0.35856593622E+03  0.43159758476E+03  0.12502304829E+03 0.  0.
         23    2    1    2    0    0  0.20501955600E+03  0.65699013038E+01 -0.10843387689E+03  0.24994250131E+03  0.92936356504E+02 0.  0.
          5    1    3    3  502    0 -0.11437358337E+03 -0.56376418622E+02 -0.13806379064E+03  0.18799818466E+03  0.47000000000E+01 0.  1.
         -5    1    3    3    0  502 -0.90645972634E+02  0.49806517318E+02 -0.22050214558E+03  0.24359940010E+03  0.47000000000E+01 0.  1.
        -11    1    4    4    0    0  0.10782264705E+03 -0.42559921907E+02 -0.63056885632E+02  0.13195923990E+03  0.00000000000E+00 0. -1.
         11    1    4    4    0    0  0.97196908955E+02  0.49129823210E+02 -0.45376991257E+02  0.11798326142E+03  0.00000000000E+00 0.  1.
<mgrwt>
<rscale>  0 0.23637460E+03</rscale>
<asrwt>0</asrwt>
<pdfrwt beam="1">  1        1 0.16503098E-01 0.24022270E+03</pdfrwt>
<pdfrwt beam="2">  1       -1 0.88349222E-01 0.24022270E+03</pdfrwt>
<totfact> 0.43558892E+02</totfact>
</mgrwt>
</event>
<event>
 8    1  0.1550723E-005  0.2119419E+03  0.7546771E-02  0.1143919E+00
         -2   -1    0    0    0  501 -0.00000000000E+00  0.00000000000E+00  0.75912236033E+03  0.75912236033E+03  0.00000000000E+00 0.  1.
          2   -1    0    0  501    0  0.00000000000E+00 -0.00000000000E+00 -0.55565976505E+02  0.55565976505E+02  0.00000000000E+00 0. -1.
         23    2    1    2    0    0 -0.34379956290E+02 -0.16766934194E+03  0.43560909974E+03  0.48443229457E+03  0.12499748250E+03 0.  0.
         23    2    1    2    0    0  0.34379956290E+02  0.16766934194E+03  0.26794728409E+03  0.33025604226E+03  0.89321423963E+02 0.  0.
          5    1    3    3  502    0 -0.15532897779E+01 -0.18211949151E+02  0.21546178644E+03  0.21628675229E+03  0.47000000000E+01 0.  1.
         -5    1    3    3    0  502 -0.32826666512E+02 -0.14945739279E+03  0.22014731330E+03  0.26814554228E+03  0.47000000000E+01 0.  1.
        -11    1    4    4    0    0  0.37921851050E+02  0.69702498370E+02  0.57179849879E+02  0.97806136302E+02  0.00000000000E+00 0. -1.
         11    1    4    4    0    0 -0.35418947594E+01  0.97966843570E+02  0.21076743421E+03  0.23244990596E+03  0.00000000000E+00 0.  1.
<mgrwt>
<rscale>  0 0.20705576E+03</rscale>
<asrwt>0</asrwt>
<pdfrwt beam="2">  1        2 0.85486123E-02 0.21194188E+03</pdfrwt>
<pdfrwt beam="1">  1       -2 0.11678805E+00 0.21194188E+03</pdfrwt>
<totfact> 0.46138987E+02</totfact>
</mgrwt>
</event>
<event>
 8    1  0.1550723E-005  0.1299041E+03  0.7546771E-02  0.1241502E+00
          2   -1    0    0  501    0  0.00000000000E+00  0.00000000000E+00  0.55601045619E+03  0.55601045619E+03  0.00000000000E+00 0. -1.
         -2   -1    0    0    0  501 -0.00000000000E+00 -0.00000000000E+00 -0.24584379533E+02  0.24584379533E+02  0.00000000000E+00 0.  1.
         23    2    1    2    0    0  0.19912236324E+02  0.29236460702E+02  0.23540251755E+03  0.26886693091E+03  0.12499525382E+03 0.  0.
         23    2    1    2    0    0 -0.19912236324E+02 -0.29236460702E+02  0.29602355911E+03  0.31172790482E+03  0.91066301688E+02 0.  0.
          5    1    3    3  502    0  0.15651058060E+02  0.77337077156E+02  0.12016099915E+03  0.14382883869E+03  0.47000000000E+01 0.  1.
         -5    1    3    3    0  502  0.42611782648E+01 -0.48100616453E+02  0.11524151840E+03  0.12503809222E+03  0.47000000000E+01 0.  1.
        -11    1    4    4    0    0 -0.51564307195E+02 -0.17267031721E+02  0.24158101233E+03  0.24762555135E+03  0.00000000000E+00 0. -1.
         11    1    4    4    0    0  0.31652070870E+02 -0.11969428982E+02  0.54442546780E+02  0.64102353470E+02  0.00000000000E+00 0.  1.
<mgrwt>
<rscale>  0 0.12097216E+03</rscale>
<asrwt>0</asrwt>
<pdfrwt beam="1">  1        2 0.85540061E-01 0.12990412E+03</pdfrwt>
<pdfrwt beam="2">  1       -2 0.37822127E-02 0.12990412E+03</pdfrwt>
<totfact> 0.15553370E+04</totfact>
</mgrwt>
</event>
<event>
 8    1  0.1550723E-005  0.1681033E+03  0.7546771E-02  0.1186588E+00
          3   -1    0    0  501    0  0.00000000000E+00  0.00000000000E+00  0.41177076986E+03  0.41177076986E+03  0.00000000000E+00 0. -1.
         -3   -1    0    0    0  501 -0.00000000000E+00 -0.00000000000E+00 -0.59623877719E+02  0.59623877719E+02  0.00000000000E+00 0.  1.
         23    2    1    2    0    0  0.10941637108E+03  0.25726799663E+02  0.17347233710E+03  0.24156028484E+03  0.12499963596E+03 0.  0.
         23    2    1    2    0    0 -0.10941637108E+03 -0.25726799663E+02  0.17867455504E+03  0.22983436274E+03  0.90914394899E+02 0.  0.
          5    1    3    3  502    0  0.52409733662E+02 -0.41847229000E+02  0.31498697908E+02  0.74244385157E+02  0.47000000000E+01 0.  1.
         -5    1    3    3    0  502  0.57006637414E+02  0.67574028663E+02  0.14197363920E+03  0.16731589968E+03  0.47000000000E+01 0.  1.
        -11    1    4    4    0    0 -0.94114236457E+02 -0.29707242669E+02  0.18738269210E+03  0.21178357602E+03  0.00000000000E+00 0. -1.
         11    1    4    4    0    0 -0.15302134619E+02  0.39804430060E+01 -0.87081370633E+01  0.18050786729E+02  0.00000000000E+00 0.  1.
<mgrwt>
<rscale>  0 0.16188197E+03</rscale>
<asrwt>0</asrwt>
<pdfrwt beam="1">  1        3 0.63349347E-01 0.16810330E+03</pdfrwt>
<pdfrwt beam="2">  1       -3 0.91729045E-02 0.16810330E+03</pdfrwt>
<totfact> 0.50035483E+02</totfact>
</mgrwt>
</event>
<event>
 8    1  0.1550723E-005  0.1273282E+03  0.7546771E-02  0.1247609E+00
         -1   -1    0    0    0  501 -0.00000000000E+00  0.00000000000E+00  0.93539613379E+02  0.93539613379E+02  0.00000000000E+00 0.  1.
          1   -1    0    0  501    0  0.00000000000E+00 -0.00000000000E+00 -0.16165920502E+03  0.16165920502E+03  0.00000000000E+00 0. -1.
         23    2    1    2    0    0 -0.24119383710E+02  0.39193818837E+01  0.18944528966E+02  0.12872984211E+03  0.12496147745E+03 0.  0.
         23    2    1    2    0    0  0.24119383710E+02 -0.39193818837E+01 -0.87064120605E+02  0.12646897629E+03  0.88414561257E+02 0.  0.
          5    1    3    3  502    0  0.32037422409E+02 -0.38394655547E+02  0.28284855413E+02  0.57642597573E+02  0.47000000000E+01 0.  1.
         -5    1    3    3    0  502 -0.56156806119E+02  0.42314037431E+02 -0.93403264464E+01  0.71087244534E+02  0.47000000000E+01 0.  1.
        -11    1    4    4    0    0 -0.25112357395E+02  0.24239965878E+02 -0.30181652391E+02  0.46142589662E+02  0.00000000000E+00 0. -1.
         11    1    4    4    0    0  0.49231741105E+02 -0.28159347762E+02 -0.56882468214E+02  0.80326386628E+02  0.00000000000E+00 0.  1.
<mgrwt>
<rscale>  0 0.11730604E+03</rscale>
<asrwt>0</asrwt>
<pdfrwt beam="2">  1        1 0.24870647E-01 0.12732823E+03</pdfrwt>
<pdfrwt beam="1">  1       -1 0.14390710E-01 0.12732823E+03</pdfrwt>
<totfact> 0.62614586E+03</totfact>
</mgrwt>
</event>
<event>
 8    1  0.1550723E-005  0.1991215E+03  0.7546771E-02  0.1154754E+00
         -1   -1    0    0    0  501 -0.00000000000E+00  0.00000000000E+00  0.37974233477E+03  0.37974233477E+03  0.00000000000E+00 0.  1.
          1   -1    0    0  501    0  0.00000000000E+00 -0.00000000000E+00 -0.99836887825E+02  0.99836887825E+02  0.00000000000E+00 0. -1.
         23    2    1    2    0    0 -0.13117072277E+03 -0.82568875599E+02  0.20125463656E+03  0.28311267161E+03  0.12500391339E+03 0.  0.
         23    2    1    2    0    0  0.13117072277E+03  0.82568875599E+02  0.78650810388E+02  0.19646655098E+03  0.91595731076E+02 0.  0.
          5    1    3    3  502    0 -0.26990812753E+02  0.27452521935E+02  0.11933887354E+02  0.40578967471E+02  0.47000000000E+01 0. -1.
         -5    1    3    3    0  502 -0.10417991001E+03 -0.11002139753E+03  0.18932074920E+03  0.24253370414E+03  0.47000000000E+01 0. -1.
        -11    1    4    4    0    0  0.19187720574E+02  0.43660725037E+02 -0.96349147895E+01  0.48654487096E+02  0.00000000000E+00 0. -1.
         11    1    4    4    0    0  0.11198300219E+03  0.38908150562E+02  0.88285725177E+02  0.14781206389E+03  0.00000000000E+00 0.  1.
<mgrwt>
<rscale>  0 0.19416847E+03</rscale>
<asrwt>0</asrwt>
<pdfrwt beam="2">  1        1 0.15359521E-01 0.19912146E+03</pdfrwt>
<pdfrwt beam="1">  1       -1 0.58421897E-01 0.19912146E+03</pdfrwt>
<totfact> 0.10985480E+03</totfact>
</mgrwt>
</event>
<event>
 8    1  0.1550723E-005  0.1315574E+03  0.7546771E-02  0.1232080E+00
         -2   -1    0    0    0  501 -0.00000000000E+00  0.00000000000E+00  0.15683337005E+03  0.15683337005E+03  0.00000000000E+00 0.  1.
          2   -1    0    0  501    0  0.00000000000E+00 -0.00000000000E+00 -0.10686430089E+03  0.10686430089E+03  0.00000000000E+00 0. -1.
         23    2    1    2    0    0 -0.28261140953E+02  0.29717086736E+02  0.68289104292E+02  0.14822531887E+03  0.12500218421E+03 0.  0.
         23    2    1    2    0    0  0.28261140953E+02 -0.29717086736E+02 -0.18320035131E+02  0.11547235207E+03  0.10637877172E+03 0.  0.
          5    1    3    3  502    0  0.36482629966E+02 -0.21200793221E+02  0.21936350311E+01  0.42513032791E+02  0.47000000000E+01 0.  1.
         -5    1    3    3    0  502 -0.64743770919E+02  0.50917879957E+02  0.66095469261E+02  0.10571228608E+03  0.47000000000E+01 0.  1.
        -11    1    4    4    0    0  0.33706378191E+02  0.18449101665E+01  0.37909597886E+02  0.50760823833E+02  0.00000000000E+00 0.  1.
         11    1    4    4    0    0 -0.54452372377E+01 -0.31561996903E+02 -0.56229633018E+02  0.64711528234E+02  0.00000000000E+00 0. -1.
<mgrwt>
<rscale>  0 0.12693225E+03</rscale>
<asrwt>0</asrwt>
<pdfrwt beam="2">  1        2 0.16440662E-01 0.13155738E+03</pdfrwt>
<pdfrwt beam="1">  1       -2 0.24128211E-01 0.13155738E+03</pdfrwt>
<totfact> 0.50299204E+03</totfact>
</mgrwt>
</event>
<event>
 8    1  0.1550723E-005  0.1484626E+03  0.7546771E-02  0.1208236E+00
          1   -1    0    0  501    0  0.00000000000E+00  0.00000000000E+00  0.18235676007E+02  0.18235676007E+02  0.00000000000E+00 0. -1.
         -1   -1    0    0    0  501 -0.00000000000E+00 -0.00000000000E+00 -0.11328910251E+04  0.11328910251E+04  0.00000000000E+00 0.  1.
         23    2    1    2    0    0 -0.68703255884E+02 -0.41183047506E+02 -0.45476317784E+03  0.47838340358E+03  0.12499980852E+03 0.  0.
         23    2    1    2    0    0  0.68703255884E+02  0.41183047506E+02 -0.65989217122E+03  0.67274329750E+03  0.10348761238E+03 0.  0.
          5    1    3    3  502    0 -0.25859863539E+02  0.41499973351E+02 -0.97805305155E+02  0.10944838074E+03  0.47000000000E+01 0. -1.
         -5    1    3    3    0  502 -0.42843392344E+02 -0.82683020857E+02 -0.35695787268E+03  0.36893502284E+03  0.47000000000E+01 0. -1.
        -11    1    4    4    0    0  0.73439811598E+02 -0.13485264194E+02 -0.42654450064E+03  0.43303056394E+03  0.00000000000E+00 0.  1.
         11    1    4    4    0    0 -0.47365557148E+01  0.54668311700E+02 -0.23334767058E+03  0.23971273356E+03  0.00000000000E+00 0. -1.
<mgrwt>
<rscale>  0 0.14385312E+03</rscale>
<asrwt>0</asrwt>
<pdfrwt beam="1">  1        1 0.28054879E-02 0.14846256E+03</pdfrwt>
<pdfrwt beam="2">  1       -1 0.17429097E+00 0.14846256E+03</pdfrwt>
<totfact> 0.92608265E+02</totfact>
</mgrwt>
</event>
<event>
 8    1  0.1550723E-005  0.1481564E+03  0.7546771E-02  0.1212220E+00
          3   -1    0    0  501    0  0.00000000000E+00  0.00000000000E+00  0.47303311729E+03  0.47303311729E+03  0.00000000000E+00 0. -1.
         -3   -1    0    0    0  501 -0.00000000000E+00 -0.00000000000E+00 -0.56631139674E+02  0.56631139674E+02  0.00000000000E+00 0.  1.
         23    2    1    2    0    0 -0.70365104954E+02 -0.37129233111E+02  0.72162190005E+02  0.16479596530E+03  0.12498200097E+03 0.  0.
         23    2    1    2    0    0  0.70365104954E+02  0.37129233111E+02  0.34423978761E+03  0.36486829166E+03  0.91093418757E+02 0.  0.
          5    1    3    3  502    0 -0.84324265255E+02  0.12831090449E+02  0.13733006860E+02  0.86521119216E+02  0.47000000000E+01 0. -1.
         -5    1    3    3    0  502  0.13959160302E+02 -0.49960323561E+02  0.58429183145E+02  0.78274846085E+02  0.47000000000E+01 0. -1.
        -11    1    4    4    0    0  0.92389268547E+02  0.25478412943E+02  0.28120553318E+03  0.29708833428E+03  0.00000000000E+00 0.  1.
         11    1    4    4    0    0 -0.22024163593E+02  0.11650820168E+02  0.63034254426E+02  0.67779957388E+02  0.00000000000E+00 0. -1.
<mgrwt>
<rscale>  0 0.14082764E+03</rscale>
<asrwt>0</asrwt>
<pdfrwt beam="1">  1        3 0.72774323E-01 0.14815643E+03</pdfrwt>
<pdfrwt beam="2">  1       -3 0.87124833E-02 0.14815643E+03</pdfrwt>
<totfact> 0.39963552E+02</totfact>
</mgrwt>
</event>
<event>
 8    1  0.1550723E-005  0.1342105E+03  0.7546771E-02  0.1234745E+00
         -1   -1    0    0    0  501 -0.00000000000E+00  0.00000000000E+00  0.15898977889E+02  0.15898977889E+02  0.00000000000E+00 0.  1.
          1   -1    0    0  501    0  0.00000000000E+00 -0.00000000000E+00 -0.90070724186E+03  0.90070724186E+03  0.00000000000E+00 0. -1.
         23    2    1    2    0    0 -0.26672854074E+02  0.41050029192E+02 -0.42475753380E+03  0.44545641249E+03  0.12496362218E+03 0.  0.
         23    2    1    2    0    0  0.26672854074E+02 -0.41050029192E+02 -0.46005073017E+03  0.47114980726E+03  0.89100620136E+02 0.  0.
          5    1    3    3  502    0 -0.39412360086E+00 -0.28220314614E+01 -0.37125193205E+03  0.37129261539E+03  0.47000000000E+01 0.  1.
         -5    1    3    3    0  502 -0.26278730473E+02  0.43872060653E+02 -0.53505601751E+02  0.74163797098E+02  0.47000000000E+01 0.  1.
        -11    1    4    4    0    0  0.47268664600E+02  0.74746563205E+01 -0.18474095215E+03  0.19083871866E+03  0.00000000000E+00 0.  1.
         11    1    4    4    0    0 -0.20595810527E+02 -0.48524685512E+02 -0.27530977802E+03  0.28031108860E+03  0.00000000000E+00 0. -1.
<mgrwt>
<rscale>  0 0.12520771E+03</rscale>
<asrwt>0</asrwt>
<pdfrwt beam="2">  1        1 0.13857034E+00 0.13421048E+03</pdfrwt>
<pdfrwt beam="1">  1       -1 0.24459967E-02 0.13421048E+03</pdfrwt>
<totfact> 0.93675590E+03</totfact>
</mgrwt>
</event>
<event>
 8    1  0.1550723E-005  0.1692837E+03  0.7546771E-02  0.1185068E+00
         -2   -1    0    0    0  501 -0.00000000000E+00  0.00000000000E+00  0.67138659279E+03  0.67138659279E+03  0.00000000000E+00 0.  1.
          2   -1    0    0  501    0  0.00000000000E+00 -0.00000000000E+00 -0.37119163845E+02  0.37119163845E+02  0.00000000000E+00 0. -1.
         23    2    1    2    0    0 -0.78100345940E+02  0.83181529482E+02  0.33698498725E+03  0.37711518497E+03  0.12505258982E+03 0.  0.
         23    2    1    2    0    0  0.78100345940E+02 -0.83181529482E+02  0.29728244169E+03  0.33139057166E+03  0.91782514487E+02 0.  0.
          5    1    3    3  502    0 -0.48525338555E+02  0.94540613442E+02  0.13143752532E+03  0.16908740088E+03  0.47000000000E+01 0. -1.
         -5    1    3    3    0  502 -0.29575007385E+02 -0.11359083960E+02  0.20554746193E+03  0.20802778410E+03  0.47000000000E+01 0. -1.
        -11    1    4    4    0    0  0.50844491199E+02 -0.40453376094E+01  0.18145371496E+03  0.18848601464E+03  0.00000000000E+00 0.  1.
         11    1    4    4    0    0  0.27255854741E+02 -0.79136191873E+02  0.11582872673E+03  0.14290455702E+03  0.00000000000E+00 0. -1.
<mgrwt>
<rscale>  0 0.16325698E+03</rscale>
<asrwt>0</asrwt>
<pdfrwt beam="2">  1        2 0.57106411E-02 0.16928373E+03</pdfrwt>
<pdfrwt beam="1">  1       -2 0.10329024E+00 0.16928373E+03</pdfrwt>
<totfact> 0.10279447E+03</totfact>
</mgrwt>
</event>
<event>
 8    1  0.1550723E-005  0.1265419E+03  0.7546771E-02  0.1246385E+00
         -1   -1    0    0    0  501 -0.00000000000E+00  0.00000000000E+00  0.19920368483E+02  0.19920368483E+02  0.00000000000E+00 0.  1.
          1   -1    0    0  501    0  0.00000000000E+00 -0.00000000000E+00 -0.63593626582E+03  0.63593626582E+03  0.00000000000E+00 0. -1.
         23    2    1    2    0    0 -0.50266346802E+01 -0.19063381638E+02 -0.29860299806E+03  0.32430941201E+03  0.12499665873E+03 0.  0.
         23    2    1    2    0    0  0.50266346802E+01  0.19063381638E+02 -0.31741289928E+03  0.33154722229E+03  0.93722635502E+02 0.  0.
          5    1    3    3  502    0 -0.40464696235E+02  0.40526092232E+01 -0.26208865094E+02  0.48608742963E+02  0.47000000000E+01 0. -1.
         -5    1    3    3    0  502  0.35438061555E+02 -0.23115990862E+02 -0.27239413297E+03  0.27570066905E+03  0.47000000000E+01 0. -1.
        -11    1    4    4    0    0  0.20210531087E+01 -0.34987906906E+02 -0.70023517324E+02  0.78304094808E+02  0.00000000000E+00 0.  1.
         11    1    4    4    0    0  0.30055815715E+01  0.54051288544E+02 -0.24738938196E+03  0.25324312748E+03  0.00000000000E+00 0. -1.
<mgrwt>
<rscale>  0 0.11802861E+03</rscale>
<asrwt>0</asrwt>
<pdfrwt beam="2">  1        1 0.97836343E-01 0.12654187E+03</pdfrwt>
<pdfrwt beam="1">  1       -1 0.30646723E-02 0.12654187E+03</pdfrwt>
<totfact> 0.11242592E+04</totfact>
</mgrwt>
</event>
<event>
 8    1  0.1550723E-005  0.4382485E+03  0.7546771E-02  0.1031936E+00
          1   -1    0    0  501    0  0.00000000000E+00  0.00000000000E+00  0.23301016797E+03  0.23301016797E+03  0.00000000000E+00 0. -1.
         -1   -1    0    0    0  501 -0.00000000000E+00 -0.00000000000E+00 -0.85497668168E+03  0.85497668168E+03  0.00000000000E+00 0.  1.
         23    2    1    2    0    0 -0.37433434445E+03 -0.19053922652E+03 -0.44046973397E+03  0.62134960356E+03  0.12502137829E+03 0.  0.
         23    2    1    2    0    0  0.37433434445E+03  0.19053922652E+03 -0.18149677975E+03  0.46663724609E+03  0.91530541921E+02 0.  0.
          5    1    3    3  502    0 -0.13226853874E+03 -0.30860047898E+02 -0.21343253246E+03  0.25302735980E+03  0.47000000000E+01 0. -1.
         -5    1    3    3    0  502 -0.24206580571E+03 -0.15967917862E+03 -0.22703720151E+03  0.36832224376E+03  0.47000000000E+01 0. -1.
        -11    1    4    4    0    0  0.23683729872E+03  0.15303979762E+03 -0.15467317352E+03  0.32161603866E+03  0.00000000000E+00 0.  1.
         11    1    4    4    0    0  0.13749704573E+03  0.37499428898E+02 -0.26823606230E+02  0.14502120743E+03  0.00000000000E+00 0. -1.
<mgrwt>
<rscale>  0 0.43614489E+03</rscale>
<asrwt>0</asrwt>
<pdfrwt beam="1">  1        1 0.35847718E-01 0.43824849E+03</pdfrwt>
<pdfrwt beam="2">  1       -1 0.13153487E+00 0.43824849E+03</pdfrwt>
<totfact> 0.62869414E+01</totfact>
</mgrwt>
</event>
<event>
 8    1  0.1550723E-005  0.1414934E+03  0.7546771E-02  0.1217619E+00
         -1   -1    0    0    0  501 -0.00000000000E+00  0.00000000000E+00  0.11161688275E+04  0.11161688275E+04  0.00000000000E+00 0.  1.
          1   -1    0    0  501    0  0.00000000000E+00 -0.00000000000E+00 -0.22994692128E+02  0.22994692128E+02  0.00000000000E+00 0. -1.
         23    2    1    2    0    0 -0.16869783731E+02  0.84613723918E+02  0.89031072735E+03  0.90148409369E+03  0.11214413971E+03 0.  0.
         23    2    1    2    0    0  0.16869783731E+02 -0.84613723918E+02  0.20286340799E+03  0.23767942590E+03  0.88847483460E+02 0.  0.
          5    1    3    3  502    0 -0.44741105970E+02 -0.67880065910E+01  0.25912623857E+03  0.26308998672E+03  0.47000000000E+01 0. -1.
         -5    1    3    3    0  502  0.27871322239E+02  0.91401730509E+02  0.63118448878E+03  0.63839410698E+03  0.47000000000E+01 0.  1.
        -11    1    4    4    0    0  0.33517230081E+02 -0.97243286881E+02  0.17196020091E+03  0.20037457985E+03  0.00000000000E+00 0. -1.
         11    1    4    4    0    0 -0.16647446350E+02  0.12629562963E+02  0.30903207086E+02  0.37304846050E+02  0.00000000000E+00 0.  1.
<mgrwt>
<rscale>  0 0.13685889E+03</rscale>
<asrwt>0</asrwt>
<pdfrwt beam="2">  1        1 0.35376458E-02 0.14149339E+03</pdfrwt>
<pdfrwt beam="1">  1       -1 0.17171824E+00 0.14149339E+03</pdfrwt>
<totfact> 0.69901242E+02</totfact>
</mgrwt>
</event>
<event>
 8    1  0.1550723E-005  0.1514890E+03  0.7546771E-02  0.1207975E+00
         -1   -1    0    0    0  501 -0.00000000000E+00  0.00000000000E+00  0.43027694571E+02  0.43027694571E+02  0.00000000000E+00 0.  1.
          1   -1    0    0  501    0  0.00000000000E+00 -0.00000000000E+00 -0.45680659603E+03  0.45680659603E+03  0.00000000000E+00 0. -1.
         23    2    1    2    0    0 -0.84687480050E+01  0.85163472338E+02 -0.17997494282E+03  0.23524432400E+03  0.12499750084E+03 0.  0.
         23    2    1    2    0    0  0.84687480050E+01 -0.85163472338E+02 -0.23380395864E+03  0.26458996661E+03  0.89548995738E+02 0.  0.
          5    1    3    3  502    0  0.40214614585E+02 -0.39855453698E+01 -0.19140018121E+02  0.44961428934E+02  0.47000000000E+01 0.  1.
         -5    1    3    3    0  502 -0.48683362590E+02  0.89149017707E+02 -0.16083492470E+03  0.19028289506E+03  0.47000000000E+01 0.  1.
        -11    1    4    4    0    0  0.42372961435E+02 -0.66066446963E+02 -0.11231664705E+03  0.13702289035E+03  0.00000000000E+00 0.  1.
         11    1    4    4    0    0 -0.33904213430E+02 -0.19097025375E+02 -0.12148731159E+03  0.12756707626E+03  0.00000000000E+00 0. -1.
<mgrwt>
<rscale>  0 0.14405441E+03</rscale>
<asrwt>0</asrwt>
<pdfrwt beam="2">  1        1 0.70277938E-01 0.15148898E+03</pdfrwt>
<pdfrwt beam="1">  1       -1 0.66196453E-02 0.15148898E+03</pdfrwt>
<totfact> 0.56651393E+03</totfact>
</mgrwt>
</event>
<event>
 8    1  0.1550723E-005  0.1432286E+03  0.7546771E-02  0.1220043E+00
         -1   -1    0    0    0  501 -0.00000000000E+00  0.00000000000E+00  0.46032420472E+02  0.46032420472E+02  0.00000000000E+00 0.  1.
          1   -1    0    0  501    0  0.00000000000E+00 -0.00000000000E+00 -0.36118928344E+03  0.36118928344E+03  0.00000000000E+00 0. -1.
         23    2    1    2    0    0  0.45561459373E+02 -0.53024579409E+02 -0.15623606626E+03  0.21195313511E+03  0.12500788168E+03 0.  0.
         23    2    1    2    0    0 -0.45561459373E+02  0.53024579409E+02 -0.15892079671E+03  0.19526856880E+03  0.89367453435E+02 0.  0.
          5    1    3    3  502    0  0.11217829985E+02 -0.43550702058E+02 -0.16812734877E+03  0.17410169087E+03  0.47000000000E+01 0.  1.
         -5    1    3    3    0  502  0.34343629388E+02 -0.94738773504E+01  0.11891282509E+02  0.37851444243E+02  0.47000000000E+01 0.  1.
        -11    1    4    4    0    0 -0.37711672298E+02  0.71253938807E+02 -0.78825741582E+02  0.11275101578E+03  0.00000000000E+00 0.  1.
         11    1    4    4    0    0 -0.78497870752E+01 -0.18229359398E+02 -0.80095055129E+02  0.82517553025E+02  0.00000000000E+00 0. -1.
<mgrwt>
<rscale>  0 0.13512522E+03</rscale>
<asrwt>0</asrwt>
<pdfrwt beam="2">  1        1 0.55567582E-01 0.14322857E+03</pdfrwt>
<pdfrwt beam="1">  1       -1 0.70819109E-02 0.14322857E+03</pdfrwt>
<totfact> 0.68720103E+03</totfact>
</mgrwt>
</event>
<event>
 8    1  0.1550723E-005  0.1459621E+03  0.7546771E-02  0.1214629E+00
          1   -1    0    0  501    0  0.00000000000E+00  0.00000000000E+00  0.18686215547E+03  0.18686215547E+03  0.00000000000E+00 0. -1.
         -1   -1    0    0    0  501 -0.00000000000E+00 -0.00000000000E+00 -0.10340927901E+03  0.10340927901E+03  0.00000000000E+00 0.  1.
         23    2    1    2    0    0 -0.70022621197E+02  0.27851391452E+02  0.36423258584E+01  0.14600753768E+03  0.12500426807E+03 0.  0.
         23    2    1    2    0    0  0.70022621197E+02 -0.27851391452E+02  0.79810550598E+02  0.14426389681E+03  0.93613462978E+02 0.  0.
          5    1    3    3  502    0 -0.86349052693E+02  0.47310246924E+02  0.35699457789E+02  0.10483777779E+03  0.47000000000E+01 0. -1.
         -5    1    3    3    0  502  0.16326431496E+02 -0.19458855472E+02 -0.32057131930E+02  0.41169759888E+02  0.47000000000E+01 0. -1.
        -11    1    4    4    0    0  0.37827616546E+02 -0.54496916637E+02  0.16425990919E+02  0.68342195414E+02  0.00000000000E+00 0.  1.
         11    1    4    4    0    0  0.32195004652E+02  0.26645525185E+02  0.63384559680E+02  0.75921701395E+02  0.00000000000E+00 0. -1.
<mgrwt>
<rscale>  0 0.13903841E+03</rscale>
<asrwt>0</asrwt>
<pdfrwt beam="1">  1        1 0.28748024E-01 0.14596210E+03</pdfrwt>
<pdfrwt beam="2">  1       -1 0.15909120E-01 0.14596210E+03</pdfrwt>
<totfact> 0.45014137E+03</totfact>
</mgrwt>
</event>
<event>
 8    1  0.1550723E-005  0.1658059E+03  0.7546771E-02  0.1188897E+00
         -2   -1    0    0    0  501 -0.00000000000E+00  0.00000000000E+00  0.39029952494E+03  0.39029952494E+03  0.00000000000E+00 0.  1.
          2   -1    0    0  501    0  0.00000000000E+00 -0.00000000000E+00 -0.70103362103E+02  0.70103362103E+02  0.00000000000E+00 0. -1.
         23    2    1    2    0    0 -0.47129350220E+02  0.98191773599E+02  0.25248161370E+03  0.30205720475E+03  0.12501515761E+03 0.  0.
         23    2    1    2    0    0  0.47129350220E+02 -0.98191773599E+02  0.67714549142E+02  0.15834568229E+03  0.92872465676E+02 0.  0.
          5    1    3    3  502    0  0.31705461224E+02  0.28874759454E+02  0.14687129917E+03  0.15307598285E+03  0.47000000000E+01 0. -1.
         -5    1    3    3    0  502 -0.78834811444E+02  0.69317014145E+02  0.10561031453E+03  0.14898122190E+03  0.47000000000E+01 0. -1.
        -11    1    4    4    0    0  0.21462648961E+02 -0.49519152577E+02  0.84984680909E+02  0.10067366965E+03  0.00000000000E+00 0.  1.
         11    1    4    4    0    0  0.25666701259E+02 -0.48672621022E+02 -0.17270131766E+02  0.57672012640E+02  0.00000000000E+00 0. -1.
<mgrwt>
<rscale>  0 0.15982240E+03</rscale>
<asrwt>0</asrwt>
<pdfrwt beam="2">  1        2 0.10785133E-01 0.16580588E+03</pdfrwt>
<pdfrwt beam="1">  1       -2 0.60046079E-01 0.16580588E+03</pdfrwt>
<totfact> 0.15082086E+03</totfact>
</mgrwt>
</event>
<event>
 8    1  0.1550723E-005  0.1257565E+03  0.7546771E-02  0.1248274E+00
          3   -1    0    0  501    0  0.00000000000E+00  0.00000000000E+00  0.35845414051E+02  0.35845414051E+02  0.00000000000E+00 0. -1.
         -3   -1    0    0    0  501 -0.00000000000E+00 -0.00000000000E+00 -0.37128964460E+03  0.37128964460E+03  0.00000000000E+00 0.  1.
         23    2    1    2    0    0  0.30267033712E+01 -0.13369925246E+02 -0.25131478577E+03  0.28102281137E+03  0.12500713232E+03 0.  0.
         23    2    1    2    0    0 -0.30267033712E+01  0.13369925246E+02 -0.84129444776E+02  0.12611224728E+03  0.92944174647E+02 0.  0.
          5    1    3    3  502    0 -0.82853056036E+01 -0.59807403233E+02 -0.20699335939E+03  0.21567084319E+03  0.47000000000E+01 0.  1.
         -5    1    3    3    0  502  0.11312008975E+02  0.46437477987E+02 -0.44321426381E+02  0.65351968183E+02  0.47000000000E+01 0.  1.
        -11    1    4    4    0    0 -0.12485982658E+02 -0.24286780498E+02 -0.82882702569E+02  0.87265628142E+02  0.00000000000E+00 0.  1.
         11    1    4    4    0    0  0.94592792869E+01  0.37656705744E+02 -0.12467422069E+01  0.38846619136E+02  0.00000000000E+00 0. -1.
<mgrwt>
<rscale>  0 0.11691538E+03</rscale>
<asrwt>0</asrwt>
<pdfrwt beam="1">  1        3 0.55146787E-02 0.12575651E+03</pdfrwt>
<pdfrwt beam="2">  1       -3 0.57121488E-01 0.12575651E+03</pdfrwt>
<totfact> 0.13491212E+03</totfact>
</mgrwt>
</event>
<event>
 8    1  0.1550723E-005  0.1259545E+03  0.7546771E-02  0.1250184E+00
         -1   -1    0    0    0  501 -0.00000000000E+00  0.00000000000E+00  0.40852174185E+02  0.40852174185E+02  0.00000000000E+00 0.  1.
          1   -1    0    0  501    0  0.00000000000E+00 -0.00000000000E+00 -0.30657118576E+03  0.30657118576E+03  0.00000000000E+00 0. -1.
         23    2    1    2    0    0  0.15381379977E+02 -0.20689217474E+01 -0.10839572705E+03  0.16617509336E+03  0.12499464279E+03 0.  0.
         23    2    1    2    0    0 -0.15381379977E+02  0.20689217474E+01 -0.15732328453E+03  0.18124826659E+03  0.88653544752E+02 0.  0.
          5    1    3    3  502    0 -0.23882781398E+02 -0.26534462549E+02  0.11320204089E+02  0.37745224475E+02  0.47000000000E+01 0. -1.
         -5    1    3    3    0  502  0.39264161375E+02  0.24465540801E+02 -0.11971593113E+03  0.12842986889E+03  0.47000000000E+01 0. -1.
        -11    1    4    4    0    0  0.12065888543E+02  0.40613670281E+02 -0.66785280261E+02  0.79090641289E+02  0.00000000000E+00 0.  1.
         11    1    4    4    0    0 -0.27447268520E+02 -0.38544748534E+02 -0.90538004272E+02  0.10215762530E+03  0.00000000000E+00 0. -1.
<mgrwt>
<rscale>  0 0.11580384E+03</rscale>
<asrwt>0</asrwt>
<pdfrwt beam="2">  1        1 0.47164796E-01 0.12595447E+03</pdfrwt>
<pdfrwt beam="1">  1       -1 0.62849501E-02 0.12595447E+03</pdfrwt>
<totfact> 0.99834039E+03</totfact>
</mgrwt>
</event>
<event>
 7    1  0.1550723E-005  0.1207407E+03  0.7546771E-02  0.1293579E+00
          4   -1    0    0  501    0  0.00000000000E+00  0.00000000000E+00  0.19098162650E+03  0.19098162650E+03  0.00000000000E+00 0. -1.
         -4   -1    0    0    0  501 -0.00000000000E+00 -0.00000000000E+00 -0.12782068382E+03  0.12782068382E+03  0.00000000000E+00 0.  1.
         23    2    1    2    0    0  0.20760673938E+01 -0.59232099518E+01 -0.95591184762E+02  0.15399999066E+03  0.12057747736E+03 0.  0.
          5    1    3    3  502    0  0.25610887474E+01 -0.13097518182E+02  0.27331925729E+02  0.30777074620E+02  0.47000000000E+01 0. -1.
         -5    1    3    3    0  502 -0.48502135356E+00  0.71743082299E+01 -0.12292311049E+03  0.12322291604E+03  0.47000000000E+01 0.  1.
        -11    1    1    2    0    0 -0.20088384017E+02 -0.78271570461E+01  0.74682168288E+02  0.77731807004E+02  0.00000000000E+00 0. -1.
         11    1    1    2    0    0  0.18012316623E+02  0.13750366998E+02  0.84069959151E+02  0.87070512657E+02  0.00000000000E+00 0.  1.
<mgrwt>
<rscale>  0 0.93940940E+02</rscale>
<asrwt>0</asrwt>
<pdfrwt beam="1">  1        4 0.29381789E-01 0.12074072E+03</pdfrwt>
<pdfrwt beam="2">  1       -4 0.19664721E-01 0.12074072E+03</pdfrwt>
<totfact> 0.41758303E+02</totfact>
</mgrwt>
</event>
<event>
 8    1  0.1550723E-005  0.1325359E+03  0.7546771E-02  0.1236863E+00
         -1   -1    0    0    0  501 -0.00000000000E+00  0.00000000000E+00  0.66821239773E+02  0.66821239773E+02  0.00000000000E+00 0.  1.
          1   -1    0    0  501    0  0.00000000000E+00 -0.00000000000E+00 -0.20715132887E+03  0.20715132887E+03  0.00000000000E+00 0. -1.
         23    2    1    2    0    0  0.16134319480E+02 -0.40488234633E+02 -0.63295016316E+02  0.14687416320E+03  0.12516448105E+03 0.  0.
         23    2    1    2    0    0 -0.16134319480E+02  0.40488234633E+02 -0.77035072777E+02  0.12709840544E+03  0.91213972717E+02 0.  0.
          5    1    3    3  502    0 -0.35411086754E+01  0.39133406109E+02 -0.49820979638E+02  0.63625332506E+02  0.47000000000E+01 0. -1.
         -5    1    3    3    0  502  0.19675428155E+02 -0.79621640741E+02 -0.13474036678E+02  0.83248830694E+02  0.47000000000E+01 0.  1.
        -11    1    4    4    0    0 -0.23885465424E+02  0.59976807640E+01 -0.86960714962E+02  0.90380604002E+02  0.00000000000E+00 0. -1.
         11    1    4    4    0    0  0.77511459440E+01  0.34490553869E+02  0.99256421851E+01  0.36717801437E+02  0.00000000000E+00 0.  1.
<mgrwt>
<rscale>  0 0.12385951E+03</rscale>
<asrwt>0</asrwt>
<pdfrwt beam="2">  1        1 0.31869435E-01 0.13253588E+03</pdfrwt>
<pdfrwt beam="1">  1       -1 0.10280191E-01 0.13253588E+03</pdfrwt>
<totfact> 0.77470123E+03</totfact>
</mgrwt>
</event>
<event>
 8    1  0.1550723E-005  0.1472713E+03  0.7546771E-02  0.1211888E+00
          3   -1    0    0  501    0  0.00000000000E+00  0.00000000000E+00  0.39239095176E+03  0.39239095176E+03  0.00000000000E+00 0. -1.
         -3   -1    0    0    0  501 -0.00000000000E+00 -0.00000000000E+00 -0.49983268422E+02  0.49983268422E+02  0.00000000000E+00 0.  1.
         23    2    1    2    0    0 -0.26924550706E+02  0.73040747307E+02  0.13012625115E+03  0.19652396425E+03  0.12501577935E+03 0.  0.
         23    2    1    2    0    0  0.26924550706E+02 -0.73040747307E+02  0.21228143219E+03  0.24585025593E+03  0.96535276937E+02 0.  0.
          5    1    3    3  502    0 -0.29119318548E+02  0.63466077437E+02  0.15461855827E+03  0.16971996423E+03  0.47000000000E+01 0.  1.
         -5    1    3    3    0  502  0.21947678420E+01  0.95746698704E+01 -0.24492307117E+02  0.26804000017E+02  0.47000000000E+01 0.  1.
        -11    1    4    4    0    0  0.24771697488E+01 -0.82572917800E+02  0.20095049474E+03  0.21726832364E+03  0.00000000000E+00 0. -1.
         11    1    4    4    0    0  0.24447380957E+02  0.95321704927E+01  0.11330937452E+02  0.28581932291E+02  0.00000000000E+00 0.  1.
<mgrwt>
<rscale>  0 0.14107639E+03</rscale>
<asrwt>0</asrwt>
<pdfrwt beam="1">  1        3 0.60367837E-01 0.14727127E+03</pdfrwt>
<pdfrwt beam="2">  1       -3 0.76897338E-02 0.14727127E+03</pdfrwt>
<totfact> 0.72464662E+02</totfact>
</mgrwt>
</event>
<event>
 8    1  0.1550723E-005  0.1278751E+03  0.7546771E-02  0.1246210E+00
         -4   -1    0    0    0  501 -0.00000000000E+00  0.00000000000E+00  0.13986065665E+03  0.13986065665E+03  0.00000000000E+00 0.  1.
          4   -1    0    0  501    0  0.00000000000E+00 -0.00000000000E+00 -0.87406764561E+02  0.87406764561E+02  0.00000000000E+00 0. -1.
         23    2    1    2    0    0 -0.18822302800E+02  0.19310062768E+02  0.26647381790E+02  0.13062207408E+03  0.12499954269E+03 0.  0.
         23    2    1    2    0    0  0.18822302800E+02 -0.19310062768E+02  0.25806510299E+02  0.96645347135E+02  0.89147010844E+02 0.  0.
          5    1    3    3  502    0 -0.59969351099E+02 -0.23858179565E+02  0.28641357832E+02  0.70766893261E+02  0.47000000000E+01 0.  1.
         -5    1    3    3    0  502  0.41147048299E+02  0.43168242332E+02 -0.19939760418E+01  0.59855180814E+02  0.47000000000E+01 0.  1.
        -11    1    4    4    0    0  0.37798485745E+02  0.24604816641E+02  0.15652571003E+02  0.47740187532E+02  0.00000000000E+00 0.  1.
         11    1    4    4    0    0 -0.18976182945E+02 -0.43914879409E+02  0.10153939295E+02  0.48905159604E+02  0.00000000000E+00 0. -1.
<mgrwt>
<rscale>  0 0.11813242E+03</rscale>
<asrwt>0</asrwt>
<pdfrwt beam="2">  1        4 0.13447195E-01 0.12787511E+03</pdfrwt>
<pdfrwt beam="1">  1       -4 0.21517024E-01 0.12787511E+03</pdfrwt>
<totfact> 0.14644460E+03</totfact>
</mgrwt>
</event>
<event>
 8    1  0.1550723E-005  0.1404920E+03  0.7546771E-02  0.1223714E+00
         -4   -1    0    0    0  501 -0.00000000000E+00  0.00000000000E+00  0.33831095215E+03  0.33831095215E+03  0.00000000000E+00 0.  1.
          4   -1    0    0  501    0  0.00000000000E+00 -0.00000000000E+00 -0.46882391771E+02  0.46882391771E+02  0.00000000000E+00 0. -1.
         23    2    1    2    0    0  0.26321090284E+02 -0.58483418613E+02  0.16661661589E+03  0.21794289277E+03  0.12499959108E+03 0.  0.
         23    2    1    2    0    0 -0.26321090284E+02  0.58483418613E+02  0.12481194448E+03  0.16725045115E+03  0.91003197081E+02 0.  0.
          5    1    3    3  502    0  0.76327993538E+02 -0.43302594750E+02  0.10897741641E+03  0.13999730211E+03  0.47000000000E+01 0. -1.
         -5    1    3    3    0  502 -0.50006903254E+02 -0.15180823863E+02  0.57639199482E+02  0.77945590659E+02  0.47000000000E+01 0. -1.
        -11    1    4    4    0    0 -0.45160697131E+02  0.23816276569E+02  0.11612037332E+03  0.12684890498E+03  0.00000000000E+00 0.  1.
         11    1    4    4    0    0  0.18839606847E+02  0.34667142044E+02  0.86915711600E+01  0.40401546169E+02  0.00000000000E+00 0. -1.
<mgrwt>
<rscale>  0 0.13255411E+03</rscale>
<asrwt>0</asrwt>
<pdfrwt beam="2">  1        4 0.72126759E-02 0.14049202E+03</pdfrwt>
<pdfrwt beam="1">  1       -4 0.52047837E-01 0.14049202E+03</pdfrwt>
<totfact> 0.78054083E+02</totfact>
</mgrwt>
</event>
<event>
 8    1  0.1550723E-005  0.2945390E+03  0.7546771E-02  0.1089513E+00
          2   -1    0    0  501    0  0.00000000000E+00  0.00000000000E+00  0.69867937192E+03  0.69867937192E+03  0.00000000000E+00 0. -1.
         -2   -1    0    0    0  501 -0.00000000000E+00 -0.00000000000E+00 -0.12307838724E+03  0.12307838724E+03  0.00000000000E+00 0.  1.
         23    2    1    2    0    0  0.14396802396E+03 -0.22450079475E+03  0.22182961168E+03  0.36872970893E+03  0.12500329140E+03 0.  0.
         23    2    1    2    0    0 -0.14396802396E+03  0.22450079475E+03  0.35377137300E+03  0.45302805023E+03  0.94619401719E+02 0.  0.
          5    1    3    3  502    0  0.13670787981E+03 -0.17955872718E+03  0.22997520531E+03  0.32224379895E+03  0.47000000000E+01 0. -1.
         -5    1    3    3    0  502  0.72601441463E+01 -0.44942067573E+02 -0.81455936219E+01  0.46485909975E+02  0.47000000000E+01 0. -1.
        -11    1    4    4    0    0 -0.15292042235E+03  0.20872988066E+03  0.29943343145E+03  0.39574385469E+03  0.00000000000E+00 0.  1.
         11    1    4    4    0    0  0.89523983897E+01  0.15770914089E+02  0.54337941545E+02  0.57284195547E+02  0.00000000000E+00 0. -1.
<mgrwt>
<rscale>  0 0.29160688E+03</rscale>
<asrwt>0</asrwt>
<pdfrwt beam="1">  1        2 0.10748913E+00 0.29453900E+03</pdfrwt>
<pdfrwt beam="2">  1       -2 0.18935137E-01 0.29453900E+03</pdfrwt>
<totfact> 0.97270729E+02</totfact>
</mgrwt>
</event>
<event>
 8    1  0.1550723E-005  0.1879653E+03  0.7546771E-02  0.1164992E+00
          2   -1    0    0  501    0  0.00000000000E+00  0.00000000000E+00  0.72765297995E+03  0.72765297995E+03  0.00000000000E+00 0. -1.
         -2   -1    0    0    0  501 -0.00000000000E+00 -0.00000000000E+00 -0.47143421206E+02  0.47143421206E+02  0.00000000000E+00 0.  1.
         23    2    1    2    0    0 -0.11697526277E+03 -0.77616279664E+02  0.25264857612E+03  0.31490039341E+03  0.12499382300E+03 0.  0.
         23    2    1    2    0    0  0.11697526277E+03  0.77616279664E+02  0.42786098262E+03  0.45989600774E+03  0.93444200028E+02 0.  0.
          5    1    3    3  502    0 -0.29625384013E+02  0.21451009688E+02  0.93813397692E+01  0.38051395906E+02  0.47000000000E+01 0.  1.
         -5    1    3    3    0  502 -0.87349878753E+02 -0.99067289352E+02  0.24326723635E+03  0.27684899751E+03  0.47000000000E+01 0.  1.
        -11    1    4    4    0    0  0.68492069484E+02  0.94143353728E+02  0.31915166175E+03  0.33972329598E+03  0.00000000000E+00 0. -1.
         11    1    4    4    0    0  0.48483193283E+02 -0.16527074064E+02  0.10870932087E+03  0.12017271176E+03  0.00000000000E+00 0.  1.
<mgrwt>
<rscale>  0 0.18293557E+03</rscale>
<asrwt>0</asrwt>
<pdfrwt beam="1">  1        2 0.11194660E+00 0.18796530E+03</pdfrwt>
<pdfrwt beam="2">  1       -2 0.72528346E-02 0.18796530E+03</pdfrwt>
<totfact> 0.43420732E+03</totfact>
</mgrwt>
</event>
<event>
 8    1  0.1550723E-005  0.1615294E+03  0.7546771E-02  0.1195169E+00
         -2   -1    0    0    0  501 -0.00000000000E+00  0.00000000000E+00  0.33691131545E+02  0.33691131545E+02  0.00000000000E+00 0.  1.
          2   -1    0    0  501    0  0.00000000000E+00 -0.00000000000E+00 -0.67115144954E+03  0.67115144954E+03  0.00000000000E+00 0. -1.
         23    2    1    2    0    0 -0.32857583881E+02  0.96881862090E+02 -0.28696084258E+03  0.32929966838E+03  0.12500412152E+03 0.  0.
         23    2    1    2    0    0  0.32857583881E+02 -0.96881862090E+02 -0.35049947541E+03  0.37554291271E+03  0.87845779637E+02 0.  0.
          5    1    3    3  502    0  0.33709682971E+02  0.66900238863E+01 -0.20768801579E+02  0.40429349050E+02  0.47000000000E+01 0.  1.
         -5    1    3    3    0  502 -0.66567266852E+02  0.90191838203E+02 -0.26619204101E+03  0.28887031933E+03  0.47000000000E+01 0.  1.
        -11    1    4    4    0    0  0.55832778675E+02 -0.58173315184E+02 -0.28412419619E+03  0.29534385491E+03  0.00000000000E+00 0. -1.
         11    1    4    4    0    0 -0.22975194794E+02 -0.38708546905E+02 -0.66375279224E+02  0.80199057796E+02  0.00000000000E+00 0.  1.
<mgrwt>
<rscale>  0 0.15439942E+03</rscale>
<asrwt>0</asrwt>
<pdfrwt beam="2">  1        2 0.10325406E+00 0.16152940E+03</pdfrwt>
<pdfrwt beam="1">  1       -2 0.51832515E-02 0.16152940E+03</pdfrwt>
<totfact> 0.79389477E+03</totfact>
</mgrwt>
</event>
<event>
 8    1  0.1550723E-005  0.1265403E+03  0.7546771E-02  0.1247108E+00
          2   -1    0    0  501    0  0.00000000000E+00  0.00000000000E+00  0.10837614965E+04  0.10837614965E+04  0.00000000000E+00 0.  1.
         -2   -1    0    0    0  501 -0.00000000000E+00 -0.00000000000E+00 -0.11261042333E+02  0.11261042333E+02  0.00000000000E+00 0. -1.
         23    2    1    2    0    0 -0.17566489733E+02  0.89422559436E+01  0.61937807219E+03  0.63217215500E+03  0.12499556691E+03 0.  0.
         23    2    1    2    0    0  0.17566489733E+02 -0.89422559436E+01  0.45312238201E+03  0.46285038387E+03  0.92314891877E+02 0.  0.
          5    1    3    3  502    0  0.16655157844E+01  0.63990284545E+02  0.40053432849E+03  0.40564438706E+03  0.47000000000E+01 0.  1.
         -5    1    3    3    0  502 -0.19232005517E+02 -0.55048028602E+02  0.21884374370E+03  0.22652776794E+03  0.47000000000E+01 0.  1.
        -11    1    4    4    0    0 -0.30544528622E+02  0.21073168750E+02  0.15473371036E+03  0.15912123614E+03  0.00000000000E+00 0. -1.
         11    1    4    4    0    0  0.48111018355E+02 -0.30015424693E+02  0.29838867165E+03  0.30372914773E+03  0.00000000000E+00 0.  1.
<mgrwt>
<rscale>  0 0.11760068E+03</rscale>
<asrwt>0</asrwt>
<pdfrwt beam="1">  1        2 0.16673246E+00 0.12654026E+03</pdfrwt>
<pdfrwt beam="2">  1       -2 0.17324689E-02 0.12654026E+03</pdfrwt>
<totfact> 0.21188265E+04</totfact>
</mgrwt>
</event>
<event>
 8    1  0.1550723E-005  0.1321513E+03  0.7546771E-02  0.1237276E+00
          1   -1    0    0  501    0  0.00000000000E+00  0.00000000000E+00  0.10346349391E+03  0.10346349391E+03  0.00000000000E+00 0. -1.
         -1   -1    0    0    0  501 -0.00000000000E+00 -0.00000000000E+00 -0.14662819148E+03  0.14662819148E+03  0.00000000000E+00 0.  1.
         23    2    1    2    0    0 -0.30596869819E+02  0.30045045911E+02 -0.64021136652E+02  0.14684229315E+03  0.12500031957E+03 0.  0.
         23    2    1    2    0    0  0.30596869819E+02 -0.30045045911E+02  0.20856439085E+02  0.10324939224E+03  0.91578232791E+02 0.  0.
          5    1    3    3  502    0 -0.49455140132E+02  0.13715658340E+02  0.22823120473E+02  0.56364128640E+02  0.47000000000E+01 0. -1.
         -5    1    3    3    0  502  0.18858270314E+02  0.16329387571E+02 -0.86844257125E+02  0.90478164511E+02  0.47000000000E+01 0. -1.
        -11    1    4    4    0    0  0.10966739124E+01 -0.16644315243E+02  0.54228283280E+02  0.56735726232E+02  0.00000000000E+00 0. -1.
         11    1    4    4    0    0  0.29500195906E+02 -0.13400730667E+02 -0.33371844195E+02  0.46513666012E+02  0.00000000000E+00 0.  1.
<mgrwt>
<rscale>  0 0.12359865E+03</rscale>
<asrwt>0</asrwt>
<pdfrwt beam="1">  1        1 0.15917461E-01 0.13215125E+03</pdfrwt>
<pdfrwt beam="2">  1       -1 0.22558183E-01 0.13215125E+03</pdfrwt>
<totfact> 0.54156788E+03</totfact>
</mgrwt>
</event>
<event>
 8    1  0.1550723E-005  0.1257218E+03  0.7546771E-02  0.1249290E+00
         -4   -1    0    0    0  501 -0.00000000000E+00  0.00000000000E+00  0.31381426875E+03  0.31381426875E+03  0.00000000000E+00 0. -1.
          4   -1    0    0  501    0  0.00000000000E+00 -0.00000000000E+00 -0.44209928999E+02  0.44209928999E+02  0.00000000000E+00 0.  1.
         23    2    1    2    0    0  0.45808408694E+00 -0.13444581089E+02  0.21998785278E+03  0.25337840744E+03  0.12499998154E+03 0.  0.
         23    2    1    2    0    0 -0.45808408694E+00  0.13444581089E+02  0.49616486980E+02  0.10464579032E+03  0.91148115993E+02 0.  0.
          5    1    3    3  502    0 -0.58686762292E+01  0.37754791400E+02  0.18928683040E+03  0.19316174517E+03  0.47000000000E+01 0. -1.
         -5    1    3    3    0  502  0.63267603161E+01 -0.51199372489E+02  0.30701022373E+02  0.60216662263E+02  0.47000000000E+01 0. -1.
        -11    1    4    4    0    0 -0.14109627159E+02  0.37652874948E+01  0.73803167034E+02  0.75234077603E+02  0.00000000000E+00 0. -1.
         11    1    4    4    0    0  0.13651543072E+02  0.96792935941E+01 -0.24186680054E+02  0.29411712714E+02  0.00000000000E+00 0.  1.
<mgrwt>
<rscale>  0 0.11632273E+03</rscale>
<asrwt>0</asrwt>
<pdfrwt beam="2">  1        4 0.68015277E-02 0.12572176E+03</pdfrwt>
<pdfrwt beam="1">  1       -4 0.48279117E-01 0.12572176E+03</pdfrwt>
<totfact> 0.97873144E+02</totfact>
</mgrwt>
</event>
<event>
 7    1  0.1550723E-005  0.1873227E+03  0.7546771E-02  0.1189364E+00
         -1   -1    0    0    0  501 -0.00000000000E+00  0.00000000000E+00  0.11063151351E+03  0.11063151351E+03  0.00000000000E+00 0.  1.
          1   -1    0    0  501    0  0.00000000000E+00 -0.00000000000E+00 -0.20498947860E+03  0.20498947860E+03  0.00000000000E+00 0. -1.
         23    2    1    2    0    0 -0.28156826950E+02  0.20300695214E+02 -0.81869098721E+02  0.12788247762E+03  0.91904589802E+02 0.  0.
          5    1    1    2  502    0  0.96151953581E+02 -0.44995797693E+02 -0.34920315276E+02  0.11185409428E+03  0.47000000000E+01 0. -1.
         -5    1    1    2    0  502 -0.67995126631E+02  0.24695102479E+02  0.22431448904E+02  0.75884420219E+02  0.47000000000E+01 0.  1.
        -11    1    3    3    0    0 -0.30422157062E+02 -0.30465910272E+02 -0.56643211258E+02  0.71148666260E+02  0.00000000000E+00 0.  1.
         11    1    3    3    0    0  0.22653301119E+01  0.50766605486E+02 -0.25225887464E+02  0.56733811360E+02  0.00000000000E+00 0. -1.
<mgrwt>
<rscale>  0 0.15941031E+03</rscale>
<asrwt>0</asrwt>
<pdfrwt beam="2">  1        1 0.31536842E-01 0.18732266E+03</pdfrwt>
<pdfrwt beam="1">  1       -1 0.17020233E-01 0.18732266E+03</pdfrwt>
<totfact> 0.36480196E+03</totfact>
</mgrwt>
</event>
<event>
 8    1  0.1550723E-005  0.1347290E+03  0.7546771E-02  0.1232649E+00
          3   -1    0    0  501    0  0.00000000000E+00  0.00000000000E+00  0.18438048883E+03  0.18438048883E+03  0.00000000000E+00 0. -1.
         -3   -1    0    0    0  501 -0.00000000000E+00 -0.00000000000E+00 -0.80857979942E+02  0.80857979942E+02  0.00000000000E+00 0.  1.
         23    2    1    2    0    0 -0.49647730955E+01 -0.50022385155E+02  0.32640018660E+02  0.13862634045E+03  0.12500001384E+03 0.  0.
         23    2    1    2    0    0  0.49647730955E+01  0.50022385155E+02  0.70882490231E+02  0.12661212832E+03  0.92083742477E+02 0.  0.
          5    1    3    3  502    0  0.20493029553E+02 -0.54417483492E+02  0.71154423803E+02  0.92012329590E+02  0.47000000000E+01 0. -1.
         -5    1    3    3    0  502 -0.25457802649E+02  0.43950983377E+01 -0.38514405143E+02  0.46614010862E+02  0.47000000000E+01 0. -1.
        -11    1    4    4    0    0  0.17700005665E+02  0.62044093806E+02  0.12577799386E+02  0.65734015655E+02  0.00000000000E+00 0.  1.
         11    1    4    4    0    0 -0.12735232570E+02 -0.12021708651E+02  0.58304690845E+02  0.60878112668E+02  0.00000000000E+00 0. -1.
<mgrwt>
<rscale>  0 0.12656129E+03</rscale>
<asrwt>0</asrwt>
<pdfrwt beam="1">  1        3 0.28366229E-01 0.13472896E+03</pdfrwt>
<pdfrwt beam="2">  1       -3 0.12439689E-01 0.13472896E+03</pdfrwt>
<totfact> 0.13988389E+03</totfact>
</mgrwt>
</event>
<event>
 8    1  0.1550723E-005  0.1315640E+03  0.7546771E-02  0.1238484E+00
          1   -1    0    0  501    0  0.00000000000E+00  0.00000000000E+00  0.29030911652E+03  0.29030911652E+03  0.00000000000E+00 0. -1.
         -1   -1    0    0    0  501 -0.00000000000E+00 -0.00000000000E+00 -0.12036288474E+03  0.12036288474E+03  0.00000000000E+00 0.  1.
         23    2    1    2    0    0 -0.15303734238E+02  0.33763490535E+02 -0.71216659859E+02  0.14960247768E+03  0.12623355778E+03 0.  0.
         23    2    1    2    0    0  0.15303734238E+02 -0.33763490535E+02  0.24116289165E+03  0.26106952359E+03  0.92863223416E+02 0.  0.
          5    1    3    3  502    0  0.36737668670E+02  0.63034678732E+01 -0.81445931012E+02  0.89693476268E+02  0.47000000000E+01 0. -1.
         -5    1    3    3    0  502 -0.52041402909E+02  0.27460022662E+02  0.10229271154E+02  0.59909001408E+02  0.47000000000E+01 0.  1.
        -11    1    4    4    0    0 -0.14901219327E+02  0.25873540897E+02  0.10824649014E+03  0.11228886447E+03  0.00000000000E+00 0.  1.
         11    1    4    4    0    0  0.30204953566E+02 -0.59637031432E+02  0.13291640151E+03  0.14878065912E+03  0.00000000000E+00 0. -1.
<mgrwt>
<rscale>  0 0.12284024E+03</rscale>
<asrwt>0</asrwt>
<pdfrwt beam="1">  1        1 0.44662941E-01 0.13156401E+03</pdfrwt>
<pdfrwt beam="2">  1       -1 0.18517367E-01 0.13156401E+03</pdfrwt>
<totfact> 0.20401069E+03</totfact>
</mgrwt>
</event>
<event>
 8    1  0.1550723E-005  0.1442689E+03  0.7546771E-02  0.1220304E+00
         -2   -1    0    0    0  501 -0.00000000000E+00  0.00000000000E+00  0.36250178924E+02  0.36250178924E+02  0.00000000000E+00 0.  1.
          2   -1    0    0  501    0  0.00000000000E+00 -0.00000000000E+00 -0.45283947183E+03  0.45283947183E+03  0.00000000000E+00 0. -1.
         23    2    1    2    0    0 -0.32344941829E+02 -0.64363568257E+02 -0.20896687067E+03  0.25393044383E+03  0.12499861233E+03 0.  0.
         23    2    1    2    0    0  0.32344941829E+02  0.64363568257E+02 -0.20762242223E+03  0.23515920692E+03  0.83689415136E+02 0.  0.
          5    1    3    3  502    0  0.50853193522E+01 -0.48325512773E+02 -0.87957054753E+01  0.49605141795E+02  0.47000000000E+01 0.  1.
         -5    1    3    3    0  502 -0.37430261181E+02 -0.16038055484E+02 -0.20017116520E+03  0.20432530203E+03  0.47000000000E+01 0.  1.
        -11    1    4    4    0    0  0.41103776693E+02  0.11297433163E+01 -0.47762112641E+02  0.63023933408E+02  0.00000000000E+00 0.  1.
         11    1    4    4    0    0 -0.87588348638E+01  0.63233824941E+02 -0.15986030959E+03  0.17213527352E+03  0.00000000000E+00 0. -1.
<mgrwt>
<rscale>  0 0.13494053E+03</rscale>
<asrwt>0</asrwt>
<pdfrwt beam="2">  1        2 0.69667615E-01 0.14426891E+03</pdfrwt>
<pdfrwt beam="1">  1       -2 0.55769503E-02 0.14426891E+03</pdfrwt>
<totfact> 0.10989328E+04</totfact>
</mgrwt>
</event>
<event>
 8    1  0.1550723E-005  0.1110021E+03  0.7546771E-02  0.1269837E+00
         -1   -1    0    0    0  501 -0.00000000000E+00  0.00000000000E+00  0.45020760249E+03  0.45020760249E+03  0.00000000000E+00 0.  1.
          1   -1    0    0  501    0  0.00000000000E+00 -0.00000000000E+00 -0.22297304396E+02  0.22297304396E+02  0.00000000000E+00 0. -1.
         23    2    1    2    0    0 -0.62574668389E+00  0.90347476833E+00  0.24061154958E+03  0.26498185164E+03  0.11099664897E+03 0.  0.
         23    2    1    2    0    0  0.62574668389E+00 -0.90347476833E+00  0.18729874851E+03  0.20752305524E+03  0.89352053349E+02 0.  0.
          5    1    3    3  502    0  0.19171740268E+01  0.45227308631E+02  0.43778699641E+02  0.63149422360E+02  0.47000000000E+01 0. -1.
         -5    1    3    3    0  502 -0.25429207107E+01 -0.44323833862E+02  0.19683284994E+03  0.20183242928E+03  0.47000000000E+01 0.  1.
        -11    1    4    4    0    0 -0.26090306602E+02  0.35590403056E+02  0.93176263488E+02  0.10309799691E+03  0.00000000000E+00 0.  1.
         11    1    4    4    0    0  0.26716053286E+02 -0.36493877824E+02  0.94122485023E+02  0.10442505834E+03  0.00000000000E+00 0. -1.
<mgrwt>
<rscale>  0 0.10514357E+03</rscale>
<asrwt>0</asrwt>
<pdfrwt beam="2">  1        1 0.34303549E-02 0.11100209E+03</pdfrwt>
<pdfrwt beam="1">  1       -1 0.69262701E-01 0.11100209E+03</pdfrwt>
<totfact> 0.57891125E+03</totfact>
</mgrwt>
</event>
<event>
 8    1  0.1550723E-005  0.1360912E+03  0.7546771E-02  0.1230872E+00
         -1   -1    0    0    0  501 -0.00000000000E+00  0.00000000000E+00  0.70551188862E+03  0.70551188862E+03  0.00000000000E+00 0.  1.
          1   -1    0    0  501    0  0.00000000000E+00 -0.00000000000E+00 -0.21581159447E+02  0.21581159447E+02  0.00000000000E+00 0. -1.
         23    2    1    2    0    0 -0.50731280560E+02  0.17959016475E+02  0.45638269671E+03  0.47624151219E+03  0.12499849191E+03 0.  0.
         23    2    1    2    0    0  0.50731280560E+02 -0.17959016475E+02  0.22754803246E+03  0.25085153587E+03  0.90841603205E+02 0.  0.
          5    1    3    3  502    0  0.22449395072E+02 -0.13326567927E+02  0.29549570433E+03  0.29668396322E+03  0.47000000000E+01 0. -1.
         -5    1    3    3    0  502 -0.73180675632E+02  0.31285584401E+02  0.16088699238E+03  0.17955754897E+03  0.47000000000E+01 0. -1.
        -11    1    4    4    0    0 -0.16332511075E+02  0.21602345195E+02  0.47285310432E+02  0.54491401327E+02  0.00000000000E+00 0.  1.
         11    1    4    4    0    0  0.67063791635E+02 -0.39561361669E+02  0.18026272203E+03  0.19636013455E+03  0.00000000000E+00 0. -1.
<mgrwt>
<rscale>  0 0.12772444E+03</rscale>
<asrwt>0</asrwt>
<pdfrwt beam="2">  1        1 0.33201789E-02 0.13609119E+03</pdfrwt>
<pdfrwt beam="1">  1       -1 0.10854027E+00 0.13609119E+03</pdfrwt>
<totfact> 0.23915791E+03</totfact>
</mgrwt>
</event>
<event>
 8    1  0.1550723E-005  0.1286099E+03  0.7546771E-02  0.1242989E+00
          1   -1    0    0  501    0  0.00000000000E+00  0.00000000000E+00  0.57163604729E+02  0.57163604729E+02  0.00000000000E+00 0. -1.
         -1   -1    0    0    0  501 -0.00000000000E+00 -0.00000000000E+00 -0.29364966547E+03  0.29364966547E+03  0.00000000000E+00 0.  1.
         23    2    1    2    0    0  0.29421806499E+02  0.70417961318E+01 -0.21539890632E+03  0.25087289188E+03  0.12500115777E+03 0.  0.
         23    2    1    2    0    0 -0.29421806499E+02 -0.70417961318E+01 -0.21087154421E+02  0.99940378324E+02  0.92888005402E+02 0.  0.
          5    1    3    3  502    0  0.78360564021E+02  0.10654868408E+02 -0.12812064464E+03  0.15063496871E+03  0.47000000000E+01 0.  1.
         -5    1    3    3    0  502 -0.48938757523E+02 -0.36130722766E+01 -0.87278261684E+02  0.10023792317E+03  0.47000000000E+01 0.  1.
        -11    1    4    4    0    0 -0.58161319906E+02  0.16590493546E+02 -0.13273879918E+02  0.61920751751E+02  0.00000000000E+00 0. -1.
         11    1    4    4    0    0  0.28739513407E+02 -0.23632289678E+02 -0.78132745030E+01  0.38019626573E+02  0.00000000000E+00 0.  1.
<mgrwt>
<rscale>  0 0.12006568E+03</rscale>
<asrwt>0</asrwt>
<pdfrwt beam="1">  1        1 0.87944007E-02 0.12860995E+03</pdfrwt>
<pdfrwt beam="2">  1       -1 0.45176872E-01 0.12860995E+03</pdfrwt>
<totfact> 0.36230015E+03</totfact>
</mgrwt>
</event>
<event>
 8    1  0.1550723E-005  0.1979350E+03  0.7546771E-02  0.1156641E+00
         -2   -1    0    0    0  501 -0.00000000000E+00  0.00000000000E+00  0.46833457057E+03  0.46833457057E+03  0.00000000000E+00 0.  1.
          2   -1    0    0  501    0  0.00000000000E+00 -0.00000000000E+00 -0.90995109581E+02  0.90995109581E+02  0.00000000000E+00 0. -1.
         23    2    1    2    0    0 -0.14567887557E+03 -0.48291322974E+02  0.31730410099E+03  0.37397883990E+03  0.12499557401E+03 0.  0.
         23    2    1    2    0    0  0.14567887557E+03  0.48291322974E+02  0.60035359996E+02  0.18535084025E+03  0.84831025397E+02 0.  0.
          5    1    3    3  502    0 -0.19164053866E+02 -0.46649350855E+02  0.27297703392E+02  0.57538487174E+02  0.47000000000E+01 0.  1.
         -5    1    3    3    0  502 -0.12651482170E+03 -0.16419721191E+01  0.29000639760E+03  0.31644035272E+03  0.47000000000E+01 0.  1.
        -11    1    4    4    0    0  0.26745335477E+02  0.36026202145E+02  0.47161644952E+02  0.65095475767E+02  0.00000000000E+00 0.  1.
         11    1    4    4    0    0  0.11893354009E+03  0.12265120829E+02  0.12873715044E+02  0.12025536448E+03  0.00000000000E+00 0. -1.
<mgrwt>
<rscale>  0 0.19203212E+03</rscale>
<asrwt>0</asrwt>
<pdfrwt beam="2">  1        2 0.13999248E-01 0.19793504E+03</pdfrwt>
<pdfrwt beam="1">  1       -2 0.72051471E-01 0.19793504E+03</pdfrwt>
<totfact> 0.75397564E+02</totfact>
</mgrwt>
</event>
<event>
 8    1  0.1550723E-005  0.1468013E+03  0.7546771E-02  0.1213828E+00
         -2   -1    0    0    0  501 -0.00000000000E+00  0.00000000000E+00  0.34329039713E+02  0.34329039713E+02  0.00000000000E+00 0.  1.
          2   -1    0    0  501    0  0.00000000000E+00 -0.00000000000E+00 -0.53989225394E+03  0.53989225394E+03  0.00000000000E+00 0. -1.
         23    2    1    2    0    0  0.73265391456E+02 -0.23589007711E+02 -0.22078849854E+03  0.26513803146E+03  0.12500542295E+03 0.  0.
         23    2    1    2    0    0 -0.73265391456E+02  0.23589007711E+02 -0.28477471569E+03  0.30908326220E+03  0.92258145481E+02 0.  0.
          5    1    3    3  502    0  0.25262621710E+02  0.32966649446E+02 -0.11960088272E+02  0.43475668400E+02  0.47000000000E+01 0. -1.
         -5    1    3    3    0  502  0.48002769746E+02 -0.56555657156E+02 -0.20882841027E+03  0.22166236306E+03  0.47000000000E+01 0. -1.
        -11    1    4    4    0    0 -0.50932173114E+02  0.58069083395E+02 -0.21019535637E+03  0.22393792118E+03  0.00000000000E+00 0. -1.
         11    1    4    4    0    0 -0.22333218342E+02 -0.34480075684E+02 -0.74579359319E+02  0.85145341018E+02  0.00000000000E+00 0.  1.
<mgrwt>
<rscale>  0 0.13962962E+03</rscale>
<asrwt>0</asrwt>
<pdfrwt beam="2">  1        2 0.83060347E-01 0.14680128E+03</pdfrwt>
<pdfrwt beam="1">  1       -2 0.52813907E-02 0.14680128E+03</pdfrwt>
<totfact> 0.98455569E+03</totfact>
</mgrwt>
</event>
<event>
 8    1  0.1550723E-005  0.1717413E+03  0.7546771E-02  0.1182385E+00
          1   -1    0    0  501    0  0.00000000000E+00  0.00000000000E+00  0.14959854276E+03  0.14959854276E+03  0.00000000000E+00 0. -1.
         -1   -1    0    0    0  501 -0.00000000000E+00 -0.00000000000E+00 -0.17212017322E+03  0.17212017322E+03  0.00000000000E+00 0.  1.
         23    2    1    2    0    0  0.73710566368E+02  0.91856185578E+02 -0.52256123753E+01  0.17182080026E+03  0.12499709578E+03 0.  0.
         23    2    1    2    0    0 -0.73710566368E+02 -0.91856185578E+02 -0.17296018088E+02  0.14989791572E+03  0.91101188099E+02 0.  0.
          5    1    3    3  502    0  0.99007016184E+01 -0.26922797520E+02  0.19028443176E+02  0.34742374251E+02  0.47000000000E+01 0. -1.
         -5    1    3    3    0  502  0.63809864749E+02  0.11877898310E+03 -0.24254055551E+02  0.13707842600E+03  0.47000000000E+01 0. -1.
        -11    1    4    4    0    0  0.85227769555E+01 -0.35411934235E+02 -0.32731812944E+02  0.48969525135E+02  0.00000000000E+00 0.  1.
         11    1    4    4    0    0 -0.82233343323E+02 -0.56444251343E+02  0.15435794856E+02  0.10092839059E+03  0.00000000000E+00 0. -1.
<mgrwt>
<rscale>  0 0.16572094E+03</rscale>
<asrwt>0</asrwt>
<pdfrwt beam="1">  1        1 0.23015160E-01 0.17174132E+03</pdfrwt>
<pdfrwt beam="2">  1       -1 0.26480027E-01 0.17174132E+03</pdfrwt>
<totfact> 0.26336039E+03</totfact>
</mgrwt>
</event>
<event>
 8    1  0.1550723E-005  0.1484999E+03  0.7546771E-02  0.1211173E+00
         -2   -1    0    0    0  501 -0.00000000000E+00  0.00000000000E+00  0.47294249377E+02  0.47294249377E+02  0.00000000000E+00 0.  1.
          2   -1    0    0  501    0  0.00000000000E+00 -0.00000000000E+00 -0.39019107274E+03  0.39019107274E+03  0.00000000000E+00 0. -1.
         23    2    1    2    0    0  0.21012081972E+02 -0.77367009064E+02 -0.19905206288E+03  0.24834238753E+03  0.12500022411E+03 0.  0.
         23    2    1    2    0    0 -0.21012081972E+02  0.77367009064E+02 -0.14384476048E+03  0.18914293458E+03  0.93040705635E+02 0.  0.
          5    1    3    3  502    0 -0.33433844515E+02 -0.54968684849E+02 -0.17138317304E+03  0.18312198196E+03  0.47000000000E+01 0.  1.
         -5    1    3    3    0  502  0.54445926487E+02 -0.22398324215E+02 -0.27668889840E+02  0.65220405577E+02  0.47000000000E+01 0.  1.
        -11    1    4    4    0    0 -0.46302068637E+02  0.81779372128E+02 -0.12862349206E+03  0.15929767724E+03  0.00000000000E+00 0.  1.
         11    1    4    4    0    0  0.25289986665E+02 -0.44123630639E+01 -0.15221268419E+02  0.29845257339E+02  0.00000000000E+00 0. -1.
<mgrwt>
<rscale>  0 0.14161466E+03</rscale>
<asrwt>0</asrwt>
<pdfrwt beam="2">  1        2 0.60029396E-01 0.14849989E+03</pdfrwt>
<pdfrwt beam="1">  1       -2 0.72760384E-02 0.14849989E+03</pdfrwt>
<totfact> 0.86173281E+03</totfact>
</mgrwt>
</event>
<event>
 8    1  0.1550723E-005  0.1377454E+03  0.7546771E-02  0.1228220E+00
          2   -1    0    0  501    0  0.00000000000E+00  0.00000000000E+00  0.80010484272E+02  0.80010484272E+02  0.00000000000E+00 0. -1.
         -2   -1    0    0    0  501 -0.00000000000E+00 -0.00000000000E+00 -0.18807258027E+03  0.18807258027E+03  0.00000000000E+00 0.  1.
         23    2    1    2    0    0  0.57846866438E+02 -0.16737277508E+01 -0.62727103985E+02  0.15135548585E+03  0.12499892880E+03 0.  0.
         23    2    1    2    0    0 -0.57846866438E+02  0.16737277508E+01 -0.45334992011E+02  0.11672757869E+03  0.90669756839E+02 0.  0.
          5    1    3    3  502    0  0.95811134511E+02 -0.13664987636E+02 -0.51463917908E+02  0.10971385614E+03  0.47000000000E+01 0.  1.
         -5    1    3    3    0  502 -0.37964268072E+02  0.11991259886E+02 -0.11263186076E+02  0.41641629705E+02  0.47000000000E+01 0.  1.
        -11    1    4    4    0    0 -0.27923088752E+02 -0.10615930448E+02  0.25229491232E+02  0.39101458957E+02  0.00000000000E+00 0. -1.
         11    1    4    4    0    0 -0.29923777686E+02  0.12289658199E+02 -0.70564483243E+02  0.77626119735E+02  0.00000000000E+00 0.  1.
<mgrwt>
<rscale>  0 0.12948659E+03</rscale>
<asrwt>0</asrwt>
<pdfrwt beam="1">  1        2 0.12309305E-01 0.13774539E+03</pdfrwt>
<pdfrwt beam="2">  1       -2 0.28934243E-01 0.13774539E+03</pdfrwt>
<totfact> 0.51521372E+03</totfact>
</mgrwt>
</event>
<event>
 8    1  0.1550723E-005  0.1398444E+03  0.7546771E-02  0.1224569E+00
         -2   -1    0    0    0  501 -0.00000000000E+00  0.00000000000E+00  0.26500987290E+02  0.26500987290E+02  0.00000000000E+00 0.  1.
          2   -1    0    0  501    0  0.00000000000E+00 -0.00000000000E+00 -0.59405637472E+03  0.59405637472E+03  0.00000000000E+00 0. -1.
         23    2    1    2    0    0  0.62644436063E+02  0.26388884260E+01 -0.32903758264E+03  0.35752230381E+03  0.12500071134E+03 0.  0.
         23    2    1    2    0    0 -0.62644436063E+02 -0.26388884260E+01 -0.23851780479E+03  0.26303505820E+03  0.91462612771E+02 0.  0.
          5    1    3    3  502    0  0.35177516196E+02 -0.58472056308E+02 -0.12204110327E+03  0.13990196532E+03  0.47000000000E+01 0. -1.
         -5    1    3    3    0  502  0.27466919867E+02  0.61110944734E+02 -0.20699647937E+03  0.21762033849E+03  0.47000000000E+01 0. -1.
        -11    1    4    4    0    0 -0.25408797201E+02  0.25570838699E+02 -0.23570987303E+02  0.43070479559E+02  0.00000000000E+00 0.  1.
         11    1    4    4    0    0 -0.37235638862E+02 -0.28209727125E+02 -0.21494681749E+03  0.21996457864E+03  0.00000000000E+00 0. -1.
<mgrwt>
<rscale>  0 0.13196461E+03</rscale>
<asrwt>0</asrwt>
<pdfrwt beam="2">  1        2 0.91393284E-01 0.13984444E+03</pdfrwt>
<pdfrwt beam="1">  1       -2 0.40770752E-02 0.13984444E+03</pdfrwt>
<totfact> 0.12985611E+04</totfact>
</mgrwt>
</event>
<event>
 7    1  0.1550723E-005  0.3750899E+03  0.7546771E-02  0.1100457E+00
         -2   -1    0    0    0  501 -0.00000000000E+00  0.00000000000E+00  0.25203768609E+03  0.25203768609E+03  0.00000000000E+00 0.  1.
          2   -1    0    0  501    0  0.00000000000E+00 -0.00000000000E+00 -0.23455079472E+03  0.23455079472E+03  0.00000000000E+00 0. -1.
         23    2    1    2    0    0  0.24879957260E+02  0.51475077092E+02 -0.33178494864E+02  0.10809221909E+03  0.85524379397E+02 0.  0.
          5    1    1    2  502    0 -0.15668842187E+03  0.90648062579E+02  0.19774093110E+02  0.18215772714E+03  0.47000000000E+01 0. -1.
         -5    1    1    2    0  502  0.13180846461E+03 -0.14212313967E+03  0.30891293123E+02  0.19633853459E+03  0.47000000000E+01 0.  1.
        -11    1    3    3    0    0  0.17200280523E+02 -0.22550104672E+02 -0.71402478972E+01  0.29246196519E+02  0.00000000000E+00 0.  1.
         11    1    3    3    0    0  0.76796767364E+01  0.74025181764E+02 -0.26038246966E+02  0.78846022570E+02  0.00000000000E+00 0. -1.
<mgrwt>
<rscale>  0 0.27144274E+03</rscale>
<asrwt>0</asrwt>
<pdfrwt beam="2">  1        2 0.36084738E-01 0.37508991E+03</pdfrwt>
<pdfrwt beam="1">  1       -2 0.38775029E-01 0.37508991E+03</pdfrwt>
<totfact> 0.90886829E+02</totfact>
</mgrwt>
</event>
<event>
 8    1  0.1550723E-005  0.1401933E+03  0.7546771E-02  0.1224079E+00
          2   -1    0    0  501    0  0.00000000000E+00  0.00000000000E+00  0.77371277058E+03  0.77371277058E+03  0.00000000000E+00 0. -1.
         -2   -1    0    0    0  501 -0.00000000000E+00 -0.00000000000E+00 -0.20583519863E+02  0.20583519863E+02  0.00000000000E+00 0.  1.
         23    2    1    2    0    0  0.39906107170E+02 -0.49351612983E+02  0.38446787681E+03  0.40923063461E+03  0.12500433957E+03 0.  0.
         23    2    1    2    0    0 -0.39906107170E+02  0.49351612983E+02  0.36866137391E+03  0.38506565584E+03  0.91303185036E+02 0.  0.
          5    1    3    3  502    0  0.44126766894E+02 -0.47674671812E+02  0.73546772425E+02  0.98240844983E+02  0.47000000000E+01 0. -1.
         -5    1    3    3    0  502 -0.42206597235E+01 -0.16769411716E+01  0.31092110438E+03  0.31098978962E+03  0.47000000000E+01 0. -1.
        -11    1    4    4    0    0 -0.62075499821E+02  0.82334787771E+01  0.17552892240E+03  0.18636405354E+03  0.00000000000E+00 0.  1.
         11    1    4    4    0    0  0.22169392651E+02  0.41118134206E+02  0.19313245151E+03  0.19870160230E+03  0.00000000000E+00 0. -1.
<mgrwt>
<rscale>  0 0.13230214E+03</rscale>
<asrwt>0</asrwt>
<pdfrwt beam="1">  1        2 0.11903271E+00 0.14019331E+03</pdfrwt>
<pdfrwt beam="2">  1       -2 0.31666960E-02 0.14019331E+03</pdfrwt>
<totfact> 0.13827152E+04</totfact>
</mgrwt>
</event>
<event>
 8    1  0.1550723E-005  0.1295587E+03  0.7546771E-02  0.1242150E+00
          2   -1    0    0  501    0  0.00000000000E+00  0.00000000000E+00  0.25580212532E+02  0.25580212532E+02  0.00000000000E+00 0. -1.
         -2   -1    0    0    0  501 -0.00000000000E+00 -0.00000000000E+00 -0.55384979720E+03  0.55384979720E+03  0.00000000000E+00 0.  1.
         23    2    1    2    0    0  0.31734903543E+02 -0.12375200627E+02 -0.38573086191E+03  0.40690756082E+03  0.12500086210E+03 0.  0.
         23    2    1    2    0    0 -0.31734903543E+02  0.12375200627E+02 -0.14253872276E+03  0.17252244892E+03  0.91029985176E+02 0.  0.
          5    1    3    3  502    0 -0.24243333847E+02  0.26347507500E+02 -0.37517417513E+02  0.52072804844E+02  0.47000000000E+01 0.  1.
         -5    1    3    3    0  502  0.55978237390E+02 -0.38722708127E+02 -0.34821344440E+03  0.35483475598E+03  0.47000000000E+01 0.  1.
        -11    1    4    4    0    0 -0.45514730265E+02 -0.13698588234E+02 -0.13345078792E+03  0.14166282077E+03  0.00000000000E+00 0.  1.
         11    1    4    4    0    0  0.13779826722E+02  0.26073788861E+02 -0.90879348389E+01  0.30859628152E+02  0.00000000000E+00 0. -1.
<mgrwt>
<rscale>  0 0.12057578E+03</rscale>
<asrwt>0</asrwt>
<pdfrwt beam="1">  1        2 0.39354174E-02 0.12955873E+03</pdfrwt>
<pdfrwt beam="2">  1       -2 0.85207659E-01 0.12955873E+03</pdfrwt>
<totfact> 0.25560248E+03</totfact>
</mgrwt>
</event>
<event>
 8    1  0.1550723E-005  0.1296597E+03  0.7546771E-02  0.1242114E+00
          1   -1    0    0  501    0  0.00000000000E+00  0.00000000000E+00  0.77773725250E+02  0.77773725250E+02  0.00000000000E+00 0. -1.
         -1   -1    0    0    0  501 -0.00000000000E+00 -0.00000000000E+00 -0.16924876247E+03  0.16924876247E+03  0.00000000000E+00 0.  1.
         23    2    1    2    0    0 -0.50476034117E+01  0.34079768807E+02 -0.71075314754E+02  0.14786253424E+03  0.12499887889E+03 0.  0.
         23    2    1    2    0    0  0.50476034117E+01 -0.34079768807E+02 -0.20399722461E+02  0.99159953474E+02  0.90717356411E+02 0.  0.
          5    1    3    3  502    0 -0.58786920618E+02  0.45539856109E+02 -0.40649051870E+02  0.84877652819E+02  0.47000000000E+01 0. -1.
         -5    1    3    3    0  502  0.53739317206E+02 -0.11460087302E+02 -0.30426262883E+02  0.62984881422E+02  0.47000000000E+01 0. -1.
        -11    1    4    4    0    0  0.19963452835E+02 -0.18885954357E+02  0.32248355999E+02  0.42369507735E+02  0.00000000000E+00 0. -1.
         11    1    4    4    0    0 -0.14915849423E+02 -0.15193814450E+02 -0.52648078461E+02  0.56790445738E+02  0.00000000000E+00 0.  1.
<mgrwt>
<rscale>  0 0.12059801E+03</rscale>
<asrwt>0</asrwt>
<pdfrwt beam="1">  1        1 0.11965189E-01 0.12965966E+03</pdfrwt>
<pdfrwt beam="2">  1       -1 0.26038271E-01 0.12965966E+03</pdfrwt>
<totfact> 0.61979434E+03</totfact>
</mgrwt>
</event>
<event>
 8    1  0.1550723E-005  0.3571982E+03  0.7546771E-02  0.1060763E+00
          3   -1    0    0  501    0  0.00000000000E+00  0.00000000000E+00  0.41452036726E+03  0.41452036726E+03  0.00000000000E+00 0. -1.
         -3   -1    0    0    0  501 -0.00000000000E+00 -0.00000000000E+00 -0.30369855847E+03  0.30369855847E+03  0.00000000000E+00 0.  1.
         23    2    1    2    0    0 -0.67890673960E+02 -0.32765146949E+03  0.10794177934E+02  0.35736121649E+03  0.12500358274E+03 0.  0.
         23    2    1    2    0    0  0.67890673960E+02  0.32765146949E+03  0.10002763085E+03  0.36085770924E+03  0.90819217743E+02 0.  0.
          5    1    3    3  502    0  0.73992950041E+01 -0.24553098962E+03  0.70504804742E+01  0.24578855894E+03  0.47000000000E+01 0. -1.
         -5    1    3    3    0  502 -0.75289968965E+02 -0.82120479873E+02  0.37436974598E+01  0.11157265755E+03  0.47000000000E+01 0. -1.
        -11    1    4    4    0    0  0.50601398700E+02  0.26592297259E+03  0.11645595416E+03  0.29468206284E+03  0.00000000000E+00 0. -1.
         11    1    4    4    0    0  0.17289275260E+02  0.61728496905E+02 -0.16428323313E+02  0.66175646397E+02  0.00000000000E+00 0.  1.
<mgrwt>
<rscale>  0 0.35454856E+03</rscale>
<asrwt>0</asrwt>
<pdfrwt beam="1">  1        3 0.63772364E-01 0.35719816E+03</pdfrwt>
<pdfrwt beam="2">  1       -3 0.46722855E-01 0.35719816E+03</pdfrwt>
<totfact> 0.27957138E+01</totfact>
</mgrwt>
</event>
<event>
 7    1  0.1550723E-005  0.1653636E+03  0.7546771E-02  0.1190676E+00
          1   -1    0    0  501    0  0.00000000000E+00  0.00000000000E+00  0.35760423906E+03  0.35760423906E+03  0.00000000000E+00 0. -1.
         -1   -1    0    0    0  501 -0.00000000000E+00 -0.00000000000E+00 -0.49391294637E+03  0.49391294637E+03  0.00000000000E+00 0.  1.
         23    2    1    2    0    0  0.99638233920E+02 -0.26188634530E+02  0.32934665045E+03  0.35737142979E+03  0.92905868633E+02 0.  0.
          5    1    1    2  502    0 -0.37981608888E+01 -0.44955852104E+02 -0.11084266580E+03  0.11976494156E+03  0.47000000000E+01 0. -1.
         -5    1    1    2    0  502 -0.95840073031E+02  0.71144486634E+02 -0.35481269196E+03  0.37438081409E+03  0.47000000000E+01 0.  1.
        -11    1    3    3    0    0  0.46192096431E+02  0.19397985840E+02  0.23186641161E+03  0.23721725161E+03  0.00000000000E+00 0.  1.
         11    1    3    3    0    0  0.53446137489E+02 -0.45586620370E+02  0.97480238843E+02  0.12015417818E+03  0.00000000000E+00 0. -1.
<mgrwt>
<rscale>  0 0.15825958E+03</rscale>
<asrwt>0</asrwt>
<pdfrwt beam="1">  1        1 0.55016037E-01 0.16536359E+03</pdfrwt>
<pdfrwt beam="2">  1       -1 0.75986607E-01 0.16536359E+03</pdfrwt>
<totfact> 0.13082813E+02</totfact>
</mgrwt>
</event>
<event>
 8    1  0.1550723E-005  0.1486164E+03  0.7546771E-02  0.1212349E+00
          2   -1    0    0  501    0  0.00000000000E+00  0.00000000000E+00  0.62695035022E+02  0.62695035022E+02  0.00000000000E+00 0. -1.
         -2   -1    0    0    0  501 -0.00000000000E+00 -0.00000000000E+00 -0.28870753350E+03  0.28870753350E+03  0.00000000000E+00 0.  1.
         23    2    1    2    0    0  0.76889708882E+02  0.23459827251E+02 -0.13996773503E+03  0.20415138875E+03  0.12499772739E+03 0.  0.
         23    2    1    2    0    0 -0.76889708882E+02 -0.23459827251E+02 -0.86044763439E+02  0.14725117976E+03  0.88412769437E+02 0.  0.
          5    1    3    3  502    0  0.10029645883E+03 -0.23895395064E+01 -0.13552625328E+03  0.16868474999E+03  0.47000000000E+01 0. -1.
         -5    1    3    3    0  502 -0.23406749945E+02  0.25849366758E+02 -0.44414817537E+01  0.35466638760E+02  0.47000000000E+01 0. -1.
        -11    1    4    4    0    0 -0.15078222429E+02  0.19064691844E+02 -0.64899167979E+02  0.69301639743E+02  0.00000000000E+00 0.  1.
         11    1    4    4    0    0 -0.61811486453E+02 -0.42524519096E+02 -0.21145595460E+02  0.77949540019E+02  0.00000000000E+00 0. -1.
<mgrwt>
<rscale>  0 0.14073042E+03</rscale>
<asrwt>0</asrwt>
<pdfrwt beam="1">  1        2 0.96453900E-02 0.14861636E+03</pdfrwt>
<pdfrwt beam="2">  1       -2 0.44416543E-01 0.14861636E+03</pdfrwt>
<totfact> 0.31415678E+03</totfact>
</mgrwt>
</event>
<event>
 8    1  0.1550723E-005  0.1314879E+03  0.7546771E-02  0.1231731E+00
         -2   -1    0    0    0  501 -0.00000000000E+00  0.00000000000E+00  0.21364129579E+02  0.21364129579E+02  0.00000000000E+00 0.  1.
          2   -1    0    0  501    0  0.00000000000E+00 -0.00000000000E+00 -0.76362306800E+03  0.76362306800E+03  0.00000000000E+00 0. -1.
         23    2    1    2    0    0  0.34578923738E+02 -0.21671384824E+02 -0.29144414683E+03  0.31973231356E+03  0.12499484281E+03 0.  0.
         23    2    1    2    0    0 -0.34578923738E+02  0.21671384824E+02 -0.45081479159E+03  0.46525488401E+03  0.10753036732E+03 0.  0.
          5    1    3    3  502    0  0.27376868043E+02 -0.26727550539E+02 -0.30243920505E+03  0.30488590917E+03  0.47000000000E+01 0. -1.
         -5    1    3    3    0  502  0.72020556955E+01  0.50561657152E+01  0.10995058222E+02  0.14846404389E+02  0.47000000000E+01 0. -1.
        -11    1    4    4    0    0 -0.48766029164E+02  0.56873234310E+02 -0.33882372480E+03  0.34700750261E+03  0.00000000000E+00 0.  1.
         11    1    4    4    0    0  0.14187105426E+02 -0.35201849487E+02 -0.11199106679E+03  0.11824738140E+03  0.00000000000E+00 0. -1.
<mgrwt>
<rscale>  0 0.12716031E+03</rscale>
<asrwt>0</asrwt>
<pdfrwt beam="2">  1        2 0.11748047E+00 0.13148788E+03</pdfrwt>
<pdfrwt beam="1">  1       -2 0.32867892E-02 0.13148788E+03</pdfrwt>
<totfact> 0.13243096E+04</totfact>
</mgrwt>
</event>
<event>
 8    1  0.1550723E-005  0.1282781E+03  0.7546771E-02  0.1244845E+00
          2   -1    0    0  501    0  0.00000000000E+00  0.00000000000E+00  0.12854325951E+04  0.12854325951E+04  0.00000000000E+00 0. -1.
         -2   -1    0    0    0  501 -0.00000000000E+00 -0.00000000000E+00 -0.97076737489E+01  0.97076737489E+01  0.00000000000E+00 0.  1.
         23    2    1    2    0    0 -0.26293575453E+02 -0.11980826989E+02  0.76671318980E+03  0.77737017151E+03  0.12498150190E+03 0.  0.
         23    2    1    2    0    0  0.26293575453E+02  0.11980826989E+02  0.50901173156E+03  0.51777009735E+03  0.90321860667E+02 0.  0.
          5    1    3    3  502    0 -0.13451844830E+02  0.56506526895E+02  0.32931041261E+03  0.33442693906E+03  0.47000000000E+01 0. -1.
         -5    1    3    3    0  502 -0.12841730623E+02 -0.68487353884E+02  0.43740277719E+03  0.44294323245E+03  0.47000000000E+01 0. -1.
        -11    1    4    4    0    0 -0.27551054353E+02 -0.18274301335E+02  0.18064059817E+03  0.18364105312E+03  0.00000000000E+00 0. -1.
         11    1    4    4    0    0  0.53844629806E+02  0.30255128324E+02  0.32837113339E+03  0.33412904422E+03  0.00000000000E+00 0.  1.
<mgrwt>
<rscale>  0 0.11894660E+03</rscale>
<asrwt>0</asrwt>
<pdfrwt beam="1">  1        2 0.19775873E+00 0.12827809E+03</pdfrwt>
<pdfrwt beam="2">  1       -2 0.14934893E-02 0.12827809E+03</pdfrwt>
<totfact> 0.20299815E+04</totfact>
</mgrwt>
</event>
<event>
 8    1  0.1550723E-005  0.1465597E+03  0.7546771E-02  0.1214726E+00
         -1   -1    0    0    0  501 -0.00000000000E+00  0.00000000000E+00  0.42420831104E+02  0.42420831104E+02  0.00000000000E+00 0.  1.
          1   -1    0    0  501    0  0.00000000000E+00 -0.00000000000E+00 -0.41447053568E+03  0.41447053568E+03  0.00000000000E+00 0. -1.
         23    2    1    2    0    0 -0.35723491819E+02 -0.67646957501E+02 -0.19763785907E+03  0.24604971854E+03  0.12500984732E+03 0.  0.
         23    2    1    2    0    0  0.35723491819E+02  0.67646957501E+02 -0.17441184550E+03  0.21084164824E+03  0.90456785571E+02 0.  0.
          5    1    3    3  502    0 -0.18397243773E+02  0.14236595726E+01 -0.16750434928E+03  0.16858316171E+03  0.47000000000E+01 0. -1.
         -5    1    3    3    0  502 -0.17326248046E+02 -0.69070617074E+02 -0.30133509793E+02  0.77466556828E+02  0.47000000000E+01 0. -1.
        -11    1    4    4    0    0 -0.91834654543E+01  0.62716270688E+02 -0.57788995784E+02  0.85774324133E+02  0.00000000000E+00 0.  1.
         11    1    4    4    0    0  0.44906957274E+02  0.49306868131E+01 -0.11662284971E+03  0.12506732411E+03  0.00000000000E+00 0. -1.
<mgrwt>
<rscale>  0 0.13896688E+03</rscale>
<asrwt>0</asrwt>
<pdfrwt beam="2">  1        1 0.63764698E-01 0.14655968E+03</pdfrwt>
<pdfrwt beam="1">  1       -1 0.65262817E-02 0.14655968E+03</pdfrwt>
<totfact> 0.65408544E+03</totfact>
</mgrwt>
</event>
<event>
 8    1  0.1550723E-005  0.1136152E+03  0.7546771E-02  0.1263880E+00
          1   -1    0    0  501    0  0.00000000000E+00  0.00000000000E+00  0.65765528022E+02  0.65765528022E+02  0.00000000000E+00 0. -1.
         -1   -1    0    0    0  501 -0.00000000000E+00 -0.00000000000E+00 -0.34437870392E+03  0.34437870392E+03  0.00000000000E+00 0.  1.
         23    2    1    2    0    0  0.19538854003E+02 -0.13391961835E+02 -0.29412308597E+03  0.31530431528E+03  0.11111845065E+03 0.  0.
         23    2    1    2    0    0 -0.19538854003E+02  0.13391961835E+02  0.15509910076E+02  0.94839916662E+02  0.90514866316E+02 0.  0.
          5    1    3    3  502    0  0.11342553535E+02  0.46231846513E+02 -0.17940014513E+03  0.18566781958E+03  0.47000000000E+01 0. -1.
         -5    1    3    3    0  502  0.81963004676E+01 -0.59623808348E+02 -0.11472294084E+03  0.12963649570E+03  0.47000000000E+01 0.  1.
        -11    1    4    4    0    0  0.31978342911E+02  0.51123526073E+00 -0.13051809647E+02  0.34543096443E+02  0.00000000000E+00 0.  1.
         11    1    4    4    0    0 -0.51517196913E+02  0.12880726574E+02  0.28561719723E+02  0.60296820219E+02  0.00000000000E+00 0. -1.
<mgrwt>
<rscale>  0 0.10823147E+03</rscale>
<asrwt>0</asrwt>
<pdfrwt beam="1">  1        1 0.10117774E-01 0.11361523E+03</pdfrwt>
<pdfrwt beam="2">  1       -1 0.52981337E-01 0.11361523E+03</pdfrwt>
<totfact> 0.22387358E+03</totfact>
</mgrwt>
</event>
<event>
 8    1  0.1550723E-005  0.1312938E+03  0.7546771E-02  0.1237037E+00
          3   -1    0    0  501    0  0.00000000000E+00  0.00000000000E+00  0.11353005995E+03  0.11353005995E+03  0.00000000000E+00 0. -1.
         -3   -1    0    0    0  501 -0.00000000000E+00 -0.00000000000E+00 -0.14224806362E+03  0.14224806362E+03  0.00000000000E+00 0.  1.
         23    2    1    2    0    0  0.39931029912E+02  0.42819008426E+01 -0.64334176140E+02  0.14620860415E+03  0.12500099153E+03 0.  0.
         23    2    1    2    0    0 -0.39931029912E+02 -0.42819008426E+01  0.35616172472E+02  0.10956951942E+03  0.95520395826E+02 0.  0.
          5    1    3    3  502    0  0.17113956034E+02  0.58940413814E+02 -0.42392544778E+01  0.61700252433E+02  0.47000000000E+01 0. -1.
         -5    1    3    3    0  502  0.22817073878E+02 -0.54658512972E+02 -0.60094921663E+02  0.84508351719E+02  0.47000000000E+01 0. -1.
        -11    1    4    4    0    0  0.25978206962E+02  0.15923388912E+02  0.25823050655E+02  0.39940599602E+02  0.00000000000E+00 0. -1.
         11    1    4    4    0    0 -0.65909236875E+02 -0.20205289755E+02  0.97931218177E+01  0.69628919814E+02  0.00000000000E+00 0.  1.
<mgrwt>
<rscale>  0 0.12374950E+03</rscale>
<asrwt>0</asrwt>
<pdfrwt beam="1">  1        3 0.17466163E-01 0.13129383E+03</pdfrwt>
<pdfrwt beam="2">  1       -3 0.21884317E-01 0.13129383E+03</pdfrwt>
<totfact> 0.12465014E+03</totfact>
</mgrwt>
</event>
<event>
 8    1  0.1550723E-005  0.1289023E+03  0.7546771E-02  0.1243783E+00
         -2   -1    0    0    0  501 -0.00000000000E+00  0.00000000000E+00  0.28388908877E+03  0.28388908877E+03  0.00000000000E+00 0.  1.
          2   -1    0    0  501    0  0.00000000000E+00 -0.00000000000E+00 -0.15644405253E+03  0.15644405253E+03  0.00000000000E+00 0. -1.
         23    2    1    2    0    0 -0.24950158233E+02 -0.19182286822E+02  0.25219949475E+03  0.28323204136E+03  0.12500133431E+03 0.  0.
         23    2    1    2    0    0  0.24950158233E+02  0.19182286822E+02 -0.12475445850E+03  0.15710109995E+03  0.90147713032E+02 0.  0.
          5    1    3    3  502    0 -0.25610335126E+02  0.36114268776E+02  0.20677247710E+03  0.21151141095E+03  0.47000000000E+01 0. -1.
         -5    1    3    3    0  502  0.66017689249E+00 -0.55296555598E+02  0.45427017645E+02  0.71720630412E+02  0.47000000000E+01 0. -1.
        -11    1    4    4    0    0 -0.24779029900E+02 -0.20240303189E+02 -0.40004704024E+02  0.51225448168E+02  0.00000000000E+00 0. -1.
         11    1    4    4    0    0  0.49729188133E+02  0.39422590011E+02 -0.84749754476E+02  0.10587565178E+03  0.00000000000E+00 0.  1.
<mgrwt>
<rscale>  0 0.11958521E+03</rscale>
<asrwt>0</asrwt>
<pdfrwt beam="2">  1        2 0.24068316E-01 0.12890230E+03</pdfrwt>
<pdfrwt beam="1">  1       -2 0.43675244E-01 0.12890230E+03</pdfrwt>
<totfact> 0.11067845E+03</totfact>
</mgrwt>
</event>
<event>
 8    1  0.1550723E-005  0.1542450E+03  0.7546771E-02  0.1203337E+00
          2   -1    0    0  501    0  0.00000000000E+00  0.00000000000E+00  0.59028222973E+03  0.59028222973E+03  0.00000000000E+00 0. -1.
         -2   -1    0    0    0  501 -0.00000000000E+00 -0.00000000000E+00 -0.34600180331E+02  0.34600180331E+02  0.00000000000E+00 0.  1.
         23    2    1    2    0    0  0.17425186525E+02  0.88674597232E+02  0.26557409479E+03  0.30711745056E+03  0.12499882916E+03 0.  0.
         23    2    1    2    0    0 -0.17425186525E+02 -0.88674597232E+02  0.29010795460E+03  0.31776495950E+03  0.92979152734E+02 0.  0.
          5    1    3    3  502    0 -0.42912481660E+02  0.64890501014E+02  0.20053258973E+03  0.21514568959E+03  0.47000000000E+01 0. -1.
         -5    1    3    3    0  502  0.60337668185E+02  0.23784096218E+02  0.65041505060E+02  0.91971760967E+02  0.47000000000E+01 0. -1.
        -11    1    4    4    0    0  0.12054373248E+02 -0.39705656252E+02  0.23407009528E+03  0.23771970166E+03  0.00000000000E+00 0. -1.
         11    1    4    4    0    0 -0.29479559774E+02 -0.48968940979E+02  0.56037859317E+02  0.80045257835E+02  0.00000000000E+00 0.  1.
<mgrwt>
<rscale>  0 0.14769324E+03</rscale>
<asrwt>0</asrwt>
<pdfrwt beam="1">  1        2 0.90812643E-01 0.15424503E+03</pdfrwt>
<pdfrwt beam="2">  1       -2 0.53231051E-02 0.15424503E+03</pdfrwt>
<totfact> 0.88260433E+03</totfact>
</mgrwt>
</event>
<event>
 8    1  0.1550723E-005  0.1415627E+03  0.7546771E-02  0.1222235E+00
         -1   -1    0    0    0  501 -0.00000000000E+00  0.00000000000E+00  0.36470150800E+02  0.36470150800E+02  0.00000000000E+00 0.  1.
          1   -1    0    0  501    0  0.00000000000E+00 -0.00000000000E+00 -0.44446653579E+03  0.44446653579E+03  0.00000000000E+00 0. -1.
         23    2    1    2    0    0 -0.38269848235E+02  0.54325549685E+02 -0.20811231510E+03  0.25169572676E+03  0.12499662611E+03 0.  0.
         23    2    1    2    0    0  0.38269848235E+02 -0.54325549685E+02 -0.19988406989E+03  0.22924095983E+03  0.90454019457E+02 0.  0.
          5    1    3    3  502    0 -0.80873185787E+02  0.53902078577E+02 -0.12740820925E+03  0.16031484035E+03  0.47000000000E+01 0.  1.
         -5    1    3    3    0  502  0.42603337553E+02  0.42347110788E+00 -0.80704105851E+02  0.91380886402E+02  0.47000000000E+01 0.  1.
        -11    1    4    4    0    0 -0.28420861100E+02 -0.96653158598E+01 -0.75040559270E+02  0.80822331146E+02  0.00000000000E+00 0. -1.
         11    1    4    4    0    0  0.66690709334E+02 -0.44660233825E+02 -0.12484351062E+03  0.14841862869E+03  0.00000000000E+00 0.  1.
<mgrwt>
<rscale>  0 0.13358214E+03</rscale>
<asrwt>0</asrwt>
<pdfrwt beam="2">  1        1 0.68379469E-01 0.14156272E+03</pdfrwt>
<pdfrwt beam="1">  1       -1 0.56107923E-02 0.14156272E+03</pdfrwt>
<totfact> 0.74818088E+03</totfact>
</mgrwt>
</event>
<event>
 8    1  0.1550723E-005  0.1521129E+03  0.7546771E-02  0.1206385E+00
         -1   -1    0    0    0  501 -0.00000000000E+00  0.00000000000E+00  0.11359376769E+04  0.11359376769E+04  0.00000000000E+00 0.  1.
          1   -1    0    0  501    0  0.00000000000E+00 -0.00000000000E+00 -0.17197581443E+02  0.17197581443E+02  0.00000000000E+00 0. -1.
         23    2    1    2    0    0  0.83719868838E+02 -0.22444936805E+02  0.65442389158E+03  0.67186975802E+03  0.12500220096E+03 0.  0.
         23    2    1    2    0    0 -0.83719868838E+02  0.22444936805E+02  0.46431620390E+03  0.48126550034E+03  0.92272168027E+02 0.  0.
          5    1    3    3  502    0  0.76894594195E+02  0.32268418495E+02  0.24779580971E+03  0.26149356160E+03  0.47000000000E+01 0.  1.
         -5    1    3    3    0  502  0.68252746428E+01 -0.54713355300E+02  0.40662808187E+03  0.41037619642E+03  0.47000000000E+01 0.  1.
        -11    1    4    4    0    0 -0.60169704084E+02 -0.26198089002E+02  0.33041677540E+03  0.33687086342E+03  0.00000000000E+00 0.  1.
         11    1    4    4    0    0 -0.23550164754E+02  0.48643025807E+02  0.13389942849E+03  0.14439463692E+03  0.00000000000E+00 0. -1.
<mgrwt>
<rscale>  0 0.14528840E+03</rscale>
<asrwt>0</asrwt>
<pdfrwt beam="2">  1        1 0.26457827E-02 0.15211292E+03</pdfrwt>
<pdfrwt beam="1">  1       -1 0.17475958E+00 0.15211292E+03</pdfrwt>
<totfact> 0.99798084E+02</totfact>
</mgrwt>
</event>
<event>
 8    1  0.1550723E-005  0.1427557E+03  0.7546771E-02  0.1219353E+00
         -1   -1    0    0    0  501 -0.00000000000E+00  0.00000000000E+00  0.49422369282E+02  0.49422369282E+02  0.00000000000E+00 0.  1.
          1   -1    0    0  501    0  0.00000000000E+00 -0.00000000000E+00 -0.52790568285E+03  0.52790568285E+03  0.00000000000E+00 0. -1.
         23    2    1    2    0    0 -0.53580852971E+02 -0.43375855230E+02 -0.83050489502E+02  0.16515623886E+03  0.12500730702E+03 0.  0.
         23    2    1    2    0    0  0.53580852971E+02  0.43375855230E+02 -0.39543282407E+03  0.41217181327E+03  0.93627520965E+02 0.  0.
          5    1    3    3  502    0  0.54695666164E+01 -0.31552119002E+02  0.25316349978E+02  0.41090874275E+02  0.47000000000E+01 0. -1.
         -5    1    3    3    0  502 -0.59050419587E+02 -0.11823736228E+02 -0.10836683948E+03  0.12406536459E+03  0.47000000000E+01 0. -1.
        -11    1    4    4    0    0  0.53958674994E+02 -0.10566044767E+02 -0.27144525877E+03  0.27695795424E+03  0.00000000000E+00 0. -1.
         11    1    4    4    0    0 -0.37782202347E+00  0.53941899997E+02 -0.12398756530E+03  0.13521385903E+03  0.00000000000E+00 0.  1.
<mgrwt>
<rscale>  0 0.13561608E+03</rscale>
<asrwt>0</asrwt>
<pdfrwt beam="2">  1        1 0.81216257E-01 0.14275573E+03</pdfrwt>
<pdfrwt beam="1">  1       -1 0.76034416E-02 0.14275573E+03</pdfrwt>
<totfact> 0.37982673E+03</totfact>
</mgrwt>
</event>
<event>
 8    1  0.1550723E-005  0.1299777E+03  0.7546771E-02  0.1241259E+00
          1   -1    0    0  501    0  0.00000000000E+00  0.00000000000E+00  0.31100193664E+03  0.31100193664E+03  0.00000000000E+00 0. -1.
         -1   -1    0    0    0  501 -0.00000000000E+00 -0.00000000000E+00 -0.45716074210E+02  0.45716074210E+02  0.00000000000E+00 0.  1.
         23    2    1    2    0    0  0.23631198474E+02 -0.26653767934E+02  0.97800103012E+02  0.16266240866E+03  0.12500136861E+03 0.  0.
         23    2    1    2    0    0 -0.23631198474E+02  0.26653767934E+02  0.16748575942E+03  0.19405560220E+03  0.91308489462E+02 0.  0.
          5    1    3    3  502    0 -0.17697138169E+02  0.43449053152E+02  0.24977414012E+02  0.53357006380E+02  0.47000000000E+01 0.  1.
         -5    1    3    3    0  502  0.41328336643E+02 -0.70102821086E+02  0.72822689000E+02  0.10930540228E+03  0.47000000000E+01 0.  1.
        -11    1    4    4    0    0 -0.24927361156E+02 -0.87926184948E+01  0.15377115633E+03  0.15602644645E+03  0.00000000000E+00 0. -1.
         11    1    4    4    0    0  0.12961626814E+01  0.35446386429E+02  0.13714603096E+02  0.38029155744E+02  0.00000000000E+00 0.  1.
<mgrwt>
<rscale>  0 0.12112115E+03</rscale>
<asrwt>0</asrwt>
<pdfrwt beam="1">  1        1 0.47846450E-01 0.12997769E+03</pdfrwt>
<pdfrwt beam="2">  1       -1 0.70332424E-02 0.12997769E+03</pdfrwt>
<totfact> 0.83105106E+03</totfact>
</mgrwt>
</event>
<event>
 8    1  0.1550723E-005  0.1406679E+03  0.7546771E-02  0.1224150E+00
          1   -1    0    0  501    0  0.00000000000E+00  0.00000000000E+00  0.45211510237E+02  0.45211510237E+02  0.00000000000E+00 0. -1.
         -1   -1    0    0    0  501 -0.00000000000E+00 -0.00000000000E+00 -0.42375841163E+03  0.42375841163E+03  0.00000000000E+00 0.  1.
         23    2    1    2    0    0  0.27162840755E+02  0.58522978718E+02 -0.30736010246E+03  0.33802024817E+03  0.12499878652E+03 0.  0.
         23    2    1    2    0    0 -0.27162840755E+02 -0.58522978718E+02 -0.71186798937E+02  0.13094967370E+03  0.88980322228E+02 0.  0.
          5    1    3    3  502    0  0.53215572797E+02  0.51417726880E+02 -0.80243606301E+02  0.10925569174E+03  0.47000000000E+01 0. -1.
         -5    1    3    3    0  502 -0.26052732042E+02  0.71052518384E+01 -0.22711649616E+03  0.22876455643E+03  0.47000000000E+01 0. -1.
        -11    1    4    4    0    0 -0.57067995465E+02 -0.38590065602E+02 -0.27000821445E+02  0.73993199878E+02  0.00000000000E+00 0. -1.
         11    1    4    4    0    0  0.29905154709E+02 -0.19932913116E+02 -0.44185977493E+02  0.56956473824E+02  0.00000000000E+00 0.  1.
<mgrwt>
<rscale>  0 0.13225307E+03</rscale>
<asrwt>0</asrwt>
<pdfrwt beam="1">  1        1 0.69556171E-02 0.14066789E+03</pdfrwt>
<pdfrwt beam="2">  1       -1 0.65193600E-01 0.14066789E+03</pdfrwt>
<totfact> 0.25223681E+03</totfact>
</mgrwt>
</event>
<event>
 8    1  0.1550723E-005  0.1356287E+03  0.7546771E-02  0.1231344E+00
          1   -1    0    0  501    0  0.00000000000E+00  0.00000000000E+00  0.13850361109E+03  0.13850361109E+03  0.00000000000E+00 0. -1.
         -1   -1    0    0    0  501 -0.00000000000E+00 -0.00000000000E+00 -0.10530144646E+03  0.10530144646E+03  0.00000000000E+00 0.  1.
         23    2    1    2    0    0  0.58686583990E+01  0.52336113339E+02  0.12953562375E+02  0.13624584030E+03  0.12498649651E+03 0.  0.
         23    2    1    2    0    0 -0.58686583990E+01 -0.52336113339E+02  0.20248602253E+02  0.10755921725E+03  0.91572208728E+02 0.  0.
          5    1    3    3  502    0 -0.24190701909E+02 -0.15621516301E+02 -0.36599584861E+02  0.46806425225E+02  0.47000000000E+01 0. -1.
         -5    1    3    3    0  502  0.30059360308E+02  0.67957629640E+02  0.49553147236E+02  0.89439415078E+02  0.47000000000E+01 0. -1.
        -11    1    4    4    0    0 -0.33098853676E+02 -0.60620320004E+02  0.32790060166E+02  0.76456166251E+02  0.00000000000E+00 0. -1.
         11    1    4    4    0    0  0.27230195277E+02  0.82842066653E+01 -0.12541457912E+02  0.31103050999E+02  0.00000000000E+00 0.  1.
<mgrwt>
<rscale>  0 0.12741386E+03</rscale>
<asrwt>0</asrwt>
<pdfrwt beam="1">  1        1 0.21308248E-01 0.13562866E+03</pdfrwt>
<pdfrwt beam="2">  1       -1 0.16200223E-01 0.13562866E+03</pdfrwt>
<totfact> 0.63457311E+03</totfact>
</mgrwt>
</event>
<event>
 8    1  0.1550723E-005  0.1405694E+03  0.7546771E-02  0.1224721E+00
          2   -1    0    0  501    0  0.00000000000E+00  0.00000000000E+00  0.46797921454E+03  0.46797921454E+03  0.00000000000E+00 0. -1.
         -2   -1    0    0    0  501 -0.00000000000E+00 -0.00000000000E+00 -0.34463695431E+02  0.34463695431E+02  0.00000000000E+00 0.  1.
         23    2    1    2    0    0  0.57581360733E+02 -0.28613597664E+02  0.19620021870E+03  0.24135921442E+03  0.12500157396E+03 0.  0.
         23    2    1    2    0    0 -0.57581360733E+02  0.28613597664E+02  0.23731530041E+03  0.26108369555E+03  0.87816816156E+02 0.  0.
          5    1    3    3  502    0  0.33141636258E+02 -0.38353658420E+01 -0.76136502025E+01  0.34541797209E+02  0.47000000000E+01 0.  1.
         -5    1    3    3    0  502  0.24439724475E+02 -0.24778231822E+02  0.20381386891E+03  0.20681741721E+03  0.47000000000E+01 0.  1.
        -11    1    4    4    0    0  0.41635412032E+01  0.44663075687E+02  0.90520888717E+02  0.10102552499E+03  0.00000000000E+00 0. -1.
         11    1    4    4    0    0 -0.61744901936E+02 -0.16049478024E+02  0.14679441169E+03  0.16005817056E+03  0.00000000000E+00 0.  1.
<mgrwt>
<rscale>  0 0.13186062E+03</rscale>
<asrwt>0</asrwt>
<pdfrwt beam="1">  1        2 0.71996798E-01 0.14056936E+03</pdfrwt>
<pdfrwt beam="2">  1       -2 0.53021073E-02 0.14056936E+03</pdfrwt>
<totfact> 0.11423060E+04</totfact>
</mgrwt>
</event>
<event>
 8    1  0.1550723E-005  0.1304893E+03  0.7546771E-02  0.1240183E+00
          2   -1    0    0  501    0  0.00000000000E+00  0.00000000000E+00  0.13423027893E+03  0.13423027893E+03  0.00000000000E+00 0. -1.
         -2   -1    0    0    0  501 -0.00000000000E+00 -0.00000000000E+00 -0.98092994386E+02  0.98092994386E+02  0.00000000000E+00 0.  1.
         23    2    1    2    0    0 -0.52547954000E+01 -0.37071996259E+02  0.21386835036E+02  0.13223032690E+03  0.12500206742E+03 0.  0.
         23    2    1    2    0    0  0.52547954000E+01  0.37071996259E+02  0.14750449512E+02  0.10009294642E+03  0.91646475003E+02 0.  0.
          5    1    3    3  502    0 -0.20770731238E+02  0.98846488047E+01  0.63123330416E+02  0.67348158111E+02  0.47000000000E+01 0.  1.
         -5    1    3    3    0  502  0.15515935838E+02 -0.46956645064E+02 -0.41736495379E+02  0.64882168792E+02  0.47000000000E+01 0.  1.
        -11    1    4    4    0    0 -0.10383586334E+02 -0.10616632312E+02  0.40892300240E+02  0.43505309626E+02  0.00000000000E+00 0. -1.
         11    1    4    4    0    0  0.15638381734E+02  0.47688628571E+02 -0.26141850728E+02  0.56587636792E+02  0.00000000000E+00 0.  1.
<mgrwt>
<rscale>  0 0.12178398E+03</rscale>
<asrwt>0</asrwt>
<pdfrwt beam="1">  1        2 0.20650812E-01 0.13048932E+03</pdfrwt>
<pdfrwt beam="2">  1       -2 0.15091230E-01 0.13048932E+03</pdfrwt>
<totfact> 0.85323435E+03</totfact>
</mgrwt>
</event>
<event>
 8    1  0.1550723E-005  0.1571742E+03  0.7546771E-02  0.1200212E+00
          2   -1    0    0  501    0  0.00000000000E+00  0.00000000000E+00  0.48677642182E+03  0.48677642182E+03  0.00000000000E+00 0. -1.
         -2   -1    0    0    0  501 -0.00000000000E+00 -0.00000000000E+00 -0.43328052971E+02  0.43328052971E+02  0.00000000000E+00 0.  1.
         23    2    1    2    0    0  0.85870491370E+02  0.41296476030E+02  0.20934402993E+03  0.26177978091E+03  0.12499836240E+03 0.  0.
         23    2    1    2    0    0 -0.85870491370E+02 -0.41296476030E+02  0.23410433892E+03  0.26832469388E+03  0.90078630245E+02 0.  0.
          5    1    3    3  502    0  0.81088919224E+02 -0.28883679417E+02  0.10507213419E+03  0.13591145331E+03  0.47000000000E+01 0.  1.
         -5    1    3    3    0  502  0.47815721461E+01  0.70180155447E+02  0.10427189574E+03  0.12586832760E+03  0.47000000000E+01 0.  1.
        -11    1    4    4    0    0 -0.73147514880E+02 -0.66966789188E+02  0.20364003350E+03  0.22650468655E+03  0.00000000000E+00 0.  1.
         11    1    4    4    0    0 -0.12722976490E+02  0.25670313158E+02  0.30464305420E+02  0.41820007330E+02  0.00000000000E+00 0. -1.
<mgrwt>
<rscale>  0 0.15021243E+03</rscale>
<asrwt>0</asrwt>
<pdfrwt beam="1">  1        2 0.74888676E-01 0.15717421E+03</pdfrwt>
<pdfrwt beam="2">  1       -2 0.66658546E-02 0.15717421E+03</pdfrwt>
<totfact> 0.77853355E+03</totfact>
</mgrwt>
</event>
<event>
 8    1  0.1550723E-005  0.1340991E+03  0.7546771E-02  0.1233929E+00
         -1   -1    0    0    0  501 -0.00000000000E+00  0.00000000000E+00  0.53860353157E+03  0.53860353157E+03  0.00000000000E+00 0.  1.
          1   -1    0    0  501    0  0.00000000000E+00 -0.00000000000E+00 -0.28819463056E+02  0.28819463056E+02  0.00000000000E+00 0. -1.
         23    2    1    2    0    0  0.49234957565E+02  0.99097284211E+00  0.36896643060E+03  0.39257966846E+03  0.12472973222E+03 0.  0.
         23    2    1    2    0    0 -0.49234957565E+02 -0.99097284211E+00  0.14081763791E+03  0.17484332617E+03  0.91189464775E+02 0.  0.
          5    1    3    3  502    0 -0.23712530927E+02 -0.35435600006E+02  0.20450486268E+03  0.20895524576E+03  0.47000000000E+01 0. -1.
         -5    1    3    3    0  502  0.72947488492E+02  0.36426572848E+02  0.16446156792E+03  0.18362442270E+03  0.47000000000E+01 0.  1.
        -11    1    4    4    0    0  0.50947379062E+01  0.36381245790E+02  0.39370796655E+02  0.53848036443E+02  0.00000000000E+00 0.  1.
         11    1    4    4    0    0 -0.54329695471E+02 -0.37372218632E+02  0.10144684125E+03  0.12099528972E+03  0.00000000000E+00 0. -1.
<mgrwt>
<rscale>  0 0.12573259E+03</rscale>
<asrwt>0</asrwt>
<pdfrwt beam="2">  1        1 0.44337639E-02 0.13409910E+03</pdfrwt>
<pdfrwt beam="1">  1       -1 0.82862074E-01 0.13409910E+03</pdfrwt>
<totfact> 0.28755033E+03</totfact>
</mgrwt>
</event>
<event>
 8    1  0.1550723E-005  0.1282368E+03  0.7546771E-02  0.1245786E+00
         -4   -1    0    0    0  501 -0.00000000000E+00  0.00000000000E+00  0.20438171446E+03  0.20438171446E+03  0.00000000000E+00 0.  1.
          4   -1    0    0  501    0  0.00000000000E+00 -0.00000000000E+00 -0.61278762928E+02  0.61278762928E+02  0.00000000000E+00 0. -1.
         23    2    1    2    0    0  0.25609279399E+02  0.12792201182E+02  0.10198893676E+03  0.16384875372E+03  0.12500078109E+03 0.  0.
         23    2    1    2    0    0 -0.25609279399E+02 -0.12792201182E+02  0.41114014769E+02  0.10181172366E+03  0.88632890409E+02 0.  0.
          5    1    3    3  502    0 -0.43784246026E+02 -0.22916983102E+01  0.76413088163E+02  0.88223364954E+02  0.47000000000E+01 0. -1.
         -5    1    3    3    0  502  0.69393525425E+02  0.15083899492E+02  0.25575848596E+02  0.75625388768E+02  0.47000000000E+01 0. -1.
        -11    1    4    4    0    0  0.14403019301E+02 -0.13218611712E+02 -0.20511004383E+02  0.28335136516E+02  0.00000000000E+00 0. -1.
         11    1    4    4    0    0 -0.40012298700E+02  0.42641053010E+00  0.61625019151E+02  0.73476587146E+02  0.00000000000E+00 0.  1.
<mgrwt>
<rscale>  0 0.11838448E+03</rscale>
<asrwt>0</asrwt>
<pdfrwt beam="2">  1        4 0.94275021E-02 0.12823678E+03</pdfrwt>
<pdfrwt beam="1">  1       -4 0.31443340E-01 0.12823678E+03</pdfrwt>
<totfact> 0.13263837E+03</totfact>
</mgrwt>
</event>
<event>
 8    1  0.1550723E-005  0.1718589E+03  0.7546771E-02  0.1182161E+00
         -3   -1    0    0    0  501 -0.00000000000E+00  0.00000000000E+00  0.23701264555E+03  0.23701264555E+03  0.00000000000E+00 0.  1.
          3   -1    0    0  501    0  0.00000000000E+00 -0.00000000000E+00 -0.13586329092E+03  0.13586329092E+03  0.00000000000E+00 0. -1.
         23    2    1    2    0    0 -0.74737545558E+02  0.91249552022E+02  0.13642796117E+03  0.21942669342E+03  0.12499321475E+03 0.  0.
         23    2    1    2    0    0  0.74737545558E+02 -0.91249552022E+02 -0.35278606544E+02  0.15344924305E+03  0.91596444547E+02 0.  0.
          5    1    3    3  502    0 -0.70156765415E+02  0.10026848806E+03  0.49995803467E+02  0.13227778270E+03  0.47000000000E+01 0. -1.
         -5    1    3    3    0  502 -0.45807801437E+01 -0.90189360397E+01  0.86432157703E+02  0.87148910717E+02  0.47000000000E+01 0. -1.
        -11    1    4    4    0    0  0.32807162307E+02 -0.88704978367E+02  0.57206662089E+01  0.94750245950E+02  0.00000000000E+00 0.  1.
         11    1    4    4    0    0  0.41930383251E+02 -0.25445736555E+01 -0.40999272753E+02  0.58698997103E+02  0.00000000000E+00 0. -1.
<mgrwt>
<rscale>  0 0.16592898E+03</rscale>
<asrwt>0</asrwt>
<pdfrwt beam="2">  1        3 0.20902045E-01 0.17185891E+03</pdfrwt>
<pdfrwt beam="1">  1       -3 0.36463484E-01 0.17185891E+03</pdfrwt>
<totfact> 0.36933475E+02</totfact>
</mgrwt>
</event>
<event>
 7    1  0.1550723E-005  0.4915151E+03  0.7546771E-02  0.1016018E+00
          1   -1    0    0  501    0  0.00000000000E+00  0.00000000000E+00  0.17395943366E+03  0.17395943366E+03  0.00000000000E+00 0. -1.
         -1   -1    0    0    0  501 -0.00000000000E+00 -0.00000000000E+00 -0.34718877654E+03  0.34718877654E+03  0.00000000000E+00 0.  1.
         23    2    1    2    0    0  0.73745540636E+02  0.11121287385E+03  0.13375420879E+02  0.16150021016E+03  0.89981708840E+02 0.  0.
          5    1    1    2  502    0 -0.14285555569E+03 -0.16589879499E+03 -0.12685407236E+03  0.25306948778E+03  0.47000000000E+01 0. -1.
         -5    1    1    2    0  502  0.69110015054E+02  0.54685921138E+02 -0.59750691408E+02  0.10657851226E+03  0.47000000000E+01 0.  1.
        -11    1    3    3    0    0  0.61856543610E+02  0.12648538391E+03  0.16954200634E+02  0.14181759147E+03  0.00000000000E+00 0.  1.
         11    1    3    3    0    0  0.11888997026E+02 -0.15272510067E+02 -0.35787797557E+01  0.19682618692E+02  0.00000000000E+00 0. -1.
<mgrwt>
<rscale>  0 0.49151506E+03</rscale>
<asrwt>0</asrwt>
<pdfrwt beam="1">  1        1 0.26762990E-01 0.49151506E+03</pdfrwt>
<pdfrwt beam="2">  1       -1 0.53413657E-01 0.49151506E+03</pdfrwt>
<totfact> 0.63693908E+02</totfact>
</mgrwt>
</event>
<event>
 8    1  0.1550723E-005  0.1641502E+03  0.7546771E-02  0.1189067E+00
         -1   -1    0    0    0  501 -0.00000000000E+00  0.00000000000E+00  0.40524901159E+02  0.40524901159E+02  0.00000000000E+00 0.  1.
          1   -1    0    0  501    0  0.00000000000E+00 -0.00000000000E+00 -0.62939245868E+03  0.62939245868E+03  0.00000000000E+00 0. -1.
         23    2    1    2    0    0 -0.34663857148E+02 -0.11165214765E+03 -0.38562864552E+03  0.41911184742E+03  0.11522804925E+03 0.  0.
         23    2    1    2    0    0  0.34663857148E+02  0.11165214765E+03 -0.20323891201E+03  0.25080551243E+03  0.89048102966E+02 0.  0.
          5    1    3    3  502    0 -0.72884048157E+02 -0.47379976781E+02 -0.17302943497E+03  0.19369621071E+03  0.47000000000E+01 0. -1.
         -5    1    3    3    0  502  0.38220191009E+02 -0.64272170869E+02 -0.21259921055E+03  0.22541563671E+03  0.47000000000E+01 0.  1.
        -11    1    4    4    0    0  0.13294888876E+02  0.15348892077E+02  0.45323161090E+01  0.20805875312E+02  0.00000000000E+00 0. -1.
         11    1    4    4    0    0  0.21368968272E+02  0.96303255574E+02 -0.20777122812E+03  0.22999963712E+03  0.00000000000E+00 0.  1.
<mgrwt>
<rscale>  0 0.15967287E+03</rscale>
<asrwt>0</asrwt>
<pdfrwt beam="2">  1        1 0.96829612E-01 0.16415020E+03</pdfrwt>
<pdfrwt beam="1">  1       -1 0.62346000E-02 0.16415020E+03</pdfrwt>
<totfact> 0.40577532E+03</totfact>
</mgrwt>
</event>
<event>
 8    1  0.1550723E-005  0.1355524E+03  0.7546771E-02  0.1231528E+00
         -2   -1    0    0    0  501 -0.00000000000E+00  0.00000000000E+00  0.13906695308E+03  0.13906695308E+03  0.00000000000E+00 0.  1.
          2   -1    0    0  501    0  0.00000000000E+00 -0.00000000000E+00 -0.10454625751E+03  0.10454625751E+03  0.00000000000E+00 0. -1.
         23    2    1    2    0    0 -0.45610236912E+02  0.25449989715E+02  0.14639370142E+02  0.13634056961E+03  0.12508574689E+03 0.  0.
         23    2    1    2    0    0  0.45610236912E+02 -0.25449989715E+02  0.19881325431E+02  0.10727264098E+03  0.91565040891E+02 0.  0.
          5    1    3    3  502    0  0.26751431380E+02  0.17188156810E+02  0.46645492735E+02  0.56647716705E+02  0.47000000000E+01 0. -1.
         -5    1    3    3    0  502 -0.72361668292E+02  0.82618329041E+01 -0.32006122593E+02  0.79692852907E+02  0.47000000000E+01 0. -1.
        -11    1    4    4    0    0  0.27350656690E+02 -0.27132084422E+02 -0.33360211626E+02  0.50961869532E+02  0.00000000000E+00 0. -1.
         11    1    4    4    0    0  0.18259580223E+02  0.16820947077E+01  0.53241537056E+02  0.56310771444E+02  0.00000000000E+00 0.  1.
<mgrwt>
<rscale>  0 0.12729316E+03</rscale>
<asrwt>0</asrwt>
<pdfrwt beam="2">  1        2 0.16084039E-01 0.13555235E+03</pdfrwt>
<pdfrwt beam="1">  1       -2 0.21394916E-01 0.13555235E+03</pdfrwt>
<totfact> 0.63587794E+03</totfact>
</mgrwt>
</event>
<event>
 8    1  0.1550723E-005  0.1298195E+03  0.7546771E-02  0.1240378E+00
          1   -1    0    0  501    0  0.00000000000E+00  0.00000000000E+00  0.11778147671E+02  0.11778147671E+02  0.00000000000E+00 0. -1.
         -1   -1    0    0    0  501 -0.00000000000E+00 -0.00000000000E+00 -0.11675576705E+04  0.11675576705E+04  0.00000000000E+00 0.  1.
         23    2    1    2    0    0 -0.35031226202E+01  0.34845852993E+02 -0.76452168508E+03  0.77546534795E+03  0.12500637418E+03 0.  0.
         23    2    1    2    0    0  0.35031226202E+01 -0.34845852993E+02 -0.39125783773E+03  0.40387047019E+03  0.93819804797E+02 0.  0.
          5    1    3    3  502    0  0.52826064442E+01 -0.23849096507E+02 -0.32013604193E+02  0.40541906572E+02  0.47000000000E+01 0.  1.
         -5    1    3    3    0  502 -0.87857290643E+01  0.58694949500E+02 -0.73250808088E+03  0.73492344138E+03  0.47000000000E+01 0.  1.
        -11    1    4    4    0    0  0.38245254712E+02  0.13543600396E+02 -0.15765751603E+03  0.16279441323E+03  0.00000000000E+00 0.  1.
         11    1    4    4    0    0 -0.34742132092E+02 -0.48389453389E+02 -0.23360032170E+03  0.24107605696E+03  0.00000000000E+00 0. -1.
<mgrwt>
<rscale>  0 0.12166349E+03</rscale>
<asrwt>0</asrwt>
<pdfrwt beam="1">  1        1 0.18120228E-02 0.12981949E+03</pdfrwt>
<pdfrwt beam="2">  1       -1 0.17962424E+00 0.12981949E+03</pdfrwt>
<totfact> 0.15555709E+03</totfact>
</mgrwt>
</event>
<event>
 8    1  0.1550723E-005  0.1362722E+03  0.7546771E-02  0.1230659E+00
         -2   -1    0    0    0  501 -0.00000000000E+00  0.00000000000E+00  0.41526643777E+03  0.41526643777E+03  0.00000000000E+00 0.  1.
          2   -1    0    0  501    0  0.00000000000E+00 -0.00000000000E+00 -0.39930184085E+02  0.39930184085E+02  0.00000000000E+00 0. -1.
         23    2    1    2    0    0 -0.38735037704E+02  0.38017472233E+02  0.28619004017E+03  0.31697766974E+03  0.12499749069E+03 0.  0.
         23    2    1    2    0    0  0.38735037704E+02 -0.38017472233E+02  0.89146213516E+02  0.13821895212E+03  0.90618430795E+02 0.  0.
          5    1    3    3  502    0  0.41338799827E+02  0.29971882432E+02  0.15220952559E+03  0.16061456904E+03  0.47000000000E+01 0. -1.
         -5    1    3    3    0  502 -0.80073837531E+02  0.80455898005E+01  0.13398051458E+03  0.15636310070E+03  0.47000000000E+01 0. -1.
        -11    1    4    4    0    0  0.66243129566E+02 -0.12009536881E+02  0.63069652113E+02  0.92250540424E+02  0.00000000000E+00 0.  1.
         11    1    4    4    0    0 -0.27508091862E+02 -0.26007935352E+02  0.26076561403E+02  0.45968411695E+02  0.00000000000E+00 0. -1.
<mgrwt>
<rscale>  0 0.12786477E+03</rscale>
<asrwt>0</asrwt>
<pdfrwt beam="2">  1        2 0.61431055E-02 0.13627217E+03</pdfrwt>
<pdfrwt beam="1">  1       -2 0.63887141E-01 0.13627217E+03</pdfrwt>
<totfact> 0.26621097E+03</totfact>
</mgrwt>
</event>
<event>
 8    1  0.1550723E-005  0.1306652E+03  0.7546771E-02  0.1239579E+00
          2   -1    0    0  501    0  0.00000000000E+00  0.00000000000E+00  0.61318518288E+03  0.61318518288E+03  0.00000000000E+00 0. -1.
         -2   -1    0    0    0  501 -0.00000000000E+00 -0.00000000000E+00 -0.30634303984E+02  0.30634303984E+02  0.00000000000E+00 0.  1.
         23    2    1    2    0    0  0.81668716370E+01 -0.37164721148E+02  0.14569575541E+03  0.19570552447E+03  0.12500193948E+03 0.  0.
         23    2    1    2    0    0 -0.81668716370E+01  0.37164721148E+02  0.43685512348E+03  0.44811396240E+03  0.92281146984E+02 0.  0.
          5    1    3    3  502    0  0.28753009152E+02  0.18341981030E+02  0.12971432103E+03  0.13420528635E+03  0.47000000000E+01 0. -1.
         -5    1    3    3    0  502 -0.20586137515E+02 -0.55506702178E+02  0.15981434385E+02  0.61500238125E+02  0.47000000000E+01 0. -1.
        -11    1    4    4    0    0  0.10905211787E+02 -0.28787703070E+02  0.15393817106E+03  0.15698603760E+03  0.00000000000E+00 0.  1.
         11    1    4    4    0    0 -0.19072083424E+02  0.65952424218E+02  0.28291695243E+03  0.29112792480E+03  0.00000000000E+00 0. -1.
<mgrwt>
<rscale>  0 0.12215822E+03</rscale>
<asrwt>0</asrwt>
<pdfrwt beam="1">  1        2 0.94336173E-01 0.13066522E+03</pdfrwt>
<pdfrwt beam="2">  1       -2 0.47129703E-02 0.13066522E+03</pdfrwt>
<totfact> 0.10042354E+04</totfact>
</mgrwt>
</event>
<event>
 8    1  0.1550723E-005  0.1713848E+03  0.7546771E-02  0.1182846E+00
         -2   -1    0    0    0  501 -0.00000000000E+00  0.00000000000E+00  0.55679139134E+02  0.55679139134E+02  0.00000000000E+00 0.  1.
          2   -1    0    0  501    0  0.00000000000E+00 -0.00000000000E+00 -0.50391514768E+03  0.50391514768E+03  0.00000000000E+00 0. -1.
         23    2    1    2    0    0 -0.11717176685E+03 -0.42812044500E+01 -0.15537900433E+03  0.23133395145E+03  0.12500084180E+03 0.  0.
         23    2    1    2    0    0  0.11717176685E+03  0.42812044500E+01 -0.29285700421E+03  0.32826033536E+03  0.90785853484E+02 0.  0.
          5    1    3    3  502    0 -0.57372309529E+02  0.22578427941E+02 -0.15360877280E+03  0.16558717459E+03  0.47000000000E+01 0. -1.
         -5    1    3    3    0  502 -0.59799457320E+02 -0.26859632391E+02 -0.17702315299E+01  0.65746776861E+02  0.47000000000E+01 0. -1.
        -11    1    4    4    0    0  0.49466707382E+02  0.43381928092E+02 -0.17369374775E+03  0.18573762363E+03  0.00000000000E+00 0. -1.
         11    1    4    4    0    0  0.67705059466E+02 -0.39100723642E+02 -0.11916325646E+03  0.14252271173E+03  0.00000000000E+00 0.  1.
<mgrwt>
<rscale>  0 0.16529378E+03</rscale>
<asrwt>0</asrwt>
<pdfrwt beam="2">  1        2 0.77525405E-01 0.17138484E+03</pdfrwt>
<pdfrwt beam="1">  1       -2 0.85660217E-02 0.17138484E+03</pdfrwt>
<totfact> 0.51087530E+03</totfact>
</mgrwt>
</event>
<event>
 8    1  0.1550723E-005  0.1804870E+03  0.7546771E-02  0.1173093E+00
          2   -1    0    0  501    0  0.00000000000E+00  0.00000000000E+00  0.78273930002E+03  0.78273930002E+03  0.00000000000E+00 0. -1.
         -2   -1    0    0    0  501 -0.00000000000E+00 -0.00000000000E+00 -0.36859064610E+02  0.36859064610E+02  0.00000000000E+00 0.  1.
         23    2    1    2    0    0 -0.11666884376E+03  0.57828059789E+02  0.42887703026E+03  0.46530749104E+03  0.12497940042E+03 0.  0.
         23    2    1    2    0    0  0.11666884376E+03 -0.57828059789E+02  0.31700320515E+03  0.35429087359E+03  0.89862603083E+02 0.  0.
          5    1    3    3  502    0  0.23035994436E+02  0.13949871810E+02  0.31099582531E+02  0.41406883447E+02  0.47000000000E+01 0. -1.
         -5    1    3    3    0  502 -0.13970483819E+03  0.43878187979E+02  0.39777744773E+03  0.42390060759E+03  0.47000000000E+01 0. -1.
        -11    1    4    4    0    0  0.22253150237E+02  0.24381298355E+02  0.67882341016E+02  0.75482863133E+02  0.00000000000E+00 0. -1.
         11    1    4    4    0    0  0.94415693519E+02 -0.82209358144E+02  0.24912086413E+03  0.27880801046E+03  0.00000000000E+00 0.  1.
<mgrwt>
<rscale>  0 0.17464019E+03</rscale>
<asrwt>0</asrwt>
<pdfrwt beam="1">  1        2 0.12042142E+00 0.18048699E+03</pdfrwt>
<pdfrwt beam="2">  1       -2 0.56706259E-02 0.18048699E+03</pdfrwt>
<totfact> 0.57791786E+03</totfact>
</mgrwt>
</event>
<event>
 8    1  0.1550723E-005  0.2296080E+03  0.7546771E-02  0.1129842E+00
          1   -1    0    0  501    0  0.00000000000E+00  0.00000000000E+00  0.99092008491E+03  0.99092008491E+03  0.00000000000E+00 0. -1.
         -1   -1    0    0    0  501 -0.00000000000E+00 -0.00000000000E+00 -0.54928624865E+02  0.54928624865E+02  0.00000000000E+00 0.  1.
         23    2    1    2    0    0 -0.60991348594E+02 -0.18268868989E+03  0.31994425694E+03  0.39380728865E+03  0.12499900410E+03 0.  0.
         23    2    1    2    0    0  0.60991348594E+02  0.18268868989E+03  0.61604720310E+03  0.65204142112E+03  0.92459485130E+02 0.  0.
          5    1    3    3  502    0 -0.41159141449E+02 -0.17505860648E+03  0.32499932088E+03  0.37146499055E+03  0.47000000000E+01 0. -1.
         -5    1    3    3    0  502 -0.19832207145E+02 -0.76300834163E+01 -0.50550639409E+01  0.22342298106E+02  0.47000000000E+01 0. -1.
        -11    1    4    4    0    0  0.20329674807E+02  0.60952875937E+02  0.90124156417E+02  0.11068383953E+03  0.00000000000E+00 0.  1.
         11    1    4    4    0    0  0.40661673787E+02  0.12173581396E+03  0.52592304669E+03  0.54135758160E+03  0.00000000000E+00 0. -1.
<mgrwt>
<rscale>  0 0.22550860E+03</rscale>
<asrwt>0</asrwt>
<pdfrwt beam="1">  1        1 0.15244923E+00 0.22960804E+03</pdfrwt>
<pdfrwt beam="2">  1       -1 0.84505584E-02 0.22960804E+03</pdfrwt>
<totfact> 0.12868903E+03</totfact>
</mgrwt>
</event>
<event>
 8    1  0.1550723E-005  0.1322586E+03  0.7546771E-02  0.1237787E+00
          2   -1    0    0  501    0  0.00000000000E+00  0.00000000000E+00  0.46034631476E+03  0.46034631476E+03  0.00000000000E+00 0. -1.
         -2   -1    0    0    0  501 -0.00000000000E+00 -0.00000000000E+00 -0.31402740919E+02  0.31402740919E+02  0.00000000000E+00 0.  1.
         23    2    1    2    0    0 -0.14885902129E+01 -0.43165039239E+02  0.17863182055E+03  0.22226484456E+03  0.12500758897E+03 0.  0.
         23    2    1    2    0    0  0.14885902129E+01  0.43165039239E+02  0.25031175329E+03  0.26948421112E+03  0.90001831625E+02 0.  0.
          5    1    3    3  502    0 -0.23768345594E+02 -0.37595555889E+02  0.19071716661E+03  0.19589152027E+03  0.47000000000E+01 0.  1.
         -5    1    3    3    0  502  0.22279755381E+02 -0.55694833496E+01 -0.12085346057E+02  0.26373324287E+02  0.47000000000E+01 0.  1.
        -11    1    4    4    0    0 -0.26287449745E+02  0.15735224415E+02  0.21651205021E+02  0.37515356593E+02  0.00000000000E+00 0.  1.
         11    1    4    4    0    0  0.27776039957E+02  0.27429814824E+02  0.22866054827E+03  0.23196885453E+03  0.00000000000E+00 0. -1.
<mgrwt>
<rscale>  0 0.12327691E+03</rscale>
<asrwt>0</asrwt>
<pdfrwt beam="1">  1        2 0.70822505E-01 0.13225859E+03</pdfrwt>
<pdfrwt beam="2">  1       -2 0.48311913E-02 0.13225859E+03</pdfrwt>
<totfact> 0.13313034E+04</totfact>
</mgrwt>
</event>
<event>
 8    1  0.1550723E-005  0.1741977E+03  0.7546771E-02  0.1179486E+00
          1   -1    0    0  501    0  0.00000000000E+00  0.00000000000E+00  0.12328419625E+04  0.12328419625E+04  0.00000000000E+00 0. -1.
         -1   -1    0    0    0  501 -0.00000000000E+00 -0.00000000000E+00 -0.23951737220E+02  0.23951737220E+02  0.00000000000E+00 0.  1.
         23    2    1    2    0    0 -0.11697339876E+03  0.32212402599E+02  0.44514796239E+03  0.47801833941E+03  0.12499763795E+03 0.  0.
         23    2    1    2    0    0  0.11697339876E+03 -0.32212402599E+02  0.76374226284E+03  0.77877536027E+03  0.92023925181E+02 0.  0.
          5    1    3    3  502    0  0.20331578595E+02  0.27826118322E+02  0.12175089897E+03  0.12662163065E+03  0.47000000000E+01 0. -1.
         -5    1    3    3    0  502 -0.13730497735E+03  0.43862842765E+01  0.32339706342E+03  0.35139670876E+03  0.47000000000E+01 0. -1.
        -11    1    4    4    0    0 -0.71930331369E+01 -0.10050728093E+02  0.14778467923E+02  0.19265512582E+02  0.00000000000E+00 0.  1.
         11    1    4    4    0    0  0.12416643190E+03 -0.22161674505E+02  0.74896379492E+03  0.75950984768E+03  0.00000000000E+00 0. -1.
<mgrwt>
<rscale>  0 0.16843858E+03</rscale>
<asrwt>0</asrwt>
<pdfrwt beam="1">  1        1 0.18966794E+00 0.17419766E+03</pdfrwt>
<pdfrwt beam="2">  1       -1 0.36848836E-02 0.17419766E+03</pdfrwt>
<totfact> 0.29987584E+03</totfact>
</mgrwt>
</event>
<event>
 8    1  0.1550723E-005  0.1386008E+03  0.7546771E-02  0.1227643E+00
         -2   -1    0    0    0  501 -0.00000000000E+00  0.00000000000E+00  0.33203424614E+02  0.33203424614E+02  0.00000000000E+00 0.  1.
          2   -1    0    0  501    0  0.00000000000E+00 -0.00000000000E+00 -0.48502459315E+03  0.48502459315E+03  0.00000000000E+00 0. -1.
         23    2    1    2    0    0 -0.12599673934E+02 -0.58548352482E+02 -0.18783305375E+03  0.23343403599E+03  0.12499412674E+03 0.  0.
         23    2    1    2    0    0  0.12599673934E+02  0.58548352482E+02 -0.26398811479E+03  0.28479398177E+03  0.88494214166E+02 0.  0.
          5    1    3    3  502    0 -0.31489156362E+02 -0.89783514541E+02 -0.16377313903E+03  0.18946339361E+03  0.47000000000E+01 0.  1.
         -5    1    3    3    0  502  0.18889482429E+02  0.31235162059E+02 -0.24059914719E+02  0.43970642383E+02  0.47000000000E+01 0.  1.
        -11    1    4    4    0    0 -0.38181637273E+02  0.20457665853E+02 -0.10248836048E+03  0.11126642598E+03  0.00000000000E+00 0. -1.
         11    1    4    4    0    0  0.50781311206E+02  0.38090686629E+02 -0.16149975431E+03  0.17352755579E+03  0.00000000000E+00 0.  1.
<mgrwt>
<rscale>  0 0.12987412E+03</rscale>
<asrwt>0</asrwt>
<pdfrwt beam="2">  1        2 0.74619161E-01 0.13860084E+03</pdfrwt>
<pdfrwt beam="1">  1       -2 0.51082197E-02 0.13860084E+03</pdfrwt>
<totfact> 0.11607765E+04</totfact>
</mgrwt>
</event>
<event>
 8    1  0.1550723E-005  0.1291463E+03  0.7546771E-02  0.1241562E+00
          2   -1    0    0  501    0  0.00000000000E+00  0.00000000000E+00  0.34037312726E+03  0.34037312726E+03  0.00000000000E+00 0. -1.
         -2   -1    0    0    0  501 -0.00000000000E+00 -0.00000000000E+00 -0.40014343701E+02  0.40014343701E+02  0.00000000000E+00 0.  1.
         23    2    1    2    0    0  0.18054665309E+02  0.26957243047E+02  0.13029941062E+03  0.18345761244E+03  0.12500438097E+03 0.  0.
         23    2    1    2    0    0 -0.18054665309E+02 -0.26957243047E+02  0.17005937294E+03  0.19692985852E+03  0.93853689125E+02 0.  0.
          5    1    3    3  502    0  0.31829292354E+02  0.40594260682E+02  0.14799270511E+03  0.15679581824E+03  0.47000000000E+01 0.  1.
         -5    1    3    3    0  502 -0.13774627045E+02 -0.13637017635E+02 -0.17693294485E+02  0.26661794200E+02  0.47000000000E+01 0.  1.
        -11    1    4    4    0    0 -0.23296466013E+02  0.31417275827E+02  0.85764921695E+02  0.94262359097E+02  0.00000000000E+00 0.  1.
         11    1    4    4    0    0  0.52418007040E+01 -0.58374518874E+02  0.84294451242E+02  0.10266749943E+03  0.00000000000E+00 0. -1.
<mgrwt>
<rscale>  0 0.12093514E+03</rscale>
<asrwt>0</asrwt>
<pdfrwt beam="1">  1        2 0.52365094E-01 0.12914627E+03</pdfrwt>
<pdfrwt beam="2">  1       -2 0.61560531E-02 0.12914627E+03</pdfrwt>
<totfact> 0.12733700E+04</totfact>
</mgrwt>
</event>
<event>
 8    1  0.1550723E-005  0.1737365E+03  0.7546771E-02  0.1180014E+00
          2   -1    0    0  501    0  0.00000000000E+00  0.00000000000E+00  0.62012079384E+02  0.62012079384E+02  0.00000000000E+00 0. -1.
         -2   -1    0    0    0  501 -0.00000000000E+00 -0.00000000000E+00 -0.64232887084E+03  0.64232887084E+03  0.00000000000E+00 0.  1.
         23    2    1    2    0    0  0.64704540377E+02  0.10185509957E+03 -0.50685923063E+03  0.53580840506E+03  0.12499291344E+03 0.  0.
         23    2    1    2    0    0 -0.64704540377E+02 -0.10185509957E+03 -0.73457560828E+02  0.16853254516E+03  0.91902484634E+02 0.  0.
          5    1    3    3  502    0 -0.64944808161E+01 -0.50007533107E+01  0.30741929454E+01  0.99361198166E+01  0.47000000000E+01 0.  1.
         -5    1    3    3    0  502  0.71199021193E+02  0.10685585288E+03 -0.50993342357E+03  0.52587228525E+03  0.47000000000E+01 0.  1.
        -11    1    4    4    0    0 -0.26354687030E+02 -0.68659132912E+02  0.65149596351E+01  0.73831502488E+02  0.00000000000E+00 0. -1.
         11    1    4    4    0    0 -0.38349853347E+02 -0.33195966658E+02 -0.79972520463E+02  0.94701042673E+02  0.00000000000E+00 0.  1.
<mgrwt>
<rscale>  0 0.16793888E+03</rscale>
<asrwt>0</asrwt>
<pdfrwt beam="1">  1        2 0.95403201E-02 0.17373649E+03</pdfrwt>
<pdfrwt beam="2">  1       -2 0.98819824E-01 0.17373649E+03</pdfrwt>
<totfact> 0.59337559E+02</totfact>
</mgrwt>
</event>
<event>
 8    1  0.1638738E-005  0.1956976E+03  0.7546771E-02  0.1157960E+00
          2   -1    0    0  501    0  0.00000000000E+00  0.00000000000E+00  0.47198469615E+03  0.47198469615E+03  0.00000000000E+00 0. -1.
         -2   -1    0    0    0  501 -0.00000000000E+00 -0.00000000000E+00 -0.75646275304E+02  0.75646275304E+02  0.00000000000E+00 0.  1.
         23    2    1    2    0    0 -0.14564798837E+03  0.38199682455E+02  0.15872277905E+03  0.25197318050E+03  0.12500004339E+03 0.  0.
         23    2    1    2    0    0  0.14564798837E+03 -0.38199682455E+02  0.23761564179E+03  0.29565779095E+03  0.90993317715E+02 0.  0.
          5    1    3    3  502    0 -0.49942670717E+02  0.32459171618E+02  0.14263257454E+03  0.15464155166E+03  0.47000000000E+01 0.  1.
         -5    1    3    3    0  502 -0.95705317652E+02  0.57405108363E+01  0.16090204510E+02  0.97331628840E+02  0.47000000000E+01 0.  1.
        -11    1    4    4    0    0  0.89059009541E+02  0.23399384307E+02  0.11738100904E+03  0.14918893943E+03  0.00000000000E+00 0.  1.
         11    1    4    4    0    0  0.56588978828E+02 -0.61599066762E+02  0.12023463276E+03  0.14646885152E+03  0.00000000000E+00 0. -1.
<mgrwt>
<rscale>  0 0.19055742E+03</rscale>
<asrwt>0</asrwt>
<pdfrwt beam="1">  1        2 0.72613028E-01 0.19569763E+03</pdfrwt>
<pdfrwt beam="2">  1       -2 0.11637889E-01 0.19569763E+03</pdfrwt>
<totfact> 0.34003787E+03</totfact>
</mgrwt>
</event>
<event>
 8    1  0.1550723E-005  0.1323018E+03  0.7546771E-02  0.1236636E+00
          1   -1    0    0  501    0  0.00000000000E+00  0.00000000000E+00  0.11242762096E+03  0.11242762096E+03  0.00000000000E+00 0. -1.
         -1   -1    0    0    0  501 -0.00000000000E+00 -0.00000000000E+00 -0.18478024398E+03  0.18478024398E+03  0.00000000000E+00 0.  1.
         23    2    1    2    0    0 -0.33357032847E+01  0.43220819058E+02 -0.12527839089E+03  0.18220437715E+03  0.12499837483E+03 0.  0.
         23    2    1    2    0    0  0.33357032847E+01 -0.43220819058E+02  0.52925767873E+02  0.11500348779E+03  0.92441869208E+02 0.  0.
          5    1    3    3  502    0  0.44777944454E+02  0.64397798749E+02 -0.64089462213E+02  0.10139866843E+03  0.47000000000E+01 0. -1.
         -5    1    3    3    0  502 -0.48113647739E+02 -0.21176979691E+02 -0.61188928681E+02  0.80805708713E+02  0.47000000000E+01 0. -1.
        -11    1    4    4    0    0 -0.41416013174E+02 -0.29833519943E+02  0.10951547974E+02  0.52204036840E+02  0.00000000000E+00 0.  1.
         11    1    4    4    0    0  0.44751716459E+02 -0.13387299116E+02  0.41974219899E+02  0.62799450951E+02  0.00000000000E+00 0. -1.
<mgrwt>
<rscale>  0 0.12400295E+03</rscale>
<asrwt>0</asrwt>
<pdfrwt beam="1">  1        1 0.17296557E-01 0.13230178E+03</pdfrwt>
<pdfrwt beam="2">  1       -1 0.28427729E-01 0.13230178E+03</pdfrwt>
<totfact> 0.33276487E+03</totfact>
</mgrwt>
</event>
<event>
 8    1  0.1897863E-005  0.2492544E+03  0.7546771E-02  0.1116115E+00
         -1   -1    0    0    0  501 -0.00000000000E+00  0.00000000000E+00  0.45916222787E+02  0.45916222787E+02  0.00000000000E+00 0.  1.
          1   -1    0    0  501    0  0.00000000000E+00 -0.00000000000E+00 -0.12988517623E+04  0.12988517623E+04  0.00000000000E+00 0. -1.
         23    2    1    2    0    0  0.27671969928E+02 -0.21386183868E+03 -0.55673888857E+03  0.60998846080E+03  0.12500043320E+03 0.  0.
         23    2    1    2    0    0 -0.27671969928E+02  0.21386183868E+03 -0.69619665098E+03  0.73477952433E+03  0.93319604406E+02 0.  0.
          5    1    3    3  502    0 -0.15889376526E+02 -0.68793849894E+02 -0.67406382545E+02  0.97728074152E+02  0.47000000000E+01 0. -1.
         -5    1    3    3    0  502  0.43561346454E+02 -0.14506798879E+03 -0.48933250602E+03  0.51226038665E+03  0.47000000000E+01 0. -1.
        -11    1    4    4    0    0 -0.61514826148E+02  0.14487998988E+03 -0.49436237425E+03  0.51881445853E+03  0.00000000000E+00 0. -1.
         11    1    4    4    0    0  0.33842856220E+02  0.68981848804E+02 -0.20183427673E+03  0.21596506580E+03  0.00000000000E+00 0.  1.
<mgrwt>
<rscale>  0 0.24560400E+03</rscale>
<asrwt>0</asrwt>
<pdfrwt beam="2">  1        1 0.19982332E+00 0.24925435E+03</pdfrwt>
<pdfrwt beam="1">  1       -1 0.70640354E-02 0.24925435E+03</pdfrwt>
<totfact> 0.10209121E+03</totfact>
</mgrwt>
</event>
<event>
 8    1  0.1550723E-005  0.2575684E+03  0.7546771E-02  0.1110967E+00
          3   -1    0    0  501    0  0.00000000000E+00  0.00000000000E+00  0.17996578205E+03  0.17996578205E+03  0.00000000000E+00 0. -1.
         -3   -1    0    0    0  501 -0.00000000000E+00 -0.00000000000E+00 -0.34868090400E+03  0.34868090400E+03  0.00000000000E+00 0.  1.
         23    2    1    2    0    0 -0.17113917599E+02 -0.22455289582E+03 -0.71426331360E+02  0.26728865547E+03  0.12499846133E+03 0.  0.
         23    2    1    2    0    0  0.17113917599E+02  0.22455289582E+03 -0.97288790581E+02  0.26135803058E+03  0.90144451748E+02 0.  0.
          5    1    3    3  502    0 -0.57059236624E+02 -0.13878796818E+03 -0.83505643389E+02  0.17179388544E+03  0.47000000000E+01 0. -1.
         -5    1    3    3    0  502  0.39945319025E+02 -0.85764927636E+02  0.12079312028E+02  0.95494770032E+02  0.47000000000E+01 0. -1.
        -11    1    4    4    0    0  0.31167513522E+02  0.20198618902E+03 -0.10976905271E+03  0.23198939498E+03  0.00000000000E+00 0.  1.
         11    1    4    4    0    0 -0.14053595923E+02  0.22566706802E+02  0.12480262125E+02  0.29368635599E+02  0.00000000000E+00 0. -1.
<mgrwt>
<rscale>  0 0.25373552E+03</rscale>
<asrwt>0</asrwt>
<pdfrwt beam="1">  1        3 0.27687043E-01 0.25756845E+03</pdfrwt>
<pdfrwt beam="2">  1       -3 0.53643216E-01 0.25756845E+03</pdfrwt>
<totfact> 0.10773518E+02</totfact>
</mgrwt>
</event>
<event>
 8    1  0.1550723E-005  0.1260071E+03  0.7546771E-02  0.1243686E+00
          2   -1    0    0  501    0  0.00000000000E+00  0.00000000000E+00  0.52244921652E+02  0.52244921652E+02  0.00000000000E+00 0. -1.
         -2   -1    0    0    0  501 -0.00000000000E+00 -0.00000000000E+00 -0.28398644995E+03  0.28398644995E+03  0.00000000000E+00 0.  1.
         23    2    1    2    0    0  0.64534271672E+01 -0.14548898720E+02 -0.18454889058E+03  0.22346385322E+03  0.12499793400E+03 0.  0.
         23    2    1    2    0    0 -0.64534271672E+01  0.14548898720E+02 -0.47192637718E+02  0.11276751838E+03  0.10117337086E+03 0.  0.
          5    1    3    3  502    0  0.25659474429E+02  0.79116583808E+01  0.81526699410E+01  0.28452750192E+02  0.47000000000E+01 0.  1.
         -5    1    3    3    0  502 -0.19206047262E+02 -0.22460557101E+02 -0.19270156052E+03  0.19501110302E+03  0.47000000000E+01 0.  1.
        -11    1    4    4    0    0  0.47159354380E+02  0.96287101039E+01 -0.27542928953E+02  0.55455655250E+02  0.00000000000E+00 0.  1.
         11    1    4    4    0    0 -0.53612781548E+02  0.49201886159E+01 -0.19649708765E+02  0.57311863134E+02  0.00000000000E+00 0. -1.
<mgrwt>
<rscale>  0 0.11964376E+03</rscale>
<asrwt>0</asrwt>
<pdfrwt beam="1">  1        2 0.80376803E-02 0.12600715E+03</pdfrwt>
<pdfrwt beam="2">  1       -2 0.43690223E-01 0.12600715E+03</pdfrwt>
<totfact> 0.40253782E+03</totfact>
</mgrwt>
</event>
<event>
 8    1  0.1550723E-005  0.1279803E+03  0.7546771E-02  0.1245920E+00
          3   -1    0    0  501    0  0.00000000000E+00  0.00000000000E+00  0.23792258153E+03  0.23792258153E+03  0.00000000000E+00 0. -1.
         -3   -1    0    0    0  501 -0.00000000000E+00 -0.00000000000E+00 -0.53270031632E+02  0.53270031632E+02  0.00000000000E+00 0.  1.
         23    2    1    2    0    0 -0.26884640499E+02  0.56220979169E+01  0.13232310992E+03  0.18408793095E+03  0.12499827608E+03 0.  0.
         23    2    1    2    0    0  0.26884640499E+02 -0.56220979169E+01  0.52329439978E+02  0.10710468221E+03  0.89323293626E+02 0.  0.
          5    1    3    3  502    0 -0.35677538102E+02  0.50425563736E+02  0.23989560736E+02  0.66432019594E+02  0.47000000000E+01 0. -1.
         -5    1    3    3    0  502  0.87928976034E+01 -0.44803465819E+02  0.10833354919E+03  0.11765591136E+03  0.47000000000E+01 0. -1.
        -11    1    4    4    0    0 -0.46611444325E+01  0.20995983331E+02 -0.16322786449E+02  0.26999832239E+02  0.00000000000E+00 0.  1.
         11    1    4    4    0    0  0.31545784931E+02 -0.26618081248E+02  0.68652226427E+02  0.80104849976E+02  0.00000000000E+00 0. -1.
<mgrwt>
<rscale>  0 0.11830499E+03</rscale>
<asrwt>0</asrwt>
<pdfrwt beam="1">  1        3 0.36603473E-01 0.12798031E+03</pdfrwt>
<pdfrwt beam="2">  1       -3 0.81953896E-02 0.12798031E+03</pdfrwt>
<totfact> 0.17177977E+03</totfact>
</mgrwt>
</event>
<event>
 7    1  0.1550723E-005  0.1560655E+03  0.7546771E-02  0.1216708E+00
         -4   -1    0    0    0  501 -0.00000000000E+00  0.00000000000E+00  0.32441636946E+02  0.32441636946E+02  0.00000000000E+00 0.  1.
          4   -1    0    0  501    0  0.00000000000E+00 -0.00000000000E+00 -0.50010091284E+03  0.50010091284E+03  0.00000000000E+00 0. -1.
         23    2    1    2    0    0 -0.93359296089E+01 -0.12969341745E+02 -0.22680979602E+03  0.24554964837E+03  0.92717759018E+02 0.  0.
          5    1    1    2  502    0  0.19069385191E+02 -0.10109488688E+00 -0.26038348572E+03  0.26112315353E+03  0.47000000000E+01 0. -1.
         -5    1    1    2    0  502 -0.97334555822E+01  0.13070436632E+02  0.19534005847E+02  0.25869747888E+02  0.47000000000E+01 0.  1.
        -11    1    3    3    0    0 -0.27424119671E+02  0.33390904843E+02 -0.12436870840E+03  0.13166096800E+03  0.00000000000E+00 0.  1.
         11    1    3    3    0    0  0.18088190062E+02 -0.46360246589E+02 -0.10244108762E+03  0.11388868037E+03  0.00000000000E+00 0. -1.
<mgrwt>
<rscale>  0 0.13751818E+03</rscale>
<asrwt>0</asrwt>
<pdfrwt beam="2">  1        4 0.76938598E-01 0.15606554E+03</pdfrwt>
<pdfrwt beam="1">  1       -4 0.49910213E-02 0.15606554E+03</pdfrwt>
<totfact> 0.63260643E+02</totfact>
</mgrwt>
</event>
<event>
 8    1  0.1550723E-005  0.1356079E+03  0.7546771E-02  0.1231531E+00
         -3   -1    0    0    0  501 -0.00000000000E+00  0.00000000000E+00  0.13129942227E+03  0.13129942227E+03  0.00000000000E+00 0.  1.
          3   -1    0    0  501    0  0.00000000000E+00 -0.00000000000E+00 -0.19770006169E+03  0.19770006169E+03  0.00000000000E+00 0. -1.
         23    2    1    2    0    0 -0.52436326073E+02  0.30997399841E+01  0.73237324795E+02  0.15412072189E+03  0.12502125617E+03 0.  0.
         23    2    1    2    0    0  0.52436326073E+02 -0.30997399841E+01 -0.13963796421E+03  0.17487876206E+03  0.91239485366E+02 0.  0.
          5    1    3    3  502    0  0.14731042321E+02 -0.48307829820E+02  0.23687683571E+02  0.55980767972E+02  0.47000000000E+01 0. -1.
         -5    1    3    3    0  502 -0.67167368394E+02  0.51407569804E+02  0.49549641224E+02  0.98139953921E+02  0.47000000000E+01 0. -1.
        -11    1    4    4    0    0  0.27406149206E+02  0.14945926896E+02  0.66394255407E+00  0.31223685958E+02  0.00000000000E+00 0.  1.
         11    1    4    4    0    0  0.25030176866E+02 -0.18045666880E+02 -0.14030190677E+03  0.14365507610E+03  0.00000000000E+00 0. -1.
<mgrwt>
<rscale>  0 0.12729162E+03</rscale>
<asrwt>0</asrwt>
<pdfrwt beam="2">  1        3 0.30415394E-01 0.13560786E+03</pdfrwt>
<pdfrwt beam="1">  1       -3 0.20199911E-01 0.13560786E+03</pdfrwt>
<totfact> 0.53482492E+02</totfact>
</mgrwt>
</event>
<event>
 8    1  0.1550723E-005  0.3958862E+03  0.7546771E-02  0.1046010E+00
         -1   -1    0    0    0  501 -0.00000000000E+00  0.00000000000E+00  0.40380758015E+03  0.40380758015E+03  0.00000000000E+00 0.  1.
          1   -1    0    0  501    0  0.00000000000E+00 -0.00000000000E+00 -0.38468377592E+03  0.38468377592E+03  0.00000000000E+00 0. -1.
         23    2    1    2    0    0  0.26907006163E+02 -0.37467400942E+03  0.56000487023E+02  0.39982741923E+03  0.12498524035E+03 0.  0.
         23    2    1    2    0    0 -0.26907006163E+02  0.37467400942E+03 -0.36876682795E+02  0.38866393684E+03  0.92710116751E+02 0.  0.
          5    1    3    3  502    0  0.51551846416E+02 -0.32887467583E+03  0.79930642721E+02  0.34238449573E+03  0.47000000000E+01 0. -1.
         -5    1    3    3    0  502 -0.24644840253E+02 -0.45799333587E+02 -0.23930155698E+02  0.57442923497E+02  0.47000000000E+01 0. -1.
        -11    1    4    4    0    0 -0.26492152196E+02  0.32780108770E+03 -0.63223939852E+02  0.33489200319E+03  0.00000000000E+00 0. -1.
         11    1    4    4    0    0 -0.41485396748E+00  0.46872921715E+02  0.26347257057E+02  0.53771933649E+02  0.00000000000E+00 0.  1.
<mgrwt>
<rscale>  0 0.39362298E+03</rscale>
<asrwt>0</asrwt>
<pdfrwt beam="2">  1        1 0.59182119E-01 0.39588623E+03</pdfrwt>
<pdfrwt beam="1">  1       -1 0.62124243E-01 0.39588623E+03</pdfrwt>
<totfact> 0.17248502E+02</totfact>
</mgrwt>
</event>
<event>
 7    1  0.1550723E-005  0.1657867E+03  0.7546771E-02  0.1199028E+00
         -3   -1    0    0    0  501 -0.00000000000E+00  0.00000000000E+00  0.22564469324E+03  0.22564469324E+03  0.00000000000E+00 0.  1.
          3   -1    0    0  501    0  0.00000000000E+00 -0.00000000000E+00 -0.12006427237E+03  0.12006427237E+03  0.00000000000E+00 0. -1.
         23    2    1    2    0    0 -0.25810989806E+02 -0.65073531532E+02 -0.43627812298E+02  0.12266566796E+03  0.90789362755E+02 0.  0.
          5    1    1    2  502    0  0.61771980231E+02 -0.25713634797E+02  0.49165899453E+02  0.83164561113E+02  0.47000000000E+01 0. -1.
         -5    1    1    2    0  502 -0.35960990425E+02  0.90787166329E+02  0.10004233371E+03  0.13987873654E+03  0.47000000000E+01 0.  1.
        -11    1    3    3    0    0 -0.49228336453E+02 -0.62638645985E+02 -0.81464670249E+01  0.80083668783E+02  0.00000000000E+00 0. -1.
         11    1    3    3    0    0  0.23417346647E+02 -0.24348855474E+01 -0.35481345273E+02  0.42581999178E+02  0.00000000000E+00 0.  1.
<mgrwt>
<rscale>  0 0.15118231E+03</rscale>
<asrwt>0</asrwt>
<pdfrwt beam="2">  1        3 0.18471427E-01 0.16578666E+03</pdfrwt>
<pdfrwt beam="1">  1       -3 0.34714568E-01 0.16578666E+03</pdfrwt>
<totfact> 0.50218917E+02</totfact>
</mgrwt>
</event>
<event>
 8    1  0.1550723E-005  0.1524850E+03  0.7546771E-02  0.1200818E+00
          1   -1    0    0  501    0  0.00000000000E+00  0.00000000000E+00  0.45431836988E+03  0.45431836988E+03  0.00000000000E+00 0.  1.
         -1   -1    0    0    0  501 -0.00000000000E+00 -0.00000000000E+00 -0.59022002475E+02  0.59022002475E+02  0.00000000000E+00 0. -1.
         23    2    1    2    0    0 -0.23353130142E+02  0.84140681183E+02  0.90781371015E+02  0.17746248324E+03  0.12500661070E+03 0.  0.
         23    2    1    2    0    0  0.23353130142E+02 -0.84140681183E+02  0.30451499639E+03  0.33587788912E+03  0.11162235641E+03 0.  0.
          5    1    3    3  502    0 -0.11555352025E+02  0.69852162340E+02 -0.12825227185E+02  0.72107053721E+02  0.47000000000E+01 0.  1.
         -5    1    3    3    0  502 -0.11797778117E+02  0.14288518843E+02  0.10360659820E+03  0.10535542952E+03  0.47000000000E+01 0.  1.
        -11    1    4    4    0    0 -0.32905892554E+02  0.70676130800E+01  0.57629066749E+02  0.66737232890E+02  0.00000000000E+00 0. -1.
         11    1    4    4    0    0  0.56259022697E+02 -0.91208294263E+02  0.24688592964E+03  0.26914065622E+03  0.00000000000E+00 0.  1.
<mgrwt>
<rscale>  0 0.14971943E+03</rscale>
<asrwt>0</asrwt>
<pdfrwt beam="1">  1        1 0.69895131E-01 0.15248500E+03</pdfrwt>
<pdfrwt beam="2">  1       -1 0.90803084E-02 0.15248500E+03</pdfrwt>
<totfact> 0.35401201E+03</totfact>
</mgrwt>
</event>
<event>
 8    1  0.1550723E-005  0.1367683E+03  0.7546771E-02  0.1229492E+00
         -1   -1    0    0    0  501 -0.00000000000E+00  0.00000000000E+00  0.10060388642E+03  0.10060388642E+03  0.00000000000E+00 0. -1.
          1   -1    0    0  501    0  0.00000000000E+00 -0.00000000000E+00 -0.14775713632E+03  0.14775713632E+03  0.00000000000E+00 0.  1.
         23    2    1    2    0    0 -0.53957427692E+02  0.12986557445E+02 -0.24103566941E+02  0.13887599393E+03  0.12500202028E+03 0.  0.
         23    2    1    2    0    0  0.53957427692E+02 -0.12986557445E+02 -0.23049682957E+02  0.10948502882E+03  0.91518462474E+02 0.  0.
          5    1    3    3  502    0  0.32553355871E+01  0.45880166935E+00  0.46596156434E+02  0.46947838110E+02  0.47000000000E+01 0. -1.
         -5    1    3    3    0  502 -0.57212763279E+02  0.12527755775E+02 -0.70699723375E+02  0.91928155818E+02  0.47000000000E+01 0. -1.
        -11    1    4    4    0    0  0.74699208614E+02 -0.56040151927E+01 -0.36869144072E+02  0.83490781159E+02  0.00000000000E+00 0.  1.
         11    1    4    4    0    0 -0.20741780922E+02 -0.73825422519E+01  0.13819461115E+02  0.25994247660E+02  0.00000000000E+00 0. -1.
<mgrwt>
<rscale>  0 0.12863722E+03</rscale>
<asrwt>0</asrwt>
<pdfrwt beam="2">  1        1 0.22731867E-01 0.13676827E+03</pdfrwt>
<pdfrwt beam="1">  1       -1 0.15477521E-01 0.13676827E+03</pdfrwt>
<totfact> 0.62865153E+03</totfact>
</mgrwt>
</event>
<event>
 8    1  0.1550723E-005  0.1373352E+03  0.7546771E-02  0.1227078E+00
          1   -1    0    0  501    0  0.00000000000E+00  0.00000000000E+00  0.81292373659E+02  0.81292373659E+02  0.00000000000E+00 0. -1.
         -1   -1    0    0    0  501 -0.00000000000E+00 -0.00000000000E+00 -0.18986864161E+03  0.18986864161E+03  0.00000000000E+00 0.  1.
         23    2    1    2    0    0  0.23268355147E+02  0.51872498658E+02 -0.58803256325E+02  0.14939467269E+03  0.12501509031E+03 0.  0.
         23    2    1    2    0    0 -0.23268355147E+02 -0.51872498658E+02 -0.49773011627E+02  0.12176634258E+03  0.95485690185E+02 0.  0.
          5    1    3    3  502    0  0.39907740277E+02 -0.31682602831E+02 -0.14151658302E+02  0.53092132080E+02  0.47000000000E+01 0. -1.
         -5    1    3    3    0  502 -0.16639385131E+02  0.83555101489E+02 -0.44651598024E+02  0.96302540612E+02  0.47000000000E+01 0. -1.
        -11    1    4    4    0    0 -0.17987972479E+02 -0.60844448032E+01  0.26528311392E+02  0.32624207696E+02  0.00000000000E+00 0. -1.
         11    1    4    4    0    0 -0.52803826677E+01 -0.45788053855E+02 -0.76301323019E+02  0.89142134882E+02  0.00000000000E+00 0.  1.
<mgrwt>
<rscale>  0 0.13025467E+03</rscale>
<asrwt>0</asrwt>
<pdfrwt beam="1">  1        1 0.12506519E-01 0.13733516E+03</pdfrwt>
<pdfrwt beam="2">  1       -1 0.29210560E-01 0.13733516E+03</pdfrwt>
<totfact> 0.48507564E+03</totfact>
</mgrwt>
</event>
<event>
 8    1  0.1550723E-005  0.1597798E+03  0.7546771E-02  0.1196982E+00
          1   -1    0    0  501    0  0.00000000000E+00  0.00000000000E+00  0.99565343301E+03  0.99565343301E+03  0.00000000000E+00 0. -1.
         -1   -1    0    0    0  501 -0.00000000000E+00 -0.00000000000E+00 -0.22429191750E+02  0.22429191750E+02  0.00000000000E+00 0.  1.
         23    2    1    2    0    0  0.24062500920E+02 -0.96572845258E+02  0.43390930798E+03  0.46239254594E+03  0.12499704235E+03 0.  0.
         23    2    1    2    0    0 -0.24062500920E+02  0.96572845258E+02  0.53931493328E+03  0.55569007882E+03  0.89585423207E+02 0.  0.
          5    1    3    3  502    0 -0.35806263681E+02 -0.45219784577E+02  0.31055510002E+03  0.31590105664E+03  0.47000000000E+01 0.  1.
         -5    1    3    3    0  502  0.59868764602E+02 -0.51353060680E+02  0.12335420796E+03  0.14649148930E+03  0.47000000000E+01 0.  1.
        -11    1    4    4    0    0  0.32007760026E+02  0.40358133725E+02  0.27194433574E+03  0.27677969109E+03  0.00000000000E+00 0.  1.
         11    1    4    4    0    0 -0.56070260947E+02  0.56214711533E+02  0.26737059754E+03  0.27891038773E+03  0.00000000000E+00 0. -1.
<mgrwt>
<rscale>  0 0.15287678E+03</rscale>
<asrwt>0</asrwt>
<pdfrwt beam="1">  1        1 0.15317742E+00 0.15977978E+03</pdfrwt>
<pdfrwt beam="2">  1       -1 0.34506457E-02 0.15977978E+03</pdfrwt>
<totfact> 0.48518631E+03</totfact>
</mgrwt>
</event>
<event>
 8    1  0.1550723E-005  0.1325453E+03  0.7546771E-02  0.1245061E+00
          2   -1    0    0  501    0  0.00000000000E+00  0.00000000000E+00  0.21085248172E+03  0.21085248172E+03  0.00000000000E+00 0. -1.
         -2   -1    0    0    0  501 -0.00000000000E+00 -0.00000000000E+00 -0.58914004497E+02  0.58914004497E+02  0.00000000000E+00 0.  1.
         23    2    1    2    0    0 -0.41009183048E+02 -0.16157431884E+02  0.64487796149E+02  0.14740058214E+03  0.12500176025E+03 0.  0.
         23    2    1    2    0    0  0.41009183048E+02  0.16157431884E+02  0.87450681073E+02  0.12236590407E+03  0.73368775103E+02 0.  0.
          5    1    3    3  502    0 -0.74166101909E+02  0.18199905593E+02  0.14053774607E+02  0.77791039437E+02  0.47000000000E+01 0.  1.
         -5    1    3    3    0  502  0.33156918862E+02 -0.34357337476E+02  0.50434021542E+02  0.69609542706E+02  0.47000000000E+01 0.  1.
        -11    1    4    4    0    0  0.71010344651E+01  0.28409790906E+02  0.16873111309E+01  0.29332369980E+02  0.00000000000E+00 0. -1.
         11    1    4    4    0    0  0.33908148583E+02 -0.12252359022E+02  0.85763369943E+02  0.93033534093E+02  0.00000000000E+00 0.  1.
<mgrwt>
<rscale>  0 0.11881741E+03</rscale>
<asrwt>0</asrwt>
<pdfrwt beam="1">  1        2 0.32438843E-01 0.13254530E+03</pdfrwt>
<pdfrwt beam="2">  1       -2 0.90636931E-02 0.13254530E+03</pdfrwt>
<totfact> 0.11719069E+04</totfact>
</mgrwt>
</event>
<event>
 8    1  0.1550723E-005  0.1747170E+03  0.7546771E-02  0.1178996E+00
          1   -1    0    0  501    0  0.00000000000E+00  0.00000000000E+00  0.41738198284E+03  0.41738198284E+03  0.00000000000E+00 0. -1.
         -1   -1    0    0    0  501 -0.00000000000E+00 -0.00000000000E+00 -0.10066214423E+03  0.10066214423E+03  0.00000000000E+00 0.  1.
         23    2    1    2    0    0  0.13458103924E+02  0.12133131242E+03  0.94555159163E+01  0.17497267039E+03  0.12499448255E+03 0.  0.
         23    2    1    2    0    0 -0.13458103924E+02 -0.12133131242E+03  0.30726432270E+03  0.34307145668E+03  0.91565563669E+02 0.  0.
          5    1    3    3  502    0 -0.91969360717E+01  0.59260520079E+02 -0.55754472782E+02  0.82018559536E+02  0.47000000000E+01 0. -1.
         -5    1    3    3    0  502  0.22655039995E+02  0.62070792338E+02  0.65209988698E+02  0.92954110854E+02  0.47000000000E+01 0. -1.
        -11    1    4    4    0    0  0.30425218756E+02 -0.11259305207E+02  0.88779427910E+02  0.94521175987E+02  0.00000000000E+00 0.  1.
         11    1    4    4    0    0 -0.43883322679E+02 -0.11007200721E+03  0.21848489479E+03  0.24855028069E+03  0.00000000000E+00 0. -1.
<mgrwt>
<rscale>  0 0.16890393E+03</rscale>
<asrwt>0</asrwt>
<pdfrwt beam="1">  1        1 0.64212612E-01 0.17471700E+03</pdfrwt>
<pdfrwt beam="2">  1       -1 0.15486484E-01 0.17471700E+03</pdfrwt>
<totfact> 0.17330592E+03</totfact>
</mgrwt>
</event>
<event>
 8    1  0.1550723E-005  0.2152957E+03  0.7546771E-02  0.1140972E+00
          2   -1    0    0  501    0  0.00000000000E+00  0.00000000000E+00  0.25812262673E+03  0.25812262673E+03  0.00000000000E+00 0. -1.
         -2   -1    0    0    0  501 -0.00000000000E+00 -0.00000000000E+00 -0.16523059605E+03  0.16523059605E+03  0.00000000000E+00 0.  1.
         23    2    1    2    0    0 -0.67806001687E+02 -0.16164550162E+03  0.45080436715E+02  0.21996469301E+03  0.12500119335E+03 0.  0.
         23    2    1    2    0    0  0.67806001687E+02  0.16164550162E+03  0.47811593967E+02  0.20338852978E+03  0.91400347193E+02 0.  0.
          5    1    3    3  502    0  0.28395422388E+02 -0.84700551982E+02  0.35745254145E+02  0.96334296658E+02  0.47000000000E+01 0.  1.
         -5    1    3    3    0  502 -0.96201424075E+02 -0.76944949640E+02  0.93351825695E+01  0.12363039635E+03  0.47000000000E+01 0.  1.
        -11    1    4    4    0    0  0.82827219085E+02  0.11289351115E+03  0.57671360213E+02  0.15143077253E+03  0.00000000000E+00 0. -1.
         11    1    4    4    0    0 -0.15021217399E+02  0.48751990474E+02 -0.98597662466E+01  0.51957757243E+02  0.00000000000E+00 0.  1.
<mgrwt>
<rscale>  0 0.21075219E+03</rscale>
<asrwt>0</asrwt>
<pdfrwt beam="1">  1        2 0.39711173E-01 0.21529566E+03</pdfrwt>
<pdfrwt beam="2">  1       -2 0.25420092E-01 0.21529566E+03</pdfrwt>
<totfact> 0.17634591E+03</totfact>
</mgrwt>
</event>
<event>
 8    1  0.1550723E-005  0.1374478E+03  0.7546771E-02  0.1226555E+00
         -3   -1    0    0    0  501 -0.00000000000E+00  0.00000000000E+00  0.21335453833E+03  0.21335453833E+03  0.00000000000E+00 0.  1.
          3   -1    0    0  501    0  0.00000000000E+00 -0.00000000000E+00 -0.79668666583E+02  0.79668666583E+02  0.00000000000E+00 0. -1.
         23    2    1    2    0    0  0.49630577242E+02  0.28348341322E+02  0.11541189252E+03  0.17947643461E+03  0.12500025198E+03 0.  0.
         23    2    1    2    0    0 -0.49630577242E+02 -0.28348341322E+02  0.18273979234E+02  0.11354677030E+03  0.96395581207E+02 0.  0.
          5    1    3    3  502    0  0.70530078455E+02  0.42130774292E+02  0.25686539938E+02  0.86205466435E+02  0.47000000000E+01 0. -1.
         -5    1    3    3    0  502 -0.20899501213E+02 -0.13782432970E+02  0.89725352580E+02  0.93270968179E+02  0.47000000000E+01 0. -1.
        -11    1    4    4    0    0 -0.87361142775E+01  0.35275696904E+02  0.80913914440E+01  0.37231238231E+02  0.00000000000E+00 0. -1.
         11    1    4    4    0    0 -0.40894462965E+02 -0.63624038226E+02  0.10182587790E+02  0.76315532072E+02  0.00000000000E+00 0.  1.
<mgrwt>
<rscale>  0 0.13060877E+03</rscale>
<asrwt>0</asrwt>
<pdfrwt beam="2">  1        3 0.12256718E-01 0.13744776E+03</pdfrwt>
<pdfrwt beam="1">  1       -3 0.32823775E-01 0.13744776E+03</pdfrwt>
<totfact> 0.10975049E+03</totfact>
</mgrwt>
</event>
<event>
 8    1  0.1550723E-005  0.1587121E+03  0.7546771E-02  0.1198230E+00
         -2   -1    0    0    0  501 -0.00000000000E+00  0.00000000000E+00  0.13239251030E+03  0.13239251030E+03  0.00000000000E+00 0.  1.
          2   -1    0    0  501    0  0.00000000000E+00 -0.00000000000E+00 -0.16161881041E+03  0.16161881041E+03  0.00000000000E+00 0. -1.
         23    2    1    2    0    0 -0.20790406076E+01 -0.97773677508E+02 -0.27269540421E+02  0.16103780283E+03  0.12500212672E+03 0.  0.
         23    2    1    2    0    0  0.20790406076E+01  0.97773677508E+02 -0.19567596884E+01  0.13297351789E+03  0.90078372139E+02 0.  0.
          5    1    3    3  502    0  0.21819389608E+02  0.70425633993E+01 -0.46187244831E+02  0.51778712297E+02  0.47000000000E+01 0. -1.
         -5    1    3    3    0  502 -0.23898430216E+02 -0.10481624091E+03  0.18917704410E+02  0.10925909054E+03  0.47000000000E+01 0. -1.
        -11    1    4    4    0    0 -0.10365704133E+02  0.10329440815E+03  0.21346135140E+02  0.10598509359E+03  0.00000000000E+00 0.  1.
         11    1    4    4    0    0  0.12444744740E+02 -0.55207306463E+01 -0.23302894829E+02  0.26988424295E+02  0.00000000000E+00 0. -1.
<mgrwt>
<rscale>  0 0.15184034E+03</rscale>
<asrwt>0</asrwt>
<pdfrwt beam="2">  1        2 0.24864432E-01 0.15871215E+03</pdfrwt>
<pdfrwt beam="1">  1       -2 0.20368079E-01 0.15871215E+03</pdfrwt>
<totfact> 0.42622218E+03</totfact>
</mgrwt>
</event>
<event>
 8    1  0.1550723E-005  0.1612786E+03  0.7546771E-02  0.1195473E+00
          2   -1    0    0  501    0  0.00000000000E+00  0.00000000000E+00  0.24809906941E+03  0.24809906941E+03  0.00000000000E+00 0. -1.
         -2   -1    0    0    0  501 -0.00000000000E+00 -0.00000000000E+00 -0.88954618075E+02  0.88954618075E+02  0.00000000000E+00 0.  1.
         23    2    1    2    0    0 -0.78441119261E+02  0.65052930896E+02  0.10215561883E+03  0.19090980497E+03  0.12500356061E+03 0.  0.
         23    2    1    2    0    0  0.78441119261E+02 -0.65052930896E+02  0.56988832508E+02  0.14614388252E+03  0.87894336327E+02 0.  0.
          5    1    3    3  502    0 -0.95846449932E+02  0.16547162039E+02  0.29573674576E+02  0.10176955716E+03  0.47000000000E+01 0. -1.
         -5    1    3    3    0  502  0.17405330671E+02  0.48505768857E+02  0.72581944255E+02  0.89140247812E+02  0.47000000000E+01 0. -1.
        -11    1    4    4    0    0  0.46955948018E+02  0.65124776645E+01  0.47967414292E+02  0.67439945533E+02  0.00000000000E+00 0.  1.
         11    1    4    4    0    0  0.31485171243E+02 -0.71565408561E+02  0.90214182159E+01  0.78703936988E+02  0.00000000000E+00 0. -1.
<mgrwt>
<rscale>  0 0.15414281E+03</rscale>
<asrwt>0</asrwt>
<pdfrwt beam="1">  1        2 0.38169087E-01 0.16127859E+03</pdfrwt>
<pdfrwt beam="2">  1       -2 0.13685326E-01 0.16127859E+03</pdfrwt>
<totfact> 0.51817316E+03</totfact>
</mgrwt>
</event>
<event>
 8    1  0.1550723E-005  0.1288213E+03  0.7546771E-02  0.1246350E+00
         -2   -1    0    0    0  501 -0.00000000000E+00  0.00000000000E+00  0.48797527194E+02  0.48797527194E+02  0.00000000000E+00 0.  1.
          2   -1    0    0  501    0  0.00000000000E+00 -0.00000000000E+00 -0.27465535819E+03  0.27465535819E+03  0.00000000000E+00 0. -1.
         23    2    1    2    0    0  0.14900239536E+02  0.27359280431E+02 -0.80067718736E+02  0.15167653269E+03  0.12499753447E+03 0.  0.
         23    2    1    2    0    0 -0.14900239536E+02 -0.27359280431E+02 -0.14579011227E+03  0.17177635269E+03  0.85333528852E+02 0.  0.
          5    1    3    3  502    0 -0.16998169763E+02 -0.18924836129E+02  0.22719401191E+02  0.34428888862E+02  0.47000000000E+01 0. -1.
         -5    1    3    3    0  502  0.31898409299E+02  0.46284116560E+02 -0.10278711993E+03  0.11724764383E+03  0.47000000000E+01 0. -1.
        -11    1    4    4    0    0  0.32114397251E+02  0.49636257187E+01 -0.67370432713E+02  0.74798043391E+02  0.00000000000E+00 0.  1.
         11    1    4    4    0    0 -0.47014636787E+02 -0.32322906150E+02 -0.78419679552E+02  0.96978309302E+02  0.00000000000E+00 0. -1.
<mgrwt>
<rscale>  0 0.11804920E+03</rscale>
<asrwt>0</asrwt>
<pdfrwt beam="2">  1        2 0.42254669E-01 0.12882131E+03</pdfrwt>
<pdfrwt beam="1">  1       -2 0.75073122E-02 0.12882131E+03</pdfrwt>
<totfact> 0.11801500E+04</totfact>
</mgrwt>
</event>
<event>
 8    1  0.1550723E-005  0.1316852E+03  0.7546771E-02  0.1238317E+00
          1   -1    0    0  501    0  0.00000000000E+00  0.00000000000E+00  0.74441166099E+02  0.74441166099E+02  0.00000000000E+00 0. -1.
         -1   -1    0    0    0  501 -0.00000000000E+00 -0.00000000000E+00 -0.19185501802E+03  0.19185501802E+03  0.00000000000E+00 0.  1.
         23    2    1    2    0    0  0.34729978500E+02  0.22593177624E+02 -0.98558328383E+02  0.16448325414E+03  0.12499749485E+03 0.  0.
         23    2    1    2    0    0 -0.34729978500E+02 -0.22593177624E+02 -0.18855523542E+02  0.10181292998E+03  0.91069857038E+02 0.  0.
          5    1    3    3  502    0  0.15309395360E+00 -0.42712317859E+02 -0.75605771027E+02  0.86963717418E+02  0.47000000000E+01 0. -1.
         -5    1    3    3    0  502  0.34576884546E+02  0.65305495482E+02 -0.22952557356E+02  0.77519536726E+02  0.47000000000E+01 0. -1.
        -11    1    4    4    0    0 -0.23009402241E+01 -0.14446301176E+02  0.35275075158E+02  0.38187967621E+02  0.00000000000E+00 0. -1.
         11    1    4    4    0    0 -0.32429038276E+02 -0.81468764481E+01 -0.54130598700E+02  0.63624962357E+02  0.00000000000E+00 0.  1.
<mgrwt>
<rscale>  0 0.12294444E+03</rscale>
<asrwt>0</asrwt>
<pdfrwt beam="1">  1        1 0.11452487E-01 0.13168522E+03</pdfrwt>
<pdfrwt beam="2">  1       -1 0.29516156E-01 0.13168522E+03</pdfrwt>
<totfact> 0.53361474E+03</totfact>
</mgrwt>
</event>
<event>
 8    1  0.1550723E-005  0.1547795E+03  0.7546771E-02  0.1202777E+00
         -2   -1    0    0    0  501 -0.00000000000E+00  0.00000000000E+00  0.27791885158E+03  0.27791885158E+03  0.00000000000E+00 0. -1.
          2   -1    0    0  501    0  0.00000000000E+00 -0.00000000000E+00 -0.84550038024E+02  0.84550038024E+02  0.00000000000E+00 0.  1.
         23    2    1    2    0    0 -0.49289216450E+01  0.91145897381E+02  0.17104910609E+03  0.23068263564E+03  0.12499925126E+03 0.  0.
         23    2    1    2    0    0  0.49289216450E+01 -0.91145897381E+02  0.22319707461E+02  0.13178625396E+03  0.92399017922E+02 0.  0.
          5    1    3    3  502    0  0.53142233192E+02  0.43566234441E+02  0.12432940848E+03  0.14213375934E+03  0.47000000000E+01 0. -1.
         -5    1    3    3    0  502 -0.58071154838E+02  0.47579662940E+02  0.46719697617E+02  0.88548876306E+02  0.47000000000E+01 0. -1.
        -11    1    4    4    0    0 -0.19715495341E+02 -0.17012409599E+02 -0.28487112858E+02  0.38595834437E+02  0.00000000000E+00 0.  1.
         11    1    4    4    0    0  0.24644416986E+02 -0.74133487782E+02  0.50806820319E+02  0.93190419520E+02  0.00000000000E+00 0. -1.
<mgrwt>
<rscale>  0 0.14814009E+03</rscale>
<asrwt>0</asrwt>
<pdfrwt beam="2">  1        2 0.13007698E-01 0.15477946E+03</pdfrwt>
<pdfrwt beam="1">  1       -2 0.42756746E-01 0.15477946E+03</pdfrwt>
<totfact> 0.23559157E+03</totfact>
</mgrwt>
</event>
<event>
 8    1  0.1550723E-005  0.1481213E+03  0.7546771E-02  0.1212005E+00
         -1   -1    0    0    0  501 -0.00000000000E+00  0.00000000000E+00  0.28939000995E+03  0.28939000995E+03  0.00000000000E+00 0.  1.
          1   -1    0    0  501    0  0.00000000000E+00 -0.00000000000E+00 -0.78979187116E+02  0.78979187116E+02  0.00000000000E+00 0. -1.
         23    2    1    2    0    0  0.49818167652E+01 -0.79332092200E+02  0.19637814545E+03  0.24597621805E+03  0.12498609717E+03 0.  0.
         23    2    1    2    0    0 -0.49818167652E+01  0.79332092200E+02  0.14032677387E+02  0.12239297902E+03  0.92003945169E+02 0.  0.
          5    1    3    3  502    0 -0.94464850904E+01 -0.10974753153E+03  0.17138531375E+03  0.20378609503E+03  0.47000000000E+01 0. -1.
         -5    1    3    3    0  502  0.14428301856E+02  0.30415439335E+02  0.24992831703E+02  0.42190123025E+02  0.47000000000E+01 0. -1.
        -11    1    4    4    0    0  0.26397059562E+02  0.84285897251E+02  0.18710579193E+02  0.90282905374E+02  0.00000000000E+00 0.  1.
         11    1    4    4    0    0 -0.31378876327E+02 -0.49538050513E+01 -0.46779018059E+01  0.32110073643E+02  0.00000000000E+00 0. -1.
<mgrwt>
<rscale>  0 0.14098858E+03</rscale>
<asrwt>0</asrwt>
<pdfrwt beam="2">  1        1 0.12150644E-01 0.14812131E+03</pdfrwt>
<pdfrwt beam="1">  1       -1 0.44521540E-01 0.14812131E+03</pdfrwt>
<totfact> 0.24419897E+03</totfact>
</mgrwt>
</event>
<event>
 8    1  0.1550723E-005  0.1426073E+03  0.7546771E-02  0.1220028E+00
          3   -1    0    0  501    0  0.00000000000E+00  0.00000000000E+00  0.28104500986E+03  0.28104500986E+03  0.00000000000E+00 0. -1.
         -3   -1    0    0    0  501 -0.00000000000E+00 -0.00000000000E+00 -0.60127813689E+02  0.60127813689E+02  0.00000000000E+00 0.  1.
         23    2    1    2    0    0  0.65780458074E+02  0.19636975437E+02  0.99124430941E+02  0.17367351473E+03  0.12499662972E+03 0.  0.
         23    2    1    2    0    0 -0.65780458074E+02 -0.19636975437E+02  0.12179276523E+03  0.16749930881E+03  0.92248909596E+02 0.  0.
          5    1    3    3  502    0 -0.31649314531E+02 -0.10111705979E+01  0.57126744161E+02  0.65484780481E+02  0.47000000000E+01 0. -1.
         -5    1    3    3    0  502  0.97429772605E+02  0.20648146035E+02  0.41997686780E+02  0.10818873425E+03  0.47000000000E+01 0. -1.
        -11    1    4    4    0    0 -0.39442712407E+02 -0.31580271090E+02  0.93350249149E+01  0.51382718635E+02  0.00000000000E+00 0.  1.
         11    1    4    4    0    0 -0.26337745667E+02  0.11943295654E+02  0.11245774031E+03  0.11611659018E+03  0.00000000000E+00 0. -1.
<mgrwt>
<rscale>  0 0.13513587E+03</rscale>
<asrwt>0</asrwt>
<pdfrwt beam="1">  1        3 0.43237693E-01 0.14260728E+03</pdfrwt>
<pdfrwt beam="2">  1       -3 0.92504330E-02 0.14260728E+03</pdfrwt>
<totfact> 0.10410858E+03</totfact>
</mgrwt>
</event>
<event>
 8    1  0.1550723E-005  0.1859393E+03  0.7546771E-02  0.1167426E+00
         -2   -1    0    0    0  501 -0.00000000000E+00  0.00000000000E+00  0.70449384754E+02  0.70449384754E+02  0.00000000000E+00 0.  1.
          2   -1    0    0  501    0  0.00000000000E+00 -0.00000000000E+00 -0.46388917866E+03  0.46388917866E+03  0.00000000000E+00 0. -1.
         23    2    1    2    0    0 -0.13416798509E+03 -0.30765391002E+02 -0.14292271033E+03  0.23452144313E+03  0.12500339456E+03 0.  0.
         23    2    1    2    0    0  0.13416798509E+03  0.30765391002E+02 -0.25051708358E+03  0.29981712029E+03  0.90465125574E+02 0.  0.
          5    1    3    3  502    0 -0.78565804635E+02  0.11131838150E+02 -0.14428170497E+03  0.16472948694E+03  0.47000000000E+01 0. -1.
         -5    1    3    3    0  502 -0.55602180457E+02 -0.41897229152E+02  0.13589946426E+01  0.69791956188E+02  0.47000000000E+01 0. -1.
        -11    1    4    4    0    0  0.18334025632E+02 -0.11870334190E+02 -0.15061945362E+01  0.21893148509E+02  0.00000000000E+00 0.  1.
         11    1    4    4    0    0  0.11583395946E+03  0.42635725192E+02 -0.24901088904E+03  0.27792397178E+03  0.00000000000E+00 0. -1.
<mgrwt>
<rscale>  0 0.18039003E+03</rscale>
<asrwt>0</asrwt>
<pdfrwt beam="2">  1        2 0.71367563E-01 0.18593925E+03</pdfrwt>
<pdfrwt beam="1">  1       -2 0.10838367E-01 0.18593925E+03</pdfrwt>
<totfact> 0.38760554E+03</totfact>
</mgrwt>
</event>
<event>
 8    1  0.1550723E-005  0.1275613E+03  0.7546771E-02  0.1247153E+00
         -1   -1    0    0    0  501 -0.00000000000E+00  0.00000000000E+00  0.20916997953E+03  0.20916997953E+03  0.00000000000E+00 0.  1.
          1   -1    0    0  501    0  0.00000000000E+00 -0.00000000000E+00 -0.57846643468E+02  0.57846643468E+02  0.00000000000E+00 0. -1.
         23    2    1    2    0    0 -0.41093164450E+01 -0.25118348259E+02  0.95501697232E+02  0.15935009404E+03  0.12499624153E+03 0.  0.
         23    2    1    2    0    0  0.41093164450E+01  0.25118348259E+02  0.55821638829E+02  0.10766652896E+03  0.88477161998E+02 0.  0.
          5    1    3    3  502    0 -0.15349954550E+02  0.16403623668E+02  0.11102866065E+03  0.11337615913E+03  0.47000000000E+01 0. -1.
         -5    1    3    3    0  502  0.11240638105E+02 -0.41521971928E+02 -0.15526963418E+02  0.45973934906E+02  0.47000000000E+01 0. -1.
        -11    1    4    4    0    0 -0.14467983263E+02  0.17801789434E+02  0.75935893633E+02  0.79325192648E+02  0.00000000000E+00 0.  1.
         11    1    4    4    0    0  0.18577299708E+02  0.73165588256E+01 -0.20114254804E+02  0.28341336310E+02  0.00000000000E+00 0. -1.
<mgrwt>
<rscale>  0 0.11757451E+03</rscale>
<asrwt>0</asrwt>
<pdfrwt beam="2">  1        1 0.88994837E-02 0.12756127E+03</pdfrwt>
<pdfrwt beam="1">  1       -1 0.32179997E-01 0.12756127E+03</pdfrwt>
<totfact> 0.64265216E+03</totfact>
</mgrwt>
</event>
<event>
 8    1  0.1550723E-005  0.1428439E+03  0.7546771E-02  0.1213900E+00
         -2   -1    0    0    0  501 -0.00000000000E+00  0.00000000000E+00  0.48257935001E+02  0.48257935001E+02  0.00000000000E+00 0.  1.
          2   -1    0    0  501    0  0.00000000000E+00 -0.00000000000E+00 -0.40808383643E+03  0.40808383643E+03  0.00000000000E+00 0. -1.
         23    2    1    2    0    0 -0.29106056649E+02 -0.62663099638E+02 -0.13508050385E+03  0.19659886613E+03  0.12502217825E+03 0.  0.
         23    2    1    2    0    0  0.29106056649E+02  0.62663099638E+02 -0.22474539758E+03  0.25974290530E+03  0.11037235401E+03 0.  0.
          5    1    3    3  502    0 -0.12176783952E+02  0.38197043838E+02 -0.34937483074E+02  0.53385446977E+02  0.47000000000E+01 0. -1.
         -5    1    3    3    0  502 -0.16929272697E+02 -0.10086014348E+03 -0.10014302077E+03  0.14321341915E+03  0.47000000000E+01 0. -1.
        -11    1    4    4    0    0  0.19018432744E+02  0.16800768820E+01  0.66627584167E+01  0.20221666402E+02  0.00000000000E+00 0.  1.
         11    1    4    4    0    0  0.10087623905E+02  0.60983022756E+02 -0.23140815600E+03  0.23952123889E+03  0.00000000000E+00 0. -1.
<mgrwt>
<rscale>  0 0.13957616E+03</rscale>
<asrwt>0</asrwt>
<pdfrwt beam="2">  1        2 0.62782131E-01 0.14284387E+03</pdfrwt>
<pdfrwt beam="1">  1       -2 0.74242974E-02 0.14284387E+03</pdfrwt>
<totfact> 0.79421714E+03</totfact>
</mgrwt>
</event>
<event>
 8    1  0.1550723E-005  0.1490539E+03  0.7546771E-02  0.1210079E+00
         -3   -1    0    0    0  501 -0.00000000000E+00  0.00000000000E+00  0.33712322295E+03  0.33712322295E+03  0.00000000000E+00 0.  1.
          3   -1    0    0  501    0  0.00000000000E+00 -0.00000000000E+00 -0.89278580558E+02  0.89278580558E+02  0.00000000000E+00 0. -1.
         23    2    1    2    0    0  0.38660018603E+02 -0.71279910241E+02  0.26184464944E+03  0.30129669798E+03  0.12506661077E+03 0.  0.
         23    2    1    2    0    0 -0.38660018603E+02  0.71279910241E+02 -0.14000007043E+02  0.12510510553E+03  0.94233033437E+02 0.  0.
          5    1    3    3  502    0 -0.24597445298E+02  0.20723254446E+02  0.31443386029E+02  0.45224596350E+02  0.47000000000E+01 0.  1.
         -5    1    3    3    0  502  0.63257463901E+02 -0.92003164687E+02  0.23040126341E+03  0.25607210163E+03  0.47000000000E+01 0.  1.
        -11    1    4    4    0    0 -0.66721725966E+02  0.51415724879E+02  0.74805470653E+01  0.84565501625E+02  0.00000000000E+00 0.  1.
         11    1    4    4    0    0  0.28061707363E+02  0.19864185362E+02 -0.21480554108E+02  0.40539603908E+02  0.00000000000E+00 0. -1.
<mgrwt>
<rscale>  0 0.14244337E+03</rscale>
<asrwt>0</asrwt>
<pdfrwt beam="2">  1        3 0.13735166E-01 0.14905395E+03</pdfrwt>
<pdfrwt beam="1">  1       -3 0.51865110E-01 0.14905395E+03</pdfrwt>
<totfact> 0.37723171E+02</totfact>
</mgrwt>
</event>
<event>
 8    1  0.1550723E-005  0.1479608E+03  0.7546771E-02  0.1211285E+00
          2   -1    0    0  501    0  0.00000000000E+00  0.00000000000E+00  0.28258269455E+03  0.28258269455E+03  0.00000000000E+00 0. -1.
         -2   -1    0    0    0  501 -0.00000000000E+00 -0.00000000000E+00 -0.78026572790E+02  0.78026572790E+02  0.00000000000E+00 0.  1.
         23    2    1    2    0    0  0.64972847027E+02 -0.45240019780E+02  0.37496539989E+02  0.15263809144E+03  0.12499706479E+03 0.  0.
         23    2    1    2    0    0 -0.64972847027E+02  0.45240019780E+02  0.16705958177E+03  0.20797117589E+03  0.95262667935E+02 0.  0.
          5    1    3    3  502    0  0.32222539317E+02 -0.50591512600E+02  0.78993402406E+02  0.99296731119E+02  0.47000000000E+01 0. -1.
         -5    1    3    3    0  502  0.32750307710E+02  0.53514928205E+01 -0.41496862417E+02  0.53341360322E+02  0.47000000000E+01 0. -1.
        -11    1    4    4    0    0 -0.70141590471E+01  0.10087675212E+02 -0.11592048568E+02  0.16891868112E+02  0.00000000000E+00 0.  1.
         11    1    4    4    0    0 -0.57958687980E+02  0.35152344568E+02  0.17865163034E+03  0.19107930778E+03  0.00000000000E+00 0. -1.
<mgrwt>
<rscale>  0 0.14153021E+03</rscale>
<asrwt>0</asrwt>
<pdfrwt beam="1">  1        2 0.43474260E-01 0.14796079E+03</pdfrwt>
<pdfrwt beam="2">  1       -2 0.12004088E-01 0.14796079E+03</pdfrwt>
<totfact> 0.55434550E+03</totfact>
</mgrwt>
</event>
<event>
 8    1  0.1550723E-005  0.2086734E+03  0.7546771E-02  0.1146417E+00
          1   -1    0    0  501    0  0.00000000000E+00  0.00000000000E+00  0.48965812206E+02  0.48965812206E+02  0.00000000000E+00 0. -1.
         -1   -1    0    0    0  501 -0.00000000000E+00 -0.00000000000E+00 -0.10778413082E+04  0.10778413082E+04  0.00000000000E+00 0.  1.
         23    2    1    2    0    0 -0.25456576006E+02  0.16514071156E+03 -0.81073333801E+03  0.83715777666E+03  0.12500042314E+03 0.  0.
         23    2    1    2    0    0  0.25456576006E+02 -0.16514071156E+03 -0.21814215795E+03  0.28964934371E+03  0.91603762822E+02 0.  0.
          5    1    3    3  502    0  0.27408848993E+02  0.71508748736E+02 -0.15838438929E+03  0.17598991709E+03  0.47000000000E+01 0.  1.
         -5    1    3    3    0  502 -0.52865424998E+02  0.93631962821E+02 -0.65234894873E+03  0.66116785957E+03  0.47000000000E+01 0.  1.
        -11    1    4    4    0    0  0.10569311204E+02 -0.53592654360E+02 -0.13757890506E+02  0.56330830740E+02  0.00000000000E+00 0. -1.
         11    1    4    4    0    0  0.14887264801E+02 -0.11154805720E+03 -0.20438426744E+03  0.23331851297E+03  0.00000000000E+00 0.  1.
<mgrwt>
<rscale>  0 0.20398806E+03</rscale>
<asrwt>0</asrwt>
<pdfrwt beam="1">  1        1 0.75332025E-02 0.20867342E+03</pdfrwt>
<pdfrwt beam="2">  1       -1 0.16582173E+00 0.20867342E+03</pdfrwt>
<totfact> 0.27328822E+02</totfact>
</mgrwt>
</event>
<event>
 8    1  0.1550723E-005  0.1381950E+03  0.7546771E-02  0.1227143E+00
          2   -1    0    0  501    0  0.00000000000E+00  0.00000000000E+00  0.16614971044E+02  0.16614971044E+02  0.00000000000E+00 0. -1.
         -2   -1    0    0    0  501 -0.00000000000E+00 -0.00000000000E+00 -0.92063589411E+03  0.92063589411E+03  0.00000000000E+00 0.  1.
         23    2    1    2    0    0  0.58570495978E+02 -0.63752221372E+01 -0.48499224247E+03  0.50429687815E+03  0.12500687821E+03 0.  0.
         23    2    1    2    0    0 -0.58570495978E+02  0.63752221372E+01 -0.41902868059E+03  0.43295398700E+03  0.91613171787E+02 0.  0.
          5    1    3    3  502    0  0.93259993868E+01 -0.72047428665E+01 -0.43053203907E+03  0.43071894461E+03  0.47000000000E+01 0. -1.
         -5    1    3    3    0  502  0.49244496591E+02  0.82952072932E+00 -0.54460203406E+02  0.73577933541E+02  0.47000000000E+01 0. -1.
        -11    1    4    4    0    0 -0.63230252603E+02 -0.16311306095E+02 -0.39181477928E+03  0.39721901366E+03  0.00000000000E+00 0.  1.
         11    1    4    4    0    0  0.46597566255E+01  0.22686528232E+02 -0.27213901311E+02  0.35734973340E+02  0.00000000000E+00 0. -1.
<mgrwt>
<rscale>  0 0.13021132E+03</rscale>
<asrwt>0</asrwt>
<pdfrwt beam="1">  1        2 0.25561491E-02 0.13819503E+03</pdfrwt>
<pdfrwt beam="2">  1       -2 0.14163631E+00 0.13819503E+03</pdfrwt>
<totfact> 0.13824615E+03</totfact>
</mgrwt>
</event>
<event>
 8    1  0.1550723E-005  0.1789399E+03  0.7546771E-02  0.1174777E+00
         -1   -1    0    0    0  501 -0.00000000000E+00  0.00000000000E+00  0.86380824451E+03  0.86380824451E+03  0.00000000000E+00 0.  1.
          1   -1    0    0  501    0  0.00000000000E+00 -0.00000000000E+00 -0.32563215105E+02  0.32563215105E+02  0.00000000000E+00 0. -1.
         23    2    1    2    0    0  0.98613403152E+02  0.81654429256E+02  0.46029406940E+03  0.49385231595E+03  0.12500972180E+03 0.  0.
         23    2    1    2    0    0 -0.98613403152E+02 -0.81654429256E+02  0.37095096001E+03  0.40251914367E+03  0.89582348657E+02 0.  0.
          5    1    3    3  502    0  0.10443500492E+03  0.98936538340E+02  0.30316012615E+03  0.33559389291E+03  0.47000000000E+01 0.  1.
         -5    1    3    3    0  502 -0.58216017685E+01 -0.17282109084E+02  0.15713394325E+03  0.15825842304E+03  0.47000000000E+01 0.  1.
        -11    1    4    4    0    0 -0.26650013663E+02 -0.28904792951E+01  0.14567511122E+02  0.30508859026E+02  0.00000000000E+00 0. -1.
         11    1    4    4    0    0 -0.71963389489E+02 -0.78763949961E+02  0.35638344889E+03  0.37201028464E+03  0.00000000000E+00 0.  1.
<mgrwt>
<rscale>  0 0.17297845E+03</rscale>
<asrwt>0</asrwt>
<pdfrwt beam="2">  1        1 0.50097261E-02 0.17893988E+03</pdfrwt>
<pdfrwt beam="1">  1       -1 0.13289356E+00 0.17893988E+03</pdfrwt>
<totfact> 0.84907533E+02</totfact>
</mgrwt>
</event>
<event>
 8    1  0.1550723E-005  0.1346954E+03  0.7546771E-02  0.1233265E+00
          1   -1    0    0  501    0  0.00000000000E+00  0.00000000000E+00  0.27670840940E+02  0.27670840940E+02  0.00000000000E+00 0. -1.
         -1   -1    0    0    0  501 -0.00000000000E+00 -0.00000000000E+00 -0.51565464335E+03  0.51565464335E+03  0.00000000000E+00 0.  1.
         23    2    1    2    0    0  0.46527385780E+02  0.18587244601E+02 -0.29366694980E+03  0.32308379655E+03  0.12503031192E+03 0.  0.
         23    2    1    2    0    0 -0.46527385780E+02 -0.18587244601E+02 -0.19431685261E+03  0.22024168774E+03  0.90758352351E+02 0.  0.
          5    1    3    3  502    0  0.25579162347E+02  0.53905668694E+02 -0.56382246378E+02  0.82226287587E+02  0.47000000000E+01 0. -1.
         -5    1    3    3    0  502  0.20948223433E+02 -0.35318424093E+02 -0.23728470342E+03  0.24085750896E+03  0.47000000000E+01 0. -1.
        -11    1    4    4    0    0 -0.20347034830E+02  0.33861970296E+02 -0.45280555997E+02  0.60091293962E+02  0.00000000000E+00 0.  1.
         11    1    4    4    0    0 -0.26180350950E+02 -0.52449214897E+02 -0.14903629662E+03  0.16015039378E+03  0.00000000000E+00 0. -1.
<mgrwt>
<rscale>  0 0.12616166E+03</rscale>
<asrwt>0</asrwt>
<pdfrwt beam="1">  1        1 0.42570526E-02 0.13469544E+03</pdfrwt>
<pdfrwt beam="2">  1       -1 0.79331480E-01 0.13469544E+03</pdfrwt>
<totfact> 0.33259048E+03</totfact>
</mgrwt>
</event>
<event>
 8    1  0.1550723E-005  0.1331339E+03  0.7546771E-02  0.1234262E+00
          1   -1    0    0  501    0  0.00000000000E+00  0.00000000000E+00  0.31613758437E+03  0.31613758437E+03  0.00000000000E+00 0.  1.
         -1   -1    0    0    0  501 -0.00000000000E+00 -0.00000000000E+00 -0.82293861454E+02  0.82293861454E+02  0.00000000000E+00 0. -1.
         23    2    1    2    0    0 -0.43933407573E+01  0.45608728221E+02 -0.93529193630E+01  0.13346202859E+03  0.12500071376E+03 0.  0.
         23    2    1    2    0    0  0.43933407573E+01 -0.45608728221E+02  0.24319664228E+03  0.26496941723E+03  0.94682246069E+02 0.  0.
          5    1    3    3  502    0  0.29263547713E+02 -0.32205962220E+02 -0.19557742574E+02  0.47939279530E+02  0.47000000000E+01 0. -1.
         -5    1    3    3    0  502 -0.33656888470E+02  0.77814690441E+02  0.10204823211E+02  0.85522749059E+02  0.47000000000E+01 0. -1.
        -11    1    4    4    0    0  0.33256919663E+02 -0.24656801199E+02  0.21648818557E+03  0.22041124074E+03  0.00000000000E+00 0.  1.
         11    1    4    4    0    0 -0.28863578906E+02 -0.20951927021E+02  0.26708456708E+02  0.44558176499E+02  0.00000000000E+00 0. -1.
<mgrwt>
<rscale>  0 0.12551812E+03</rscale>
<asrwt>0</asrwt>
<pdfrwt beam="1">  1        1 0.48636551E-01 0.13313390E+03</pdfrwt>
<pdfrwt beam="2">  1       -1 0.12660594E-01 0.13313390E+03</pdfrwt>
<totfact> 0.33354367E+03</totfact>
</mgrwt>
</event>
<event>
 8    1  0.1550723E-005  0.1256981E+03  0.7546771E-02  0.1245933E+00
         -1   -1    0    0    0  501 -0.00000000000E+00  0.00000000000E+00  0.33390057900E+03  0.33390057900E+03  0.00000000000E+00 0.  1.
          1   -1    0    0  501    0  0.00000000000E+00 -0.00000000000E+00 -0.41477304828E+02  0.41477304828E+02  0.00000000000E+00 0. -1.
         23    2    1    2    0    0 -0.85261541881E+00 -0.12920418529E+02  0.21872885686E+03  0.25227432997E+03  0.12502943880E+03 0.  0.
         23    2    1    2    0    0  0.85261541881E+00  0.12920418529E+02  0.73694417310E+02  0.12310355386E+03  0.97754558274E+02 0.  0.
          5    1    3    3  502    0  0.56176482747E+02  0.18371180171E+02  0.12153691707E+03  0.13522799150E+03  0.47000000000E+01 0.  1.
         -5    1    3    3    0  502 -0.57029098166E+02 -0.31291598700E+02  0.97191939796E+02  0.11704633847E+03  0.47000000000E+01 0.  1.
        -11    1    4    4    0    0  0.49232655107E+02  0.51797906943E+01  0.34148543398E+02  0.60139900040E+02  0.00000000000E+00 0. -1.
         11    1    4    4    0    0 -0.48380039689E+02  0.77406278342E+01  0.39545873911E+02  0.62963653825E+02  0.00000000000E+00 0.  1.
<mgrwt>
<rscale>  0 0.11829739E+03</rscale>
<asrwt>0</asrwt>
<pdfrwt beam="2">  1        1 0.63811240E-02 0.12569815E+03</pdfrwt>
<pdfrwt beam="1">  1       -1 0.51369318E-01 0.12569815E+03</pdfrwt>
<totfact> 0.44106240E+03</totfact>
</mgrwt>
</event>
<event>
 8    1  0.1550723E-005  0.1433904E+03  0.7546771E-02  0.1218558E+00
         -2   -1    0    0    0  501 -0.00000000000E+00  0.00000000000E+00  0.20090182468E+03  0.20090182468E+03  0.00000000000E+00 0.  1.
          2   -1    0    0  501    0  0.00000000000E+00 -0.00000000000E+00 -0.86591818903E+02  0.86591818903E+02  0.00000000000E+00 0. -1.
         23    2    1    2    0    0 -0.23040046649E+02 -0.66358013926E+02  0.86841734648E+02  0.16763740695E+03  0.12500633412E+03 0.  0.
         23    2    1    2    0    0  0.23040046649E+02  0.66358013926E+02  0.27468271128E+02  0.11985623663E+03  0.93149244652E+02 0.  0.
          5    1    3    3  502    0  0.20040245596E+02 -0.35831040514E+02 -0.21824151835E+02  0.46731771967E+02  0.47000000000E+01 0. -1.
         -5    1    3    3    0  502 -0.43080292245E+02 -0.30526973413E+02  0.10866588648E+03  0.12090563498E+03  0.47000000000E+01 0. -1.
        -11    1    4    4    0    0 -0.19679728725E+02  0.12567563586E+02 -0.24407301306E+02  0.33777977060E+02  0.00000000000E+00 0. -1.
         11    1    4    4    0    0  0.42719775374E+02  0.53790450340E+02  0.51875572434E+02  0.86078259573E+02  0.00000000000E+00 0.  1.
<mgrwt>
<rscale>  0 0.13618410E+03</rscale>
<asrwt>0</asrwt>
<pdfrwt beam="2">  1        2 0.13321818E-01 0.14339042E+03</pdfrwt>
<pdfrwt beam="1">  1       -2 0.30907973E-01 0.14339042E+03</pdfrwt>
<totfact> 0.41742226E+03</totfact>
</mgrwt>
</event>
<event>
 7    1  0.1550723E-005  0.4166183E+03  0.7546771E-02  0.1082180E+00
          2   -1    0    0  501    0  0.00000000000E+00  0.00000000000E+00  0.75698696035E+03  0.75698696035E+03  0.00000000000E+00 0. -1.
         -2   -1    0    0    0  501 -0.00000000000E+00 -0.00000000000E+00 -0.98597341603E+02  0.98597341603E+02  0.00000000000E+00 0.  1.
         23    2    1    2    0    0  0.24241424193E+01  0.80120365089E+02  0.21627112483E+03  0.24809802991E+03  0.91401770439E+02 0.  0.
          5    1    1    2  502    0  0.18422869945E+03 -0.12575422809E+03  0.21345366367E+03  0.30876997282E+03  0.47000000000E+01 0. -1.
         -5    1    1    2    0  502 -0.18665284187E+03  0.45633863002E+02  0.22866483024E+03  0.29871629922E+03  0.47000000000E+01 0.  1.
        -11    1    3    3    0    0 -0.10131840400E+02  0.78496871933E+02  0.22087397234E+03  0.23462677756E+03  0.00000000000E+00 0.  1.
         11    1    3    3    0    0  0.12555982819E+02  0.16234931557E+01 -0.46028475055E+01  0.13471252345E+02  0.00000000000E+00 0. -1.
<mgrwt>
<rscale>  0 0.30620408E+03</rscale>
<asrwt>0</asrwt>
<pdfrwt beam="1">  1        2 0.11645953E+00 0.41661830E+03</pdfrwt>
<pdfrwt beam="2">  1       -2 0.15168822E-01 0.41661830E+03</pdfrwt>
<totfact> 0.12796062E+03</totfact>
</mgrwt>
</event>
<event>
 8    1  0.1550723E-005  0.1342651E+03  0.7546771E-02  0.1233225E+00
         -2   -1    0    0    0  501 -0.00000000000E+00  0.00000000000E+00  0.43337878449E+02  0.43337878449E+02  0.00000000000E+00 0. -1.
          2   -1    0    0  501    0  0.00000000000E+00 -0.00000000000E+00 -0.34857200723E+03  0.34857200723E+03  0.00000000000E+00 0.  1.
         23    2    1    2    0    0  0.23285002648E+02  0.43112328928E+02 -0.12500527725E+03  0.18344874052E+03  0.12500502711E+03 0.  0.
         23    2    1    2    0    0 -0.23285002648E+02 -0.43112328928E+02 -0.18022885153E+03  0.20846114516E+03  0.92589123893E+02 0.  0.
          5    1    3    3  502    0 -0.46305466995E+02  0.41241480634E+02 -0.42136235737E+02  0.75117297346E+02  0.47000000000E+01 0. -1.
         -5    1    3    3    0  502  0.69590469643E+02  0.18708482946E+01 -0.82869041513E+02  0.10833144317E+03  0.47000000000E+01 0. -1.
        -11    1    4    4    0    0 -0.41140239827E+02  0.12518847974E+02 -0.51496160295E+02  0.67090203552E+02  0.00000000000E+00 0. -1.
         11    1    4    4    0    0  0.17855237178E+02 -0.55631176902E+02 -0.12873269123E+03  0.14137094160E+03  0.00000000000E+00 0.  1.
<mgrwt>
<rscale>  0 0.12618743E+03</rscale>
<asrwt>0</asrwt>
<pdfrwt beam="2">  1        2 0.53626465E-01 0.13426511E+03</pdfrwt>
<pdfrwt beam="1">  1       -2 0.66673657E-02 0.13426511E+03</pdfrwt>
<totfact> 0.11030934E+04</totfact>
</mgrwt>
</event>
<event>
 8    1  0.1550723E-005  0.1337776E+03  0.7546771E-02  0.1235180E+00
          2   -1    0    0  501    0  0.00000000000E+00  0.00000000000E+00  0.14891846676E+03  0.14891846676E+03  0.00000000000E+00 0. -1.
         -2   -1    0    0    0  501 -0.00000000000E+00 -0.00000000000E+00 -0.11136823022E+03  0.11136823022E+03  0.00000000000E+00 0.  1.
         23    2    1    2    0    0 -0.34329434922E+02  0.33067232435E+02 -0.31359679864E+02  0.13740403291E+03  0.12499794709E+03 0.  0.
         23    2    1    2    0    0  0.34329434922E+02 -0.33067232435E+02  0.68909916399E+02  0.12288266406E+03  0.89886709732E+02 0.  0.
          5    1    3    3  502    0  0.30262716010E+02 -0.15268458264E+02  0.21892298676E+02  0.40624137399E+02  0.47000000000E+01 0. -1.
         -5    1    3    3    0  502 -0.64592150932E+02  0.48335690699E+02 -0.53251978540E+02  0.96779895515E+02  0.47000000000E+01 0. -1.
        -11    1    4    4    0    0  0.38524186941E+02 -0.92641449640E+01  0.85044901515E+02  0.93822026385E+02  0.00000000000E+00 0. -1.
         11    1    4    4    0    0 -0.41947520194E+01 -0.23803087471E+02 -0.16134985115E+02  0.29060637679E+02  0.00000000000E+00 0.  1.
<mgrwt>
<rscale>  0 0.12492900E+03</rscale>
<asrwt>0</asrwt>
<pdfrwt beam="1">  1        2 0.22910533E-01 0.13377757E+03</pdfrwt>
<pdfrwt beam="2">  1       -2 0.17133574E-01 0.13377757E+03</pdfrwt>
<totfact> 0.61757292E+03</totfact>
</mgrwt>
</event>
<event>
 8    1  0.1550723E-005  0.1403955E+03  0.7546771E-02  0.1223370E+00
         -3   -1    0    0    0  501 -0.00000000000E+00  0.00000000000E+00  0.42882906615E+02  0.42882906615E+02  0.00000000000E+00 0.  1.
          3   -1    0    0  501    0  0.00000000000E+00 -0.00000000000E+00 -0.47979106480E+03  0.47979106480E+03  0.00000000000E+00 0. -1.
         23    2    1    2    0    0 -0.40810840036E+02 -0.49174756728E+02 -0.11424580958E+03  0.18100556516E+03  0.12500891268E+03 0.  0.
         23    2    1    2    0    0  0.40810840036E+02  0.49174756728E+02 -0.32266234861E+03  0.34166840626E+03  0.92426334239E+02 0.  0.
          5    1    3    3  502    0 -0.59657180631E+02  0.92527526556E+01 -0.10140603619E+03  0.11810955426E+03  0.47000000000E+01 0. -1.
         -5    1    3    3    0  502  0.18846340595E+02 -0.58427509384E+02 -0.12839773395E+02  0.62896010902E+02  0.47000000000E+01 0. -1.
        -11    1    4    4    0    0  0.43107039121E+02 -0.16862919020E+02 -0.13210699816E+03  0.13998154815E+03  0.00000000000E+00 0.  1.
         11    1    4    4    0    0 -0.22961990852E+01  0.66037675748E+02 -0.19055535044E+03  0.20168685810E+03  0.00000000000E+00 0. -1.
<mgrwt>
<rscale>  0 0.13279281E+03</rscale>
<asrwt>0</asrwt>
<pdfrwt beam="2">  1        3 0.73814010E-01 0.14039555E+03</pdfrwt>
<pdfrwt beam="1">  1       -3 0.65973702E-02 0.14039555E+03</pdfrwt>
<totfact> 0.60433292E+02</totfact>
</mgrwt>
</event>
<event>
 8    1  0.1550723E-005  0.1499831E+03  0.7546771E-02  0.1209784E+00
          1   -1    0    0  501    0  0.00000000000E+00  0.00000000000E+00  0.65113925969E+03  0.65113925969E+03  0.00000000000E+00 0. -1.
         -1   -1    0    0    0  501 -0.00000000000E+00 -0.00000000000E+00 -0.35996961129E+02  0.35996961129E+02  0.00000000000E+00 0.  1.
         23    2    1    2    0    0  0.68237669079E+02  0.47041788522E+02  0.17643824296E+03  0.23157155509E+03  0.12500248878E+03 0.  0.
         23    2    1    2    0    0 -0.68237669079E+02 -0.47041788522E+02  0.43870405560E+03  0.45556466573E+03  0.90601362617E+02 0.  0.
          5    1    3    3  502    0  0.38015315648E+02  0.87924905330E+02  0.92011740229E+02  0.13290674754E+03  0.47000000000E+01 0. -1.
         -5    1    3    3    0  502  0.30222353430E+02 -0.40883116808E+02  0.84426502731E+02  0.98664807557E+02  0.47000000000E+01 0. -1.
        -11    1    4    4    0    0 -0.78338288076E+02 -0.59372191170E+01  0.24492360867E+03  0.25721530288E+03  0.00000000000E+00 0.  1.
         11    1    4    4    0    0  0.10100618997E+02 -0.41104569405E+02  0.19378044693E+03  0.19834936285E+03  0.00000000000E+00 0. -1.
<mgrwt>
<rscale>  0 0.14266729E+03</rscale>
<asrwt>0</asrwt>
<pdfrwt beam="1">  1        1 0.10017526E+00 0.14998310E+03</pdfrwt>
<pdfrwt beam="2">  1       -1 0.55379945E-02 0.14998310E+03</pdfrwt>
<totfact> 0.46018588E+03</totfact>
</mgrwt>
</event>
<event>
 8    1  0.1550723E-005  0.1337014E+03  0.7546771E-02  0.1228044E+00
          1   -1    0    0  501    0  0.00000000000E+00  0.00000000000E+00  0.41851714721E+03  0.41851714721E+03  0.00000000000E+00 0. -1.
         -1   -1    0    0    0  501 -0.00000000000E+00 -0.00000000000E+00 -0.38126028525E+02  0.38126028525E+02  0.00000000000E+00 0.  1.
         23    2    1    2    0    0 -0.56240699560E+02 -0.46986602183E+02  0.18287431706E+03  0.22653714626E+03  0.11182712428E+03 0.  0.
         23    2    1    2    0    0  0.56240699560E+02  0.46986602183E+02  0.19751680163E+03  0.23010602947E+03  0.92548045922E+02 0.  0.
          5    1    3    3  502    0  0.14476680957E+02  0.20483164996E+02  0.82505294075E+02  0.86361726999E+02  0.47000000000E+01 0. -1.
         -5    1    3    3    0  502 -0.70717380517E+02 -0.67469767179E+02  0.10036902298E+03  0.14017541926E+03  0.47000000000E+01 0.  1.
        -11    1    4    4    0    0  0.79895710698E+02  0.20390390146E+02  0.13797858844E+03  0.16073948944E+03  0.00000000000E+00 0. -1.
         11    1    4    4    0    0 -0.23655011138E+02  0.26596212037E+02  0.59538213189E+02  0.69366540034E+02  0.00000000000E+00 0.  1.
<mgrwt>
<rscale>  0 0.12960412E+03</rscale>
<asrwt>0</asrwt>
<pdfrwt beam="1">  1        1 0.64387250E-01 0.13370139E+03</pdfrwt>
<pdfrwt beam="2">  1       -1 0.58655431E-02 0.13370139E+03</pdfrwt>
<totfact> 0.75339160E+03</totfact>
</mgrwt>
</event>
<event>
 8    1  0.1550723E-005  0.1683755E+03  0.7546771E-02  0.1186216E+00
          3   -1    0    0  501    0  0.00000000000E+00  0.00000000000E+00  0.22456456124E+03  0.22456456124E+03  0.00000000000E+00 0. -1.
         -3   -1    0    0    0  501 -0.00000000000E+00 -0.00000000000E+00 -0.11020907360E+03  0.11020907360E+03  0.00000000000E+00 0.  1.
         23    2    1    2    0    0 -0.37211482731E+02 -0.10648923050E+03  0.46842489454E+02  0.17476996292E+03  0.12500268181E+03 0.  0.
         23    2    1    2    0    0  0.37211482731E+02  0.10648923050E+03  0.67512998185E+02  0.16000367193E+03  0.91205917827E+02 0.  0.
          5    1    3    3  502    0 -0.46757667833E-01  0.12360531270E+02  0.48371842452E+02  0.50146884866E+02  0.47000000000E+01 0.  1.
         -5    1    3    3    0  502 -0.37164725064E+02 -0.11884976177E+03 -0.15293529980E+01  0.12462307805E+03  0.47000000000E+01 0.  1.
        -11    1    4    4    0    0  0.64556959353E+02  0.93372666299E+02  0.61425221640E+02  0.12907018891E+03  0.00000000000E+00 0. -1.
         11    1    4    4    0    0 -0.27345476622E+02  0.13116564205E+02  0.60877765446E+01  0.30933483016E+02  0.00000000000E+00 0.  1.
<mgrwt>
<rscale>  0 0.16221766E+03</rscale>
<asrwt>0</asrwt>
<pdfrwt beam="1">  1        3 0.34548394E-01 0.16837554E+03</pdfrwt>
<pdfrwt beam="2">  1       -3 0.16955242E-01 0.16837554E+03</pdfrwt>
<totfact> 0.58982020E+02</totfact>
</mgrwt>
</event>
<event>
 8    1  0.1550723E-005  0.1299897E+03  0.7546771E-02  0.1241484E+00
         -4   -1    0    0    0  501 -0.00000000000E+00  0.00000000000E+00  0.88301248746E+02  0.88301248746E+02  0.00000000000E+00 0.  1.
          4   -1    0    0  501    0  0.00000000000E+00 -0.00000000000E+00 -0.15470371787E+03  0.15470371787E+03  0.00000000000E+00 0. -1.
         23    2    1    2    0    0 -0.18272539157E+02 -0.29737667321E+02 -0.10095744501E+02  0.13038113469E+03  0.12521621972E+03 0.  0.
         23    2    1    2    0    0  0.18272539157E+02  0.29737667321E+02 -0.56306724625E+02  0.11262383193E+03  0.91079447387E+02 0.  0.
          5    1    3    3  502    0  0.39770199468E+02 -0.14656882309E+02 -0.44046245718E+02  0.61307868391E+02  0.47000000000E+01 0.  1.
         -5    1    3    3    0  502 -0.58042738626E+02 -0.15080785012E+02  0.33950501217E+02  0.69073266295E+02  0.47000000000E+01 0.  1.
        -11    1    4    4    0    0 -0.28585450955E+02  0.36737156337E+02 -0.43104511468E+02  0.63440882488E+02  0.00000000000E+00 0. -1.
         11    1    4    4    0    0  0.46857990112E+02 -0.69994890156E+01 -0.13202213157E+02  0.49182949445E+02  0.00000000000E+00 0.  1.
<mgrwt>
<rscale>  0 0.12098324E+03</rscale>
<asrwt>0</asrwt>
<pdfrwt beam="2">  1        4 0.23800572E-01 0.12998968E+03</pdfrwt>
<pdfrwt beam="1">  1       -4 0.13584808E-01 0.12998968E+03</pdfrwt>
<totfact> 0.12016985E+03</totfact>
</mgrwt>
</event>
<event>
 8    1  0.1550723E-005  0.1279491E+03  0.7546771E-02  0.1244798E+00
          1   -1    0    0  501    0  0.00000000000E+00  0.00000000000E+00  0.47851754359E+02  0.47851754359E+02  0.00000000000E+00 0. -1.
         -1   -1    0    0    0  501 -0.00000000000E+00 -0.00000000000E+00 -0.26518251648E+03  0.26518251648E+03  0.00000000000E+00 0.  1.
         23    2    1    2    0    0 -0.27129727832E+02 -0.30882650997E+01 -0.14306083737E+03  0.19193062578E+03  0.12500160963E+03 0.  0.
         23    2    1    2    0    0  0.27129727832E+02  0.30882650997E+01 -0.74269924750E+02  0.12110364506E+03  0.91676123449E+02 0.  0.
          5    1    3    3  502    0  0.38782436013E+02 -0.29614405089E+02 -0.92214008116E+02  0.10443468593E+03  0.47000000000E+01 0.  1.
         -5    1    3    3    0  502 -0.65912163845E+02  0.26526139989E+02 -0.50846829254E+02  0.87495939852E+02  0.47000000000E+01 0.  1.
        -11    1    4    4    0    0  0.56027464933E+02  0.10559583763E+02 -0.22394854425E+02  0.61254478537E+02  0.00000000000E+00 0. -1.
         11    1    4    4    0    0 -0.28897737102E+02 -0.74713186631E+01 -0.51875070324E+02  0.59849166522E+02  0.00000000000E+00 0.  1.
<mgrwt>
<rscale>  0 0.11897505E+03</rscale>
<asrwt>0</asrwt>
<pdfrwt beam="1">  1        1 0.73618083E-02 0.12794906E+03</pdfrwt>
<pdfrwt beam="2">  1       -1 0.40797311E-01 0.12794906E+03</pdfrwt>
<totfact> 0.55048174E+03</totfact>
</mgrwt>
</event>
<event>
 8    1  0.1550723E-005  0.1998303E+03  0.7546771E-02  0.1154161E+00
         -1   -1    0    0    0  501 -0.00000000000E+00  0.00000000000E+00  0.64100828041E+03  0.64100828041E+03  0.00000000000E+00 0.  1.
          1   -1    0    0  501    0  0.00000000000E+00 -0.00000000000E+00 -0.71340761416E+02  0.71340761416E+02  0.00000000000E+00 0. -1.
         23    2    1    2    0    0 -0.14910929413E+03  0.45436746450E+02  0.45874792876E+03  0.50038167994E+03  0.12503633051E+03 0.  0.
         23    2    1    2    0    0  0.14910929413E+03 -0.45436746450E+02  0.11091959023E+03  0.21196736189E+03  0.91262957916E+02 0.  0.
          5    1    3    3  502    0 -0.85255343620E+02  0.85118567353E+02  0.32842811178E+03  0.34985819803E+03  0.47000000000E+01 0.  1.
         -5    1    3    3    0  502 -0.63853950507E+02 -0.39681820903E+02  0.13031981699E+03  0.15052348190E+03  0.47000000000E+01 0.  1.
        -11    1    4    4    0    0 -0.16971547389E+01 -0.22719059398E+02  0.34604977560E+02  0.41431153328E+02  0.00000000000E+00 0. -1.
         11    1    4    4    0    0  0.15080644887E+03 -0.22717687052E+02  0.76314612674E+02  0.17053620857E+03  0.00000000000E+00 0.  1.
<mgrwt>
<rscale>  0 0.19484677E+03</rscale>
<asrwt>0</asrwt>
<pdfrwt beam="2">  1        1 0.10975502E-01 0.19983034E+03</pdfrwt>
<pdfrwt beam="1">  1       -1 0.98616655E-01 0.19983034E+03</pdfrwt>
<totfact> 0.58777399E+02</totfact>
</mgrwt>
</event>
<event>
 7    1  0.1550723E-005  0.2126426E+03  0.7546771E-02  0.1157915E+00
          2   -1    0    0  501    0  0.00000000000E+00  0.00000000000E+00  0.12571364670E+04  0.12571364670E+04  0.00000000000E+00 0. -1.
         -2   -1    0    0    0  501 -0.00000000000E+00 -0.00000000000E+00 -0.24534378387E+02  0.24534378387E+02  0.00000000000E+00 0.  1.
         23    2    1    2    0    0  0.23182806035E+02 -0.99194192113E+02  0.43027630443E+03  0.45164461040E+03  0.92022962889E+02 0.  0.
          5    1    1    2  502    0 -0.90114603472E+02  0.63656055553E+02  0.26098404048E+03  0.28338576985E+03  0.47000000000E+01 0. -1.
         -5    1    1    2    0  502  0.66931797437E+02  0.35538136560E+02  0.54134174365E+03  0.54664046509E+03  0.47000000000E+01 0. -1.
        -11    1    3    3    0    0  0.58060727014E+02 -0.71090325512E+02  0.26703192989E+03  0.28236666585E+03  0.00000000000E+00 0.  1.
         11    1    3    3    0    0 -0.34877920979E+02 -0.28103866602E+02  0.16324437454E+03  0.16927794455E+03  0.00000000000E+00 0. -1.
<mgrwt>
<rscale>  0 0.19060650E+03</rscale>
<asrwt>0</asrwt>
<pdfrwt beam="1">  1        2 0.19340556E+00 0.21264263E+03</pdfrwt>
<pdfrwt beam="2">  1       -2 0.37745207E-02 0.21264263E+03</pdfrwt>
<totfact> 0.55247503E+03</totfact>
</mgrwt>
</event>
<event>
 8    1  0.1550723E-005  0.1326911E+03  0.7546771E-02  0.1239188E+00
          3   -1    0    0  501    0  0.00000000000E+00  0.00000000000E+00  0.28827614623E+02  0.28827614623E+02  0.00000000000E+00 0. -1.
         -3   -1    0    0    0  501 -0.00000000000E+00 -0.00000000000E+00 -0.55550142663E+03  0.55550142663E+03  0.00000000000E+00 0.  1.
         23    2    1    2    0    0  0.31252200080E+02 -0.31679502563E+02 -0.42143657148E+03  0.44183222035E+03  0.12500654489E+03 0.  0.
         23    2    1    2    0    0 -0.31252200080E+02  0.31679502563E+02 -0.10523724053E+03  0.14249682090E+03  0.85147966984E+02 0.  0.
          5    1    3    3  502    0  0.21823719413E+02  0.40125444691E+02 -0.75513016505E+02  0.88377778329E+02  0.47000000000E+01 0. -1.
         -5    1    3    3    0  502  0.94284806668E+01 -0.71804947254E+02 -0.34592355497E+03  0.35345444202E+03  0.47000000000E+01 0. -1.
        -11    1    4    4    0    0 -0.49836920497E+02  0.34988645475E+02 -0.10743557975E+03  0.12349221738E+03  0.00000000000E+00 0. -1.
         11    1    4    4    0    0  0.18584720417E+02 -0.33091429123E+01  0.21983392241E+01  0.19004603525E+02  0.00000000000E+00 0.  1.
<mgrwt>
<rscale>  0 0.12240081E+03</rscale>
<asrwt>0</asrwt>
<pdfrwt beam="1">  1        3 0.44350176E-02 0.13269110E+03</pdfrwt>
<pdfrwt beam="2">  1       -3 0.85461759E-01 0.13269110E+03</pdfrwt>
<totfact> 0.81892130E+02</totfact>
</mgrwt>
</event>
<event>
 8    1  0.1550723E-005  0.2454111E+03  0.7546771E-02  0.1118815E+00
         -1   -1    0    0    0  501 -0.00000000000E+00  0.00000000000E+00  0.35652024961E+03  0.35652024961E+03  0.00000000000E+00 0.  1.
          1   -1    0    0  501    0  0.00000000000E+00 -0.00000000000E+00 -0.15988651674E+03  0.15988651674E+03  0.00000000000E+00 0. -1.
         23    2    1    2    0    0 -0.10803029296E+03 -0.18146748986E+03  0.12539075175E+03  0.27558925933E+03  0.12500242063E+03 0.  0.
         23    2    1    2    0    0  0.10803029296E+03  0.18146748986E+03  0.71242981121E+02  0.24081750702E+03  0.91194929992E+02 0.  0.
          5    1    3    3  502    0 -0.12031409049E+03 -0.10290036545E+03  0.11393752552E+03  0.19510975194E+03  0.47000000000E+01 0.  1.
         -5    1    3    3    0  502  0.12283797535E+02 -0.78567124403E+02  0.11453226235E+02  0.80479507392E+02  0.47000000000E+01 0.  1.
        -11    1    4    4    0    0  0.82742700480E+01  0.99073004811E+02  0.43367880315E+02  0.10846518736E+03  0.00000000000E+00 0. -1.
         11    1    4    4    0    0  0.99756022911E+02  0.82394485047E+02  0.27875100806E+02  0.13235231966E+03  0.00000000000E+00 0.  1.
<mgrwt>
<rscale>  0 0.24147410E+03</rscale>
<asrwt>0</asrwt>
<pdfrwt beam="2">  1        1 0.24597926E-01 0.24541108E+03</pdfrwt>
<pdfrwt beam="1">  1       -1 0.54849269E-01 0.24541108E+03</pdfrwt>
<totfact> 0.67563209E+02</totfact>
</mgrwt>
</event>
<event>
 8    1  0.1550723E-005  0.1497721E+03  0.7546771E-02  0.1209496E+00
          3   -1    0    0  501    0  0.00000000000E+00  0.00000000000E+00  0.38461226420E+02  0.38461226420E+02  0.00000000000E+00 0. -1.
         -3   -1    0    0    0  501 -0.00000000000E+00 -0.00000000000E+00 -0.49988440674E+03  0.49988440674E+03  0.00000000000E+00 0.  1.
         23    2    1    2    0    0 -0.12869623860E+02  0.81492709150E+02 -0.20954634382E+03  0.25756815607E+03  0.12499998380E+03 0.  0.
         23    2    1    2    0    0  0.12869623860E+02 -0.81492709150E+02 -0.25187683650E+03  0.28077747709E+03  0.92668020442E+02 0.  0.
          5    1    3    3  502    0  0.41036483273E+02  0.78385240553E+01 -0.18794261339E+02  0.46051597997E+02  0.47000000000E+01 0. -1.
         -5    1    3    3    0  502 -0.53906107133E+02  0.73654185094E+02 -0.19075208248E+03  0.21151655807E+03  0.47000000000E+01 0. -1.
        -11    1    4    4    0    0  0.27615515726E+02 -0.97036149020E+02 -0.18736695182E+03  0.21280273861E+03  0.00000000000E+00 0. -1.
         11    1    4    4    0    0 -0.14745891867E+02  0.15543439870E+02 -0.64509884681E+02  0.67974738481E+02  0.00000000000E+00 0.  1.
<mgrwt>
<rscale>  0 0.14288687E+03</rscale>
<asrwt>0</asrwt>
<pdfrwt beam="1">  1        3 0.59171123E-02 0.14977211E+03</pdfrwt>
<pdfrwt beam="2">  1       -3 0.76905287E-01 0.14977211E+03</pdfrwt>
<totfact> 0.66423044E+02</totfact>
</mgrwt>
</event>
<event>
 8    1  0.1550723E-005  0.3506540E+03  0.7546771E-02  0.1063434E+00
         -1   -1    0    0    0  501 -0.00000000000E+00  0.00000000000E+00  0.11681313925E+03  0.11681313925E+03  0.00000000000E+00 0.  1.
          1   -1    0    0  501    0  0.00000000000E+00 -0.00000000000E+00 -0.13013720624E+04  0.13013720624E+04  0.00000000000E+00 0. -1.
         23    2    1    2    0    0  0.31229837193E+03  0.99002364084E+02 -0.27048837000E+03  0.44285681730E+03  0.12500584437E+03 0.  0.
         23    2    1    2    0    0 -0.31229837193E+03 -0.99002364084E+02 -0.91407055320E+03  0.97532838439E+03  0.91699181906E+02 0.  0.
          5    1    3    3  502    0  0.20617912689E+03  0.11590679417E+03 -0.22360395482E+03  0.32552271182E+03  0.47000000000E+01 0. -1.
         -5    1    3    3    0  502  0.10611924504E+03 -0.16904430081E+02 -0.46884415176E+02  0.11733410548E+03  0.47000000000E+01 0. -1.
        -11    1    4    4    0    0 -0.22607689718E+03 -0.45146572485E+02 -0.72343830044E+03  0.75928384086E+03  0.00000000000E+00 0. -1.
         11    1    4    4    0    0 -0.86221474749E+02 -0.53855791599E+02 -0.19063225277E+03  0.21604454353E+03  0.00000000000E+00 0.  1.
<mgrwt>
<rscale>  0 0.34801241E+03</rscale>
<asrwt>0</asrwt>
<pdfrwt beam="2">  1        1 0.20021109E+00 0.35065396E+03</pdfrwt>
<pdfrwt beam="1">  1       -1 0.17971252E-01 0.35065396E+03</pdfrwt>
<totfact> 0.23258851E+02</totfact>
</mgrwt>
</event>
<event>
 8    1  0.1550723E-005  0.1264715E+03  0.7546771E-02  0.1247253E+00
          2   -1    0    0  501    0  0.00000000000E+00  0.00000000000E+00  0.30178886821E+03  0.30178886821E+03  0.00000000000E+00 0. -1.
         -2   -1    0    0    0  501 -0.00000000000E+00 -0.00000000000E+00 -0.42744128450E+02  0.42744128450E+02  0.00000000000E+00 0.  1.
         23    2    1    2    0    0 -0.11811931159E+02 -0.15150230830E+02  0.10715173950E+03  0.16576043887E+03  0.12500390636E+03 0.  0.
         23    2    1    2    0    0  0.11811931159E+02  0.15150230830E+02  0.15189300026E+03  0.17877255778E+03  0.92298931073E+02 0.  0.
          5    1    3    3  502    0 -0.50876824520E+02  0.34740179983E+02  0.63976148964E+02  0.88940255311E+02  0.47000000000E+01 0.  1.
         -5    1    3    3    0  502  0.39064893361E+02 -0.49890410813E+02  0.43175590536E+02  0.76820183563E+02  0.47000000000E+01 0.  1.
        -11    1    4    4    0    0  0.65987049117E+00 -0.28999161468E+02  0.11929553506E+03  0.12277137892E+03  0.00000000000E+00 0. -1.
         11    1    4    4    0    0  0.11152060667E+02  0.44149392299E+02  0.32597465195E+02  0.56001178868E+02  0.00000000000E+00 0.  1.
<mgrwt>
<rscale>  0 0.11751566E+03</rscale>
<asrwt>0</asrwt>
<pdfrwt beam="1">  1        2 0.46429055E-01 0.12647145E+03</pdfrwt>
<pdfrwt beam="2">  1       -2 0.65760200E-02 0.12647145E+03</pdfrwt>
<totfact> 0.13059620E+04</totfact>
</mgrwt>
</event>
<event>
 8    1  0.1550723E-005  0.1349408E+03  0.7546771E-02  0.1232771E+00
         -1   -1    0    0    0  501 -0.00000000000E+00  0.00000000000E+00  0.10201868120E+04  0.10201868120E+04  0.00000000000E+00 0.  1.
          1   -1    0    0  501    0  0.00000000000E+00 -0.00000000000E+00 -0.14126350989E+02  0.14126350989E+02  0.00000000000E+00 0. -1.
         23    2    1    2    0    0 -0.25323859598E+02 -0.44087057539E+02  0.61400836523E+03  0.62866150896E+03  0.12499621503E+03 0.  0.
         23    2    1    2    0    0  0.25323859598E+02  0.44087057539E+02  0.39205209574E+03  0.40565165399E+03  0.90903531833E+02 0.  0.
          5    1    3    3  502    0  0.43855539267E+02 -0.48114924902E+02  0.31514502357E+03  0.32183354425E+03  0.47000000000E+01 0. -1.
         -5    1    3    3    0  502 -0.69179398865E+02  0.40278673627E+01  0.29886334166E+03  0.30682796472E+03  0.47000000000E+01 0. -1.
        -11    1    4    4    0    0  0.54623375981E+02  0.70335391782E+01  0.24839674527E+03  0.25442902142E+03  0.00000000000E+00 0.  1.
         11    1    4    4    0    0 -0.29299516383E+02  0.37053518361E+02  0.14365535047E+03  0.15122263257E+03  0.00000000000E+00 0. -1.
<mgrwt>
<rscale>  0 0.12648187E+03</rscale>
<asrwt>0</asrwt>
<pdfrwt beam="2">  1        1 0.21732856E-02 0.13494080E+03</pdfrwt>
<pdfrwt beam="1">  1       -1 0.15695176E+00 0.13494080E+03</pdfrwt>
<totfact> 0.17508377E+03</totfact>
</mgrwt>
</event>
<event>
 8    1  0.1550723E-005  0.1315335E+03  0.7546771E-02  0.1238297E+00
          1   -1    0    0  501    0  0.00000000000E+00  0.00000000000E+00  0.12205290152E+03  0.12205290152E+03  0.00000000000E+00 0. -1.
         -1   -1    0    0    0  501 -0.00000000000E+00 -0.00000000000E+00 -0.23984154402E+03  0.23984154402E+03  0.00000000000E+00 0.  1.
         23    2    1    2    0    0  0.39996771266E+02  0.87790717648E+01 -0.19499456165E+03  0.23521039629E+03  0.12499695050E+03 0.  0.
         23    2    1    2    0    0 -0.39996771266E+02 -0.87790717648E+01  0.77205919148E+02  0.12668404925E+03  0.91713033804E+02 0.  0.
          5    1    3    3  502    0  0.85041652246E+02  0.10349879724E+01 -0.13533175353E+03  0.15990599529E+03  0.47000000000E+01 0. -1.
         -5    1    3    3    0  502 -0.45044880980E+02  0.77440837924E+01 -0.59662808123E+02  0.75304400996E+02  0.47000000000E+01 0. -1.
        -11    1    4    4    0    0 -0.35983604786E+02 -0.38699488086E+02  0.11079759031E+02  0.53992881491E+02  0.00000000000E+00 0. -1.
         11    1    4    4    0    0 -0.40131664801E+01  0.29920416321E+02  0.66126160117E+02  0.72691167756E+02  0.00000000000E+00 0.  1.
<mgrwt>
<rscale>  0 0.12295702E+03</rscale>
<asrwt>0</asrwt>
<pdfrwt beam="1">  1        1 0.18777370E-01 0.13153346E+03</pdfrwt>
<pdfrwt beam="2">  1       -1 0.36898699E-01 0.13153346E+03</pdfrwt>
<totfact> 0.19241527E+03</totfact>
</mgrwt>
</event>
<event>
 8    1  0.1550723E-005  0.1787245E+03  0.7546771E-02  0.1174817E+00
         -1   -1    0    0    0  501 -0.00000000000E+00  0.00000000000E+00  0.10200475148E+03  0.10200475148E+03  0.00000000000E+00 0.  1.
          1   -1    0    0  501    0  0.00000000000E+00 -0.00000000000E+00 -0.31529803807E+03  0.31529803807E+03  0.00000000000E+00 0. -1.
         23    2    1    2    0    0 -0.59871904139E+02  0.11283600245E+03 -0.38990339275E+02  0.18292815073E+03  0.12500341363E+03 0.  0.
         23    2    1    2    0    0  0.59871904139E+02 -0.11283600245E+03 -0.17430294732E+03  0.23437463881E+03  0.90737784424E+02 0.  0.
          5    1    3    3  502    0 -0.73572698836E+02  0.10865025411E+03  0.99894611686E+01  0.13168029111E+03  0.47000000000E+01 0. -1.
         -5    1    3    3    0  502  0.13700794697E+02  0.41857483411E+01 -0.48979800444E+02  0.51247859624E+02  0.47000000000E+01 0. -1.
        -11    1    4    4    0    0  0.71251981472E+02 -0.49655606879E+02 -0.13012665097E+03  0.15644637883E+03  0.00000000000E+00 0.  1.
         11    1    4    4    0    0 -0.11380077333E+02 -0.63180395569E+02 -0.44176296349E+02  0.77928259979E+02  0.00000000000E+00 0. -1.
<mgrwt>
<rscale>  0 0.17293961E+03</rscale>
<asrwt>0</asrwt>
<pdfrwt beam="2">  1        1 0.48507391E-01 0.17872454E+03</pdfrwt>
<pdfrwt beam="1">  1       -1 0.15693039E-01 0.17872454E+03</pdfrwt>
<totfact> 0.24195347E+03</totfact>
</mgrwt>
</event>
<event>
 7    1  0.1550723E-005  0.5498816E+03  0.7546771E-02  0.1001521E+00
          2   -1    0    0  501    0  0.00000000000E+00  0.00000000000E+00  0.12590961627E+04  0.12590961627E+04  0.00000000000E+00 0. -1.
         -2   -1    0    0    0  501 -0.00000000000E+00 -0.00000000000E+00 -0.60037074944E+02  0.60037074944E+02  0.00000000000E+00 0.  1.
         23    2    1    2    0    0 -0.52063904510E+02 -0.17943504904E+03  0.31188531685E+03  0.38444869955E+03  0.12498305783E+03 0.  0.
          5    1    3    3  502    0  0.16182405443E+02  0.47811319129E+01  0.21655861427E+01  0.17649624121E+02  0.47000000000E+01 0. -1.
         -5    1    3    3    0  502 -0.68246309953E+02 -0.18421618095E+03  0.30971973071E+03  0.36679907543E+03  0.47000000000E+01 0. -1.
        -11    1    1    2    0    0  0.13533293730E+03  0.58894047269E+02  0.43248631121E+03  0.45697693827E+03  0.00000000000E+00 0.  1.
         11    1    1    2    0    0 -0.83269032793E+02  0.12054100177E+03  0.45468745970E+03  0.47770759984E+03  0.00000000000E+00 0. -1.
<mgrwt>
<rscale>  0 0.54988163E+03</rscale>
<asrwt>0</asrwt>
<pdfrwt beam="1">  1        2 0.19370708E+00 0.54988163E+03</pdfrwt>
<pdfrwt beam="2">  1       -2 0.92364740E-02 0.54988163E+03</pdfrwt>
<totfact> 0.13822807E+03</totfact>
</mgrwt>
</event>
<event>
 8    1  0.1550723E-005  0.1466194E+03  0.7546771E-02  0.1214239E+00
          1   -1    0    0  501    0  0.00000000000E+00  0.00000000000E+00  0.30210163836E+03  0.30210163836E+03  0.00000000000E+00 0. -1.
         -1   -1    0    0    0  501 -0.00000000000E+00 -0.00000000000E+00 -0.63157951025E+02  0.63157951025E+02  0.00000000000E+00 0.  1.
         23    2    1    2    0    0 -0.39332512722E+02  0.65760572194E+02  0.82073270394E+02  0.16802759432E+03  0.12500300527E+03 0.  0.
         23    2    1    2    0    0  0.39332512722E+02 -0.65760572194E+02  0.15687041694E+03  0.19723199507E+03  0.91764005769E+02 0.  0.
          5    1    3    3  502    0  0.15377391348E+02 -0.30724188791E+02  0.11757624232E+02  0.36616549115E+02  0.47000000000E+01 0. -1.
         -5    1    3    3    0  502 -0.54709904070E+02  0.96484760985E+02  0.70315646163E+02  0.13141104520E+03  0.47000000000E+01 0. -1.
        -11    1    4    4    0    0  0.61640592919E+02 -0.51178833448E+02  0.14944471734E+03  0.16956579617E+03  0.00000000000E+00 0.  1.
         11    1    4    4    0    0 -0.22308080197E+02 -0.14581738746E+02  0.74256995957E+01  0.27666198897E+02  0.00000000000E+00 0. -1.
<mgrwt>
<rscale>  0 0.13932554E+03</rscale>
<asrwt>0</asrwt>
<pdfrwt beam="1">  1        1 0.46477174E-01 0.14661941E+03</pdfrwt>
<pdfrwt beam="2">  1       -1 0.97166081E-02 0.14661941E+03</pdfrwt>
<totfact> 0.53259270E+03</totfact>
</mgrwt>
</event>
<event>
 8    1  0.1550723E-005  0.1412452E+03  0.7546771E-02  0.1222351E+00
         -1   -1    0    0    0  501 -0.00000000000E+00  0.00000000000E+00  0.40466481803E+02  0.40466481803E+02  0.00000000000E+00 0.  1.
          1   -1    0    0  501    0  0.00000000000E+00 -0.00000000000E+00 -0.48324094722E+03  0.48324094722E+03  0.00000000000E+00 0. -1.
         23    2    1    2    0    0 -0.23141823389E+02  0.61562506350E+02 -0.13279540314E+03  0.19386808480E+03  0.12499891611E+03 0.  0.
         23    2    1    2    0    0  0.23141823389E+02 -0.61562506350E+02 -0.30997906228E+03  0.32983934423E+03  0.91550465727E+02 0.  0.
          5    1    3    3  502    0 -0.80654016583E+01 -0.54864542815E+01 -0.12394635526E+03  0.12441841048E+03  0.47000000000E+01 0.  1.
         -5    1    3    3    0  502 -0.15076421731E+02  0.67048960631E+02 -0.88490478837E+01  0.69449674314E+02  0.47000000000E+01 0.  1.
        -11    1    4    4    0    0 -0.15023247356E+02 -0.43339552163E+02 -0.56116902204E+02  0.72478420622E+02  0.00000000000E+00 0.  1.
         11    1    4    4    0    0  0.38165070745E+02 -0.18222954187E+02 -0.25386216007E+03  0.25736092361E+03  0.00000000000E+00 0. -1.
<mgrwt>
<rscale>  0 0.13350134E+03</rscale>
<asrwt>0</asrwt>
<pdfrwt beam="2">  1        1 0.74344762E-01 0.14124523E+03</pdfrwt>
<pdfrwt beam="1">  1       -1 0.62256125E-02 0.14124523E+03</pdfrwt>
<totfact> 0.57524897E+03</totfact>
</mgrwt>
</event>
<event>
 8    1  0.1550723E-005  0.3005747E+03  0.7546771E-02  0.1086519E+00
         -4   -1    0    0    0  501 -0.00000000000E+00  0.00000000000E+00  0.70004202090E+03  0.70004202090E+03  0.00000000000E+00 0.  1.
          4   -1    0    0  501    0  0.00000000000E+00 -0.00000000000E+00 -0.14750510711E+03  0.14750510711E+03  0.00000000000E+00 0. -1.
         23    2    1    2    0    0 -0.86937044330E+02 -0.25915572039E+03  0.45082392703E+03  0.54183700503E+03  0.12500155901E+03 0.  0.
         23    2    1    2    0    0  0.86937044330E+02  0.25915572039E+03  0.10171298677E+03  0.30571012297E+03  0.91615558305E+02 0.  0.
          5    1    3    3  502    0 -0.10107343774E+03 -0.11411083931E+03  0.26353022440E+03  0.30447888701E+03  0.47000000000E+01 0. -1.
         -5    1    3    3    0  502  0.14136393407E+02 -0.14504488108E+03  0.18729370263E+03  0.23735811802E+03  0.47000000000E+01 0. -1.
        -11    1    4    4    0    0  0.64933674126E+02  0.12670987742E+03  0.95233543204E+02  0.17129274013E+03  0.00000000000E+00 0.  1.
         11    1    4    4    0    0  0.22003370204E+02  0.13244584297E+03  0.64794435642E+01  0.13441738284E+03  0.00000000000E+00 0. -1.
<mgrwt>
<rscale>  0 0.29745618E+03</rscale>
<asrwt>0</asrwt>
<pdfrwt beam="2">  1        4 0.22693094E-01 0.30057466E+03</pdfrwt>
<pdfrwt beam="1">  1       -4 0.10769877E+00 0.30057466E+03</pdfrwt>
<totfact> 0.23722297E+01</totfact>
</mgrwt>
</event>
<event>
 8    1  0.1550723E-005  0.1423435E+03  0.7546771E-02  0.1221018E+00
         -1   -1    0    0    0  501 -0.00000000000E+00  0.00000000000E+00  0.19376553225E+03  0.19376553225E+03  0.00000000000E+00 0.  1.
          1   -1    0    0  501    0  0.00000000000E+00 -0.00000000000E+00 -0.10633204399E+03  0.10633204399E+03  0.00000000000E+00 0. -1.
         23    2    1    2    0    0  0.67342546649E+02  0.10215334073E+02  0.11562766799E+03  0.18338875353E+03  0.12498922224E+03 0.  0.
         23    2    1    2    0    0 -0.67342546649E+02 -0.10215334073E+02 -0.28194179739E+02  0.11670882271E+03  0.90480196106E+02 0.  0.
          5    1    3    3  502    0 -0.10149199130E+02  0.29738364404E+02  0.95782055720E+02  0.10091416530E+03  0.47000000000E+01 0.  1.
         -5    1    3    3    0  502  0.77491745779E+02 -0.19523030331E+02  0.19845612272E+02  0.82474588230E+02  0.47000000000E+01 0.  1.
        -11    1    4    4    0    0 -0.31294427176E+02 -0.18975110962E+02  0.30252679229E+02  0.47482845416E+02  0.00000000000E+00 0.  1.
         11    1    4    4    0    0 -0.36048119473E+02  0.87597768887E+01 -0.58446858969E+02  0.69225977292E+02  0.00000000000E+00 0. -1.
<mgrwt>
<rscale>  0 0.13443577E+03</rscale>
<asrwt>0</asrwt>
<pdfrwt beam="2">  1        1 0.16358776E-01 0.14234352E+03</pdfrwt>
<pdfrwt beam="1">  1       -1 0.29810082E-01 0.14234352E+03</pdfrwt>
<totfact> 0.33142364E+03</totfact>
</mgrwt>
</event>
<event>
 8    1  0.1550723E-005  0.1463909E+03  0.7546771E-02  0.1213678E+00
          2   -1    0    0  501    0  0.00000000000E+00  0.00000000000E+00  0.32347095651E+03  0.32347095651E+03  0.00000000000E+00 0. -1.
         -2   -1    0    0    0  501 -0.00000000000E+00 -0.00000000000E+00 -0.70394862523E+02  0.70394862523E+02  0.00000000000E+00 0.  1.
         23    2    1    2    0    0  0.75002319823E+01  0.75839053443E+02  0.45461427922E+02  0.15328746567E+03  0.12498996038E+03 0.  0.
         23    2    1    2    0    0 -0.75002319823E+01 -0.75839053443E+02  0.20761466606E+03  0.24057835336E+03  0.94690437934E+02 0.  0.
          5    1    3    3  502    0 -0.48386762135E+02  0.57298299450E+02 -0.54019986771E+01  0.75336879810E+02  0.47000000000E+01 0.  1.
         -5    1    3    3    0  502  0.55886994117E+02  0.18540753992E+02  0.50863426599E+02  0.77950585857E+02  0.47000000000E+01 0.  1.
        -11    1    4    4    0    0 -0.41372302726E+02 -0.58825428912E+01  0.94568641549E+02  0.10339003679E+03  0.00000000000E+00 0.  1.
         11    1    4    4    0    0  0.33872070744E+02 -0.69956510552E+02  0.11304602452E+03  0.13718831657E+03  0.00000000000E+00 0. -1.
<mgrwt>
<rscale>  0 0.13974081E+03</rscale>
<asrwt>0</asrwt>
<pdfrwt beam="1">  1        2 0.49764762E-01 0.14639093E+03</pdfrwt>
<pdfrwt beam="2">  1       -2 0.10829979E-01 0.14639093E+03</pdfrwt>
<totfact> 0.56537519E+03</totfact>
</mgrwt>
</event>
<event>
 8    1  0.1550723E-005  0.1274283E+03  0.7546771E-02  0.1242351E+00
          1   -1    0    0  501    0  0.00000000000E+00  0.00000000000E+00  0.33986650589E+03  0.33986650589E+03  0.00000000000E+00 0. -1.
         -1   -1    0    0    0  501 -0.00000000000E+00 -0.00000000000E+00 -0.39041930499E+02  0.39041930499E+02  0.00000000000E+00 0.  1.
         23    2    1    2    0    0  0.48834492717E+01  0.24285711684E+02  0.14777416948E+03  0.19512858711E+03  0.12499726586E+03 0.  0.
         23    2    1    2    0    0 -0.48834492717E+01 -0.24285711684E+02  0.15305040591E+03  0.18377984928E+03  0.98676047669E+02 0.  0.
          5    1    3    3  502    0  0.79316128968E+01  0.57163054360E+02  0.15090371946E+03  0.16163089993E+03  0.47000000000E+01 0.  1.
         -5    1    3    3    0  502 -0.30481636252E+01 -0.32877342676E+02 -0.31295499797E+01  0.33497687174E+02  0.47000000000E+01 0.  1.
        -11    1    4    4    0    0  0.19293426943E+02 -0.51152325885E+02  0.48231639666E+02  0.72904648902E+02  0.00000000000E+00 0.  1.
         11    1    4    4    0    0 -0.24176876214E+02  0.26866614201E+02  0.10481876624E+03  0.11087520038E+03  0.00000000000E+00 0. -1.
<mgrwt>
<rscale>  0 0.12045367E+03</rscale>
<asrwt>0</asrwt>
<pdfrwt beam="1">  1        1 0.52287153E-01 0.12742826E+03</pdfrwt>
<pdfrwt beam="2">  1       -1 0.60064511E-02 0.12742826E+03</pdfrwt>
<totfact> 0.94079256E+03</totfact>
</mgrwt>
</event>
<event>
 7    1  0.3191705E-005  0.1211842E+03  0.7546771E-02  0.1299698E+00
          1   -1    0    0  501    0  0.00000000000E+00  0.00000000000E+00  0.23678778105E+03  0.23678778105E+03  0.00000000000E+00 0. -1.
         -1   -1    0    0    0  501 -0.00000000000E+00 -0.00000000000E+00 -0.33318559934E+02  0.33318559934E+02  0.00000000000E+00 0.  1.
         23    2    1    2    0    0 -0.29742704639E+02  0.22985825716E+02  0.92477033274E+02  0.15243890541E+03  0.11520695090E+03 0.  0.
          5    1    3    3  502    0 -0.46524075508E+02 -0.71895447695E+01  0.10519523499E+03  0.11534429600E+03  0.47000000000E+01 0. -1.
         -5    1    3    3    0  502  0.16781370869E+02  0.30175370485E+02 -0.12718201716E+02  0.37094609407E+02  0.47000000000E+01 0.  1.
        -11    1    1    2    0    0  0.20385515478E+02 -0.12817882709E+02  0.55848354248E+02  0.60818632266E+02  0.00000000000E+00 0.  1.
         11    1    1    2    0    0  0.93571891617E+01 -0.10167943006E+02  0.55143833590E+02  0.56848803303E+02  0.00000000000E+00 0. -1.
<mgrwt>
<rscale>  0 0.91314910E+02</rscale>
<asrwt>0</asrwt>
<pdfrwt beam="1">  1        1 0.36428888E-01 0.12118423E+03</pdfrwt>
<pdfrwt beam="2">  1       -1 0.51259324E-02 0.12118423E+03</pdfrwt>
<totfact> 0.18507704E+04</totfact>
</mgrwt>
</event>
<event>
 8    1  0.1550723E-005  0.1198589E+03  0.7546771E-02  0.1257551E+00
         -2   -1    0    0    0  501 -0.00000000000E+00  0.00000000000E+00  0.49788061935E+02  0.49788061935E+02  0.00000000000E+00 0.  1.
          2   -1    0    0  501    0  0.00000000000E+00 -0.00000000000E+00 -0.33445104278E+03  0.33445104278E+03  0.00000000000E+00 0. -1.
         23    2    1    2    0    0  0.26447877569E+01 -0.13240523322E+02 -0.44787158970E+02  0.12795328553E+03  0.11909595841E+03 0.  0.
         23    2    1    2    0    0 -0.26447877569E+01  0.13240523322E+02 -0.23987582187E+03  0.25628581918E+03  0.89217177906E+02 0.  0.
          5    1    3    3  502    0 -0.20721831156E+02 -0.61106838676E+02 -0.13799136972E+02  0.66150934994E+02  0.47000000000E+01 0. -1.
         -5    1    3    3    0  502  0.23366618912E+02  0.47866315354E+02 -0.30988021998E+02  0.61802350540E+02  0.47000000000E+01 0.  1.
        -11    1    4    4    0    0 -0.40445265020E+02  0.28459207516E+02 -0.12824049267E+03  0.13744587995E+03  0.00000000000E+00 0.  1.
         11    1    4    4    0    0  0.37800477264E+02 -0.15218684194E+02 -0.11163532920E+03  0.11883993923E+03  0.00000000000E+00 0. -1.
<mgrwt>
<rscale>  0 0.11164625E+03</rscale>
<asrwt>0</asrwt>
<pdfrwt beam="2">  1        2 0.51454006E-01 0.11985889E+03</pdfrwt>
<pdfrwt beam="1">  1       -2 0.76597018E-02 0.11985889E+03</pdfrwt>
<totfact> 0.92404578E+03</totfact>
</mgrwt>
</event>
<event>
 7    1  0.1550723E-005  0.1394193E+03  0.7546771E-02  0.1229082E+00
         -1   -1    0    0    0  501 -0.00000000000E+00  0.00000000000E+00  0.50364010369E+03  0.50364010369E+03  0.00000000000E+00 0.  1.
          1   -1    0    0  501    0  0.00000000000E+00 -0.00000000000E+00 -0.29445221097E+02  0.29445221097E+02  0.00000000000E+00 0. -1.
         23    2    1    2    0    0  0.17850926237E+02 -0.44296868438E+02  0.16530589792E+03  0.19418984041E+03  0.90015477050E+02 0.  0.
          5    1    1    2  502    0  0.83455082955E+01 -0.17963089844E+02 -0.22437167625E+01  0.20480341070E+02  0.47000000000E+01 0. -1.
         -5    1    1    2    0  502 -0.26196434533E+02  0.62259958282E+02  0.31113270143E+03  0.31841514331E+03  0.47000000000E+01 0.  1.
        -11    1    3    3    0    0 -0.57724253732E+01 -0.54104020361E+02  0.43316471937E+02  0.69547700573E+02  0.00000000000E+00 0. -1.
         11    1    3    3    0    0  0.23623351611E+02  0.98071519236E+01  0.12198942599E+03  0.12464213983E+03  0.00000000000E+00 0.  1.
<mgrwt>
<rscale>  0 0.12890981E+03</rscale>
<asrwt>0</asrwt>
<pdfrwt beam="2">  1        1 0.45300344E-02 0.13941931E+03</pdfrwt>
<pdfrwt beam="1">  1       -1 0.77483087E-01 0.13941931E+03</pdfrwt>
<totfact> 0.32104140E+03</totfact>
</mgrwt>
</event>
<event>
 8    1  0.1550723E-005  0.1437183E+03  0.7546771E-02  0.1218878E+00
          1   -1    0    0  501    0  0.00000000000E+00  0.00000000000E+00  0.57891687423E+03  0.57891687423E+03  0.00000000000E+00 0. -1.
         -1   -1    0    0    0  501 -0.00000000000E+00 -0.00000000000E+00 -0.29196963500E+02  0.29196963500E+02  0.00000000000E+00 0.  1.
         23    2    1    2    0    0  0.59330688598E+02 -0.38857607713E+02  0.27585365074E+03  0.31104692300E+03  0.12499962959E+03 0.  0.
         23    2    1    2    0    0 -0.59330688598E+02  0.38857607713E+02  0.27386625999E+03  0.29706691473E+03  0.90642038688E+02 0.  0.
          5    1    3    3  502    0  0.27970196435E+02 -0.71267644956E+02  0.83339602218E+02  0.11326512439E+03  0.47000000000E+01 0.  1.
         -5    1    3    3    0  502  0.31360492163E+02  0.32410037243E+02  0.19251404852E+03  0.19778179861E+03  0.47000000000E+01 0.  1.
        -11    1    4    4    0    0 -0.23058753354E+01  0.37801081631E+02  0.20098376681E+03  0.20452069175E+03  0.00000000000E+00 0. -1.
         11    1    4    4    0    0 -0.57024813262E+02  0.10565260815E+01  0.72882493187E+02  0.92546222981E+02  0.00000000000E+00 0.  1.
<mgrwt>
<rscale>  0 0.13595487E+03</rscale>
<asrwt>0</asrwt>
<pdfrwt beam="1">  1        1 0.89064126E-01 0.14371831E+03</pdfrwt>
<pdfrwt beam="2">  1       -1 0.44918410E-02 0.14371831E+03</pdfrwt>
<totfact> 0.73610642E+03</totfact>
</mgrwt>
</event>
<event>
 8    1  0.1550723E-005  0.2124564E+03  0.7546771E-02  0.1143278E+00
         -2   -1    0    0    0  501 -0.00000000000E+00  0.00000000000E+00  0.14540224554E+03  0.14540224554E+03  0.00000000000E+00 0.  1.
          2   -1    0    0  501    0  0.00000000000E+00 -0.00000000000E+00 -0.31203127461E+03  0.31203127461E+03  0.00000000000E+00 0. -1.
         23    2    1    2    0    0 -0.73492122675E+02  0.15527994095E+03 -0.19301599307E+02  0.21333137986E+03  0.12499909496E+03 0.  0.
         23    2    1    2    0    0  0.73492122675E+02 -0.15527994095E+03 -0.14732742976E+03  0.24410214029E+03  0.91474210448E+02 0.  0.
          5    1    3    3  502    0 -0.78194385942E+02  0.25448892580E+02 -0.10506686271E+02  0.83033057169E+02  0.47000000000E+01 0.  1.
         -5    1    3    3    0  502  0.47022632673E+01  0.12983104837E+03 -0.87949130365E+01  0.13029832269E+03  0.47000000000E+01 0.  1.
        -11    1    4    4    0    0  0.12713550794E+02 -0.19662118863E+02  0.11926110946E+02  0.26276708589E+02  0.00000000000E+00 0.  1.
         11    1    4    4    0    0  0.60778571881E+02 -0.13561782208E+03 -0.15925354071E+03  0.21782543170E+03  0.00000000000E+00 0. -1.
<mgrwt>
<rscale>  0 0.20785205E+03</rscale>
<asrwt>0</asrwt>
<pdfrwt beam="2">  1        2 0.48004811E-01 0.21245641E+03</pdfrwt>
<pdfrwt beam="1">  1       -2 0.22369576E-01 0.21245641E+03</pdfrwt>
<totfact> 0.17982222E+03</totfact>
</mgrwt>
</event>
<event>
 8    1  0.1550723E-005  0.1482853E+03  0.7546771E-02  0.1212876E+00
          2   -1    0    0  501    0  0.00000000000E+00  0.00000000000E+00  0.26241641450E+02  0.26241641450E+02  0.00000000000E+00 0.  1.
         -2   -1    0    0    0  501 -0.00000000000E+00 -0.00000000000E+00 -0.69313757445E+03  0.69313757445E+03  0.00000000000E+00 0. -1.
         23    2    1    2    0    0  0.72914155770E+02 -0.32341233757E+02 -0.32089606076E+03  0.35350080609E+03  0.12500443423E+03 0.  0.
         23    2    1    2    0    0 -0.72914155770E+02  0.32341233757E+02 -0.34599987224E+03  0.36587840982E+03  0.88253439977E+02 0.  0.
          5    1    3    3  502    0  0.83536371363E+02 -0.63737667968E+02 -0.28783690838E+03  0.30645226624E+03  0.47000000000E+01 0. -1.
         -5    1    3    3    0  502 -0.10622215593E+02  0.31396434211E+02 -0.33059152380E+02  0.47048539843E+02  0.47000000000E+01 0. -1.
        -11    1    4    4    0    0 -0.49212027988E+02  0.61567480966E+02 -0.26670939741E+03  0.27811199376E+03  0.00000000000E+00 0. -1.
         11    1    4    4    0    0 -0.23702127782E+02 -0.29226247209E+02 -0.79290474836E+02  0.87766416054E+02  0.00000000000E+00 0.  1.
<mgrwt>
<rscale>  0 0.14033707E+03</rscale>
<asrwt>0</asrwt>
<pdfrwt beam="1">  1        2 0.40371756E-02 0.14828533E+03</pdfrwt>
<pdfrwt beam="2">  1       -2 0.10663655E+00 0.14828533E+03</pdfrwt>
<totfact> 0.14951977E+03</totfact>
</mgrwt>
</event>
<event>
 8    1  0.1550723E-005  0.1784494E+03  0.7546771E-02  0.1175106E+00
          2   -1    0    0  501    0  0.00000000000E+00  0.00000000000E+00  0.69361274673E+03  0.69361274673E+03  0.00000000000E+00 0. -1.
         -2   -1    0    0    0  501 -0.00000000000E+00 -0.00000000000E+00 -0.44134774771E+02  0.44134774771E+02  0.00000000000E+00 0.  1.
         23    2    1    2    0    0  0.12502444311E+03  0.24254755471E+02  0.23736718869E+03  0.29696356800E+03  0.12499909566E+03 0.  0.
         23    2    1    2    0    0 -0.12502444311E+03 -0.24254755471E+02  0.41211078327E+03  0.44078395350E+03  0.90751261359E+02 0.  0.
          5    1    3    3  502    0  0.14145789994E+03  0.80887086979E+01  0.14961686771E+03  0.20611419594E+03  0.47000000000E+01 0. -1.
         -5    1    3    3    0  502 -0.16433456833E+02  0.16166046773E+02  0.87750320983E+02  0.90849372064E+02  0.47000000000E+01 0. -1.
        -11    1    4    4    0    0 -0.14051883121E+02  0.29161340371E+02  0.68373167097E+02  0.75648722199E+02  0.00000000000E+00 0.  1.
         11    1    4    4    0    0 -0.11097255999E+03 -0.53416095841E+02  0.34373761617E+03  0.36513523130E+03  0.00000000000E+00 0. -1.
<mgrwt>
<rscale>  0 0.17265639E+03</rscale>
<asrwt>0</asrwt>
<pdfrwt beam="1">  1        2 0.10670965E+00 0.17844937E+03</pdfrwt>
<pdfrwt beam="2">  1       -2 0.67899658E-02 0.17844937E+03</pdfrwt>
<totfact> 0.50829235E+03</totfact>
</mgrwt>
</event>
<event>
 7    1  0.1550723E-005  0.3243111E+03  0.7546771E-02  0.1073682E+00
         -1   -1    0    0    0  501 -0.00000000000E+00  0.00000000000E+00  0.74543567280E+02  0.74543567280E+02  0.00000000000E+00 0.  1.
          1   -1    0    0  501    0  0.00000000000E+00 -0.00000000000E+00 -0.35273895230E+03  0.35273895230E+03  0.00000000000E+00 0. -1.
         23    2    1    2    0    0 -0.65596228489E+02 -0.14243607288E+02 -0.22025040050E+03  0.24761970356E+03  0.91101773474E+02 0.  0.
          5    1    1    2  502    0 -0.42611120632E+02 -0.73615519511E+01 -0.53742975662E+02  0.69139695412E+02  0.47000000000E+01 0. -1.
         -5    1    1    2    0  502  0.10820734912E+03  0.21605159239E+02 -0.42020088527E+01  0.11052312060E+03  0.47000000000E+01 0.  1.
        -11    1    3    3    0    0 -0.41821000742E+02 -0.40847700366E+02 -0.19586463265E+03  0.20440275207E+03  0.00000000000E+00 0. -1.
         11    1    3    3    0    0 -0.23775227748E+02  0.26604093078E+02 -0.24385767851E+02  0.43216951496E+02  0.00000000000E+00 0.  1.
<mgrwt>
<rscale>  0 0.32431108E+03</rscale>
<asrwt>0</asrwt>
<pdfrwt beam="2">  1        1 0.54267531E-01 0.32431108E+03</pdfrwt>
<pdfrwt beam="1">  1       -1 0.11468241E-01 0.32431108E+03</pdfrwt>
<totfact> 0.35083164E+03</totfact>
</mgrwt>
</event>
<event>
 7    1  0.1550723E-005  0.1993306E+03  0.7546771E-02  0.1168008E+00
          1   -1    0    0  501    0  0.00000000000E+00  0.00000000000E+00  0.14580302010E+03  0.14580302010E+03  0.00000000000E+00 0. -1.
         -1   -1    0    0    0  501 -0.00000000000E+00 -0.00000000000E+00 -0.26535687658E+03  0.26535687658E+03  0.00000000000E+00 0.  1.
         23    2    1    2    0    0 -0.59557952089E+02 -0.74182556976E+02  0.58099865019E+02  0.14415143402E+03  0.91399344629E+02 0.  0.
          5    1    1    2  502    0  0.98068965648E+02 -0.17064341673E+02 -0.79368142153E+02  0.12739743235E+03  0.47000000000E+01 0. -1.
         -5    1    1    2    0  502 -0.38511013559E+02  0.91246898649E+02 -0.98285579345E+02  0.13961103031E+03  0.47000000000E+01 0.  1.
        -11    1    3    3    0    0 -0.12661181470E+02 -0.55823243781E+02  0.71928253604E+02  0.91925044079E+02  0.00000000000E+00 0. -1.
         11    1    3    3    0    0 -0.46896770619E+02 -0.18359313195E+02 -0.13828388585E+02  0.52226389942E+02  0.00000000000E+00 0.  1.
<mgrwt>
<rscale>  0 0.17978841E+03</rscale>
<asrwt>0</asrwt>
<pdfrwt beam="1">  1        1 0.22431234E-01 0.19933057E+03</pdfrwt>
<pdfrwt beam="2">  1       -1 0.40824134E-01 0.19933057E+03</pdfrwt>
<totfact> 0.13009510E+03</totfact>
</mgrwt>
</event>
<event>
 8    1  0.1550723E-005  0.1436127E+03  0.7546771E-02  0.1218084E+00
          1   -1    0    0  501    0  0.00000000000E+00  0.00000000000E+00  0.15485613072E+03  0.15485613072E+03  0.00000000000E+00 0.  1.
         -1   -1    0    0    0  501 -0.00000000000E+00 -0.00000000000E+00 -0.10993947150E+03  0.10993947150E+03  0.00000000000E+00 0. -1.
         23    2    1    2    0    0 -0.68957337583E+02 -0.15650764475E+02  0.27453922388E+02  0.14621326351E+03  0.12499815893E+03 0.  0.
         23    2    1    2    0    0  0.68957337583E+02  0.15650764475E+02  0.17462736833E+02  0.11858233872E+03  0.93577577673E+02 0.  0.
          5    1    3    3  502    0 -0.78265137272E+01 -0.64007914460E+02  0.44485483866E+01  0.64808541207E+02  0.47000000000E+01 0. -1.
         -5    1    3    3    0  502 -0.61130823856E+02  0.48357149985E+02  0.23005374001E+02  0.81404722301E+02  0.47000000000E+01 0. -1.
        -11    1    4    4    0    0  0.54351274757E+02 -0.34232686207E+02  0.16583582364E+01  0.64254867712E+02  0.00000000000E+00 0.  1.
         11    1    4    4    0    0  0.14606062826E+02  0.49883450682E+02  0.15804378597E+02  0.54327471007E+02  0.00000000000E+00 0. -1.
<mgrwt>
<rscale>  0 0.13652411E+03</rscale>
<asrwt>0</asrwt>
<pdfrwt beam="1">  1        1 0.23824020E-01 0.14361268E+03</pdfrwt>
<pdfrwt beam="2">  1       -1 0.16913765E-01 0.14361268E+03</pdfrwt>
<totfact> 0.51672623E+03</totfact>
</mgrwt>
</event>
<event>
 7    1  0.1550723E-005  0.4746818E+03  0.7546771E-02  0.1020607E+00
         -3   -1    0    0    0  501 -0.00000000000E+00  0.00000000000E+00  0.31858894499E+02  0.31858894499E+02  0.00000000000E+00 0.  1.
          3   -1    0    0  501    0  0.00000000000E+00 -0.00000000000E+00 -0.17681309726E+04  0.17681309726E+04  0.00000000000E+00 0. -1.
         23    2    1    2    0    0  0.10235490875E+03  0.12550118424E+03 -0.89764510531E+03  0.91689880257E+03  0.93325261644E+02 0.  0.
          5    1    1    2  502    0 -0.16643035155E+03 -0.12312973488E+03 -0.55778594508E+03  0.59498507885E+03  0.47000000000E+01 0. -1.
         -5    1    1    2    0  502  0.64075442794E+02 -0.23714493567E+01 -0.28084102776E+03  0.28810598573E+03  0.47000000000E+01 0.  1.
        -11    1    3    3    0    0  0.50708419349E+02  0.38745084250E+00 -0.20757432128E+03  0.21367871389E+03  0.00000000000E+00 0. -1.
         11    1    3    3    0    0  0.51646489405E+02  0.12511373340E+03 -0.69007078403E+03  0.70322008868E+03  0.00000000000E+00 0.  1.
<mgrwt>
<rscale>  0 0.47468178E+03</rscale>
<asrwt>0</asrwt>
<pdfrwt beam="2">  1        3 0.27202033E+00 0.47468178E+03</pdfrwt>
<pdfrwt beam="1">  1       -3 0.49013652E-02 0.47468178E+03</pdfrwt>
<totfact> 0.37531368E+01</totfact>
</mgrwt>
</event>
<event>
 8    1  0.1550723E-005  0.1488271E+03  0.7546771E-02  0.1210786E+00
         -1   -1    0    0    0  501 -0.00000000000E+00  0.00000000000E+00  0.59100281893E+02  0.59100281893E+02  0.00000000000E+00 0.  1.
          1   -1    0    0  501    0  0.00000000000E+00 -0.00000000000E+00 -0.33307429414E+03  0.33307429414E+03  0.00000000000E+00 0. -1.
         23    2    1    2    0    0 -0.41573310881E+02 -0.69199312657E+02 -0.10078733889E+03  0.17974315965E+03  0.12503051911E+03 0.  0.
         23    2    1    2    0    0  0.41573310881E+02  0.69199312657E+02 -0.17318667336E+03  0.21243141639E+03  0.92825631104E+02 0.  0.
          5    1    3    3  502    0  0.14430601208E+02 -0.14619736387E+02 -0.99170340126E+02  0.10138454174E+03  0.47000000000E+01 0. -1.
         -5    1    3    3    0  502 -0.56003912088E+02 -0.54579576270E+02 -0.16169987627E+01  0.78358617905E+02  0.47000000000E+01 0. -1.
        -11    1    4    4    0    0  0.11304606592E+02  0.52600948853E+02 -0.23316988988E+02  0.58637325364E+02  0.00000000000E+00 0.  1.
         11    1    4    4    0    0  0.30268704289E+02  0.16598363804E+02 -0.14986968437E+03  0.15379409103E+03  0.00000000000E+00 0. -1.
<mgrwt>
<rscale>  0 0.14190704E+03</rscale>
<asrwt>0</asrwt>
<pdfrwt beam="2">  1        1 0.51242199E-01 0.14882713E+03</pdfrwt>
<pdfrwt beam="1">  1       -1 0.90923511E-02 0.14882713E+03</pdfrwt>
<totfact> 0.52238892E+03</totfact>
</mgrwt>
</event>
<event>
 8    1  0.1550723E-005  0.1585745E+03  0.7546771E-02  0.1198201E+00
         -2   -1    0    0    0  501 -0.00000000000E+00  0.00000000000E+00  0.22784221779E+03  0.22784221779E+03  0.00000000000E+00 0. -1.
          2   -1    0    0  501    0  0.00000000000E+00 -0.00000000000E+00 -0.93717202333E+02  0.93717202333E+02  0.00000000000E+00 0.  1.
         23    2    1    2    0    0 -0.97380242874E+02 -0.61915128024E+01  0.65724010815E+02  0.17165526503E+03  0.12499855152E+03 0.  0.
         23    2    1    2    0    0  0.97380242874E+02  0.61915128024E+01  0.68401004645E+02  0.14990415510E+03  0.90946752255E+02 0.  0.
          5    1    3    3  502    0 -0.30463592891E+01 -0.32636227070E+02 -0.22253801686E+02  0.39896432318E+02  0.47000000000E+01 0.  1.
         -5    1    3    3    0  502 -0.94333883585E+02  0.26444714267E+02  0.87977812501E+02  0.13175883271E+03  0.47000000000E+01 0.  1.
        -11    1    4    4    0    0  0.46169796173E+02 -0.39993460910E+02  0.15579891251E+02  0.63038559673E+02  0.00000000000E+00 0.  1.
         11    1    4    4    0    0  0.51210446701E+02  0.46184973712E+02  0.52821113394E+02  0.86865595424E+02  0.00000000000E+00 0. -1.
<mgrwt>
<rscale>  0 0.15186402E+03</rscale>
<asrwt>0</asrwt>
<pdfrwt beam="2">  1        2 0.14418031E-01 0.15857454E+03</pdfrwt>
<pdfrwt beam="1">  1       -2 0.35052649E-01 0.15857454E+03</pdfrwt>
<totfact> 0.30364367E+03</totfact>
</mgrwt>
</event>
<event>
 8    1  0.1550723E-005  0.1332324E+03  0.7546771E-02  0.1235873E+00
          1   -1    0    0  501    0  0.00000000000E+00  0.00000000000E+00  0.45854452526E+03  0.45854452526E+03  0.00000000000E+00 0. -1.
         -1   -1    0    0    0  501 -0.00000000000E+00 -0.00000000000E+00 -0.30266425909E+02  0.30266425909E+02  0.00000000000E+00 0.  1.
         23    2    1    2    0    0  0.14013006167E+01 -0.46063008230E+02  0.22246532637E+03  0.25931003364E+03  0.12500843068E+03 0.  0.
         23    2    1    2    0    0 -0.14013006167E+01  0.46063008230E+02  0.20581277298E+03  0.22950091752E+03  0.90487619331E+02 0.  0.
          5    1    3    3  502    0 -0.54889546380E+02  0.72424847074E+01  0.93153080018E+02  0.10846613390E+03  0.47000000000E+01 0.  1.
         -5    1    3    3    0  502  0.56290846997E+02 -0.53305492937E+02  0.12931224635E+03  0.15084389974E+03  0.47000000000E+01 0.  1.
        -11    1    4    4    0    0  0.39772889381E+02  0.11917947279E+00  0.76267297231E+02  0.86015100770E+02  0.00000000000E+00 0.  1.
         11    1    4    4    0    0 -0.41174189998E+02  0.45943828757E+02  0.12954547575E+03  0.14348581675E+03  0.00000000000E+00 0. -1.
<mgrwt>
<rscale>  0 0.12448702E+03</rscale>
<asrwt>0</asrwt>
<pdfrwt beam="1">  1        1 0.70545307E-01 0.13323240E+03</pdfrwt>
<pdfrwt beam="2">  1       -1 0.46563736E-02 0.13323240E+03</pdfrwt>
<totfact> 0.94373370E+03</totfact>
</mgrwt>
</event>
<event>
 8    1  0.1550723E-005  0.1307686E+03  0.7546771E-02  0.1240162E+00
          1   -1    0    0  501    0  0.00000000000E+00  0.00000000000E+00  0.25512239234E+03  0.25512239234E+03  0.00000000000E+00 0. -1.
         -1   -1    0    0    0  501 -0.00000000000E+00 -0.00000000000E+00 -0.51529772484E+02  0.51529772484E+02  0.00000000000E+00 0.  1.
         23    2    1    2    0    0 -0.24319544515E+02 -0.29738888882E+02  0.11087879427E+03  0.17144831666E+03  0.12499830603E+03 0.  0.
         23    2    1    2    0    0  0.24319544515E+02  0.29738888882E+02  0.92713825583E+02  0.13520384816E+03  0.90600139877E+02 0.  0.
          5    1    3    3  502    0 -0.22718205821E+02 -0.78426696154E+02  0.71467803683E+02  0.10861215636E+03  0.47000000000E+01 0. -1.
         -5    1    3    3    0  502 -0.16013386933E+01  0.48687807272E+02  0.39410990586E+02  0.62836160303E+02  0.47000000000E+01 0. -1.
        -11    1    4    4    0    0 -0.44538179717E+01  0.15862375276E+02 -0.15349399061E+02  0.22517892784E+02  0.00000000000E+00 0.  1.
         11    1    4    4    0    0  0.28773362486E+02  0.13876513606E+02  0.10806322464E+03  0.11268595538E+03  0.00000000000E+00 0. -1.
<mgrwt>
<rscale>  0 0.12179673E+03</rscale>
<asrwt>0</asrwt>
<pdfrwt beam="1">  1        1 0.39249598E-01 0.13076857E+03</pdfrwt>
<pdfrwt beam="2">  1       -1 0.79276575E-02 0.13076857E+03</pdfrwt>
<totfact> 0.88704272E+03</totfact>
</mgrwt>
</event>
<event>
 8    1  0.1550723E-005  0.1758979E+03  0.7546771E-02  0.1178783E+00
          2   -1    0    0  501    0  0.00000000000E+00  0.00000000000E+00  0.26328657253E+03  0.26328657253E+03  0.00000000000E+00 0. -1.
         -2   -1    0    0    0  501 -0.00000000000E+00 -0.00000000000E+00 -0.17423774600E+03  0.17423774600E+03  0.00000000000E+00 0.  1.
         23    2    1    2    0    0  0.12357684724E+03 -0.65841311152E+01 -0.95010166414E+02  0.19991751115E+03  0.12500196634E+03 0.  0.
         23    2    1    2    0    0 -0.12357684724E+03  0.65841311152E+01  0.18405899294E+03  0.23760680738E+03  0.85233174718E+02 0.  0.
          5    1    3    3  502    0  0.11356510523E+03 -0.54942119390E+02 -0.66130309225E+02  0.14251658643E+03  0.47000000000E+01 0. -1.
         -5    1    3    3    0  502  0.10011742008E+02  0.48357988275E+02 -0.28879857189E+02  0.57400924725E+02  0.47000000000E+01 0. -1.
        -11    1    4    4    0    0 -0.48150753885E+02  0.36374258042E+02  0.11979203180E+03  0.13413318989E+03  0.00000000000E+00 0.  1.
         11    1    4    4    0    0 -0.75426093356E+02 -0.29790126927E+02  0.64266961148E+02  0.10347361749E+03  0.00000000000E+00 0. -1.
<mgrwt>
<rscale>  0 0.16910611E+03</rscale>
<asrwt>0</asrwt>
<pdfrwt beam="1">  1        2 0.40505627E-01 0.17589792E+03</pdfrwt>
<pdfrwt beam="2">  1       -2 0.26805807E-01 0.17589792E+03</pdfrwt>
<totfact> 0.15627487E+03</totfact>
</mgrwt>
</event>
<event>
 7    1  0.1550723E-005  0.1431969E+03  0.7546771E-02  0.1210395E+00
          1   -1    0    0  501    0  0.00000000000E+00  0.00000000000E+00  0.24480405498E+03  0.24480405498E+03  0.00000000000E+00 0. -1.
         -1   -1    0    0    0  501 -0.00000000000E+00 -0.00000000000E+00 -0.81582382477E+02  0.81582382477E+02  0.00000000000E+00 0.  1.
         23    2    1    2    0    0 -0.35373869656E+02 -0.51500278474E+02  0.74610440003E+02  0.15799013548E+03  0.12446114179E+03 0.  0.
          5    1    1    2  502    0  0.14165999969E+02 -0.30600754904E+02  0.75026953338E+02  0.82390627398E+02  0.47000000000E+01 0. -1.
         -5    1    1    2    0  502  0.21207869686E+02  0.82101033378E+02  0.13584279157E+02  0.86005674573E+02  0.47000000000E+01 0.  1.
        -11    1    3    3    0    0 -0.37595983105E+02  0.34908774733E+02  0.39264997396E+02  0.64605112178E+02  0.00000000000E+00 0.  1.
         11    1    3    3    0    0  0.22221134488E+01 -0.86409053207E+02  0.35345442607E+02  0.93385023304E+02  0.00000000000E+00 0. -1.
<mgrwt>
<rscale>  0 0.14220314E+03</rscale>
<asrwt>0</asrwt>
<pdfrwt beam="1">  1        1 0.37662162E-01 0.14319694E+03</pdfrwt>
<pdfrwt beam="2">  1       -1 0.12551136E-01 0.14319694E+03</pdfrwt>
<totfact> 0.46559942E+03</totfact>
</mgrwt>
</event>
<event>
 7    1  0.1550723E-005  0.2863260E+03  0.7546771E-02  0.1131267E+00
         -1   -1    0    0    0  501 -0.00000000000E+00  0.00000000000E+00  0.17214934027E+04  0.17214934027E+04  0.00000000000E+00 0.  1.
          1   -1    0    0  501    0  0.00000000000E+00 -0.00000000000E+00 -0.31686317455E+02  0.31686317455E+02  0.00000000000E+00 0. -1.
         23    2    1    2    0    0  0.29357128217E+02  0.47410940907E+02  0.13326384288E+03  0.17052073692E+03  0.90600395180E+02 0.  0.
          5    1    1    2  502    0 -0.86915815243E+02  0.64594420422E+02  0.28549214655E+03  0.30537624962E+03  0.47000000000E+01 0. -1.
         -5    1    1    2    0  502  0.57558687026E+02 -0.11200536133E+03  0.12710510958E+04  0.12772827336E+04  0.47000000000E+01 0.  1.
        -11    1    3    3    0    0  0.94609953387E+01  0.85950210568E+01 -0.12796352710E+02  0.18086775900E+02  0.00000000000E+00 0.  1.
         11    1    3    3    0    0  0.19896132879E+02  0.38815919850E+02  0.14606019559E+03  0.15243396102E+03  0.00000000000E+00 0. -1.
<mgrwt>
<rscale>  0 0.22354613E+03</rscale>
<asrwt>0</asrwt>
<pdfrwt beam="2">  1        1 0.48748194E-02 0.28632602E+03</pdfrwt>
<pdfrwt beam="1">  1       -1 0.26484507E+00 0.28632602E+03</pdfrwt>
<totfact> 0.11019310E+02</totfact>
</mgrwt>
</event>
<event>
 6    1  0.1550723E-005  0.1389816E+03  0.7546771E-02  0.1270395E+00
         -2   -1    0    0    0  501 -0.00000000000E+00  0.00000000000E+00  0.11056690654E+03  0.11056690654E+03  0.00000000000E+00 0.  1.
          2   -1    0    0  501    0  0.00000000000E+00 -0.00000000000E+00 -0.76610272511E+02  0.76610272511E+02  0.00000000000E+00 0. -1.
          5    1    1    2  502    0  0.14928311528E+02  0.42069541344E+02 -0.44847243951E+02  0.63451289064E+02  0.47000000000E+01 0. -1.
         -5    1    1    2    0  502  0.86766103388E+01 -0.27929108962E+02  0.72413642412E+02  0.78237742182E+02  0.47000000000E+01 0.  1.
        -11    1    1    2    0    0 -0.77722517265E+00 -0.21102971345E+02  0.18901457328E+01  0.21201701098E+02  0.00000000000E+00 0. -1.
         11    1    1    2    0    0 -0.22827696694E+02  0.69625389632E+01  0.45000898353E+01  0.24286446708E+02  0.00000000000E+00 0.  1.
<mgrwt>
<rscale>  0 0.10486013E+03</rscale>
<asrwt>0</asrwt>
<pdfrwt beam="2">  1        2 0.11786196E-01 0.13898156E+03</pdfrwt>
<pdfrwt beam="1">  1       -2 0.17010293E-01 0.13898156E+03</pdfrwt>
<totfact> 0.13537488E+04</totfact>
</mgrwt>
</event>
<event>
 8    1  0.1550723E-005  0.1660297E+03  0.7546771E-02  0.1188837E+00
          2   -1    0    0  501    0  0.00000000000E+00  0.00000000000E+00  0.87233837620E+03  0.87233837620E+03  0.00000000000E+00 0. -1.
         -2   -1    0    0    0  501 -0.00000000000E+00 -0.00000000000E+00 -0.28440698625E+02  0.28440698625E+02  0.00000000000E+00 0.  1.
         23    2    1    2    0    0  0.86158049486E+02  0.67217621002E+02  0.36352695142E+03  0.39964698321E+03  0.12499779484E+03 0.  0.
         23    2    1    2    0    0 -0.86158049486E+02 -0.67217621002E+02  0.48037072615E+03  0.50113209162E+03  0.91847267988E+02 0.  0.
          5    1    3    3  502    0  0.78161261446E+02 -0.17159493628E+02  0.19833245347E+03  0.21391933786E+03  0.47000000000E+01 0.  1.
         -5    1    3    3    0  502  0.79967880393E+01  0.84377114630E+02  0.16519449795E+03  0.18572764535E+03  0.47000000000E+01 0.  1.
        -11    1    4    4    0    0 -0.61720840354E+02 -0.93616118310E+01  0.11936380196E+03  0.13470270646E+03  0.00000000000E+00 0.  1.
         11    1    4    4    0    0 -0.24437209132E+02 -0.57856009171E+02  0.36100692419E+03  0.36642938515E+03  0.00000000000E+00 0. -1.
<mgrwt>
<rscale>  0 0.15987583E+03</rscale>
<asrwt>0</asrwt>
<pdfrwt beam="1">  1        2 0.13420588E+00 0.16602972E+03</pdfrwt>
<pdfrwt beam="2">  1       -2 0.43754928E-02 0.16602972E+03</pdfrwt>
<totfact> 0.74205044E+03</totfact>
</mgrwt>
</event>
<event>
 8    1  0.1550723E-005  0.1778959E+03  0.7546771E-02  0.1175723E+00
          2   -1    0    0  501    0  0.00000000000E+00  0.00000000000E+00  0.20080365296E+03  0.20080365296E+03  0.00000000000E+00 0. -1.
         -2   -1    0    0    0  501 -0.00000000000E+00 -0.00000000000E+00 -0.13936911734E+03  0.13936911734E+03  0.00000000000E+00 0.  1.
         23    2    1    2    0    0  0.67431466542E+02 -0.10712017737E+03  0.46061140580E+02  0.18376229602E+03  0.12500087074E+03 0.  0.
         23    2    1    2    0    0 -0.67431466542E+02  0.10712017737E+03  0.15373395033E+02  0.15641047428E+03  0.90587858521E+02 0.  0.
          5    1    3    3  502    0 -0.31918307447E+02 -0.15786608672E+01  0.14182499358E+02  0.35277525543E+02  0.47000000000E+01 0.  1.
         -5    1    3    3    0  502  0.99349773989E+02 -0.10554151650E+03  0.31878641223E+02  0.14848477047E+03  0.47000000000E+01 0.  1.
        -11    1    4    4    0    0  0.16179834238E+02 -0.16726631415E+01 -0.64062505676E+01  0.17482130428E+02  0.00000000000E+00 0.  1.
         11    1    4    4    0    0 -0.83611300780E+02  0.10879284051E+03  0.21779645600E+02  0.13892834385E+03  0.00000000000E+00 0. -1.
<mgrwt>
<rscale>  0 0.17205366E+03</rscale>
<asrwt>0</asrwt>
<pdfrwt beam="1">  1        2 0.30892870E-01 0.17789590E+03</pdfrwt>
<pdfrwt beam="2">  1       -2 0.21441403E-01 0.17789590E+03</pdfrwt>
<totfact> 0.30929914E+03</totfact>
</mgrwt>
</event>
<event>
 8    1  0.1550723E-005  0.1214491E+03  0.7546771E-02  0.1255558E+00
          3   -1    0    0  501    0  0.00000000000E+00  0.00000000000E+00  0.18809406523E+03  0.18809406523E+03  0.00000000000E+00 0. -1.
         -3   -1    0    0    0  501 -0.00000000000E+00 -0.00000000000E+00 -0.30671378040E+03  0.30671378040E+03  0.00000000000E+00 0.  1.
         23    2    1    2    0    0 -0.25350235511E+02  0.15529855230E+02 -0.28263052555E+03  0.30761974266E+03  0.11775432585E+03 0.  0.
         23    2    1    2    0    0  0.25350235511E+02 -0.15529855230E+02  0.16401081038E+03  0.18718810297E+03  0.85182328721E+02 0.  0.
          5    1    3    3  502    0  0.27353514810E+02  0.48094361422E+02 -0.95802504124E+02  0.11073162226E+03  0.47000000000E+01 0. -1.
         -5    1    3    3    0  502 -0.52703750321E+02 -0.32564506192E+02 -0.18682802143E+03  0.19688812039E+03  0.47000000000E+01 0.  1.
        -11    1    4    4    0    0  0.48297911816E+02 -0.12386016175E+02  0.15415188937E+03  0.16201514336E+03  0.00000000000E+00 0. -1.
         11    1    4    4    0    0 -0.22947676305E+02 -0.31438390559E+01  0.98589210151E+01  0.25172959607E+02  0.00000000000E+00 0.  1.
<mgrwt>
<rscale>  0 0.11275162E+03</rscale>
<asrwt>0</asrwt>
<pdfrwt beam="1">  1        3 0.28937549E-01 0.12144913E+03</pdfrwt>
<pdfrwt beam="2">  1       -3 0.47186735E-01 0.12144913E+03</pdfrwt>
<totfact> 0.11940035E+02</totfact>
</mgrwt>
</event>
<event>
 8    1  0.1550723E-005  0.2619101E+03  0.7546771E-02  0.1108308E+00
         -2   -1    0    0    0  501 -0.00000000000E+00  0.00000000000E+00  0.58940522662E+02  0.58940522662E+02  0.00000000000E+00 0.  1.
          2   -1    0    0  501    0  0.00000000000E+00 -0.00000000000E+00 -0.16058513856E+04  0.16058513856E+04  0.00000000000E+00 0. -1.
         23    2    1    2    0    0 -0.40909897781E+02  0.22648256975E+03 -0.32111492922E+03  0.41438111798E+03  0.12501575512E+03 0.  0.
         23    2    1    2    0    0  0.40909897781E+02 -0.22648256975E+03 -0.12257959337E+04  0.12504107903E+04  0.89350429249E+02 0.  0.
          5    1    3    3  502    0 -0.96773319465E+01  0.18787091112E+03 -0.31097242448E+03  0.36347636620E+03  0.47000000000E+01 0. -1.
         -5    1    3    3    0  502 -0.31232565834E+02  0.38611658634E+02 -0.10142504740E+02  0.50904751777E+02  0.47000000000E+01 0. -1.
        -11    1    4    4    0    0 -0.89574562087E+00 -0.17239680331E+03 -0.99028503523E+03  0.10051795418E+04  0.00000000000E+00 0. -1.
         11    1    4    4    0    0  0.41805643402E+02 -0.54085766445E+02 -0.23551089846E+03  0.24523124851E+03  0.00000000000E+00 0.  1.
<mgrwt>
<rscale>  0 0.25806983E+03</rscale>
<asrwt>0</asrwt>
<pdfrwt beam="2">  1        2 0.24705404E+00 0.26191012E+03</pdfrwt>
<pdfrwt beam="1">  1       -2 0.90677733E-02 0.26191012E+03</pdfrwt>
<totfact> 0.93156987E+02</totfact>
</mgrwt>
</event>
<event>
 8    1  0.1550723E-005  0.2012343E+03  0.7546771E-02  0.1152864E+00
         -1   -1    0    0    0  501 -0.00000000000E+00  0.00000000000E+00  0.15502489053E+03  0.15502489053E+03  0.00000000000E+00 0.  1.
          1   -1    0    0  501    0  0.00000000000E+00 -0.00000000000E+00 -0.25548986582E+03  0.25548986582E+03  0.00000000000E+00 0. -1.
         23    2    1    2    0    0  0.14023831419E+03 -0.72344677625E+02  0.21872927237E+01  0.20124615273E+03  0.12487871152E+03 0.  0.
         23    2    1    2    0    0 -0.14023831419E+03  0.72344677625E+02 -0.10265226801E+03  0.20926860361E+03  0.91407456926E+02 0.  0.
          5    1    3    3  502    0  0.62640507352E+02 -0.20530848554E+02  0.61752764910E+02  0.90448012016E+02  0.47000000000E+01 0.  1.
         -5    1    3    3    0  502  0.77597806843E+02 -0.51813829071E+02 -0.59565472186E+02  0.11079814072E+03  0.47000000000E+01 0.  1.
        -11    1    4    4    0    0 -0.14288362106E+03  0.84386147761E+02 -0.81713375707E+02  0.18496979989E+03  0.00000000000E+00 0.  1.
         11    1    4    4    0    0  0.26453068693E+01 -0.12041470136E+02 -0.20938892302E+02  0.24298803722E+02  0.00000000000E+00 0. -1.
<mgrwt>
<rscale>  0 0.19634054E+03</rscale>
<asrwt>0</asrwt>
<pdfrwt beam="2">  1        1 0.39306133E-01 0.20123427E+03</pdfrwt>
<pdfrwt beam="1">  1       -1 0.23849983E-01 0.20123427E+03</pdfrwt>
<totfact> 0.16062199E+03</totfact>
</mgrwt>
</event>
<event>
 8    1  0.1550723E-005  0.1478825E+03  0.7546771E-02  0.1214151E+00
         -1   -1    0    0    0  501 -0.00000000000E+00  0.00000000000E+00  0.36121842933E+02  0.36121842933E+02  0.00000000000E+00 0.  1.
          1   -1    0    0  501    0  0.00000000000E+00 -0.00000000000E+00 -0.49122996374E+03  0.49122996374E+03  0.00000000000E+00 0. -1.
         23    2    1    2    0    0 -0.29091621160E+02  0.73229989259E+02 -0.22358579263E+03  0.26806684703E+03  0.12514101669E+03 0.  0.
         23    2    1    2    0    0  0.29091621160E+02 -0.73229989259E+02 -0.23152232817E+03  0.25928495964E+03  0.86122866342E+02 0.  0.
          5    1    3    3  502    0 -0.57967327147E+02  0.41633673887E+00 -0.14840236928E+03  0.15939177382E+03  0.47000000000E+01 0.  1.
         -5    1    3    3    0  502  0.28875705987E+02  0.72813652520E+02 -0.75183423349E+02  0.10867507320E+03  0.47000000000E+01 0.  1.
        -11    1    4    4    0    0 -0.47094728290E+00 -0.83503492825E+02 -0.14568556801E+03  0.16792063551E+03  0.00000000000E+00 0.  1.
         11    1    4    4    0    0  0.29562568443E+02  0.10273503566E+02 -0.85836760165E+02  0.91364324132E+02  0.00000000000E+00 0. -1.
<mgrwt>
<rscale>  0 0.13939076E+03</rscale>
<asrwt>0</asrwt>
<pdfrwt beam="2">  1        1 0.75573835E-01 0.14788248E+03</pdfrwt>
<pdfrwt beam="1">  1       -1 0.55572070E-02 0.14788248E+03</pdfrwt>
<totfact> 0.66872928E+03</totfact>
</mgrwt>
</event>
<event>
 8    1  0.1550723E-005  0.1508668E+03  0.7546771E-02  0.1207315E+00
         -3   -1    0    0    0  501 -0.00000000000E+00  0.00000000000E+00  0.83966182707E+03  0.83966182707E+03  0.00000000000E+00 0.  1.
          3   -1    0    0  501    0  0.00000000000E+00 -0.00000000000E+00 -0.35350418787E+02  0.35350418787E+02  0.00000000000E+00 0. -1.
         23    2    1    2    0    0 -0.87921082574E+02  0.23301193092E+02  0.68222274479E+03  0.69870498736E+03  0.12036495957E+03 0.  0.
         23    2    1    2    0    0  0.87921082574E+02 -0.23301193092E+02  0.12208866349E+03  0.17630725850E+03  0.88913133367E+02 0.  0.
          5    1    3    3  502    0  0.29958522631E+02  0.72759591043E+01  0.11744517203E+03  0.12151506529E+03  0.47000000000E+01 0. -1.
         -5    1    3    3    0  502 -0.11787960520E+03  0.16025233988E+02  0.56477757276E+03  0.57718992207E+03  0.47000000000E+01 0.  1.
        -11    1    4    4    0    0  0.37829388822E+01 -0.31058299642E+02  0.70949045859E+02  0.77541574085E+02  0.00000000000E+00 0.  1.
         11    1    4    4    0    0  0.84138143691E+02  0.77571065505E+01  0.51139617635E+02  0.98765684414E+02  0.00000000000E+00 0. -1.
<mgrwt>
<rscale>  0 0.14456490E+03</rscale>
<asrwt>0</asrwt>
<pdfrwt beam="2">  1        3 0.54385266E-02 0.15086678E+03</pdfrwt>
<pdfrwt beam="1">  1       -3 0.12917873E+00 0.15086678E+03</pdfrwt>
<totfact> 0.23366896E+02</totfact>
</mgrwt>
</event>
<event>
 8    1  0.1550723E-005  0.2813509E+03  0.7546771E-02  0.1096843E+00
          2   -1    0    0  501    0  0.00000000000E+00  0.00000000000E+00  0.64195674607E+03  0.64195674607E+03  0.00000000000E+00 0.  1.
         -2   -1    0    0    0  501 -0.00000000000E+00 -0.00000000000E+00 -0.17244421274E+03  0.17244421274E+03  0.00000000000E+00 0. -1.
         23    2    1    2    0    0 -0.13136563236E+02  0.25171590208E+03  0.87656012909E+01  0.28148737470E+03  0.12499936678E+03 0.  0.
         23    2    1    2    0    0  0.13136563236E+02 -0.25171590208E+03  0.46074693204E+03  0.53291358412E+03  0.90419511716E+02 0.  0.
          5    1    3    3  502    0 -0.36315755033E+01  0.24529194099E+03 -0.23922417725E+02  0.24652727380E+03  0.47000000000E+01 0. -1.
         -5    1    3    3    0  502 -0.95049877322E+01  0.64239610902E+01  0.32688019016E+02  0.34960100902E+02  0.47000000000E+01 0. -1.
        -11    1    4    4    0    0 -0.33638165210E+02 -0.83451669715E+02  0.11964492868E+03  0.14970175782E+03  0.00000000000E+00 0.  1.
         11    1    4    4    0    0  0.46774728445E+02 -0.16826423237E+03  0.34110200336E+03  0.38321182629E+03  0.00000000000E+00 0. -1.
<mgrwt>
<rscale>  0 0.27789646E+03</rscale>
<asrwt>0</asrwt>
<pdfrwt beam="1">  1        2 0.98762575E-01 0.28135086E+03</pdfrwt>
<pdfrwt beam="2">  1       -2 0.26529879E-01 0.28135086E+03</pdfrwt>
<totfact> 0.59786970E+02</totfact>
</mgrwt>
</event>
<event>
 8    1  0.1550723E-005  0.1403646E+03  0.7546771E-02  0.1223673E+00
          3   -1    0    0  501    0  0.00000000000E+00  0.00000000000E+00  0.26534759297E+02  0.26534759297E+02  0.00000000000E+00 0. -1.
         -3   -1    0    0    0  501 -0.00000000000E+00 -0.00000000000E+00 -0.60000773462E+03  0.60000773462E+03  0.00000000000E+00 0.  1.
         23    2    1    2    0    0  0.55907979727E+01  0.63604404903E+02 -0.33342670812E+03  0.36176731606E+03  0.12500177574E+03 0.  0.
         23    2    1    2    0    0 -0.55907979727E+01 -0.63604404903E+02 -0.24004626721E+03  0.26477517786E+03  0.91689187290E+02 0.  0.
          5    1    3    3  502    0 -0.24696069680E+01 -0.37681867234E+02 -0.76590079554E+02  0.85522817791E+02  0.47000000000E+01 0. -1.
         -5    1    3    3    0  502  0.80604049407E+01  0.10128627214E+03 -0.25683662856E+03  0.27624449827E+03  0.47000000000E+01 0. -1.
        -11    1    4    4    0    0 -0.25424155980E+02 -0.81247505593E+02 -0.17946342899E+03  0.19863198941E+03  0.00000000000E+00 0. -1.
         11    1    4    4    0    0  0.19833358008E+02  0.17643100690E+02 -0.60582838213E+02  0.66143188445E+02  0.00000000000E+00 0.  1.
<mgrwt>
<rscale>  0 0.13258245E+03</rscale>
<asrwt>0</asrwt>
<pdfrwt beam="1">  1        3 0.40822706E-02 0.14036460E+03</pdfrwt>
<pdfrwt beam="2">  1       -3 0.92308883E-01 0.14036460E+03</pdfrwt>
<totfact> 0.79305687E+02</totfact>
</mgrwt>
</event>
<event>
 8    1  0.1550723E-005  0.1340075E+03  0.7546771E-02  0.1233497E+00
          3   -1    0    0  501    0  0.00000000000E+00  0.00000000000E+00  0.24253848034E+02  0.24253848034E+02  0.00000000000E+00 0. -1.
         -3   -1    0    0    0  501 -0.00000000000E+00 -0.00000000000E+00 -0.62058221150E+03  0.62058221150E+03  0.00000000000E+00 0.  1.
         23    2    1    2    0    0  0.48069369444E+02 -0.47080208396E+01 -0.40641381058E+03  0.42793714578E+03  0.12500074229E+03 0.  0.
         23    2    1    2    0    0 -0.48069369444E+02  0.47080208396E+01 -0.18991455289E+03  0.21689891375E+03  0.92977264152E+02 0.  0.
          5    1    3    3  502    0  0.31458809376E+02 -0.63399298834E+02 -0.25358722713E+03  0.26332052624E+03  0.47000000000E+01 0. -1.
         -5    1    3    3    0  502  0.16610560068E+02  0.58691277994E+02 -0.15282658345E+03  0.16461661954E+03  0.47000000000E+01 0. -1.
        -11    1    4    4    0    0  0.73557399376E+01  0.38697154428E+02 -0.80607039426E+02  0.89716617613E+02  0.00000000000E+00 0.  1.
         11    1    4    4    0    0 -0.55425109382E+02 -0.33989133588E+02 -0.10930751346E+03  0.12718229614E+03  0.00000000000E+00 0. -1.
<mgrwt>
<rscale>  0 0.12601154E+03</rscale>
<asrwt>0</asrwt>
<pdfrwt beam="1">  1        3 0.37313612E-02 0.13400752E+03</pdfrwt>
<pdfrwt beam="2">  1       -3 0.95474187E-01 0.13400752E+03</pdfrwt>
<totfact> 0.84041046E+02</totfact>
</mgrwt>
</event>
<event>
 8    1  0.1550723E-005  0.1532018E+03  0.7546771E-02  0.1205303E+00
          2   -1    0    0  501    0  0.00000000000E+00  0.00000000000E+00  0.42964097971E+02  0.42964097971E+02  0.00000000000E+00 0. -1.
         -2   -1    0    0    0  501 -0.00000000000E+00 -0.00000000000E+00 -0.48018356482E+03  0.48018356482E+03  0.00000000000E+00 0.  1.
         23    2    1    2    0    0 -0.60292634700E+02  0.64899594984E+02 -0.29624555710E+03  0.33351497049E+03  0.12499458474E+03 0.  0.
         23    2    1    2    0    0  0.60292634700E+02 -0.64899594984E+02 -0.14097390975E+03  0.18963269230E+03  0.90773099151E+02 0.  0.
          5    1    3    3  502    0  0.16623570383E+02 -0.18902127912E+02 -0.14023211338E+02  0.29195444647E+02  0.47000000000E+01 0.  1.
         -5    1    3    3    0  502 -0.76916205084E+02  0.83801722896E+02 -0.28222234576E+03  0.30431952585E+03  0.47000000000E+01 0.  1.
        -11    1    4    4    0    0  0.80217357189E+02 -0.28601814104E+02 -0.89020356695E+02  0.12319704571E+03  0.00000000000E+00 0.  1.
         11    1    4    4    0    0 -0.19924722488E+02 -0.36297780880E+02 -0.51953553052E+02  0.66435646590E+02  0.00000000000E+00 0. -1.
<mgrwt>
<rscale>  0 0.14613596E+03</rscale>
<asrwt>0</asrwt>
<pdfrwt beam="1">  1        2 0.66098614E-02 0.15320185E+03</pdfrwt>
<pdfrwt beam="2">  1       -2 0.73874393E-01 0.15320185E+03</pdfrwt>
<totfact> 0.17937875E+03</totfact>
</mgrwt>
</event>
<event>
 8    1  0.1550723E-005  0.1276962E+03  0.7546771E-02  0.1244866E+00
         -1   -1    0    0    0  501 -0.00000000000E+00  0.00000000000E+00  0.87209343762E+02  0.87209343762E+02  0.00000000000E+00 0.  1.
          1   -1    0    0  501    0  0.00000000000E+00 -0.00000000000E+00 -0.16793759944E+03  0.16793759944E+03  0.00000000000E+00 0. -1.
         23    2    1    2    0    0  0.87814905554E+01 -0.25021931363E+02  0.29448791378E+01  0.12773016274E+03  0.12491241146E+03 0.  0.
         23    2    1    2    0    0 -0.87814905554E+01  0.25021931363E+02 -0.83673134819E+02  0.12741678046E+03  0.92361414169E+02 0.  0.
          5    1    3    3  502    0 -0.37733904158E+02 -0.40723693302E+02  0.37808008580E+02  0.67333514924E+02  0.47000000000E+01 0.  1.
         -5    1    3    3    0  502  0.46515394713E+02  0.15701761940E+02 -0.34863129442E+02  0.60396647819E+02  0.47000000000E+01 0.  1.
        -11    1    4    4    0    0  0.17640578797E+02 -0.30136155809E+02 -0.29392711947E+02  0.45643284532E+02  0.00000000000E+00 0.  1.
         11    1    4    4    0    0 -0.26422069353E+02  0.55158087172E+02 -0.54280422871E+02  0.81773495929E+02  0.00000000000E+00 0. -1.
<mgrwt>
<rscale>  0 0.11893408E+03</rscale>
<asrwt>0</asrwt>
<pdfrwt beam="2">  1        1 0.25836553E-01 0.12769621E+03</pdfrwt>
<pdfrwt beam="1">  1       -1 0.13416822E-01 0.12769621E+03</pdfrwt>
<totfact> 0.66588028E+03</totfact>
</mgrwt>
</event>
<event>
 8    1  0.1550723E-005  0.1842091E+03  0.7546771E-02  0.1169246E+00
          1   -1    0    0  501    0  0.00000000000E+00  0.00000000000E+00  0.59070249757E+03  0.59070249757E+03  0.00000000000E+00 0. -1.
         -1   -1    0    0    0  501 -0.00000000000E+00 -0.00000000000E+00 -0.62940395327E+02  0.62940395327E+02  0.00000000000E+00 0.  1.
         23    2    1    2    0    0  0.13445116813E+03 -0.15160050483E+02  0.13433993660E+03  0.22799168317E+03  0.12500418108E+03 0.  0.
         23    2    1    2    0    0 -0.13445116813E+03  0.15160050483E+02  0.39342216565E+03  0.42565120973E+03  0.89950031584E+02 0.  0.
          5    1    3    3  502    0  0.77655795877E+02 -0.69154840751E+02  0.91319288670E+02  0.13847063629E+03  0.47000000000E+01 0. -1.
         -5    1    3    3    0  502  0.56795372253E+02  0.53994790268E+02  0.43020647930E+02  0.89521046876E+02  0.47000000000E+01 0. -1.
        -11    1    4    4    0    0 -0.11025362205E+02 -0.10629023505E+02  0.33106532945E+01  0.15668285728E+02  0.00000000000E+00 0.  1.
         11    1    4    4    0    0 -0.12342580592E+03  0.25789073988E+02  0.39011151235E+03  0.40998292400E+03  0.00000000000E+00 0. -1.
<mgrwt>
<rscale>  0 0.17851700E+03</rscale>
<asrwt>0</asrwt>
<pdfrwt beam="1">  1        1 0.90877304E-01 0.18420909E+03</pdfrwt>
<pdfrwt beam="2">  1       -1 0.96831381E-02 0.18420909E+03</pdfrwt>
<totfact> 0.22801796E+03</totfact>
</mgrwt>
</event>
<event>
 8    1  0.1550723E-005  0.1360069E+03  0.7546771E-02  0.1230902E+00
         -2   -1    0    0    0  501 -0.00000000000E+00  0.00000000000E+00  0.37165939272E+02  0.37165939272E+02  0.00000000000E+00 0.  1.
          2   -1    0    0  501    0  0.00000000000E+00 -0.00000000000E+00 -0.43195942724E+03  0.43195942724E+03  0.00000000000E+00 0. -1.
         23    2    1    2    0    0 -0.36277664675E+02  0.39447120146E+02 -0.14999564736E+03  0.20247610787E+03  0.12500294311E+03 0.  0.
         23    2    1    2    0    0  0.36277664675E+02 -0.39447120146E+02 -0.24479784060E+03  0.26664925864E+03  0.91124640632E+02 0.  0.
          5    1    3    3  502    0 -0.55313459656E+02 -0.22527619739E+02 -0.32397273680E+02  0.68108338785E+02  0.47000000000E+01 0. -1.
         -5    1    3    3    0  502  0.19035794981E+02  0.61974739885E+02 -0.11759837368E+03  0.13436776908E+03  0.47000000000E+01 0. -1.
        -11    1    4    4    0    0 -0.29914356266E+02 -0.19548637368E+02 -0.10018693074E+03  0.10636935191E+03  0.00000000000E+00 0. -1.
         11    1    4    4    0    0  0.66192020941E+02 -0.19898482778E+02 -0.14461090986E+03  0.16027990674E+03  0.00000000000E+00 0.  1.
<mgrwt>
<rscale>  0 0.12770438E+03</rscale>
<asrwt>0</asrwt>
<pdfrwt beam="2">  1        2 0.66455298E-01 0.13600691E+03</pdfrwt>
<pdfrwt beam="1">  1       -2 0.57178367E-02 0.13600691E+03</pdfrwt>
<totfact> 0.11089551E+04</totfact>
</mgrwt>
</event>
<event>
 8    1  0.1550723E-005  0.1442977E+03  0.7546771E-02  0.1218027E+00
          4   -1    0    0  501    0  0.00000000000E+00  0.00000000000E+00  0.37381928620E+03  0.37381928620E+03  0.00000000000E+00 0. -1.
         -4   -1    0    0    0  501 -0.00000000000E+00 -0.00000000000E+00 -0.63259774876E+02  0.63259774876E+02  0.00000000000E+00 0.  1.
         23    2    1    2    0    0  0.17341819721E+01  0.72067089373E+02  0.51297554398E+02  0.15314454618E+03  0.12500056072E+03 0.  0.
         23    2    1    2    0    0 -0.17341819721E+01 -0.72067089373E+02  0.25926195693E+03  0.28393451490E+03  0.90583517710E+02 0.  0.
          5    1    3    3  502    0  0.54779057625E+02  0.15537319934E+02 -0.48085857880E+01  0.57335555830E+02  0.47000000000E+01 0.  1.
         -5    1    3    3    0  502 -0.53044875653E+02  0.56529769439E+02  0.56106140186E+02  0.95808990353E+02  0.47000000000E+01 0.  1.
        -11    1    4    4    0    0 -0.17589230979E+01  0.10230245580E+02 -0.15054223006E+01  0.10488948059E+02  0.00000000000E+00 0. -1.
         11    1    4    4    0    0  0.24741125756E-01 -0.82297334952E+02  0.26076737923E+03  0.27344556684E+03  0.00000000000E+00 0.  1.
<mgrwt>
<rscale>  0 0.13656545E+03</rscale>
<asrwt>0</asrwt>
<pdfrwt beam="1">  1        4 0.57510658E-01 0.14429765E+03</pdfrwt>
<pdfrwt beam="2">  1       -4 0.97322733E-02 0.14429765E+03</pdfrwt>
<totfact> 0.38759662E+02</totfact>
</mgrwt>
</event>
<event>
 8    1  0.1550723E-005  0.2319784E+03  0.7546771E-02  0.1128281E+00
          1   -1    0    0  501    0  0.00000000000E+00  0.00000000000E+00  0.96320122769E+03  0.96320122769E+03  0.00000000000E+00 0.  1.
         -1   -1    0    0    0  501 -0.00000000000E+00 -0.00000000000E+00 -0.52036646136E+02  0.52036646136E+02  0.00000000000E+00 0. -1.
         23    2    1    2    0    0 -0.10451788522E+03 -0.16511787422E+03  0.49680252323E+03  0.54829439234E+03  0.12500437140E+03 0.  0.
         23    2    1    2    0    0  0.10451788522E+03  0.16511787422E+03  0.41436205833E+03  0.46694348149E+03  0.90290635187E+02 0.  0.
          5    1    3    3  502    0 -0.11453099746E+03 -0.12952828310E+03  0.47407418135E+03  0.50464179863E+03  0.47000000000E+01 0.  1.
         -5    1    3    3    0  502  0.10013112241E+02 -0.35589591127E+02  0.22728341878E+02  0.43652593713E+02  0.47000000000E+01 0.  1.
        -11    1    4    4    0    0  0.57265601722E+02  0.64118768518E+02  0.92345796585E+02  0.12616779210E+03  0.00000000000E+00 0. -1.
         11    1    4    4    0    0  0.47252283496E+02  0.10099910571E+03  0.32201626175E+03  0.34077568939E+03  0.00000000000E+00 0.  1.
<mgrwt>
<rscale>  0 0.22768298E+03</rscale>
<asrwt>0</asrwt>
<pdfrwt beam="1">  1        1 0.14818479E+00 0.23197843E+03</pdfrwt>
<pdfrwt beam="2">  1       -1 0.80056385E-02 0.23197843E+03</pdfrwt>
<totfact> 0.14668668E+03</totfact>
</mgrwt>
</event>
<event>
 8    1  0.1550723E-005  0.1455810E+03  0.7546771E-02  0.1215329E+00
          1   -1    0    0  501    0  0.00000000000E+00  0.00000000000E+00  0.43482014138E+03  0.43482014138E+03  0.00000000000E+00 0. -1.
         -1   -1    0    0    0  501 -0.00000000000E+00 -0.00000000000E+00 -0.40787097058E+02  0.40787097058E+02  0.00000000000E+00 0.  1.
         23    2    1    2    0    0  0.88424799376E+01 -0.74096576345E+02  0.19188404143E+03  0.24085953213E+03  0.12500134714E+03 0.  0.
         23    2    1    2    0    0 -0.88424799376E+01  0.74096576345E+02  0.20214900290E+03  0.23474770631E+03  0.93133099201E+02 0.  0.
          5    1    3    3  502    0 -0.54604027343E+02 -0.25049334226E+02  0.52204685333E+02  0.79727586932E+02  0.47000000000E+01 0. -1.
         -5    1    3    3    0  502  0.63446507281E+02 -0.49047242120E+02  0.13967935609E+03  0.16113194520E+03  0.47000000000E+01 0. -1.
        -11    1    4    4    0    0  0.19676423033E+02  0.56383791543E+02  0.46964682757E+02  0.75973515113E+02  0.00000000000E+00 0.  1.
         11    1    4    4    0    0 -0.28518902971E+02  0.17712784803E+02  0.15518432014E+03  0.15877419120E+03  0.00000000000E+00 0. -1.
<mgrwt>
<rscale>  0 0.13852429E+03</rscale>
<asrwt>0</asrwt>
<pdfrwt beam="1">  1        1 0.66895403E-01 0.14558100E+03</pdfrwt>
<pdfrwt beam="2">  1       -1 0.62749383E-02 0.14558100E+03</pdfrwt>
<totfact> 0.65235747E+03</totfact>
</mgrwt>
</event>
<event>
 8    1  0.1550723E-005  0.1396469E+03  0.7546771E-02  0.1224577E+00
          1   -1    0    0  501    0  0.00000000000E+00  0.00000000000E+00  0.23011722529E+03  0.23011722529E+03  0.00000000000E+00 0. -1.
         -1   -1    0    0    0  501 -0.00000000000E+00 -0.00000000000E+00 -0.69765033975E+02  0.69765033975E+02  0.00000000000E+00 0.  1.
         23    2    1    2    0    0  0.25139271044E+02  0.56915982973E+02  0.68511321799E+02  0.15554761925E+03  0.12501939279E+03 0.  0.
         23    2    1    2    0    0 -0.25139271044E+02 -0.56915982973E+02  0.91840869512E+02  0.14433464001E+03  0.92338133659E+02 0.  0.
          5    1    3    3  502    0  0.51619447674E+02  0.84219641584E+02  0.35837098009E+02  0.10518508925E+03  0.47000000000E+01 0. -1.
         -5    1    3    3    0  502 -0.26480176630E+02 -0.27303658610E+02  0.32674223790E+02  0.50362530001E+02  0.47000000000E+01 0. -1.
        -11    1    4    4    0    0  0.30041607833E+02 -0.42854923172E+02  0.30232425429E+02  0.60440401956E+02  0.00000000000E+00 0.  1.
         11    1    4    4    0    0 -0.55180878877E+02 -0.14061059801E+02  0.61608444083E+02  0.83894238054E+02  0.00000000000E+00 0. -1.
<mgrwt>
<rscale>  0 0.13195971E+03</rscale>
<asrwt>0</asrwt>
<pdfrwt beam="1">  1        1 0.35402650E-01 0.13964691E+03</pdfrwt>
<pdfrwt beam="2">  1       -1 0.10733082E-01 0.13964691E+03</pdfrwt>
<totfact> 0.63884769E+03</totfact>
</mgrwt>
</event>
<event>
 8    1  0.1550723E-005  0.1405951E+03  0.7546771E-02  0.1223511E+00
          2   -1    0    0  501    0  0.00000000000E+00  0.00000000000E+00  0.35213243105E+03  0.35213243105E+03  0.00000000000E+00 0. -1.
         -2   -1    0    0    0  501 -0.00000000000E+00 -0.00000000000E+00 -0.45217522044E+02  0.45217522044E+02  0.00000000000E+00 0.  1.
         23    2    1    2    0    0 -0.57913466454E+02  0.28091936111E+02  0.16296496097E+03  0.21523141293E+03  0.12499542446E+03 0.  0.
         23    2    1    2    0    0  0.57913466454E+02 -0.28091936111E+02  0.14394994803E+03  0.18211854017E+03  0.91117773579E+02 0.  0.
          5    1    3    3  502    0 -0.68961431448E+02  0.64158650085E+02  0.14551872677E+03  0.17340646253E+03  0.47000000000E+01 0. -1.
         -5    1    3    3    0  502  0.11047964994E+02 -0.36066713975E+02  0.17446234201E+02  0.41824950392E+02  0.47000000000E+01 0. -1.
        -11    1    4    4    0    0  0.59465759703E+02  0.19867745996E+02  0.92694515198E+02  0.11190700182E+03  0.00000000000E+00 0. -1.
         11    1    4    4    0    0 -0.15522932487E+01 -0.47959682106E+02  0.51255432835E+02  0.70211538348E+02  0.00000000000E+00 0.  1.
<mgrwt>
<rscale>  0 0.13269499E+03</rscale>
<asrwt>0</asrwt>
<pdfrwt beam="1">  1        2 0.54174218E-01 0.14059510E+03</pdfrwt>
<pdfrwt beam="2">  1       -2 0.69565421E-02 0.14059510E+03</pdfrwt>
<totfact> 0.10261334E+04</totfact>
</mgrwt>
</event>
<event>
 7    1  0.1550723E-005  0.6808498E+03  0.7546771E-02  0.1006255E+00
         -2   -1    0    0    0  501 -0.00000000000E+00  0.00000000000E+00  0.10494909430E+03  0.10494909430E+03  0.00000000000E+00 0.  1.
          2   -1    0    0  501    0  0.00000000000E+00 -0.00000000000E+00 -0.20703015956E+04  0.20703015956E+04  0.00000000000E+00 0. -1.
         23    2    1    2    0    0 -0.35280006366E+02  0.23007336292E+03 -0.47303327838E+03  0.53495403192E+03  0.90757383373E+02 0.  0.
          5    1    1    2  502    0  0.73132693610E+02 -0.88650099748E+02 -0.14893551742E+04  0.14937898634E+04  0.47000000000E+01 0. -1.
         -5    1    1    2    0  502 -0.37852687244E+02 -0.14142326317E+03 -0.29640487876E+01  0.14650679466E+03  0.47000000000E+01 0.  1.
        -11    1    3    3    0    0  0.36266868013E+01  0.10882048327E+02  0.73052316211E+00  0.11493715545E+02  0.00000000000E+00 0. -1.
         11    1    3    3    0    0 -0.38906693167E+02  0.21919131459E+03 -0.47376380154E+03  0.52346031637E+03  0.00000000000E+00 0.  1.
<mgrwt>
<rscale>  0 0.52990730E+03</rscale>
<asrwt>0</asrwt>
<pdfrwt beam="2">  1        2 0.31850797E+00 0.68084981E+03</pdfrwt>
<pdfrwt beam="1">  1       -2 0.16146013E-01 0.68084981E+03</pdfrwt>
<totfact> 0.19485133E+02</totfact>
</mgrwt>
</event>
<event>
 8    1  0.1550723E-005  0.1587843E+03  0.7546771E-02  0.1197964E+00
          1   -1    0    0  501    0  0.00000000000E+00  0.00000000000E+00  0.17685207598E+03  0.17685207598E+03  0.00000000000E+00 0. -1.
         -1   -1    0    0    0  501 -0.00000000000E+00 -0.00000000000E+00 -0.32149268191E+03  0.32149268191E+03  0.00000000000E+00 0.  1.
         23    2    1    2    0    0 -0.92963161771E+02 -0.29179312737E+02 -0.27125843130E+03  0.31431447659E+03  0.12537492534E+03 0.  0.
         23    2    1    2    0    0  0.92963161771E+02  0.29179312737E+02  0.12661782537E+03  0.18403028129E+03  0.91331752365E+02 0.  0.
          5    1    3    3  502    0 -0.31147146721E+02  0.48804702383E+02 -0.11799959297E+03  0.13152200448E+03  0.47000000000E+01 0. -1.
         -5    1    3    3    0  502 -0.61816015050E+02 -0.77984015119E+02 -0.15325883834E+03  0.18279247211E+03  0.47000000000E+01 0. -1.
        -11    1    4    4    0    0  0.27400739344E+02 -0.33158409732E+02  0.38134903885E+02  0.57485228945E+02  0.00000000000E+00 0. -1.
         11    1    4    4    0    0  0.65562422427E+02  0.62337722469E+02  0.88482921489E+02  0.12654505234E+03  0.00000000000E+00 0.  1.
<mgrwt>
<rscale>  0 0.15206001E+03</rscale>
<asrwt>0</asrwt>
<pdfrwt beam="1">  1        1 0.27208012E-01 0.15878430E+03</pdfrwt>
<pdfrwt beam="2">  1       -1 0.49460412E-01 0.15878430E+03</pdfrwt>
<totfact> 0.71858425E+02</totfact>
</mgrwt>
</event>
<event>
 8    1  0.1550723E-005  0.1450002E+03  0.7546771E-02  0.1215209E+00
         -2   -1    0    0    0  501 -0.00000000000E+00  0.00000000000E+00  0.40228402016E+02  0.40228402016E+02  0.00000000000E+00 0. -1.
          2   -1    0    0  501    0  0.00000000000E+00 -0.00000000000E+00 -0.44721272790E+03  0.44721272790E+03  0.00000000000E+00 0.  1.
         23    2    1    2    0    0  0.73472367761E+02  0.13447287801E+01 -0.19065718533E+03  0.23953125776E+03  0.12500025603E+03 0.  0.
         23    2    1    2    0    0 -0.73472367761E+02 -0.13447287801E+01 -0.21632714055E+03  0.24790987216E+03  0.96238640120E+02 0.  0.
          5    1    3    3  502    0 -0.96887401302E+01 -0.17923186221E+02  0.86758057662E+01  0.22637842108E+02  0.47000000000E+01 0.  1.
         -5    1    3    3    0  502  0.83161107891E+02  0.19267915001E+02 -0.19933299110E+03  0.21689341566E+03  0.47000000000E+01 0.  1.
        -11    1    4    4    0    0 -0.59521940826E+02 -0.34167773788E+02 -0.19412289822E+03  0.20589802772E+03  0.00000000000E+00 0.  1.
         11    1    4    4    0    0 -0.13950426934E+02  0.32823045008E+02 -0.22204242331E+02  0.42011844434E+02  0.00000000000E+00 0. -1.
<mgrwt>
<rscale>  0 0.13861179E+03</rscale>
<asrwt>0</asrwt>
<pdfrwt beam="2">  1        2 0.68801957E-01 0.14500021E+03</pdfrwt>
<pdfrwt beam="1">  1       -2 0.61889850E-02 0.14500021E+03</pdfrwt>
<totfact> 0.95152386E+03</totfact>
</mgrwt>
</event>
<event>
 8    1  0.1550723E-005  0.1343378E+03  0.7546771E-02  0.1233748E+00
          1   -1    0    0  501    0  0.00000000000E+00  0.00000000000E+00  0.22671693732E+03  0.22671693732E+03  0.00000000000E+00 0. -1.
         -1   -1    0    0    0  501 -0.00000000000E+00 -0.00000000000E+00 -0.62366914225E+02  0.62366914225E+02  0.00000000000E+00 0.  1.
         23    2    1    2    0    0 -0.75564345806E+01  0.48611693828E+02  0.91257336088E+02  0.16240243726E+03  0.12500581490E+03 0.  0.
         23    2    1    2    0    0  0.75564345806E+01 -0.48611693828E+02  0.73092687004E+02  0.12668141428E+03  0.91024410740E+02 0.  0.
          5    1    3    3  502    0 -0.22280960790E+02 -0.17486773476E+02  0.90043446605E+02  0.94510003369E+02  0.47000000000E+01 0.  1.
         -5    1    3    3    0  502  0.14724526209E+02  0.66098467305E+02  0.12138894836E+01  0.67892433892E+02  0.47000000000E+01 0.  1.
        -11    1    4    4    0    0 -0.19014816193E+02 -0.26079081742E+02  0.84152209199E+02  0.90129218639E+02  0.00000000000E+00 0. -1.
         11    1    4    4    0    0  0.26571250774E+02 -0.22532612087E+02 -0.11059522195E+02  0.36552195643E+02  0.00000000000E+00 0.  1.
<mgrwt>
<rscale>  0 0.12584916E+03</rscale>
<asrwt>0</asrwt>
<pdfrwt beam="1">  1        1 0.34879528E-01 0.13433782E+03</pdfrwt>
<pdfrwt beam="2">  1       -1 0.95949100E-02 0.13433782E+03</pdfrwt>
<totfact> 0.77030770E+03</totfact>
</mgrwt>
</event>
<event>
 8    1  0.1550723E-005  0.1478384E+03  0.7546771E-02  0.1208309E+00
          1   -1    0    0  501    0  0.00000000000E+00  0.00000000000E+00  0.17167152696E+03  0.17167152696E+03  0.00000000000E+00 0. -1.
         -1   -1    0    0    0  501 -0.00000000000E+00 -0.00000000000E+00 -0.14173433622E+03  0.14173433622E+03  0.00000000000E+00 0.  1.
         23    2    1    2    0    0 -0.78922535857E+02  0.12913619438E+01 -0.53213469340E+02  0.15712369095E+03  0.12500298660E+03 0.  0.
         23    2    1    2    0    0  0.78922535857E+02 -0.12913619438E+01  0.83150660087E+02  0.15628217222E+03  0.10620570042E+03 0.  0.
          5    1    3    3  502    0 -0.91237176186E+02  0.71052718092E+01 -0.83254631134E+02  0.12380682861E+03  0.47000000000E+01 0.  1.
         -5    1    3    3    0  502  0.12314640329E+02 -0.58139098654E+01  0.30041161794E+02  0.33316862342E+02  0.47000000000E+01 0.  1.
        -11    1    4    4    0    0  0.45258027947E+02  0.49245829882E+02  0.22783082197E+02  0.70657693770E+02  0.00000000000E+00 0.  1.
         11    1    4    4    0    0  0.33664507910E+02 -0.50537191826E+02  0.60367577890E+02  0.85624478455E+02  0.00000000000E+00 0. -1.
<mgrwt>
<rscale>  0 0.14379752E+03</rscale>
<asrwt>0</asrwt>
<pdfrwt beam="1">  1        1 0.26411004E-01 0.14783836E+03</pdfrwt>
<pdfrwt beam="2">  1       -1 0.21805282E-01 0.14783836E+03</pdfrwt>
<totfact> 0.30256870E+03</totfact>
</mgrwt>
</event>
<event>
 8    1  0.1550723E-005  0.1384863E+03  0.7546771E-02  0.1225450E+00
         -4   -1    0    0    0  501 -0.00000000000E+00  0.00000000000E+00  0.12997991666E+04  0.12997991666E+04  0.00000000000E+00 0.  1.
          4   -1    0    0  501    0  0.00000000000E+00 -0.00000000000E+00 -0.12514064662E+02  0.12514064662E+02  0.00000000000E+00 0. -1.
         23    2    1    2    0    0  0.56215238009E+02  0.19951371491E+02  0.83078771279E+03  0.84225095200E+03  0.12498092737E+03 0.  0.
         23    2    1    2    0    0 -0.56215238009E+02 -0.19951371491E+02  0.45649738914E+03  0.47006227926E+03  0.94923494887E+02 0.  0.
          5    1    3    3  502    0  0.76760579709E+01  0.63623873892E+02  0.26456549700E+03  0.27225706859E+03  0.47000000000E+01 0. -1.
         -5    1    3    3    0  502  0.48539180038E+02 -0.43672502401E+02  0.56622221579E+03  0.56999388341E+03  0.47000000000E+01 0. -1.
        -11    1    4    4    0    0 -0.54487517741E+02 -0.54603408500E+02  0.32970562966E+03  0.33860924979E+03  0.00000000000E+00 0.  1.
         11    1    4    4    0    0 -0.17277202680E+01  0.34652037009E+02  0.12679175948E+03  0.13145302947E+03  0.00000000000E+00 0. -1.
<mgrwt>
<rscale>  0 0.13136093E+03</rscale>
<asrwt>0</asrwt>
<pdfrwt beam="2">  1        4 0.19252417E-02 0.13848625E+03</pdfrwt>
<pdfrwt beam="1">  1       -4 0.19996900E+00 0.13848625E+03</pdfrwt>
<totfact> 0.26452441E+02</totfact>
</mgrwt>
</event>
<event>
 8    1  0.1550723E-005  0.1469014E+03  0.7546771E-02  0.1213778E+00
         -1   -1    0    0    0  501 -0.00000000000E+00  0.00000000000E+00  0.92963490302E+02  0.92963490302E+02  0.00000000000E+00 0.  1.
          1   -1    0    0  501    0  0.00000000000E+00 -0.00000000000E+00 -0.19388825974E+03  0.19388825974E+03  0.00000000000E+00 0. -1.
         23    2    1    2    0    0  0.49780344740E+02 -0.58955340692E+02 -0.40032716963E+02  0.15225844511E+03  0.12500480295E+03 0.  0.
         23    2    1    2    0    0 -0.49780344740E+02  0.58955340692E+02 -0.60892052472E+02  0.13459330493E+03  0.91944008830E+02 0.  0.
          5    1    3    3  502    0  0.23729543875E+02  0.18262293848E+02 -0.60881335022E+02  0.68009040452E+02  0.47000000000E+01 0.  1.
         -5    1    3    3    0  502  0.26050800864E+02 -0.77217634540E+02  0.20848618059E+02  0.84249404654E+02  0.47000000000E+01 0.  1.
        -11    1    4    4    0    0  0.18437403302E+01  0.26398417222E+02  0.20063608451E+02  0.33208796941E+02  0.00000000000E+00 0.  1.
         11    1    4    4    0    0 -0.51624085070E+02  0.32556923470E+02 -0.80955660923E+02  0.10138450799E+03  0.00000000000E+00 0. -1.
<mgrwt>
<rscale>  0 0.13966676E+03</rscale>
<asrwt>0</asrwt>
<pdfrwt beam="2">  1        1 0.29828963E-01 0.14690138E+03</pdfrwt>
<pdfrwt beam="1">  1       -1 0.14302075E-01 0.14690138E+03</pdfrwt>
<totfact> 0.50833596E+03</totfact>
</mgrwt>
</event>
<event>
 8    1  0.1550723E-005  0.1882549E+03  0.7546771E-02  0.1165286E+00
          2   -1    0    0  501    0  0.00000000000E+00  0.00000000000E+00  0.74535541897E+03  0.74535541897E+03  0.00000000000E+00 0. -1.
         -2   -1    0    0    0  501 -0.00000000000E+00 -0.00000000000E+00 -0.42409492437E+02  0.42409492437E+02  0.00000000000E+00 0.  1.
         23    2    1    2    0    0  0.67693961611E+01  0.14061173527E+03  0.39557548370E+03  0.43808658404E+03  0.12498962752E+03 0.  0.
         23    2    1    2    0    0 -0.67693961611E+01 -0.14061173527E+03  0.30737044283E+03  0.34967832737E+03  0.89335651830E+02 0.  0.
          5    1    3    3  502    0  0.90913580950E+01 -0.18393914303E+02  0.10225766883E+03  0.10440167484E+03  0.47000000000E+01 0. -1.
         -5    1    3    3    0  502 -0.23219619339E+01  0.15900564957E+03  0.29331781487E+03  0.33368490919E+03  0.47000000000E+01 0. -1.
        -11    1    4    4    0    0  0.22088837621E+02 -0.96174114457E+02  0.12215307216E+03  0.15703104813E+03  0.00000000000E+00 0. -1.
         11    1    4    4    0    0 -0.28858233782E+02 -0.44437620810E+02  0.18521737067E+03  0.19264727924E+03  0.00000000000E+00 0.  1.
<mgrwt>
<rscale>  0 0.18262575E+03</rscale>
<asrwt>0</asrwt>
<pdfrwt beam="1">  1        2 0.11467006E+00 0.18825486E+03</pdfrwt>
<pdfrwt beam="2">  1       -2 0.65245378E-02 0.18825486E+03</pdfrwt>
<totfact> 0.49633827E+03</totfact>
</mgrwt>
</event>
<event>
 8    1  0.1550723E-005  0.1417266E+03  0.7546771E-02  0.1222116E+00
         -3   -1    0    0    0  501 -0.00000000000E+00  0.00000000000E+00  0.51220245820E+03  0.51220245820E+03  0.00000000000E+00 0.  1.
          3   -1    0    0  501    0  0.00000000000E+00 -0.00000000000E+00 -0.33899345207E+02  0.33899345207E+02  0.00000000000E+00 0. -1.
         23    2    1    2    0    0  0.11395433053E+02 -0.65794946000E+02  0.33789315121E+03  0.36641262233E+03  0.12501038901E+03 0.  0.
         23    2    1    2    0    0 -0.11395433053E+02  0.65794946000E+02  0.14040996178E+03  0.17968918107E+03  0.90080040030E+02 0.  0.
          5    1    3    3  502    0  0.43552261854E+02  0.21111971263E+02  0.12802370099E+03  0.13694770118E+03  0.47000000000E+01 0. -1.
         -5    1    3    3    0  502 -0.32156828801E+02 -0.86906917263E+02  0.20986945022E+03  0.22946492116E+03  0.47000000000E+01 0. -1.
        -11    1    4    4    0    0  0.33631561241E+02  0.36855415023E+02  0.10281073759E+03  0.11427795628E+03  0.00000000000E+00 0.  1.
         11    1    4    4    0    0 -0.45026994294E+02  0.28939530977E+02  0.37599224193E+02  0.65411224788E+02  0.00000000000E+00 0. -1.
<mgrwt>
<rscale>  0 0.13366553E+03</rscale>
<asrwt>0</asrwt>
<pdfrwt beam="2">  1        3 0.52152843E-02 0.14172660E+03</pdfrwt>
<pdfrwt beam="1">  1       -3 0.78800372E-01 0.14172660E+03</pdfrwt>
<totfact> 0.76433779E+02</totfact>
</mgrwt>
</event>
<event>
 7    1  0.1550723E-005  0.4118505E+03  0.7546771E-02  0.1039752E+00
         -2   -1    0    0    0  501 -0.00000000000E+00  0.00000000000E+00  0.14225442225E+03  0.14225442225E+03  0.00000000000E+00 0.  1.
          2   -1    0    0  501    0  0.00000000000E+00 -0.00000000000E+00 -0.29809416111E+03  0.29809416111E+03  0.00000000000E+00 0. -1.
         23    2    1    2    0    0 -0.36044175992E+02  0.10416157426E+03 -0.94895790661E+02  0.17192926889E+03  0.91682311499E+02 0.  0.
          5    1    1    2  502    0  0.11525489980E+03 -0.13378530462E+03 -0.43932377991E+02  0.18202841398E+03  0.47000000000E+01 0. -1.
         -5    1    1    2    0  502 -0.79210723805E+02  0.29623730353E+02 -0.17011570215E+02  0.86390900487E+02  0.47000000000E+01 0.  1.
        -11    1    3    3    0    0 -0.65524229110E+02  0.63620337559E+02 -0.74307282569E+02  0.11773930607E+03  0.00000000000E+00 0.  1.
         11    1    3    3    0    0  0.29480053118E+02  0.40541236703E+02 -0.20588508092E+02  0.54189962822E+02  0.00000000000E+00 0. -1.
<mgrwt>
<rscale>  0 0.41185052E+03</rscale>
<asrwt>0</asrwt>
<pdfrwt beam="2">  1        2 0.45860640E-01 0.41185052E+03</pdfrwt>
<pdfrwt beam="1">  1       -2 0.21885296E-01 0.41185052E+03</pdfrwt>
<totfact> 0.19924453E+03</totfact>
</mgrwt>
</event>
<event>
 8    1  0.1550723E-005  0.2031984E+03  0.7546771E-02  0.1151229E+00
          2   -1    0    0  501    0  0.00000000000E+00  0.00000000000E+00  0.69745683973E+03  0.69745683973E+03  0.00000000000E+00 0. -1.
         -2   -1    0    0    0  501 -0.00000000000E+00 -0.00000000000E+00 -0.70245427884E+02  0.70245427884E+02  0.00000000000E+00 0.  1.
         23    2    1    2    0    0  0.20525839127E+02 -0.15888175551E+03  0.13969597385E+03  0.24658575623E+03  0.12499939104E+03 0.  0.
         23    2    1    2    0    0 -0.20525839127E+02  0.15888175551E+03  0.48751543800E+03  0.52111651139E+03  0.90699469944E+02 0.  0.
          5    1    3    3  502    0  0.40048258667E+02  0.25665867514E+01  0.24723879881E+02  0.47368878245E+02  0.47000000000E+01 0. -1.
         -5    1    3    3    0  502 -0.19522419540E+02 -0.16144834226E+03  0.11497209397E+03  0.19921687798E+03  0.47000000000E+01 0. -1.
        -11    1    4    4    0    0 -0.30164205783E+02  0.18580502100E+02  0.17302277895E+03  0.17661256015E+03  0.00000000000E+00 0.  1.
         11    1    4    4    0    0  0.96383666565E+01  0.14030125341E+03  0.31449265905E+03  0.34450395124E+03  0.00000000000E+00 0. -1.
<mgrwt>
<rscale>  0 0.19824437E+03</rscale>
<asrwt>0</asrwt>
<pdfrwt beam="1">  1        2 0.10730105E+00 0.20319835E+03</pdfrwt>
<pdfrwt beam="2">  1       -2 0.10806989E-01 0.20319835E+03</pdfrwt>
<totfact> 0.24491040E+03</totfact>
</mgrwt>
</event>
<event>
 8    1  0.1550723E-005  0.1277830E+03  0.7546771E-02  0.1244462E+00
         -3   -1    0    0    0  501 -0.00000000000E+00  0.00000000000E+00  0.10965404961E+03  0.10965404961E+03  0.00000000000E+00 0.  1.
          3   -1    0    0  501    0  0.00000000000E+00 -0.00000000000E+00 -0.11632417125E+03  0.11632417125E+03  0.00000000000E+00 0. -1.
         23    2    1    2    0    0 -0.20482752622E+02  0.16868721146E+02  0.87205711169E+01  0.12808024374E+03  0.12499761424E+03 0.  0.
         23    2    1    2    0    0  0.20482752622E+02 -0.16868721146E+02 -0.15390692763E+02  0.97897977122E+02  0.92967970790E+02 0.  0.
          5    1    3    3  502    0  0.24295741331E+01 -0.52342142678E+02 -0.77875753304E+01  0.53182131023E+02  0.47000000000E+01 0. -1.
         -5    1    3    3    0  502 -0.22912326755E+02  0.69210863825E+02  0.16508146447E+02  0.74898112712E+02  0.47000000000E+01 0. -1.
        -11    1    4    4    0    0 -0.16814336449E+02 -0.38437012862E+02  0.15669829692E+02  0.44784700854E+02  0.00000000000E+00 0.  1.
         11    1    4    4    0    0  0.37297089071E+02  0.21568291716E+02 -0.31060522455E+02  0.53113276268E+02  0.00000000000E+00 0. -1.
<mgrwt>
<rscale>  0 0.11917625E+03</rscale>
<asrwt>0</asrwt>
<pdfrwt beam="2">  1        3 0.17896026E-01 0.12778302E+03</pdfrwt>
<pdfrwt beam="1">  1       -3 0.16869854E-01 0.12778302E+03</pdfrwt>
<totfact> 0.18762699E+03</totfact>
</mgrwt>
</event>
<event>
 8    1  0.1550723E-005  0.1630463E+03  0.7546771E-02  0.1192503E+00
          3   -1    0    0  501    0  0.00000000000E+00  0.00000000000E+00  0.19515858565E+03  0.19515858565E+03  0.00000000000E+00 0. -1.
         -3   -1    0    0    0  501 -0.00000000000E+00 -0.00000000000E+00 -0.12536343166E+03  0.12536343166E+03  0.00000000000E+00 0.  1.
         23    2    1    2    0    0  0.88213132694E+02  0.56368738792E+02 -0.40809804103E+01  0.16309739283E+03  0.12500045461E+03 0.  0.
         23    2    1    2    0    0 -0.88213132694E+02 -0.56368738792E+02  0.73876134396E+02  0.15742462448E+03  0.91464953211E+02 0.  0.
          5    1    3    3  502    0  0.10606946165E+02 -0.17737398644E+01  0.50415493975E+02  0.51763553711E+02  0.47000000000E+01 0.  1.
         -5    1    3    3    0  502  0.77606186530E+02  0.58142478657E+02 -0.54496474385E+02  0.11133383912E+03  0.47000000000E+01 0.  1.
        -11    1    4    4    0    0 -0.32426949797E+02 -0.72723941673E+02  0.32176833989E+02  0.85881473038E+02  0.00000000000E+00 0. -1.
         11    1    4    4    0    0 -0.55786182898E+02  0.16355202880E+02  0.41699300407E+02  0.71543151440E+02  0.00000000000E+00 0.  1.
<mgrwt>
<rscale>  0 0.15667429E+03</rscale>
<asrwt>0</asrwt>
<pdfrwt beam="1">  1        3 0.30024398E-01 0.16304633E+03</pdfrwt>
<pdfrwt beam="2">  1       -3 0.19286682E-01 0.16304633E+03</pdfrwt>
<totfact> 0.60988141E+02</totfact>
</mgrwt>
</event>
<event>
 8    1  0.1550723E-005  0.1425962E+03  0.7546771E-02  0.1220596E+00
         -2   -1    0    0    0  501 -0.00000000000E+00  0.00000000000E+00  0.73009236088E+02  0.73009236088E+02  0.00000000000E+00 0.  1.
          2   -1    0    0  501    0  0.00000000000E+00 -0.00000000000E+00 -0.23591025799E+03  0.23591025799E+03  0.00000000000E+00 0. -1.
         23    2    1    2    0    0  0.58531773850E+02  0.35838496920E+02 -0.56976557582E+02  0.15355784562E+03  0.12499326952E+03 0.  0.
         23    2    1    2    0    0 -0.58531773850E+02 -0.35838496920E+02 -0.10592446432E+03  0.15536164846E+03  0.90591849849E+02 0.  0.
          5    1    3    3  502    0  0.90539915309E+02  0.51910174180E+02 -0.53201748573E+02  0.11723761555E+03  0.47000000000E+01 0. -1.
         -5    1    3    3    0  502 -0.32008141458E+02 -0.16071677260E+02 -0.37748090098E+01  0.36320230074E+02  0.47000000000E+01 0. -1.
        -11    1    4    4    0    0 -0.29555020966E+02  0.22991411724E+02 -0.92962213891E+01  0.38581394603E+02  0.00000000000E+00 0. -1.
         11    1    4    4    0    0 -0.28976752885E+02 -0.58829908645E+02 -0.96628242933E+02  0.11678025386E+03  0.00000000000E+00 0.  1.
<mgrwt>
<rscale>  0 0.13473402E+03</rscale>
<asrwt>0</asrwt>
<pdfrwt beam="2">  1        2 0.36293886E-01 0.14259623E+03</pdfrwt>
<pdfrwt beam="1">  1       -2 0.11232190E-01 0.14259623E+03</pdfrwt>
<totfact> 0.74535130E+03</totfact>
</mgrwt>
</event>
<event>
 8    1  0.1582051E-005  0.1877364E+03  0.7546771E-02  0.1165544E+00
          2   -1    0    0  501    0  0.00000000000E+00  0.00000000000E+00  0.99669098178E+02  0.99669098178E+02  0.00000000000E+00 0. -1.
         -2   -1    0    0    0  501 -0.00000000000E+00 -0.00000000000E+00 -0.34114505073E+03  0.34114505073E+03  0.00000000000E+00 0.  1.
         23    2    1    2    0    0 -0.27569259068E+02  0.13732960714E+03 -0.18715935395E+03  0.26509161541E+03  0.12500182297E+03 0.  0.
         23    2    1    2    0    0  0.27569259068E+02 -0.13732960714E+03 -0.54316598601E+02  0.17572253350E+03  0.91151691438E+02 0.  0.
          5    1    3    3  502    0 -0.36606674725E+02  0.62536230007E+02 -0.11002903796E+02  0.73443737581E+02  0.47000000000E+01 0. -1.
         -5    1    3    3    0  502  0.90374156570E+01  0.74793377137E+02 -0.17615645016E+03  0.19164787783E+03  0.47000000000E+01 0. -1.
        -11    1    4    4    0    0  0.28793518311E+02 -0.31890842931E+02  0.19319982210E+02  0.47110023054E+02  0.00000000000E+00 0. -1.
         11    1    4    4    0    0 -0.12242592431E+01 -0.10543876421E+03 -0.73636580811E+02  0.12861251044E+03  0.00000000000E+00 0.  1.
<mgrwt>
<rscale>  0 0.18235451E+03</rscale>
<asrwt>0</asrwt>
<pdfrwt beam="1">  1        2 0.15333707E-01 0.18773636E+03</pdfrwt>
<pdfrwt beam="2">  1       -2 0.52483854E-01 0.18773636E+03</pdfrwt>
<totfact> 0.13058579E+03</totfact>
</mgrwt>
</event>
<event>
 7    1  0.1550723E-005  0.2340448E+03  0.7546771E-02  0.1123825E+00
         -1   -1    0    0    0  501 -0.00000000000E+00  0.00000000000E+00  0.79295945923E+02  0.79295945923E+02  0.00000000000E+00 0.  1.
          1   -1    0    0  501    0  0.00000000000E+00 -0.00000000000E+00 -0.17269787517E+03  0.17269787517E+03  0.00000000000E+00 0. -1.
         23    2    1    2    0    0  0.18454634824E+02  0.82604747613E+01 -0.31811762052E+02  0.10419208853E+03  0.97134927384E+02 0.  0.
          5    1    1    2  502    0 -0.55119511605E+02 -0.31907957133E+01 -0.86652588752E+02  0.10285476593E+03  0.47000000000E+01 0. -1.
         -5    1    1    2    0  502  0.36664876781E+02 -0.50696790480E+01  0.25062421558E+02  0.44946966631E+02  0.47000000000E+01 0.  1.
        -11    1    3    3    0    0 -0.30589934605E+02  0.30266582719E+02 -0.25618565749E+02  0.50081144552E+02  0.00000000000E+00 0. -1.
         11    1    3    3    0    0  0.49044569428E+02 -0.22006107958E+02 -0.61931963026E+01  0.54110943979E+02  0.00000000000E+00 0.  1.
<mgrwt>
<rscale>  0 0.23404479E+03</rscale>
<asrwt>0</asrwt>
<pdfrwt beam="2">  1        1 0.26568904E-01 0.23404479E+03</pdfrwt>
<pdfrwt beam="1">  1       -1 0.12199376E-01 0.23404479E+03</pdfrwt>
<totfact> 0.77535041E+03</totfact>
</mgrwt>
</event>
<event>
 8    1  0.1550723E-005  0.2165692E+03  0.7546771E-02  0.1140013E+00
         -2   -1    0    0    0  501 -0.00000000000E+00  0.00000000000E+00  0.42130471911E+02  0.42130471911E+02  0.00000000000E+00 0.  1.
          2   -1    0    0  501    0  0.00000000000E+00 -0.00000000000E+00 -0.10414263222E+04  0.10414263222E+04  0.00000000000E+00 0. -1.
         23    2    1    2    0    0 -0.66600145762E+02 -0.16375082851E+03 -0.59152566909E+03  0.62992446638E+03  0.12510916395E+03 0.  0.
         23    2    1    2    0    0  0.66600145762E+02  0.16375082851E+03 -0.40777018120E+03  0.45363232773E+03  0.90861734679E+02 0.  0.
          5    1    3    3  502    0 -0.56486225987E+02 -0.46617146591E+01 -0.14336674725E+03  0.15423533812E+03  0.47000000000E+01 0. -1.
         -5    1    3    3    0  502 -0.10113919775E+02 -0.15908911385E+03 -0.44815892184E+03  0.47568912826E+03  0.47000000000E+01 0. -1.
        -11    1    4    4    0    0  0.13560122560E+02  0.13502110123E+03 -0.31486440629E+03  0.34286173460E+03  0.00000000000E+00 0.  1.
         11    1    4    4    0    0  0.53040023202E+02  0.28729727279E+02 -0.92905774907E+02  0.11077059313E+03  0.00000000000E+00 0. -1.
<mgrwt>
<rscale>  0 0.21197277E+03</rscale>
<asrwt>0</asrwt>
<pdfrwt beam="2">  1        2 0.16021943E+00 0.21656919E+03</pdfrwt>
<pdfrwt beam="1">  1       -2 0.64816111E-02 0.21656919E+03</pdfrwt>
<totfact> 0.32357618E+03</totfact>
</mgrwt>
</event>
<event>
 8    1  0.1550723E-005  0.2668054E+03  0.7546771E-02  0.1105208E+00
         -1   -1    0    0    0  501 -0.00000000000E+00  0.00000000000E+00  0.46305026626E+02  0.46305026626E+02  0.00000000000E+00 0.  1.
          1   -1    0    0  501    0  0.00000000000E+00 -0.00000000000E+00 -0.14580422346E+04  0.14580422346E+04  0.00000000000E+00 0. -1.
         23    2    1    2    0    0 -0.22827336803E+03 -0.58748441590E+02 -0.71974409147E+03  0.76760451144E+03  0.12500007530E+03 0.  0.
         23    2    1    2    0    0  0.22827336803E+03  0.58748441590E+02 -0.69199311654E+03  0.73674274982E+03  0.91516644095E+02 0.  0.
          5    1    3    3  502    0 -0.65130492557E+02  0.14223726458E+02 -0.84792952258E+02  0.10796402275E+03  0.47000000000E+01 0.  1.
         -5    1    3    3    0  502 -0.16314287547E+03 -0.72972168048E+02 -0.63495113922E+03  0.65964048869E+03  0.47000000000E+01 0.  1.
        -11    1    4    4    0    0  0.14929584020E+03  0.75822958068E+02 -0.39664646077E+03  0.43054242963E+03  0.00000000000E+00 0.  1.
         11    1    4    4    0    0  0.78977527829E+02 -0.17074516478E+02 -0.29534665577E+03  0.30620032020E+03  0.00000000000E+00 0. -1.
<mgrwt>
<rscale>  0 0.26324714E+03</rscale>
<asrwt>0</asrwt>
<pdfrwt beam="2">  1        1 0.22431422E+00 0.26680541E+03</pdfrwt>
<pdfrwt beam="1">  1       -1 0.71238493E-02 0.26680541E+03</pdfrwt>
<totfact> 0.78610923E+02</totfact>
</mgrwt>
</event>
<event>
 8    1  0.1550723E-005  0.1316615E+03  0.7546771E-02  0.1239381E+00
         -4   -1    0    0    0  501 -0.00000000000E+00  0.00000000000E+00  0.10916575817E+03  0.10916575817E+03  0.00000000000E+00 0. -1.
          4   -1    0    0  501    0  0.00000000000E+00 -0.00000000000E+00 -0.12075376807E+03  0.12075376807E+03  0.00000000000E+00 0.  1.
         23    2    1    2    0    0  0.39419884228E+02  0.12437168196E+02 -0.72011173742E+01  0.13185824743E+03  0.12500452352E+03 0.  0.
         23    2    1    2    0    0 -0.39419884228E+02 -0.12437168196E+02 -0.43868925219E+01  0.98061278801E+02  0.88815309203E+02 0.  0.
          5    1    3    3  502    0  0.50688171313E+02 -0.47706834540E+02 -0.96965040339E+01  0.70436815397E+02  0.47000000000E+01 0.  1.
         -5    1    3    3    0  502 -0.11268287085E+02  0.60144002736E+02  0.24953866596E+01  0.61421432037E+02  0.47000000000E+01 0.  1.
        -11    1    4    4    0    0 -0.52223629766E+02 -0.28958245052E+02 -0.28485328090E+02  0.66161177278E+02  0.00000000000E+00 0.  1.
         11    1    4    4    0    0  0.12803745539E+02  0.16521076856E+02  0.24098435568E+02  0.31900101522E+02  0.00000000000E+00 0. -1.
<mgrwt>
<rscale>  0 0.12228119E+03</rscale>
<asrwt>0</asrwt>
<pdfrwt beam="2">  1        4 0.18577503E-01 0.13166146E+03</pdfrwt>
<pdfrwt beam="1">  1       -4 0.16794732E-01 0.13166146E+03</pdfrwt>
<totfact> 0.13023338E+03</totfact>
</mgrwt>
</event>
<event>
 8    1  0.1550723E-005  0.1250714E+03  0.7546771E-02  0.1250203E+00
         -1   -1    0    0    0  501 -0.00000000000E+00  0.00000000000E+00  0.21776847689E+03  0.21776847689E+03  0.00000000000E+00 0. -1.
          1   -1    0    0  501    0  0.00000000000E+00 -0.00000000000E+00 -0.65643121478E+02  0.65643121478E+02  0.00000000000E+00 0.  1.
         23    2    1    2    0    0  0.50288122163E+00  0.41738825218E+01  0.14464449176E+03  0.19121943806E+03  0.12500068124E+03 0.  0.
         23    2    1    2    0    0 -0.50288122163E+00 -0.41738825218E+01  0.74808636496E+01  0.92192160308E+02  0.91791921847E+02 0.  0.
          5    1    3    3  502    0  0.35380886043E+02 -0.48620650267E+02  0.84311443080E+02  0.10366428586E+03  0.47000000000E+01 0.  1.
         -5    1    3    3    0  502 -0.34878004821E+02  0.52794532789E+02  0.60333048684E+02  0.87555152197E+02  0.47000000000E+01 0.  1.
        -11    1    4    4    0    0 -0.14343641791E+02  0.37481744986E+02  0.22239451543E+02  0.45882616229E+02  0.00000000000E+00 0. -1.
         11    1    4    4    0    0  0.13840760570E+02 -0.41655627508E+02 -0.14758587894E+02  0.46309544079E+02  0.00000000000E+00 0.  1.
<mgrwt>
<rscale>  0 0.11579326E+03</rscale>
<asrwt>0</asrwt>
<pdfrwt beam="2">  1        1 0.10098942E-01 0.12507136E+03</pdfrwt>
<pdfrwt beam="1">  1       -1 0.33502842E-01 0.12507136E+03</pdfrwt>
<totfact> 0.50676974E+03</totfact>
</mgrwt>
</event>
<event>
 8    1  0.1550723E-005  0.1473534E+03  0.7546771E-02  0.1212872E+00
          1   -1    0    0  501    0  0.00000000000E+00  0.00000000000E+00  0.11730902287E+02  0.11730902287E+02  0.00000000000E+00 0. -1.
         -1   -1    0    0    0  501 -0.00000000000E+00 -0.00000000000E+00 -0.15649102000E+04  0.15649102000E+04  0.00000000000E+00 0.  1.
         23    2    1    2    0    0  0.29992305973E+02 -0.72038887567E+02 -0.95472263206E+03  0.96602708616E+03  0.12499554908E+03 0.  0.
         23    2    1    2    0    0 -0.29992305973E+02  0.72038887567E+02 -0.59845666570E+03  0.61061401617E+03  0.92789850123E+02 0.  0.
          5    1    3    3  502    0  0.51244844124E+02 -0.91960725042E+02 -0.53567718801E+03  0.54594408940E+03  0.47000000000E+01 0. -1.
         -5    1    3    3    0  502 -0.21252538151E+02  0.19921837475E+02 -0.41904544405E+03  0.42008299676E+03  0.47000000000E+01 0. -1.
        -11    1    4    4    0    0  0.12633069733E+02 -0.17625697641E+02 -0.92397911614E+02  0.94908554613E+02  0.00000000000E+00 0. -1.
         11    1    4    4    0    0 -0.42625375706E+02  0.89664585207E+02 -0.50605875408E+03  0.51570546155E+03  0.00000000000E+00 0.  1.
<mgrwt>
<rscale>  0 0.14034000E+03</rscale>
<asrwt>0</asrwt>
<pdfrwt beam="1">  1        1 0.18047546E-02 0.14735341E+03</pdfrwt>
<pdfrwt beam="2">  1       -1 0.24075537E+00 0.14735341E+03</pdfrwt>
<totfact> 0.62938261E+02</totfact>
</mgrwt>
</event>
<event>
 8    1  0.1550723E-005  0.1402814E+03  0.7546771E-02  0.1221660E+00
          1   -1    0    0  501    0  0.00000000000E+00  0.00000000000E+00  0.69956611928E+03  0.69956611928E+03  0.00000000000E+00 0. -1.
         -1   -1    0    0    0  501 -0.00000000000E+00 -0.00000000000E+00 -0.25245369856E+02  0.25245369856E+02  0.00000000000E+00 0.  1.
         23    2    1    2    0    0  0.46224640386E+02 -0.43761030650E+02  0.27409135785E+03  0.30790409491E+03  0.12500845583E+03 0.  0.
         23    2    1    2    0    0 -0.46224640386E+02  0.43761030650E+02  0.40022939157E+03  0.41690739422E+03  0.97859410896E+02 0.  0.
          5    1    3    3  502    0  0.17525814606E+01  0.61756611800E+01  0.22420141509E+03  0.22434253913E+03  0.47000000000E+01 0.  1.
         -5    1    3    3    0  502  0.44472058925E+02 -0.49936691830E+02  0.49889942760E+02  0.83561555781E+02  0.47000000000E+01 0.  1.
        -11    1    4    4    0    0 -0.33961557095E+02  0.74694395536E+02  0.25335263056E+03  0.26630845930E+03  0.00000000000E+00 0.  1.
         11    1    4    4    0    0 -0.12263083291E+02 -0.30933364886E+02  0.14687676101E+03  0.15059893492E+03  0.00000000000E+00 0. -1.
<mgrwt>
<rscale>  0 0.13398458E+03</rscale>
<asrwt>0</asrwt>
<pdfrwt beam="1">  1        1 0.10762554E+00 0.14028136E+03</pdfrwt>
<pdfrwt beam="2">  1       -1 0.38839036E-02 0.14028136E+03</pdfrwt>
<totfact> 0.70010295E+03</totfact>
</mgrwt>
</event>
<event>
 8    1  0.1550723E-005  0.1499771E+03  0.7546771E-02  0.1209190E+00
         -1   -1    0    0    0  501 -0.00000000000E+00  0.00000000000E+00  0.44211366975E+02  0.44211366975E+02  0.00000000000E+00 0.  1.
          1   -1    0    0  501    0  0.00000000000E+00 -0.00000000000E+00 -0.42643203639E+03  0.42643203639E+03  0.00000000000E+00 0. -1.
         23    2    1    2    0    0 -0.90357252300E+01  0.82386542465E+02 -0.19874449659E+03  0.24898293662E+03  0.12499576430E+03 0.  0.
         23    2    1    2    0    0  0.90357252300E+01 -0.82386542465E+02 -0.18347617283E+03  0.22166046675E+03  0.92739796273E+02 0.  0.
          5    1    3    3  502    0 -0.60353434566E+02  0.33611980091E+02 -0.14252986886E+03  0.15845868795E+03  0.47000000000E+01 0. -1.
         -5    1    3    3    0  502  0.51317709336E+02  0.48774562374E+02 -0.56214627721E+02  0.90524248664E+02  0.47000000000E+01 0. -1.
        -11    1    4    4    0    0 -0.41834565488E+02 -0.36075386179E+02 -0.73585596289E+02  0.92013066130E+02  0.00000000000E+00 0.  1.
         11    1    4    4    0    0  0.50870290718E+02 -0.46311156286E+02 -0.10989057654E+03  0.12964740062E+03  0.00000000000E+00 0. -1.
<mgrwt>
<rscale>  0 0.14312137E+03</rscale>
<asrwt>0</asrwt>
<pdfrwt beam="2">  1        1 0.65604928E-01 0.14997709E+03</pdfrwt>
<pdfrwt beam="1">  1       -1 0.68017488E-02 0.14997709E+03</pdfrwt>
<totfact> 0.59371009E+03</totfact>
</mgrwt>
</event>
<event>
 7    1  0.1550723E-005  0.2148096E+03  0.7546771E-02  0.1146848E+00
          2   -1    0    0  501    0  0.00000000000E+00  0.00000000000E+00  0.86456053510E+03  0.86456053510E+03  0.00000000000E+00 0. -1.
         -2   -1    0    0    0  501 -0.00000000000E+00 -0.00000000000E+00 -0.49396396983E+02  0.49396396983E+02  0.00000000000E+00 0.  1.
         23    2    1    2    0    0 -0.85158859842E+02 -0.12777113495E+03  0.52632470916E+03  0.55399668719E+03  0.79480410202E+02 0.  0.
          5    1    1    2  502    0 -0.24426789084E+02  0.36901438734E+02  0.82121040079E+01  0.45253871192E+02  0.47000000000E+01 0. -1.
         -5    1    1    2    0  502  0.10958564893E+03  0.90869696218E+02  0.28062732495E+03  0.31470637370E+03  0.47000000000E+01 0.  1.
        -11    1    3    3    0    0 -0.65395068377E+02 -0.11739944810E+03  0.50689030861E+03  0.52440149728E+03  0.00000000000E+00 0. -1.
         11    1    3    3    0    0 -0.19763791464E+02 -0.10371686852E+02  0.19434400552E+02  0.29595189913E+02  0.00000000000E+00 0.  1.
<mgrwt>
<rscale>  0 0.20346486E+03</rscale>
<asrwt>0</asrwt>
<pdfrwt beam="1">  1        2 0.13300930E+00 0.21480960E+03</pdfrwt>
<pdfrwt beam="2">  1       -2 0.75994463E-02 0.21480960E+03</pdfrwt>
<totfact> 0.32622036E+03</totfact>
</mgrwt>
</event>
<event>
 7    1  0.1550723E-005  0.3048513E+03  0.7546771E-02  0.1088525E+00
         -3   -1    0    0    0  501 -0.00000000000E+00  0.00000000000E+00  0.26057662080E+03  0.26057662080E+03  0.00000000000E+00 0.  1.
          3   -1    0    0  501    0  0.00000000000E+00 -0.00000000000E+00 -0.36162654061E+03  0.36162654061E+03  0.00000000000E+00 0. -1.
         23    2    1    2    0    0  0.24289385375E+03  0.30295930152E+02 -0.16647463994E+03  0.31041038557E+03  0.93410567667E+02 0.  0.
          5    1    1    2  502    0 -0.99799861394E+02 -0.10292835420E+03  0.19161483950E+02  0.14471873030E+03  0.47000000000E+01 0. -1.
         -5    1    1    2    0  502 -0.14309399235E+03  0.72632424052E+02  0.46263236184E+02  0.16707404554E+03  0.47000000000E+01 0.  1.
        -11    1    3    3    0    0  0.90591226532E+02 -0.29770396315E+02 -0.84055662948E+02  0.12711570043E+03  0.00000000000E+00 0. -1.
         11    1    3    3    0    0  0.15230262722E+03  0.60066326467E+02 -0.82418976996E+02  0.18329468514E+03  0.00000000000E+00 0.  1.
<mgrwt>
<rscale>  0 0.29352080E+03</rscale>
<asrwt>0</asrwt>
<pdfrwt beam="2">  1        3 0.55634853E-01 0.30485134E+03</pdfrwt>
<pdfrwt beam="1">  1       -3 0.40088711E-01 0.30485134E+03</pdfrwt>
<totfact> 0.50001004E+01</totfact>
</mgrwt>
</event>
<event>
 8    1  0.1550723E-005  0.2138752E+03  0.7546771E-02  0.1142071E+00
         -2   -1    0    0    0  501 -0.00000000000E+00  0.00000000000E+00  0.97607365516E+02  0.97607365516E+02  0.00000000000E+00 0.  1.
          2   -1    0    0  501    0  0.00000000000E+00 -0.00000000000E+00 -0.43310519433E+03  0.43310519433E+03  0.00000000000E+00 0. -1.
         23    2    1    2    0    0  0.98967159432E+02 -0.14253786842E+03 -0.15687535567E+03  0.26524044558E+03  0.12502429435E+03 0.  0.
         23    2    1    2    0    0 -0.98967159432E+02  0.14253786842E+03 -0.17862247315E+03  0.26547211427E+03  0.91966912313E+02 0.  0.
          5    1    3    3  502    0  0.11991797385E+03 -0.14220124201E+03 -0.15746262911E+03  0.24375824755E+03  0.47000000000E+01 0.  1.
         -5    1    3    3    0  502 -0.20950814419E+02 -0.33662640713E+00  0.58727344147E+00  0.21482198032E+02  0.47000000000E+01 0.  1.
        -11    1    4    4    0    0 -0.22353687512E+02  0.94013488775E+02 -0.52038687649E+02  0.10975540273E+03  0.00000000000E+00 0.  1.
         11    1    4    4    0    0 -0.76613471919E+02  0.48524379645E+02 -0.12658378550E+03  0.15571671154E+03  0.00000000000E+00 0. -1.
<mgrwt>
<rscale>  0 0.20936343E+03</rscale>
<asrwt>0</asrwt>
<pdfrwt beam="2">  1        2 0.66631568E-01 0.21387524E+03</pdfrwt>
<pdfrwt beam="1">  1       -2 0.15016518E-01 0.21387524E+03</pdfrwt>
<totfact> 0.24750026E+03</totfact>
</mgrwt>
</event>
<event>
 8    1  0.1550723E-005  0.1264958E+03  0.7546771E-02  0.1247448E+00
          1   -1    0    0  501    0  0.00000000000E+00  0.00000000000E+00  0.22785652677E+03  0.22785652677E+03  0.00000000000E+00 0. -1.
         -1   -1    0    0    0  501 -0.00000000000E+00 -0.00000000000E+00 -0.67801105487E+02  0.67801105487E+02  0.00000000000E+00 0.  1.
         23    2    1    2    0    0  0.19060510199E+02 -0.32080450472E+01  0.21504515830E+02  0.12831068803E+03  0.12501037500E+03 0.  0.
         23    2    1    2    0    0 -0.19060510199E+02  0.32080450472E+01  0.13855090546E+03  0.16734694424E+03  0.91842537746E+02 0.  0.
          5    1    3    3  502    0 -0.39983010481E+02  0.28702284138E+02 -0.15127927236E+02  0.51704994191E+02  0.47000000000E+01 0.  1.
         -5    1    3    3    0  502  0.59043520680E+02 -0.31910329185E+02  0.36632443065E+02  0.76605693835E+02  0.47000000000E+01 0.  1.
        -11    1    4    4    0    0  0.15112446622E+02  0.30350165777E+02  0.16455847194E+02  0.37687047012E+02  0.00000000000E+00 0.  1.
         11    1    4    4    0    0 -0.34172956822E+02 -0.27142120730E+02  0.12209505826E+03  0.12965989722E+03  0.00000000000E+00 0. -1.
<mgrwt>
<rscale>  0 0.11740071E+03</rscale>
<asrwt>0</asrwt>
<pdfrwt beam="1">  1        1 0.35054850E-01 0.12649580E+03</pdfrwt>
<pdfrwt beam="2">  1       -1 0.10430939E-01 0.12649580E+03</pdfrwt>
<totfact> 0.67113342E+03</totfact>
</mgrwt>
</event>
<event>
 8    1  0.5082008E-005  0.4380216E+03  0.7546771E-02  0.1031891E+00
         -3   -1    0    0    0  501 -0.00000000000E+00  0.00000000000E+00  0.13897027348E+03  0.13897027348E+03  0.00000000000E+00 0.  1.
          3   -1    0    0  501    0  0.00000000000E+00 -0.00000000000E+00 -0.13765802274E+04  0.13765802274E+04  0.00000000000E+00 0. -1.
         23    2    1    2    0    0  0.41958966095E+03  0.13493503603E+02 -0.53795649910E+03  0.69372916342E+03  0.12500159613E+03 0.  0.
         23    2    1    2    0    0 -0.41958966095E+03 -0.13493503603E+02 -0.69965345480E+03  0.82182133744E+03  0.98172275348E+02 0.  0.
          5    1    3    3  502    0  0.34012100446E+03  0.22497660708E+01 -0.34405907947E+03  0.48382445090E+03  0.47000000000E+01 0.  1.
         -5    1    3    3    0  502  0.79468656488E+02  0.11243737533E+02 -0.19389741963E+03  0.20990471252E+03  0.47000000000E+01 0.  1.
        -11    1    4    4    0    0 -0.18868697593E+03 -0.45665381978E+02 -0.26379169929E+03  0.32752734635E+03  0.00000000000E+00 0.  1.
         11    1    4    4    0    0 -0.23090268502E+03  0.32171878374E+02 -0.43586175551E+03  0.49429399109E+03  0.00000000000E+00 0. -1.
<mgrwt>
<rscale>  0 0.43628914E+03</rscale>
<asrwt>0</asrwt>
<pdfrwt beam="2">  1        3 0.21178157E+00 0.43802164E+03</pdfrwt>
<pdfrwt beam="1">  1       -3 0.21380043E-01 0.43802164E+03</pdfrwt>
<totfact> 0.67288906E+00</totfact>
</mgrwt>
</event>
<event>
 8    1  0.1550723E-005  0.1466634E+03  0.7546771E-02  0.1214432E+00
         -1   -1    0    0    0  501 -0.00000000000E+00  0.00000000000E+00  0.70446482737E+02  0.70446482737E+02  0.00000000000E+00 0.  1.
          1   -1    0    0  501    0  0.00000000000E+00 -0.00000000000E+00 -0.26002339725E+03  0.26002339725E+03  0.00000000000E+00 0. -1.
         23    2    1    2    0    0 -0.75731885707E+02  0.12255894071E+02 -0.72656727375E+02  0.16367390780E+03  0.12499849042E+03 0.  0.
         23    2    1    2    0    0  0.75731885707E+02 -0.12255894071E+02 -0.11692018714E+03  0.16679597219E+03  0.90912269394E+02 0.  0.
          5    1    3    3  502    0 -0.30837518837E+02 -0.42348194283E+02  0.11323503005E+02  0.53801801525E+02  0.47000000000E+01 0. -1.
         -5    1    3    3    0  502 -0.44894366870E+02  0.54604088354E+02 -0.83980230380E+02  0.10987210627E+03  0.47000000000E+01 0. -1.
        -11    1    4    4    0    0  0.24079343441E+02 -0.32198412908E+02 -0.10172140730E+03  0.10937914462E+03  0.00000000000E+00 0. -1.
         11    1    4    4    0    0  0.51652542266E+02  0.19942518836E+02 -0.15198779840E+02  0.57416827574E+02  0.00000000000E+00 0.  1.
<mgrwt>
<rscale>  0 0.13918358E+03</rscale>
<asrwt>0</asrwt>
<pdfrwt beam="2">  1        1 0.40003600E-01 0.14666338E+03</pdfrwt>
<pdfrwt beam="1">  1       -1 0.10837920E-01 0.14666338E+03</pdfrwt>
<totfact> 0.54260167E+03</totfact>
</mgrwt>
</event>
<event>
 8    1  0.1550723E-005  0.1546838E+03  0.7546771E-02  0.1205533E+00
          1   -1    0    0  501    0  0.00000000000E+00  0.00000000000E+00  0.13487506882E+02  0.13487506882E+02  0.00000000000E+00 0. -1.
         -1   -1    0    0    0  501 -0.00000000000E+00 -0.00000000000E+00 -0.14260712015E+04  0.14260712015E+04  0.00000000000E+00 0.  1.
         23    2    1    2    0    0  0.86917741911E+02 -0.27365800169E+02 -0.80452184712E+03  0.81925728294E+03  0.12499404903E+03 0.  0.
         23    2    1    2    0    0 -0.86917741911E+02  0.27365800169E+02 -0.60806184746E+03  0.62030142540E+03  0.82043080960E+02 0.  0.
          5    1    3    3  502    0 -0.55448873768E+01  0.38312858798E+02 -0.15121913110E+03  0.15616637453E+03  0.47000000000E+01 0.  1.
         -5    1    3    3    0  502  0.92462629287E+02 -0.65678658967E+02 -0.65330271602E+03  0.66309090841E+03  0.47000000000E+01 0.  1.
        -11    1    4    4    0    0 -0.60622983169E+02 -0.23467734271E+02 -0.34751752894E+03  0.35354534866E+03  0.00000000000E+00 0. -1.
         11    1    4    4    0    0 -0.26294758741E+02  0.50833534441E+02 -0.26054431853E+03  0.26675607674E+03  0.00000000000E+00 0.  1.
<mgrwt>
<rscale>  0 0.14595547E+03</rscale>
<asrwt>0</asrwt>
<pdfrwt beam="1">  1        1 0.20750014E-02 0.15468385E+03</pdfrwt>
<pdfrwt beam="2">  1       -1 0.21939554E+00 0.15468385E+03</pdfrwt>
<totfact> 0.70729133E+02</totfact>
</mgrwt>
</event>
<event>
 7    1  0.1550723E-005  0.2385828E+03  0.7546771E-02  0.1157528E+00
         -2   -1    0    0    0  501 -0.00000000000E+00  0.00000000000E+00  0.18536791915E+03  0.18536791915E+03  0.00000000000E+00 0.  1.
          2   -1    0    0  501    0  0.00000000000E+00 -0.00000000000E+00 -0.16051967496E+03  0.16051967496E+03  0.00000000000E+00 0. -1.
         23    2    1    2    0    0  0.34053051494E+02 -0.14535034921E+02 -0.27021172482E+02  0.10173148872E+03  0.90820011444E+02 0.  0.
          5    1    1    2  502    0 -0.56826510585E+02  0.11866240084E+03  0.23210473334E+02  0.13368183778E+03  0.47000000000E+01 0. -1.
         -5    1    1    2    0  502  0.22773459092E+02 -0.10412736592E+03  0.28658943332E+02  0.11047426762E+03  0.47000000000E+01 0.  1.
        -11    1    3    3    0    0  0.51716064630E+02  0.22785744334E+02 -0.11844414781E+02  0.57741074177E+02  0.00000000000E+00 0. -1.
         11    1    3    3    0    0 -0.17663013137E+02 -0.37320779255E+02 -0.15176757701E+02  0.43990414542E+02  0.00000000000E+00 0.  1.
<mgrwt>
<rscale>  0 0.19103876E+03</rscale>
<asrwt>0</asrwt>
<pdfrwt beam="2">  1        2 0.24695335E-01 0.23858283E+03</pdfrwt>
<pdfrwt beam="1">  1       -2 0.28518141E-01 0.23858283E+03</pdfrwt>
<totfact> 0.24266459E+03</totfact>
</mgrwt>
</event>
<event>
 8    1  0.1550723E-005  0.1283328E+03  0.7546771E-02  0.1245000E+00
          2   -1    0    0  501    0  0.00000000000E+00  0.00000000000E+00  0.32575338014E+03  0.32575338014E+03  0.00000000000E+00 0. -1.
         -2   -1    0    0    0  501 -0.00000000000E+00 -0.00000000000E+00 -0.48509620665E+02  0.48509620665E+02  0.00000000000E+00 0.  1.
         23    2    1    2    0    0  0.20053275386E+02 -0.21023057185E+02  0.69207740374E+02  0.14580476767E+03  0.12500086464E+03 0.  0.
         23    2    1    2    0    0 -0.20053275386E+02  0.21023057185E+02  0.20803601910E+03  0.22845823313E+03  0.89833603158E+02 0.  0.
          5    1    3    3  502    0  0.43658493602E+02  0.73400399819E+01 -0.20259013170E+02  0.48912757693E+02  0.47000000000E+01 0.  1.
         -5    1    3    3    0  502 -0.23605218216E+02 -0.28363097167E+02  0.89466753544E+02  0.96892009978E+02  0.47000000000E+01 0.  1.
        -11    1    4    4    0    0 -0.36437523650E+02  0.49210432535E+02  0.14740841487E+03  0.15962017596E+03  0.00000000000E+00 0. -1.
         11    1    4    4    0    0  0.16384248264E+02 -0.28187375350E+02  0.60627604229E+02  0.68838057170E+02  0.00000000000E+00 0.  1.
<mgrwt>
<rscale>  0 0.11885393E+03</rscale>
<asrwt>0</asrwt>
<pdfrwt beam="1">  1        2 0.50115903E-01 0.12833284E+03</pdfrwt>
<pdfrwt beam="2">  1       -2 0.74630188E-02 0.12833284E+03</pdfrwt>
<totfact> 0.99396623E+03</totfact>
</mgrwt>
</event>
<event>
 8    1  0.1550723E-005  0.2302812E+03  0.7546771E-02  0.1128715E+00
         -2   -1    0    0    0  501 -0.00000000000E+00  0.00000000000E+00  0.37081096846E+02  0.37081096846E+02  0.00000000000E+00 0.  1.
          2   -1    0    0  501    0  0.00000000000E+00 -0.00000000000E+00 -0.13532564794E+04  0.13532564794E+04  0.00000000000E+00 0. -1.
         23    2    1    2    0    0  0.12361101359E+03  0.14874818958E+03 -0.67151754934E+03  0.70990508485E+03  0.12499481527E+03 0.  0.
         23    2    1    2    0    0 -0.12361101359E+03 -0.14874818958E+03 -0.64465783318E+03  0.68043249136E+03  0.99994734018E+02 0.  0.
          5    1    3    3  502    0  0.12677276981E+03  0.74785221855E+02 -0.53058958746E+03  0.55064649722E+03  0.47000000000E+01 0.  1.
         -5    1    3    3    0  502 -0.31617562212E+01  0.73962967724E+02 -0.14092796188E+03  0.15925858764E+03  0.47000000000E+01 0.  1.
        -11    1    4    4    0    0 -0.39059725086E+01  0.14326815878E+02 -0.32919254198E+02  0.36113592613E+02  0.00000000000E+00 0.  1.
         11    1    4    4    0    0 -0.11970504108E+03 -0.16307500546E+03 -0.61173857898E+03  0.64431889875E+03  0.00000000000E+00 0. -1.
<mgrwt>
<rscale>  0 0.22707610E+03</rscale>
<asrwt>0</asrwt>
<pdfrwt beam="2">  1        2 0.20819331E+00 0.23028116E+03</pdfrwt>
<pdfrwt beam="1">  1       -2 0.57047841E-02 0.23028116E+03</pdfrwt>
<totfact> 0.26202380E+03</totfact>
</mgrwt>
</event>
<event>
 8    1  0.1550723E-005  0.2499965E+03  0.7546771E-02  0.1115704E+00
          1   -1    0    0  501    0  0.00000000000E+00  0.00000000000E+00  0.69796466050E+02  0.69796466050E+02  0.00000000000E+00 0. -1.
         -1   -1    0    0    0  501 -0.00000000000E+00 -0.00000000000E+00 -0.10590373855E+04  0.10590373855E+04  0.00000000000E+00 0.  1.
         23    2    1    2    0    0  0.10978542144E+03  0.18660406222E+03 -0.76102444290E+03  0.80103460466E+03  0.12499728147E+03 0.  0.
         23    2    1    2    0    0 -0.10978542144E+03 -0.18660406222E+03 -0.22821647653E+03  0.32779924687E+03  0.92171965858E+02 0.  0.
          5    1    3    3  502    0  0.12020298806E+03  0.10930547846E+03 -0.60616303382E+03  0.62757641728E+03  0.47000000000E+01 0.  1.
         -5    1    3    3    0  502 -0.10417566620E+02  0.77298583763E+02 -0.15486140908E+03  0.17345818738E+03  0.47000000000E+01 0.  1.
        -11    1    4    4    0    0 -0.97406227616E+02 -0.85774327452E+02 -0.15717643073E+03  0.20383728512E+03  0.00000000000E+00 0.  1.
         11    1    4    4    0    0 -0.12379193822E+02 -0.10082973477E+03 -0.71040045798E+02  0.12396196175E+03  0.00000000000E+00 0. -1.
<mgrwt>
<rscale>  0 0.24624041E+03</rscale>
<asrwt>0</asrwt>
<pdfrwt beam="1">  1        1 0.10737917E-01 0.24999647E+03</pdfrwt>
<pdfrwt beam="2">  1       -1 0.16292884E+00 0.24999647E+03</pdfrwt>
<totfact> 0.17709036E+02</totfact>
</mgrwt>
</event>
<event>
 8    1  0.1550723E-005  0.2521603E+03  0.7546771E-02  0.1114365E+00
          3   -1    0    0  501    0  0.00000000000E+00  0.00000000000E+00  0.22940801893E+03  0.22940801893E+03  0.00000000000E+00 0. -1.
         -3   -1    0    0    0  501 -0.00000000000E+00 -0.00000000000E+00 -0.26532780168E+03  0.26532780168E+03  0.00000000000E+00 0.  1.
         23    2    1    2    0    0  0.19029241828E+03  0.10839527045E+03 -0.50261222030E+02  0.25712064403E+03  0.12499638409E+03 0.  0.
         23    2    1    2    0    0 -0.19029241828E+03 -0.10839527045E+03  0.14341439275E+02  0.23761517658E+03  0.91074453898E+02 0.  0.
          5    1    3    3  502    0  0.18504914813E+03  0.11390540018E+03 -0.11836159263E+02  0.21766904254E+03  0.47000000000E+01 0. -1.
         -5    1    3    3    0  502  0.52432701460E+01 -0.55101297263E+01 -0.38425062767E+02  0.39451601489E+02  0.47000000000E+01 0. -1.
        -11    1    4    4    0    0 -0.16429657758E+02 -0.16637758365E+02 -0.28038346751E+02  0.36508869416E+02  0.00000000000E+00 0.  1.
         11    1    4    4    0    0 -0.17386276052E+03 -0.91757512087E+02  0.42379786026E+02  0.20110630717E+03  0.00000000000E+00 0. -1.
<mgrwt>
<rscale>  0 0.24832932E+03</rscale>
<asrwt>0</asrwt>
<pdfrwt beam="1">  1        3 0.35293541E-01 0.25216034E+03</pdfrwt>
<pdfrwt beam="2">  1       -3 0.40819662E-01 0.25216034E+03</pdfrwt>
<totfact> 0.11758842E+02</totfact>
</mgrwt>
</event>
<event>
 8    1  0.1550723E-005  0.1336721E+03  0.7546771E-02  0.1231756E+00
         -3   -1    0    0    0  501 -0.00000000000E+00  0.00000000000E+00  0.11867156983E+03  0.11867156983E+03  0.00000000000E+00 0.  1.
          3   -1    0    0  501    0  0.00000000000E+00 -0.00000000000E+00 -0.13020908485E+03  0.13020908485E+03  0.00000000000E+00 0. -1.
         23    2    1    2    0    0  0.58499555968E+02  0.15518348288E+02  0.19656802249E+02  0.13510969620E+03  0.11918566588E+03 0.  0.
         23    2    1    2    0    0 -0.58499555968E+02 -0.15518348288E+02 -0.31194317269E+02  0.11377095848E+03  0.91146740922E+02 0.  0.
          5    1    3    3  502    0  0.11660636467E+02 -0.41703601330E+02  0.39069492107E+02  0.58512186938E+02  0.47000000000E+01 0. -1.
         -5    1    3    3    0  502  0.46838919501E+02  0.57221949618E+02 -0.19412689858E+02  0.76597509265E+02  0.47000000000E+01 0.  1.
        -11    1    4    4    0    0 -0.65070024619E+02 -0.35790172716E+02 -0.46422494453E+02  0.87579064611E+02  0.00000000000E+00 0. -1.
         11    1    4    4    0    0  0.65704686508E+01  0.20271824428E+02  0.15228177183E+02  0.26191893866E+02  0.00000000000E+00 0.  1.
<mgrwt>
<rscale>  0 0.12714398E+03</rscale>
<asrwt>0</asrwt>
<pdfrwt beam="2">  1        3 0.20032167E-01 0.13367214E+03</pdfrwt>
<pdfrwt beam="1">  1       -3 0.18257165E-01 0.13367214E+03</pdfrwt>
<totfact> 0.13535759E+03</totfact>
</mgrwt>
</event>
<event>
 8    1  0.1550723E-005  0.1477813E+03  0.7546771E-02  0.1213154E+00
          1   -1    0    0  501    0  0.00000000000E+00  0.00000000000E+00  0.35085791747E+03  0.35085791747E+03  0.00000000000E+00 0. -1.
         -1   -1    0    0    0  501 -0.00000000000E+00 -0.00000000000E+00 -0.51927766234E+02  0.51927766234E+02  0.00000000000E+00 0.  1.
         23    2    1    2    0    0  0.49091279974E+02 -0.61679777147E+02  0.13670071744E+03  0.20131167229E+03  0.12499981829E+03 0.  0.
         23    2    1    2    0    0 -0.49091279974E+02  0.61679777147E+02  0.16222943379E+03  0.20147401142E+03  0.89772152745E+02 0.  0.
          5    1    3    3  502    0  0.38030237928E+02 -0.13850816804E+02 -0.13735149753E+02  0.42998703024E+02  0.47000000000E+01 0. -1.
         -5    1    3    3    0  502  0.11061042046E+02 -0.47828960343E+02  0.15043586719E+03  0.15831296926E+03  0.47000000000E+01 0. -1.
        -11    1    4    4    0    0  0.15091997453E+02  0.49326828781E+02  0.92426863939E+02  0.10584719931E+03  0.00000000000E+00 0.  1.
         11    1    4    4    0    0 -0.64183277428E+02  0.12352948366E+02  0.69802569855E+02  0.95626812104E+02  0.00000000000E+00 0. -1.
<mgrwt>
<rscale>  0 0.14012978E+03</rscale>
<asrwt>0</asrwt>
<pdfrwt beam="1">  1        1 0.53978140E-01 0.14778127E+03</pdfrwt>
<pdfrwt beam="2">  1       -1 0.79888874E-02 0.14778127E+03</pdfrwt>
<totfact> 0.59541777E+03</totfact>
</mgrwt>
</event>
<event>
 8    1  0.1550723E-005  0.1414797E+03  0.7546771E-02  0.1224401E+00
         -1   -1    0    0    0  501 -0.00000000000E+00  0.00000000000E+00  0.38582273292E+03  0.38582273292E+03  0.00000000000E+00 0.  1.
          1   -1    0    0  501    0  0.00000000000E+00 -0.00000000000E+00 -0.53907703876E+02  0.53907703876E+02  0.00000000000E+00 0. -1.
         23    2    1    2    0    0  0.22406703567E+02 -0.62366819659E+02  0.29311533999E+03  0.32547365204E+03  0.12499926031E+03 0.  0.
         23    2    1    2    0    0 -0.22406703567E+02  0.62366819659E+02  0.38799689055E+02  0.11425678475E+03  0.84602106546E+02 0.  0.
          5    1    3    3  502    0 -0.14869990362E+02 -0.52733730195E+02  0.27873308411E+03  0.28410593991E+03  0.47000000000E+01 0. -1.
         -5    1    3    3    0  502  0.37276693929E+02 -0.96330894636E+01  0.14382255874E+02  0.41367712131E+02  0.47000000000E+01 0. -1.
        -11    1    4    4    0    0 -0.30392201505E+02 -0.11692961381E+02  0.72470129979E+01  0.33360612338E+02  0.00000000000E+00 0.  1.
         11    1    4    4    0    0  0.79854979380E+01  0.74059781040E+02  0.31552676057E+02  0.80896172414E+02  0.00000000000E+00 0. -1.
<mgrwt>
<rscale>  0 0.13208074E+03</rscale>
<asrwt>0</asrwt>
<pdfrwt beam="2">  1        1 0.82934932E-02 0.14147967E+03</pdfrwt>
<pdfrwt beam="1">  1       -1 0.59357342E-01 0.14147967E+03</pdfrwt>
<totfact> 0.23835742E+03</totfact>
</mgrwt>
</event>
<event>
 8    1  0.1550723E-005  0.2096098E+03  0.7546771E-02  0.1145526E+00
          1   -1    0    0  501    0  0.00000000000E+00  0.00000000000E+00  0.36782972249E+03  0.36782972249E+03  0.00000000000E+00 0. -1.
         -1   -1    0    0    0  501 -0.00000000000E+00 -0.00000000000E+00 -0.12879354045E+03  0.12879354045E+03  0.00000000000E+00 0.  1.
         23    2    1    2    0    0  0.16432908872E+03 -0.36137764118E+02  0.28315686437E+02  0.21151373786E+03  0.12500518314E+03 0.  0.
         23    2    1    2    0    0 -0.16432908872E+03  0.36137764118E+02  0.21072049560E+03  0.28510952508E+03  0.92597659963E+02 0.  0.
          5    1    3    3  502    0  0.12696296164E+03 -0.68571648829E+02 -0.15568532593E+02  0.14521065339E+03  0.47000000000E+01 0.  1.
         -5    1    3    3    0  502  0.37366127080E+02  0.32433884712E+02  0.43884219030E+02  0.66303084471E+02  0.47000000000E+01 0.  1.
        -11    1    4    4    0    0 -0.12342140812E+03  0.46465852916E+02  0.20321383581E+03  0.24225561404E+03  0.00000000000E+00 0. -1.
         11    1    4    4    0    0 -0.40907680597E+02 -0.10328088799E+02  0.75066597898E+01  0.42853911038E+02  0.00000000000E+00 0.  1.
<mgrwt>
<rscale>  0 0.20507558E+03</rscale>
<asrwt>0</asrwt>
<pdfrwt beam="1">  1        1 0.56589188E-01 0.20960984E+03</pdfrwt>
<pdfrwt beam="2">  1       -1 0.19814391E-01 0.20960984E+03</pdfrwt>
<totfact> 0.13769847E+03</totfact>
</mgrwt>
</event>
<event>
 8    1  0.1550723E-005  0.1258024E+03  0.7546771E-02  0.1248570E+00
          1   -1    0    0  501    0  0.00000000000E+00  0.00000000000E+00  0.50226815126E+03  0.50226815126E+03  0.00000000000E+00 0. -1.
         -1   -1    0    0    0  501 -0.00000000000E+00 -0.00000000000E+00 -0.24136609340E+02  0.24136609340E+02  0.00000000000E+00 0.  1.
         23    2    1    2    0    0 -0.92014593105E+01  0.10833960907E+02  0.24802883870E+03  0.27810888329E+03  0.12499681826E+03 0.  0.
         23    2    1    2    0    0  0.92014593105E+01 -0.10833960907E+02  0.23010270322E+03  0.24829587731E+03  0.92203834513E+02 0.  0.
          5    1    3    3  502    0 -0.66628725493E+02  0.37457293799E+01  0.14876845225E+03  0.16311823912E+03  0.47000000000E+01 0. -1.
         -5    1    3    3    0  502  0.57427266183E+02  0.70882315274E+01  0.99260386450E+02  0.11499064417E+03  0.47000000000E+01 0. -1.
        -11    1    4    4    0    0  0.43526943463E+02 -0.20798023199E+02  0.18250076953E+03  0.18876886251E+03  0.00000000000E+00 0. -1.
         11    1    4    4    0    0 -0.34325484153E+02  0.99640622915E+01  0.47601933689E+02  0.59527014797E+02  0.00000000000E+00 0.  1.
<mgrwt>
<rscale>  0 0.11674251E+03</rscale>
<asrwt>0</asrwt>
<pdfrwt beam="1">  1        1 0.77272016E-01 0.12580241E+03</pdfrwt>
<pdfrwt beam="2">  1       -1 0.37133249E-02 0.12580241E+03</pdfrwt>
<totfact> 0.11646944E+04</totfact>
</mgrwt>
</event>
<event>
 8    1  0.1550723E-005  0.1317663E+03  0.7546771E-02  0.1238749E+00
          2   -1    0    0  501    0  0.00000000000E+00  0.00000000000E+00  0.25367902739E+03  0.25367902739E+03  0.00000000000E+00 0. -1.
         -2   -1    0    0    0  501 -0.00000000000E+00 -0.00000000000E+00 -0.52492675686E+02  0.52492675686E+02  0.00000000000E+00 0.  1.
         23    2    1    2    0    0 -0.40553460107E+02  0.97197221410E+01  0.11742186380E+03  0.17649431011E+03  0.12499316493E+03 0.  0.
         23    2    1    2    0    0  0.40553460107E+02 -0.97197221410E+01  0.83764487903E+02  0.12967739296E+03  0.89781293639E+02 0.  0.
          5    1    3    3  502    0 -0.57389378526E+02  0.56649167584E+02  0.62218612699E+02  0.10196035858E+03  0.47000000000E+01 0. -1.
         -5    1    3    3    0  502  0.16835918419E+02 -0.46929445443E+02  0.55203251105E+02  0.74533951533E+02  0.47000000000E+01 0. -1.
        -11    1    4    4    0    0  0.23439754162E+02 -0.19935173800E+02 -0.11122987538E+02  0.32719322753E+02  0.00000000000E+00 0.  1.
         11    1    4    4    0    0  0.17113705945E+02  0.10215451659E+02  0.94887475441E+02  0.96958070212E+02  0.00000000000E+00 0. -1.
<mgrwt>
<rscale>  0 0.12267469E+03</rscale>
<asrwt>0</asrwt>
<pdfrwt beam="1">  1        2 0.39027542E-01 0.13176626E+03</pdfrwt>
<pdfrwt beam="2">  1       -2 0.80757964E-02 0.13176626E+03</pdfrwt>
<totfact> 0.11495415E+04</totfact>
</mgrwt>
</event>
<event>
 8    1  0.1550723E-005  0.2082912E+03  0.7546771E-02  0.1146645E+00
         -1   -1    0    0    0  501 -0.00000000000E+00  0.00000000000E+00  0.16453959651E+03  0.16453959651E+03  0.00000000000E+00 0.  1.
          1   -1    0    0  501    0  0.00000000000E+00 -0.00000000000E+00 -0.24596610815E+03  0.24596610815E+03  0.00000000000E+00 0. -1.
         23    2    1    2    0    0 -0.84200418259E+02 -0.14376601461E+03 -0.15536624640E+02  0.20886981292E+03  0.12500733838E+03 0.  0.
         23    2    1    2    0    0  0.84200418259E+02  0.14376601461E+03 -0.65889887000E+02  0.20163589174E+03  0.92505017348E+02 0.  0.
          5    1    3    3  502    0 -0.36532853838E+02 -0.80339470687E+02  0.53738672437E+02  0.10343604244E+03  0.47000000000E+01 0.  1.
         -5    1    3    3    0  502 -0.47667564422E+02 -0.63426543926E+02 -0.69275297077E+02  0.10543377048E+03  0.47000000000E+01 0.  1.
        -11    1    4    4    0    0  0.44404277782E+01  0.54113370233E+02 -0.60823594070E+02  0.81532103078E+02  0.00000000000E+00 0. -1.
         11    1    4    4    0    0  0.79759990481E+02  0.89652644380E+02 -0.50662929299E+01  0.12010378866E+03  0.00000000000E+00 0.  1.
<mgrwt>
<rscale>  0 0.20371112E+03</rscale>
<asrwt>0</asrwt>
<pdfrwt beam="2">  1        1 0.37840940E-01 0.20829117E+03</pdfrwt>
<pdfrwt beam="1">  1       -1 0.25313784E-01 0.20829117E+03</pdfrwt>
<totfact> 0.15273944E+03</totfact>
</mgrwt>
</event>
<event>
 8    1  0.1550723E-005  0.1281400E+03  0.7546771E-02  0.1244134E+00
         -1   -1    0    0    0  501 -0.00000000000E+00  0.00000000000E+00  0.44352290450E+02  0.44352290450E+02  0.00000000000E+00 0.  1.
          1   -1    0    0  501    0  0.00000000000E+00 -0.00000000000E+00 -0.28470283612E+03  0.28470283612E+03  0.00000000000E+00 0. -1.
         23    2    1    2    0    0 -0.27258015841E+02  0.72580856464E+01 -0.13245319545E+03  0.18429245027E+03  0.12499671598E+03 0.  0.
         23    2    1    2    0    0  0.27258015841E+02 -0.72580856464E+01 -0.10789735022E+03  0.14476267630E+03  0.92296885271E+02 0.  0.
          5    1    3    3  502    0 -0.17037254671E+02 -0.25426930390E+02 -0.14442792901E+03  0.14771023497E+03  0.47000000000E+01 0. -1.
         -5    1    3    3    0  502 -0.10220761170E+02  0.32685016036E+02  0.11974733564E+02  0.36582215298E+02  0.47000000000E+01 0. -1.
        -11    1    4    4    0    0 -0.32407831143E+01  0.23294303762E+02  0.48673685331E+01  0.24017046849E+02  0.00000000000E+00 0.  1.
         11    1    4    4    0    0  0.30498798955E+02 -0.30552389408E+02 -0.11276471876E+03  0.12074562945E+03  0.00000000000E+00 0. -1.
<mgrwt>
<rscale>  0 0.11937348E+03</rscale>
<asrwt>0</asrwt>
<pdfrwt beam="2">  1        1 0.43800437E-01 0.12813999E+03</pdfrwt>
<pdfrwt beam="1">  1       -1 0.68234291E-02 0.12813999E+03</pdfrwt>
<totfact> 0.96885571E+03</totfact>
</mgrwt>
</event>
<event>
 8    1  0.1550723E-005  0.1302534E+03  0.7546771E-02  0.1242366E+00
         -1   -1    0    0    0  501 -0.00000000000E+00  0.00000000000E+00  0.70594219923E+02  0.70594219923E+02  0.00000000000E+00 0.  1.
          1   -1    0    0  501    0  0.00000000000E+00 -0.00000000000E+00 -0.34567836740E+03  0.34567836740E+03  0.00000000000E+00 0. -1.
         23    2    1    2    0    0  0.17692505449E+02 -0.31499562198E+02 -0.55077872367E+01  0.13036977908E+03  0.12514270418E+03 0.  0.
         23    2    1    2    0    0 -0.17692505449E+02  0.31499562198E+02 -0.26957636024E+03  0.28590280824E+03  0.88112170512E+02 0.  0.
          5    1    3    3  502    0  0.39684622693E+02 -0.69953720105E+02 -0.20913573572E+02  0.83233765951E+02  0.47000000000E+01 0. -1.
         -5    1    3    3    0  502 -0.21992117244E+02  0.38454157907E+02  0.15405786335E+02  0.47136013130E+02  0.47000000000E+01 0. -1.
        -11    1    4    4    0    0  0.28874268516E+02  0.34781831037E+02 -0.17031497984E+03  0.17621206403E+03  0.00000000000E+00 0. -1.
         11    1    4    4    0    0 -0.46566773965E+02 -0.32822688396E+01 -0.99261380401E+02  0.10969074421E+03  0.00000000000E+00 0.  1.
<mgrwt>
<rscale>  0 0.12044442E+03</rscale>
<asrwt>0</asrwt>
<pdfrwt beam="2">  1        1 0.53181287E-01 0.13025338E+03</pdfrwt>
<pdfrwt beam="1">  1       -1 0.10860649E-01 0.13025338E+03</pdfrwt>
<totfact> 0.37759866E+03</totfact>
</mgrwt>
</event>
<event>
 8    1  0.1550723E-005  0.1301752E+03  0.7546771E-02  0.1239277E+00
         -3   -1    0    0    0  501 -0.00000000000E+00  0.00000000000E+00  0.41372743257E+03  0.41372743257E+03  0.00000000000E+00 0.  1.
          3   -1    0    0  501    0  0.00000000000E+00 -0.00000000000E+00 -0.32727676429E+02  0.32727676429E+02  0.00000000000E+00 0. -1.
         23    2    1    2    0    0 -0.34253885442E+02 -0.12035483149E+02  0.23411605976E+03  0.26787295849E+03  0.12500964335E+03 0.  0.
         23    2    1    2    0    0  0.34253885442E+02  0.12035483149E+02  0.14688369638E+03  0.17858215051E+03  0.94860859661E+02 0.  0.
          5    1    3    3  502    0  0.43297050775E+02 -0.26385380028E+02  0.83792583939E+02  0.98051568107E+02  0.47000000000E+01 0. -1.
         -5    1    3    3    0  502 -0.77550936217E+02  0.14349896878E+02  0.15032347582E+03  0.16982139038E+03  0.47000000000E+01 0. -1.
        -11    1    4    4    0    0  0.56388055609E+02  0.63285617879E+01  0.14492877709E+03  0.15564065645E+03  0.00000000000E+00 0.  1.
         11    1    4    4    0    0 -0.22134170167E+02  0.57069213612E+01  0.19549192886E+01  0.22941494063E+02  0.00000000000E+00 0. -1.
<mgrwt>
<rscale>  0 0.12234584E+03</rscale>
<asrwt>0</asrwt>
<pdfrwt beam="2">  1        3 0.50350275E-02 0.13017524E+03</pdfrwt>
<pdfrwt beam="1">  1       -3 0.63650370E-01 0.13017524E+03</pdfrwt>
<totfact> 0.12545029E+03</totfact>
</mgrwt>
</event>
<event>
 8    1  0.1550723E-005  0.2245602E+03  0.7546771E-02  0.1133610E+00
         -1   -1    0    0    0  501 -0.00000000000E+00  0.00000000000E+00  0.68724261978E+03  0.68724261978E+03  0.00000000000E+00 0.  1.
          1   -1    0    0  501    0  0.00000000000E+00 -0.00000000000E+00 -0.98736829646E+02  0.98736829646E+02  0.00000000000E+00 0. -1.
         23    2    1    2    0    0  0.18317216136E+03 -0.35368965288E+02  0.52055172758E+03  0.56692275081E+03  0.12499719955E+03 0.  0.
         23    2    1    2    0    0 -0.18317216136E+03  0.35368965288E+02  0.67954062547E+02  0.21905669861E+03  0.92547707638E+02 0.  0.
          5    1    3    3  502    0  0.18172564473E+03 -0.14205302000E+02  0.51212635952E+03  0.54361889102E+03  0.47000000000E+01 0.  1.
         -5    1    3    3    0  502  0.14465166253E+01 -0.21163663288E+02  0.84253680599E+01  0.23303859788E+02  0.47000000000E+01 0.  1.
        -11    1    4    4    0    0 -0.61722133326E+02  0.57996958291E+02  0.26353415026E+02  0.88700458831E+02  0.00000000000E+00 0.  1.
         11    1    4    4    0    0 -0.12145002803E+03 -0.22627993003E+02  0.41600647521E+02  0.13035623978E+03  0.00000000000E+00 0. -1.
<mgrwt>
<rscale>  0 0.22036668E+03</rscale>
<asrwt>0</asrwt>
<pdfrwt beam="2">  1        1 0.15190282E-01 0.22456025E+03</pdfrwt>
<pdfrwt beam="1">  1       -1 0.10572963E+00 0.22456025E+03</pdfrwt>
<totfact> 0.32713596E+02</totfact>
</mgrwt>
</event>
<event>
 7    1  0.1550723E-005  0.1608004E+03  0.7546771E-02  0.1199048E+00
          1   -1    0    0  501    0  0.00000000000E+00  0.00000000000E+00  0.41470223559E+03  0.41470223559E+03  0.00000000000E+00 0. -1.
         -1   -1    0    0    0  501 -0.00000000000E+00 -0.00000000000E+00 -0.63615009582E+02  0.63615009582E+02  0.00000000000E+00 0.  1.
         23    2    1    2    0    0 -0.20364510838E+02 -0.75560265230E+02  0.27097994652E+03  0.29866771880E+03  0.98225291326E+02 0.  0.
          5    1    1    2  502    0 -0.22669679250E+02 -0.13070687893E+02 -0.24298745272E+02  0.36017721487E+02  0.47000000000E+01 0. -1.
         -5    1    1    2    0  502  0.43034190087E+02  0.88630953123E+02  0.10440602476E+03  0.14363180489E+03  0.47000000000E+01 0.  1.
        -11    1    3    3    0    0 -0.57563011684E+02 -0.53850419698E+02  0.20738783112E+03  0.22186275152E+03  0.00000000000E+00 0. -1.
         11    1    3    3    0    0  0.37198500846E+02 -0.21709845532E+02  0.63592115398E+02  0.76804967281E+02  0.00000000000E+00 0.  1.
<mgrwt>
<rscale>  0 0.15116533E+03</rscale>
<asrwt>0</asrwt>
<pdfrwt beam="1">  1        1 0.63800342E-01 0.16080042E+03</pdfrwt>
<pdfrwt beam="2">  1       -1 0.97869248E-02 0.16080042E+03</pdfrwt>
<totfact> 0.35566086E+03</totfact>
</mgrwt>
</event>
<event>
 8    1  0.1550723E-005  0.1480227E+03  0.7546771E-02  0.1212999E+00
         -3   -1    0    0    0  501 -0.00000000000E+00  0.00000000000E+00  0.19805875101E+03  0.19805875101E+03  0.00000000000E+00 0.  1.
          3   -1    0    0  501    0  0.00000000000E+00 -0.00000000000E+00 -0.97096407739E+02  0.97096407739E+02  0.00000000000E+00 0. -1.
         23    2    1    2    0    0  0.59551797026E+02 -0.49610419405E+02  0.94670294862E+02  0.17570768179E+03  0.12610755119E+03 0.  0.
         23    2    1    2    0    0 -0.59551797026E+02  0.49610419405E+02  0.62920484062E+01  0.11944747696E+03  0.90666971031E+02 0.  0.
          5    1    3    3  502    0 -0.22647253659E+02  0.18003851200E+02 -0.50948119235E+01  0.29750359071E+02  0.47000000000E+01 0. -1.
         -5    1    3    3    0  502  0.82199050685E+02 -0.67614270605E+02  0.99765106785E+02  0.14595732272E+03  0.47000000000E+01 0.  1.
        -11    1    4    4    0    0 -0.32128727941E+02  0.41052358008E+02 -0.39489945926E+02  0.65398830925E+02  0.00000000000E+00 0. -1.
         11    1    4    4    0    0 -0.27423069084E+02  0.85580613975E+01  0.45781994333E+02  0.54048646033E+02  0.00000000000E+00 0.  1.
<mgrwt>
<rscale>  0 0.14024574E+03</rscale>
<asrwt>0</asrwt>
<pdfrwt beam="2">  1        3 0.14937909E-01 0.14802272E+03</pdfrwt>
<pdfrwt beam="1">  1       -3 0.30470577E-01 0.14802272E+03</pdfrwt>
<totfact> 0.91174355E+02</totfact>
</mgrwt>
</event>
<event>
 8    1  0.1550723E-005  0.1945743E+03  0.7546771E-02  0.1158663E+00
          2   -1    0    0  501    0  0.00000000000E+00  0.00000000000E+00  0.59814263739E+03  0.59814263739E+03  0.00000000000E+00 0. -1.
         -2   -1    0    0    0  501 -0.00000000000E+00 -0.00000000000E+00 -0.17243413082E+03  0.17243413082E+03  0.00000000000E+00 0.  1.
         23    2    1    2    0    0 -0.74176105859E+02 -0.12935131079E+03 -0.98142687937E+02  0.21792459917E+03  0.12500114978E+03 0.  0.
         23    2    1    2    0    0  0.74176105859E+02  0.12935131079E+03  0.52385119451E+03  0.55265216903E+03  0.93650892505E+02 0.  0.
          5    1    3    3  502    0 -0.10278055703E+03 -0.10697364833E+03 -0.48317691309E+02  0.15608937707E+03  0.47000000000E+01 0. -1.
         -5    1    3    3    0  502  0.28604451170E+02 -0.22377662454E+02 -0.49824996628E+02  0.61835222104E+02  0.47000000000E+01 0. -1.
        -11    1    4    4    0    0  0.32694599955E+02  0.70139769802E+02  0.41383090372E+03  0.42100420549E+03  0.00000000000E+00 0. -1.
         11    1    4    4    0    0  0.41481505903E+02  0.59211540984E+02  0.11002029079E+03  0.13164796354E+03  0.00000000000E+00 0.  1.
<mgrwt>
<rscale>  0 0.18977625E+03</rscale>
<asrwt>0</asrwt>
<pdfrwt beam="1">  1        2 0.92021943E-01 0.19457426E+03</pdfrwt>
<pdfrwt beam="2">  1       -2 0.26528328E-01 0.19457426E+03</pdfrwt>
<totfact> 0.65122248E+02</totfact>
</mgrwt>
</event>
<event>
 8    1  0.1550723E-005  0.1293473E+03  0.7546771E-02  0.1241281E+00
          1   -1    0    0  501    0  0.00000000000E+00  0.00000000000E+00  0.34282904397E+03  0.34282904397E+03  0.00000000000E+00 0. -1.
         -1   -1    0    0    0  501 -0.00000000000E+00 -0.00000000000E+00 -0.43775202525E+02  0.43775202525E+02  0.00000000000E+00 0.  1.
         23    2    1    2    0    0 -0.25089338386E+02  0.21844291064E+02  0.97867926450E+02  0.16220000934E+03  0.12499625614E+03 0.  0.
         23    2    1    2    0    0  0.25089338386E+02 -0.21844291064E+02  0.20118591500E+03  0.22440423716E+03  0.93674122933E+02 0.  0.
          5    1    3    3  502    0  0.26585900549E+02  0.51856889189E+02  0.15781140351E+02  0.60556431988E+02  0.47000000000E+01 0.  1.
         -5    1    3    3    0  502 -0.51675238936E+02 -0.30012598124E+02  0.82086786099E+02  0.10164357735E+03  0.47000000000E+01 0.  1.
        -11    1    4    4    0    0  0.40748896578E+02  0.18886924873E+02  0.50763332286E+02  0.67779823017E+02  0.00000000000E+00 0.  1.
         11    1    4    4    0    0 -0.15659558192E+02 -0.40731215937E+02  0.15042258271E+03  0.15662441414E+03  0.00000000000E+00 0. -1.
<mgrwt>
<rscale>  0 0.12110741E+03</rscale>
<asrwt>0</asrwt>
<pdfrwt beam="1">  1        1 0.52742928E-01 0.12934725E+03</pdfrwt>
<pdfrwt beam="2">  1       -1 0.67346468E-02 0.12934725E+03</pdfrwt>
<totfact> 0.78556541E+03</totfact>
</mgrwt>
</event>
<event>
 8    1  0.1550723E-005  0.1625130E+03  0.7546771E-02  0.1193333E+00
         -1   -1    0    0    0  501 -0.00000000000E+00  0.00000000000E+00  0.77417527697E+03  0.77417527697E+03  0.00000000000E+00 0.  1.
          1   -1    0    0  501    0  0.00000000000E+00 -0.00000000000E+00 -0.29298356249E+02  0.29298356249E+02  0.00000000000E+00 0. -1.
         23    2    1    2    0    0  0.84738089100E+02  0.60041934843E+02  0.43287333881E+03  0.46237410423E+03  0.12499962852E+03 0.  0.
         23    2    1    2    0    0 -0.84738089100E+02 -0.60041934843E+02  0.31200358191E+03  0.34109952899E+03  0.90648088040E+02 0.  0.
          5    1    3    3  502    0  0.11407754330E+02 -0.31741254952E+02  0.41296579717E+02  0.53527017674E+02  0.47000000000E+01 0. -1.
         -5    1    3    3    0  502  0.73330334769E+02  0.91783189795E+02  0.39157675909E+03  0.40884708656E+03  0.47000000000E+01 0. -1.
        -11    1    4    4    0    0 -0.37075060325E+02  0.60198467421E+01  0.31544524612E+02  0.49049522790E+02  0.00000000000E+00 0. -1.
         11    1    4    4    0    0 -0.47663028775E+02 -0.66061781585E+02  0.28045905730E+03  0.29205000620E+03  0.00000000000E+00 0.  1.
<mgrwt>
<rscale>  0 0.15596169E+03</rscale>
<asrwt>0</asrwt>
<pdfrwt beam="2">  1        1 0.45074400E-02 0.16251303E+03</pdfrwt>
<pdfrwt beam="1">  1       -1 0.11910387E+00 0.16251303E+03</pdfrwt>
<totfact> 0.12756081E+03</totfact>
</mgrwt>
</event>
<event>
 8    1  0.1550723E-005  0.1329371E+03  0.7546771E-02  0.1235540E+00
          4   -1    0    0  501    0  0.00000000000E+00  0.00000000000E+00  0.25372535349E+03  0.25372535349E+03  0.00000000000E+00 0. -1.
         -4   -1    0    0    0  501 -0.00000000000E+00 -0.00000000000E+00 -0.12341302500E+03  0.12341302500E+03  0.00000000000E+00 0.  1.
         23    2    1    2    0    0  0.86685572621E+00 -0.45226098495E+02 -0.71243687081E+02  0.15082422217E+03  0.12500452640E+03 0.  0.
         23    2    1    2    0    0 -0.86685572621E+00  0.45226098495E+02  0.20155601557E+03  0.22631415631E+03  0.92450627418E+02 0.  0.
          5    1    3    3  502    0 -0.37904282733E+01 -0.68405311320E+02 -0.94840674697E+02  0.11709183379E+03  0.47000000000E+01 0. -1.
         -5    1    3    3    0  502  0.46572839995E+01  0.23179212825E+02  0.23596987616E+02  0.33732388383E+02  0.47000000000E+01 0. -1.
        -11    1    4    4    0    0 -0.18319670469E+02 -0.19625091046E+02  0.22333459406E+02  0.34921883307E+02  0.00000000000E+00 0.  1.
         11    1    4    4    0    0  0.17452814743E+02  0.64851189541E+02  0.17922255617E+03  0.19139227301E+03  0.00000000000E+00 0. -1.
<mgrwt>
<rscale>  0 0.12469915E+03</rscale>
<asrwt>0</asrwt>
<pdfrwt beam="1">  1        4 0.39034670E-01 0.13293714E+03</pdfrwt>
<pdfrwt beam="2">  1       -4 0.18986619E-01 0.13293714E+03</pdfrwt>
<totfact> 0.26266307E+02</totfact>
</mgrwt>
</event>
<event>
 8    1  0.1550723E-005  0.1296525E+03  0.7546771E-02  0.1241824E+00
          2   -1    0    0  501    0  0.00000000000E+00  0.00000000000E+00  0.86098065270E+02  0.86098065270E+02  0.00000000000E+00 0. -1.
         -2   -1    0    0    0  501 -0.00000000000E+00 -0.00000000000E+00 -0.16248595077E+03  0.16248595077E+03  0.00000000000E+00 0.  1.
         23    2    1    2    0    0 -0.22960838679E+02 -0.25623710580E+02 -0.77313174433E+02  0.15095399033E+03  0.12500402233E+03 0.  0.
         23    2    1    2    0    0  0.22960838679E+02  0.25623710580E+02  0.92528893747E+00  0.97630025704E+02  0.91361868975E+02 0.  0.
          5    1    3    3  502    0 -0.33401412804E+02 -0.67707842115E+02 -0.76133985279E+02  0.10732418169E+03  0.47000000000E+01 0. -1.
         -5    1    3    3    0  502  0.10440574124E+02  0.42084131535E+02 -0.11791891544E+01  0.43629808642E+02  0.47000000000E+01 0. -1.
        -11    1    4    4    0    0  0.86478964685E+01  0.56600042760E+02 -0.16125007695E+02  0.59484172911E+02  0.00000000000E+00 0.  1.
         11    1    4    4    0    0  0.14312942211E+02 -0.30976332180E+02  0.17050296632E+02  0.38145852793E+02  0.00000000000E+00 0. -1.
<mgrwt>
<rscale>  0 0.12077491E+03</rscale>
<asrwt>0</asrwt>
<pdfrwt beam="1">  1        2 0.13245856E-01 0.12965254E+03</pdfrwt>
<pdfrwt beam="2">  1       -2 0.24997839E-01 0.12965254E+03</pdfrwt>
<totfact> 0.60854281E+03</totfact>
</mgrwt>
</event>
<event>
 8    1  0.1550723E-005  0.1659314E+03  0.7546771E-02  0.1188149E+00
         -1   -1    0    0    0  501 -0.00000000000E+00  0.00000000000E+00  0.11183615740E+04  0.11183615740E+04  0.00000000000E+00 0.  1.
          1   -1    0    0  501    0  0.00000000000E+00 -0.00000000000E+00 -0.22793716786E+02  0.22793716786E+02  0.00000000000E+00 0. -1.
         23    2    1    2    0    0 -0.10903357059E+03  0.29554996758E+02  0.71057238130E+03  0.72968920686E+03  0.12153769869E+03 0.  0.
         23    2    1    2    0    0  0.10903357059E+03 -0.29554996758E+02  0.38499547589E+03  0.41146608390E+03  0.91219539533E+02 0.  0.
          5    1    3    3  502    0  0.20394656746E+02  0.48437135014E+01  0.32783409725E+02  0.39194968267E+02  0.47000000000E+01 0. -1.
         -5    1    3    3    0  502 -0.12942822733E+03  0.24711283256E+02  0.67778897157E+03  0.69049423860E+03  0.47000000000E+01 0.  1.
        -11    1    4    4    0    0  0.92430877565E+02  0.64632600487E+00  0.35133755635E+03  0.36329321954E+03  0.00000000000E+00 0. -1.
         11    1    4    4    0    0  0.16602693022E+02 -0.30201322763E+02  0.33657919544E+02  0.48172864356E+02  0.00000000000E+00 0.  1.
<mgrwt>
<rscale>  0 0.16048614E+03</rscale>
<asrwt>0</asrwt>
<pdfrwt beam="2">  1        1 0.35067265E-02 0.16593140E+03</pdfrwt>
<pdfrwt beam="1">  1       -1 0.17205558E+00 0.16593140E+03</pdfrwt>
<totfact> 0.70608969E+02</totfact>
</mgrwt>
</event>
<event>
 8    1  0.1550723E-005  0.1436990E+03  0.7546771E-02  0.1218743E+00
         -1   -1    0    0    0  501 -0.00000000000E+00  0.00000000000E+00  0.23229300521E+03  0.23229300521E+03  0.00000000000E+00 0.  1.
          1   -1    0    0  501    0  0.00000000000E+00 -0.00000000000E+00 -0.83800569449E+02  0.83800569449E+02  0.00000000000E+00 0. -1.
         23    2    1    2    0    0 -0.44923635792E+02  0.54816496876E+02  0.13950888236E+03  0.20028012491E+03  0.12500567504E+03 0.  0.
         23    2    1    2    0    0  0.44923635792E+02 -0.54816496876E+02  0.89835533996E+01  0.11581344975E+03  0.91154097712E+02 0.  0.
          5    1    3    3  502    0 -0.23862652841E+02  0.49325151902E+02  0.16051116171E+03  0.16967121100E+03  0.47000000000E+01 0.  1.
         -5    1    3    3    0  502 -0.21060982950E+02  0.54913449736E+01 -0.21002279347E+02  0.30608913901E+02  0.47000000000E+01 0.  1.
        -11    1    4    4    0    0  0.25138758948E+02 -0.24033727002E+02 -0.41065484180E+02  0.53814043019E+02  0.00000000000E+00 0. -1.
         11    1    4    4    0    0  0.19784876844E+02 -0.30782769874E+02  0.50049037580E+02  0.61999406735E+02  0.00000000000E+00 0.  1.
<mgrwt>
<rscale>  0 0.13605121E+03</rscale>
<asrwt>0</asrwt>
<pdfrwt beam="2">  1        1 0.12892395E-01 0.14369899E+03</pdfrwt>
<pdfrwt beam="1">  1       -1 0.35737385E-01 0.14369899E+03</pdfrwt>
<totfact> 0.33183003E+03</totfact>
</mgrwt>
</event>
<event>
 8    1  0.1550723E-005  0.1669940E+03  0.7546771E-02  0.1187881E+00
         -2   -1    0    0    0  501 -0.00000000000E+00  0.00000000000E+00  0.43514567068E+03  0.43514567068E+03  0.00000000000E+00 0.  1.
          2   -1    0    0  501    0  0.00000000000E+00 -0.00000000000E+00 -0.16509036258E+03  0.16509036258E+03  0.00000000000E+00 0. -1.
         23    2    1    2    0    0  0.40115394744E+02  0.10321336615E+03  0.38297319623E+03  0.41779834422E+03  0.12499897422E+03 0.  0.
         23    2    1    2    0    0 -0.40115394744E+02 -0.10321336615E+03 -0.11291788813E+03  0.18243768905E+03  0.90944032670E+02 0.  0.
          5    1    3    3  502    0 -0.20637021007E+02  0.17535217234E+01  0.19168436132E+03  0.19285731992E+03  0.47000000000E+01 0. -1.
         -5    1    3    3    0  502  0.60752415751E+02  0.10145984442E+03  0.19128883491E+03  0.22494102429E+03  0.47000000000E+01 0. -1.
        -11    1    4    4    0    0  0.13378315959E+02  0.10829342195E+02 -0.11253808397E+02  0.20564585912E+02  0.00000000000E+00 0.  1.
         11    1    4    4    0    0 -0.53493710703E+02 -0.11404270834E+03 -0.10166407973E+03  0.16187310314E+03  0.00000000000E+00 0. -1.
<mgrwt>
<rscale>  0 0.16072458E+03</rscale>
<asrwt>0</asrwt>
<pdfrwt beam="2">  1        2 0.25398518E-01 0.16699397E+03</pdfrwt>
<pdfrwt beam="1">  1       -2 0.66945487E-01 0.16699397E+03</pdfrwt>
<totfact> 0.44353294E+02</totfact>
</mgrwt>
</event>
<event>
 8    1  0.1550723E-005  0.3119739E+03  0.7546771E-02  0.1080809E+00
          1   -1    0    0  501    0  0.00000000000E+00  0.00000000000E+00  0.78254226017E+03  0.78254226017E+03  0.00000000000E+00 0. -1.
         -1   -1    0    0    0  501 -0.00000000000E+00 -0.00000000000E+00 -0.18879390731E+03  0.18879390731E+03  0.00000000000E+00 0.  1.
         23    2    1    2    0    0 -0.28344794026E+03 -0.36897806120E+02  0.68706424742E+01  0.31204957211E+03  0.12499418704E+03 0.  0.
         23    2    1    2    0    0  0.28344794026E+03  0.36897806120E+02  0.58687771039E+03  0.65928659537E+03  0.92353586527E+02 0.  0.
          5    1    3    3  502    0 -0.26374355989E+03 -0.67631120112E+02 -0.77896273712E+01  0.27242871010E+03  0.47000000000E+01 0. -1.
         -5    1    3    3    0  502 -0.19704380368E+02  0.30733313992E+02  0.14660269845E+02  0.39620862012E+02  0.47000000000E+01 0. -1.
        -11    1    4    4    0    0  0.53575228001E+02  0.43929431937E+02  0.16113636723E+03  0.17539962626E+03  0.00000000000E+00 0. -1.
         11    1    4    4    0    0  0.22987271226E+03 -0.70316258168E+01  0.42574134316E+03  0.48388696911E+03  0.00000000000E+00 0.  1.
<mgrwt>
<rscale>  0 0.30903639E+03</rscale>
<asrwt>0</asrwt>
<pdfrwt beam="1">  1        1 0.12039112E+00 0.31197392E+03</pdfrwt>
<pdfrwt beam="2">  1       -1 0.29045217E-01 0.31197392E+03</pdfrwt>
<totfact> 0.25848341E+02</totfact>
</mgrwt>
</event>
<event>
 8    1  0.1550723E-005  0.1269572E+03  0.7546771E-02  0.1246691E+00
         -3   -1    0    0    0  501 -0.00000000000E+00  0.00000000000E+00  0.82908447983E+02  0.82908447983E+02  0.00000000000E+00 0.  1.
          3   -1    0    0  501    0  0.00000000000E+00 -0.00000000000E+00 -0.15198745556E+03  0.15198745556E+03  0.00000000000E+00 0. -1.
         23    2    1    2    0    0 -0.58419714820E+00 -0.22149894324E+02 -0.19662337967E+02  0.12847074909E+03  0.12500866663E+03 0.  0.
         23    2    1    2    0    0  0.58419714820E+00  0.22149894324E+02 -0.49416669610E+02  0.10642515445E+03  0.91615212489E+02 0.  0.
          5    1    3    3  502    0  0.10344824796E+02 -0.59460138380E+02  0.28071928084E+02  0.66728154497E+02  0.47000000000E+01 0.  1.
         -5    1    3    3    0  502 -0.10929021944E+02  0.37310244056E+02 -0.47734266051E+02  0.61742594597E+02  0.47000000000E+01 0.  1.
        -11    1    4    4    0    0 -0.64757186077E+01 -0.20452628908E+02  0.16884534173E+02  0.27300777553E+02  0.00000000000E+00 0.  1.
         11    1    4    4    0    0  0.70599157559E+01  0.42602523233E+02 -0.66301203782E+02  0.79124376897E+02  0.00000000000E+00 0. -1.
<mgrwt>
<rscale>  0 0.11784764E+03</rscale>
<asrwt>0</asrwt>
<pdfrwt beam="2">  1        3 0.23382685E-01 0.12695718E+03</pdfrwt>
<pdfrwt beam="1">  1       -3 0.12755146E-01 0.12695718E+03</pdfrwt>
<totfact> 0.18837949E+03</totfact>
</mgrwt>
</event>
<event>
 8    1  0.1550723E-005  0.1388620E+03  0.7546771E-02  0.1225418E+00
          3   -1    0    0  501    0  0.00000000000E+00  0.00000000000E+00  0.96772231468E+02  0.96772231468E+02  0.00000000000E+00 0. -1.
         -3   -1    0    0    0  501 -0.00000000000E+00 -0.00000000000E+00 -0.16320281705E+03  0.16320281705E+03  0.00000000000E+00 0.  1.
         23    2    1    2    0    0 -0.24338729283E+02  0.55375482958E+02 -0.49482542677E+02  0.14741495182E+03  0.12499531245E+03 0.  0.
         23    2    1    2    0    0  0.24338729283E+02 -0.55375482958E+02 -0.16948042904E+02  0.11256009670E+03  0.93400863780E+02 0.  0.
          5    1    3    3  502    0 -0.65964995419E+02  0.58809185252E+02 -0.88256439598E+01  0.88937522351E+02  0.47000000000E+01 0.  1.
         -5    1    3    3    0  502  0.41626266136E+02 -0.34337022944E+01 -0.40656898718E+02  0.58477429468E+02  0.47000000000E+01 0.  1.
        -11    1    4    4    0    0  0.56448138283E+02 -0.26721514751E+02  0.77637118038E+01  0.62934147227E+02  0.00000000000E+00 0. -1.
         11    1    4    4    0    0 -0.32109409000E+02 -0.28653968207E+02 -0.24711754708E+02  0.49625949473E+02  0.00000000000E+00 0.  1.
<mgrwt>
<rscale>  0 0.13138286E+03</rscale>
<asrwt>0</asrwt>
<pdfrwt beam="1">  1        3 0.14888036E-01 0.13886197E+03</pdfrwt>
<pdfrwt beam="2">  1       -3 0.25108126E-01 0.13886197E+03</pdfrwt>
<totfact> 0.12943794E+03</totfact>
</mgrwt>
</event>
<event>
 8    1  0.1550723E-005  0.1899414E+03  0.7546771E-02  0.1163721E+00
          4   -1    0    0  501    0  0.00000000000E+00  0.00000000000E+00  0.88474872344E+02  0.88474872344E+02  0.00000000000E+00 0. -1.
         -4   -1    0    0    0  501 -0.00000000000E+00 -0.00000000000E+00 -0.36270617029E+03  0.36270617029E+03  0.00000000000E+00 0.  1.
         23    2    1    2    0    0  0.10467972500E+03  0.97439450026E+02 -0.14235685511E+03  0.23736723641E+03  0.12500175789E+03 0.  0.
         23    2    1    2    0    0 -0.10467972500E+03 -0.97439450026E+02 -0.13187444283E+03  0.21381380623E+03  0.88730963092E+02 0.  0.
          5    1    3    3  502    0 -0.27089977975E+02  0.22973705943E+02 -0.44245959302E+02  0.56933759633E+02  0.47000000000E+01 0. -1.
         -5    1    3    3    0  502  0.13176970298E+03  0.74465744083E+02 -0.98110895812E+02  0.18043347678E+03  0.47000000000E+01 0. -1.
        -11    1    4    4    0    0 -0.21961070830E+02 -0.64562933261E+02 -0.96196895441E+02  0.11791735952E+03  0.00000000000E+00 0.  1.
         11    1    4    4    0    0 -0.82718654174E+02 -0.32876516765E+02 -0.35677547394E+02  0.95896446707E+02  0.00000000000E+00 0. -1.
<mgrwt>
<rscale>  0 0.18428367E+03</rscale>
<asrwt>0</asrwt>
<pdfrwt beam="1">  1        4 0.13611519E-01 0.18994139E+03</pdfrwt>
<pdfrwt beam="2">  1       -4 0.55800949E-01 0.18994139E+03</pdfrwt>
<totfact> 0.24361211E+02</totfact>
</mgrwt>
</event>
<event>
 7    1  0.1550723E-005  0.1399215E+03  0.7546771E-02  0.1229198E+00
          1   -1    0    0  501    0  0.00000000000E+00  0.00000000000E+00  0.92036158671E+03  0.92036158671E+03  0.00000000000E+00 0. -1.
         -1   -1    0    0    0  501 -0.00000000000E+00 -0.00000000000E+00 -0.16590498609E+02  0.16590498609E+02  0.00000000000E+00 0.  1.
         23    2    1    2    0    0  0.43711718027E+01 -0.54243831396E+02  0.48842406074E+03  0.49867000294E+03  0.84570729752E+02 0.  0.
          5    1    1    2  502    0 -0.20427680153E+02 -0.18484560139E+02  0.29738743862E+03  0.29869775314E+03  0.47000000000E+01 0. -1.
         -5    1    1    2    0  502  0.16056508351E+02  0.72728391534E+02  0.11795958874E+03  0.13958432925E+03  0.47000000000E+01 0.  1.
        -11    1    3    3    0    0  0.36980903744E+02 -0.56549605465E+02  0.34692667739E+03  0.35344527809E+03  0.00000000000E+00 0. -1.
         11    1    3    3    0    0 -0.32609731941E+02  0.23057740693E+01  0.14149738335E+03  0.14522472485E+03  0.00000000000E+00 0.  1.
<mgrwt>
<rscale>  0 0.12883302E+03</rscale>
<asrwt>0</asrwt>
<pdfrwt beam="1">  1        1 0.14159405E+00 0.13992152E+03</pdfrwt>
<pdfrwt beam="2">  1       -1 0.25523851E-02 0.13992152E+03</pdfrwt>
<totfact> 0.85272895E+03</totfact>
</mgrwt>
</event>
<event>
 8    1  0.1550723E-005  0.1843030E+03  0.7546771E-02  0.1169023E+00
         -1   -1    0    0    0  501 -0.00000000000E+00  0.00000000000E+00  0.24094812662E+02  0.24094812662E+02  0.00000000000E+00 0.  1.
          1   -1    0    0  501    0  0.00000000000E+00 -0.00000000000E+00 -0.12670041294E+04  0.12670041294E+04  0.00000000000E+00 0. -1.
         23    2    1    2    0    0 -0.13134506197E+03  0.32972866476E+02 -0.58871449686E+03  0.61688926804E+03  0.12501549893E+03 0.  0.
         23    2    1    2    0    0  0.13134506197E+03 -0.32972866476E+02 -0.65419481992E+03  0.67420967407E+03  0.90824484439E+02 0.  0.
          5    1    3    3  502    0 -0.12260019379E+03 -0.23068897940E+02 -0.44886241084E+03  0.46589970534E+03  0.47000000000E+01 0.  1.
         -5    1    3    3    0  502 -0.87448681773E+01  0.56041764416E+02 -0.13985208603E+03  0.15098956270E+03  0.47000000000E+01 0.  1.
        -11    1    4    4    0    0  0.79933068510E+02  0.24916682523E+02 -0.28821694512E+03  0.30013187762E+03  0.00000000000E+00 0. -1.
         11    1    4    4    0    0  0.51411993458E+02 -0.57889548999E+02 -0.36597787479E+03  0.37407779645E+03  0.00000000000E+00 0.  1.
<mgrwt>
<rscale>  0 0.17874534E+03</rscale>
<asrwt>0</asrwt>
<pdfrwt beam="2">  1        1 0.19492375E+00 0.18430304E+03</pdfrwt>
<pdfrwt beam="1">  1       -1 0.37068936E-02 0.18430304E+03</pdfrwt>
<totfact> 0.28196564E+03</totfact>
</mgrwt>
</event>
<event>
 8    1  0.1550723E-005  0.1341487E+03  0.7546771E-02  0.1223046E+00
         -2   -1    0    0    0  501 -0.00000000000E+00  0.00000000000E+00  0.13703846047E+03  0.13703846047E+03  0.00000000000E+00 0.  1.
          2   -1    0    0  501    0  0.00000000000E+00 -0.00000000000E+00 -0.12903670001E+03  0.12903670001E+03  0.00000000000E+00 0. -1.
         23    2    1    2    0    0 -0.38350755102E+02 -0.30013523707E+02  0.20850497136E+02  0.13575940048E+03  0.12499711823E+03 0.  0.
         23    2    1    2    0    0  0.38350755102E+02  0.30013523707E+02 -0.12848736676E+02  0.13031576000E+03  0.12018949725E+03 0.  0.
          5    1    3    3  502    0 -0.53383014367E+02  0.18356558305E+02 -0.29771879737E+02  0.63993470595E+02  0.47000000000E+01 0.  1.
         -5    1    3    3    0  502  0.15032259265E+02 -0.48370082012E+02  0.50622376873E+02  0.71765929888E+02  0.47000000000E+01 0.  1.
        -11    1    4    4    0    0  0.25462197932E+02 -0.12796114645E+02  0.47390678080E+02  0.55298647745E+02  0.00000000000E+00 0.  1.
         11    1    4    4    0    0  0.12888557170E+02  0.42809638352E+02 -0.60239414755E+02  0.75017112260E+02  0.00000000000E+00 0. -1.
<mgrwt>
<rscale>  0 0.13301749E+03</rscale>
<asrwt>0</asrwt>
<pdfrwt beam="2">  1        2 0.19851800E-01 0.13414869E+03</pdfrwt>
<pdfrwt beam="1">  1       -2 0.21082840E-01 0.13414869E+03</pdfrwt>
<totfact> 0.51192102E+03</totfact>
</mgrwt>
</event>
<event>
 8    1  0.1550723E-005  0.1739713E+03  0.7546771E-02  0.1179974E+00
         -1   -1    0    0    0  501 -0.00000000000E+00  0.00000000000E+00  0.46778538792E+02  0.46778538792E+02  0.00000000000E+00 0.  1.
          1   -1    0    0  501    0  0.00000000000E+00 -0.00000000000E+00 -0.57294705841E+03  0.57294705841E+03  0.00000000000E+00 0. -1.
         23    2    1    2    0    0 -0.10758471982E+03  0.55382327515E+02 -0.24510043071E+03  0.30056650619E+03  0.12499731743E+03 0.  0.
         23    2    1    2    0    0  0.10758471982E+03 -0.55382327515E+02 -0.28106808890E+03  0.31915909101E+03  0.90672932225E+02 0.  0.
          5    1    3    3  502    0 -0.54642419229E+02  0.45656452477E+02 -0.27694453158E+02  0.76546576460E+02  0.47000000000E+01 0.  1.
         -5    1    3    3    0  502 -0.52942300594E+02  0.97258750376E+01 -0.21740597756E+03  0.22401992973E+03  0.47000000000E+01 0.  1.
        -11    1    4    4    0    0  0.92445923699E+02 -0.76093293722E+02 -0.25892917021E+03  0.28527312061E+03  0.00000000000E+00 0. -1.
         11    1    4    4    0    0  0.15138796123E+02  0.20710966207E+02 -0.22138918691E+02  0.33885970402E+02  0.00000000000E+00 0.  1.
<mgrwt>
<rscale>  0 0.16797723E+03</rscale>
<asrwt>0</asrwt>
<pdfrwt beam="2">  1        1 0.88145700E-01 0.17397127E+03</pdfrwt>
<pdfrwt beam="1">  1       -1 0.71966984E-02 0.17397127E+03</pdfrwt>
<totfact> 0.37280333E+03</totfact>
</mgrwt>
</event>
<event>
 8    1  0.1550723E-005  0.1263088E+03  0.7546771E-02  0.1247790E+00
         -3   -1    0    0    0  501 -0.00000000000E+00  0.00000000000E+00  0.52765943943E+02  0.52765943943E+02  0.00000000000E+00 0.  1.
          3   -1    0    0  501    0  0.00000000000E+00 -0.00000000000E+00 -0.32985258147E+03  0.32985258147E+03  0.00000000000E+00 0. -1.
         23    2    1    2    0    0 -0.12393308525E+02  0.13215959854E+02 -0.47971417139E+02  0.13511165715E+03  0.12500258935E+03 0.  0.
         23    2    1    2    0    0  0.12393308525E+02 -0.13215959854E+02 -0.22911522039E+03  0.24750686826E+03  0.91856463748E+02 0.  0.
          5    1    3    3  502    0 -0.13910421978E+02 -0.16994349209E+02 -0.84510883345E+02  0.87444194480E+02  0.47000000000E+01 0.  1.
         -5    1    3    3    0  502  0.15171134525E+01  0.30210309063E+02  0.36539466206E+02  0.47667462671E+02  0.47000000000E+01 0.  1.
        -11    1    4    4    0    0  0.12385565374E+02 -0.48732110008E+02 -0.18003182027E+03  0.18692158004E+03  0.00000000000E+00 0.  1.
         11    1    4    4    0    0  0.77431510375E-02  0.35516150154E+02 -0.49083400124E+02  0.60585288226E+02  0.00000000000E+00 0. -1.
<mgrwt>
<rscale>  0 0.11719915E+03</rscale>
<asrwt>0</asrwt>
<pdfrwt beam="2">  1        3 0.50746551E-01 0.12630876E+03</pdfrwt>
<pdfrwt beam="1">  1       -3 0.81178376E-02 0.12630876E+03</pdfrwt>
<totfact> 0.92184260E+02</totfact>
</mgrwt>
</event>
<event>
 8    1  0.1550723E-005  0.1345534E+03  0.7546771E-02  0.1233044E+00
         -1   -1    0    0    0  501 -0.00000000000E+00  0.00000000000E+00  0.40911120823E+02  0.40911120823E+02  0.00000000000E+00 0.  1.
          1   -1    0    0  501    0  0.00000000000E+00 -0.00000000000E+00 -0.39898519718E+03  0.39898519718E+03  0.00000000000E+00 0. -1.
         23    2    1    2    0    0 -0.32183720585E+02  0.38011702199E+02 -0.12154357161E+03  0.18132141678E+03  0.12499573997E+03 0.  0.
         23    2    1    2    0    0  0.32183720585E+02 -0.38011702199E+02 -0.23653050475E+03  0.25857490122E+03  0.91834734646E+02 0.  0.
          5    1    3    3  502    0 -0.32339642907E+02  0.23916496262E+02 -0.14665481767E+03  0.15214327735E+03  0.47000000000E+01 0. -1.
         -5    1    3    3    0  502  0.15592232262E+00  0.14095205937E+02  0.25111246062E+02  0.29178139436E+02  0.47000000000E+01 0. -1.
        -11    1    4    4    0    0 -0.26779012819E+02 -0.22817362649E+02 -0.14073724436E+03  0.14506798239E+03  0.00000000000E+00 0. -1.
         11    1    4    4    0    0  0.58962733404E+02 -0.15194339549E+02 -0.95793260398E+02  0.11350691883E+03  0.00000000000E+00 0.  1.
<mgrwt>
<rscale>  0 0.12630498E+03</rscale>
<asrwt>0</asrwt>
<pdfrwt beam="2">  1        1 0.61382338E-01 0.13455340E+03</pdfrwt>
<pdfrwt beam="1">  1       -1 0.62940186E-02 0.13455340E+03</pdfrwt>
<totfact> 0.72077368E+03</totfact>
</mgrwt>
</event>
<event>
 7    1  0.1550723E-005  0.2018379E+03  0.7546771E-02  0.1155424E+00
         -2   -1    0    0    0  501 -0.00000000000E+00  0.00000000000E+00  0.90169010349E+02  0.90169010349E+02  0.00000000000E+00 0.  1.
          2   -1    0    0  501    0  0.00000000000E+00 -0.00000000000E+00 -0.57831151407E+03  0.57831151407E+03  0.00000000000E+00 0. -1.
         23    2    1    2    0    0  0.14323760849E+03 -0.39355152075E+02 -0.42371491012E+03  0.45660917996E+03  0.83016731391E+02 0.  0.
          5    1    1    2  502    0 -0.46631411526E+02  0.11316545278E+02 -0.95080811751E+02  0.10660677043E+03  0.47000000000E+01 0. -1.
         -5    1    1    2    0  502 -0.96606196959E+02  0.28038606797E+02  0.30653218149E+02  0.10526457403E+03  0.47000000000E+01 0.  1.
        -11    1    3    3    0    0  0.12566634086E+03 -0.60822234264E+02 -0.37999874761E+03  0.40483381972E+03  0.00000000000E+00 0. -1.
         11    1    3    3    0    0  0.17571267624E+02  0.21467082189E+02 -0.43716162513E+02  0.51775360245E+02  0.00000000000E+00 0.  1.
<mgrwt>
<rscale>  0 0.19340712E+03</rscale>
<asrwt>0</asrwt>
<pdfrwt beam="2">  1        2 0.88971005E-01 0.20183793E+03</pdfrwt>
<pdfrwt beam="1">  1       -2 0.13872155E-01 0.20183793E+03</pdfrwt>
<totfact> 0.20383477E+03</totfact>
</mgrwt>
</event>
<event>
 8    1  0.1550723E-005  0.1569221E+03  0.7546771E-02  0.1200651E+00
          2   -1    0    0  501    0  0.00000000000E+00  0.00000000000E+00  0.10118164899E+03  0.10118164899E+03  0.00000000000E+00 0. -1.
         -2   -1    0    0    0  501 -0.00000000000E+00 -0.00000000000E+00 -0.20447443186E+03  0.20447443186E+03  0.00000000000E+00 0.  1.
         23    2    1    2    0    0 -0.86223441625E+02  0.39600381226E+02 -0.62648579677E+02  0.16896562390E+03  0.12498746116E+03 0.  0.
         23    2    1    2    0    0  0.86223441625E+02 -0.39600381226E+02 -0.40644203197E+02  0.13669045695E+03  0.89608357243E+02 0.  0.
          5    1    3    3  502    0 -0.11109676989E+03  0.25241565820E+02 -0.75912321387E+02  0.13698320869E+03  0.47000000000E+01 0.  1.
         -5    1    3    3    0  502  0.24873328263E+02  0.14358815406E+02  0.13263741710E+02  0.31982415214E+02  0.47000000000E+01 0.  1.
        -11    1    4    4    0    0  0.92775600486E+02 -0.47305042550E+02 -0.10232686089E+02  0.10464122974E+03  0.00000000000E+00 0. -1.
         11    1    4    4    0    0 -0.65521588615E+01  0.77046613243E+01 -0.30411517109E+02  0.32049227209E+02  0.00000000000E+00 0.  1.
<mgrwt>
<rscale>  0 0.14985536E+03</rscale>
<asrwt>0</asrwt>
<pdfrwt beam="1">  1        2 0.15566408E-01 0.15692207E+03</pdfrwt>
<pdfrwt beam="2">  1       -2 0.31457605E-01 0.15692207E+03</pdfrwt>
<totfact> 0.33823924E+03</totfact>
</mgrwt>
</event>
<event>
 8    1  0.1550723E-005  0.1251013E+03  0.7546771E-02  0.1249642E+00
          1   -1    0    0  501    0  0.00000000000E+00  0.00000000000E+00  0.44563394299E+03  0.44563394299E+03  0.00000000000E+00 0. -1.
         -1   -1    0    0    0  501 -0.00000000000E+00 -0.00000000000E+00 -0.26793221784E+02  0.26793221784E+02  0.00000000000E+00 0.  1.
         23    2    1    2    0    0 -0.30294532943E+01 -0.38949819091E+01  0.25727526213E+03  0.28607848839E+03  0.12500397011E+03 0.  0.
         23    2    1    2    0    0  0.30294532943E+01  0.38949819091E+01  0.16156545908E+03  0.18634867639E+03  0.92725849432E+02 0.  0.
          5    1    3    3  502    0  0.21988524068E+02  0.47876228957E+02  0.19110784975E+03  0.19829253321E+03  0.47000000000E+01 0. -1.
         -5    1    3    3    0  502 -0.25017977362E+02 -0.51771210866E+02  0.66167412380E+02  0.87785955180E+02  0.47000000000E+01 0. -1.
        -11    1    4    4    0    0  0.45324078552E+02  0.17095700795E+02  0.79862614861E+02  0.93405419193E+02  0.00000000000E+00 0.  1.
         11    1    4    4    0    0 -0.42294625257E+02 -0.13200718886E+02  0.81702844217E+02  0.92943257195E+02  0.00000000000E+00 0. -1.
<mgrwt>
<rscale>  0 0.11611816E+03</rscale>
<asrwt>0</asrwt>
<pdfrwt beam="1">  1        1 0.68559063E-01 0.12510132E+03</pdfrwt>
<pdfrwt beam="2">  1       -1 0.41220345E-02 0.12510132E+03</pdfrwt>
<totfact> 0.11655312E+04</totfact>
</mgrwt>
</event>
<event>
 8    1  0.1550723E-005  0.1924315E+03  0.7546771E-02  0.1161206E+00
          1   -1    0    0  501    0  0.00000000000E+00  0.00000000000E+00  0.86491447758E+02  0.86491447758E+02  0.00000000000E+00 0. -1.
         -1   -1    0    0    0  501 -0.00000000000E+00 -0.00000000000E+00 -0.38309035445E+03  0.38309035445E+03  0.00000000000E+00 0.  1.
         23    2    1    2    0    0  0.14633586377E+03 -0.29500627987E+00 -0.16098097643E+03  0.25088790166E+03  0.12496236382E+03 0.  0.
         23    2    1    2    0    0 -0.14633586377E+03  0.29500627987E+00 -0.13561793026E+03  0.21869390055E+03  0.89557395420E+02 0.  0.
          5    1    3    3  502    0  0.14197006000E+03  0.38632167516E+02 -0.98946602792E+02  0.17737097425E+03  0.47000000000E+01 0. -1.
         -5    1    3    3    0  502  0.43658037674E+01 -0.38927173796E+02 -0.62034373638E+02  0.73516927404E+02  0.47000000000E+01 0. -1.
        -11    1    4    4    0    0 -0.50529262087E+02  0.73650399909E+01 -0.10682941362E+03  0.11840597010E+03  0.00000000000E+00 0. -1.
         11    1    4    4    0    0 -0.95806601683E+02 -0.70700337110E+01 -0.28788516639E+02  0.10028793044E+03  0.00000000000E+00 0.  1.
<mgrwt>
<rscale>  0 0.18698841E+03</rscale>
<asrwt>0</asrwt>
<pdfrwt beam="1">  1        1 0.13306377E-01 0.19243145E+03</pdfrwt>
<pdfrwt beam="2">  1       -1 0.58936978E-01 0.19243145E+03</pdfrwt>
<totfact> 0.13030737E+03</totfact>
</mgrwt>
</event>
<event>
 8    1  0.1550723E-005  0.1261583E+03  0.7546771E-02  0.1247171E+00
         -1   -1    0    0    0  501 -0.00000000000E+00  0.00000000000E+00  0.35285152378E+02  0.35285152378E+02  0.00000000000E+00 0.  1.
          1   -1    0    0  501    0  0.00000000000E+00 -0.00000000000E+00 -0.34746185878E+03  0.34746185878E+03  0.00000000000E+00 0. -1.
         23    2    1    2    0    0  0.83783619581E+01 -0.14800666939E+02 -0.17078550989E+03  0.21232902999E+03  0.12500667940E+03 0.  0.
         23    2    1    2    0    0 -0.83783619581E+01  0.14800666939E+02 -0.14139119650E+03  0.17041798116E+03  0.93603211293E+02 0.  0.
          5    1    3    3  502    0 -0.30664169261E+01 -0.69662200261E+02 -0.96973876142E+02  0.11953345855E+03  0.47000000000E+01 0.  1.
         -5    1    3    3    0  502  0.11444778884E+02  0.54861533322E+02 -0.73811633751E+02  0.92795571442E+02  0.47000000000E+01 0.  1.
        -11    1    4    4    0    0  0.30639874363E+02 -0.24782618575E+02 -0.63358879899E+02  0.74614527717E+02  0.00000000000E+00 0.  1.
         11    1    4    4    0    0 -0.39018236321E+02  0.39583285514E+02 -0.78032316605E+02  0.95803453447E+02  0.00000000000E+00 0. -1.
<mgrwt>
<rscale>  0 0.11756362E+03</rscale>
<asrwt>0</asrwt>
<pdfrwt beam="2">  1        1 0.53455673E-01 0.12615834E+03</pdfrwt>
<pdfrwt beam="1">  1       -1 0.54284847E-02 0.12615834E+03</pdfrwt>
<totfact> 0.10627512E+04</totfact>
</mgrwt>
</event>
<event>
 8    1  0.1550723E-005  0.1528517E+03  0.7546771E-02  0.1205694E+00
         -1   -1    0    0    0  501 -0.00000000000E+00  0.00000000000E+00  0.47961458761E+02  0.47961458761E+02  0.00000000000E+00 0.  1.
          1   -1    0    0  501    0  0.00000000000E+00 -0.00000000000E+00 -0.42295150653E+03  0.42295150653E+03  0.00000000000E+00 0. -1.
         23    2    1    2    0    0  0.20322508697E+02 -0.85588500001E+02 -0.15913848170E+03  0.22065517307E+03  0.12500101341E+03 0.  0.
         23    2    1    2    0    0 -0.20322508697E+02  0.85588500001E+02 -0.21585156608E+03  0.25025779222E+03  0.91097026834E+02 0.  0.
          5    1    3    3  502    0 -0.11466960859E+02 -0.10646140622E+03 -0.14387290792E+03  0.17940742972E+03  0.47000000000E+01 0.  1.
         -5    1    3    3    0  502  0.31789469556E+02  0.20872906223E+02 -0.15265573782E+02  0.41247743353E+02  0.47000000000E+01 0.  1.
        -11    1    4    4    0    0 -0.28313449804E+01  0.95016652101E+02 -0.12379606188E+03  0.15608217588E+03  0.00000000000E+00 0.  1.
         11    1    4    4    0    0 -0.17491163717E+02 -0.94281520997E+01 -0.92055504200E+02  0.94175616343E+02  0.00000000000E+00 0. -1.
<mgrwt>
<rscale>  0 0.14582882E+03</rscale>
<asrwt>0</asrwt>
<pdfrwt beam="2">  1        1 0.65069460E-01 0.15285172E+03</pdfrwt>
<pdfrwt beam="1">  1       -1 0.73786862E-02 0.15285172E+03</pdfrwt>
<totfact> 0.53134415E+03</totfact>
</mgrwt>
</event>
<event>
 7    1  0.1550723E-005  0.1593823E+03  0.7546771E-02  0.1210153E+00
          1   -1    0    0  501    0  0.00000000000E+00  0.00000000000E+00  0.13239522417E+03  0.13239522417E+03  0.00000000000E+00 0. -1.
         -1   -1    0    0    0  501 -0.00000000000E+00 -0.00000000000E+00 -0.14250420774E+03  0.14250420774E+03  0.00000000000E+00 0.  1.
         23    2    1    2    0    0  0.36174812460E+02 -0.29708043399E+02  0.38023315868E+02  0.10840792895E+03  0.90085079846E+02 0.  0.
          5    1    1    2  502    0 -0.75555565434E+02  0.98253543490E+01  0.25537078480E+02  0.80494803767E+02  0.47000000000E+01 0. -1.
         -5    1    1    2    0  502  0.39380752974E+02  0.19882689050E+02 -0.73669377921E+02  0.85996699192E+02  0.47000000000E+01 0.  1.
        -11    1    3    3    0    0  0.49717537213E+02 -0.50473097181E+02  0.43340978572E+02  0.83053040095E+02  0.00000000000E+00 0.  1.
         11    1    3    3    0    0 -0.13542724752E+02  0.20765053782E+02 -0.53176627030E+01  0.25354888856E+02  0.00000000000E+00 0. -1.
<mgrwt>
<rscale>  0 0.14238653E+03</rscale>
<asrwt>0</asrwt>
<pdfrwt beam="1">  1        1 0.20368496E-01 0.15938225E+03</pdfrwt>
<pdfrwt beam="2">  1       -1 0.21923724E-01 0.15938225E+03</pdfrwt>
<totfact> 0.41820525E+03</totfact>
</mgrwt>
</event>
<event>
 7    1  0.1550723E-005  0.2389817E+03  0.7546771E-02  0.1144507E+00
         -2   -1    0    0    0  501 -0.00000000000E+00  0.00000000000E+00  0.37522570751E+03  0.37522570751E+03  0.00000000000E+00 0.  1.
          2   -1    0    0  501    0  0.00000000000E+00 -0.00000000000E+00 -0.10487592090E+03  0.10487592090E+03  0.00000000000E+00 0. -1.
         23    2    1    2    0    0  0.21981572272E+02  0.92168513780E+02  0.20489903024E+02  0.13435285920E+03  0.93019515140E+02 0.  0.
          5    1    1    2  502    0 -0.11531290307E+03 -0.42890224937E+02  0.83807094433E+02  0.14893742339E+03  0.47000000000E+01 0. -1.
         -5    1    1    2    0  502  0.93331330799E+02 -0.49278288843E+02  0.16605278915E+03  0.19681134583E+03  0.47000000000E+01 0.  1.
        -11    1    3    3    0    0  0.40745462205E+02  0.63660183780E+01  0.21519148812E+02  0.46516584633E+02  0.00000000000E+00 0.  1.
         11    1    3    3    0    0 -0.18763889934E+02  0.85802495402E+02 -0.10292457872E+01  0.87836274566E+02  0.00000000000E+00 0. -1.
<mgrwt>
<rscale>  0 0.20632775E+03</rscale>
<asrwt>0</asrwt>
<pdfrwt beam="2">  1        2 0.16134757E-01 0.23898169E+03</pdfrwt>
<pdfrwt beam="1">  1       -2 0.57727031E-01 0.23898169E+03</pdfrwt>
<totfact> 0.10202191E+03</totfact>
</mgrwt>
</event>
<event>
 8    1  0.1550723E-005  0.3287682E+03  0.7546771E-02  0.1073109E+00
          1   -1    0    0  501    0  0.00000000000E+00  0.00000000000E+00  0.15867932761E+03  0.15867932761E+03  0.00000000000E+00 0. -1.
         -1   -1    0    0    0  501 -0.00000000000E+00 -0.00000000000E+00 -0.65986022165E+03  0.65986022165E+03  0.00000000000E+00 0.  1.
         23    2    1    2    0    0  0.26302075277E+02 -0.30294176529E+03 -0.22176434514E+03  0.39657026821E+03  0.12499216190E+03 0.  0.
         23    2    1    2    0    0 -0.26302075277E+02  0.30294176529E+03 -0.27941654890E+03  0.42196928105E+03  0.86711902488E+02 0.  0.
          5    1    3    3  502    0 -0.25671499743E+02 -0.20337052757E+03 -0.91567543533E+02  0.22455578909E+03  0.47000000000E+01 0.  1.
         -5    1    3    3    0  502  0.51973575021E+02 -0.99571237713E+02 -0.13019680160E+03  0.17201447912E+03  0.47000000000E+01 0.  1.
        -11    1    4    4    0    0  0.76634876971E+01  0.10551368530E+03 -0.48833075079E+02  0.11651839362E+03  0.00000000000E+00 0.  1.
         11    1    4    4    0    0 -0.33965562974E+02  0.19742807999E+03 -0.23058347382E+03  0.30545088744E+03  0.00000000000E+00 0. -1.
<mgrwt>
<rscale>  0 0.32558093E+03</rscale>
<asrwt>0</asrwt>
<pdfrwt beam="1">  1        1 0.24412204E-01 0.32876824E+03</pdfrwt>
<pdfrwt beam="2">  1       -1 0.10151696E+00 0.32876824E+03</pdfrwt>
<totfact> 0.19234798E+02</totfact>
</mgrwt>
</event>
<event>
 8    1  0.1550723E-005  0.2616380E+03  0.7546771E-02  0.1108403E+00
          2   -1    0    0  501    0  0.00000000000E+00  0.00000000000E+00  0.34468321751E+03  0.34468321751E+03  0.00000000000E+00 0. -1.
         -2   -1    0    0    0  501 -0.00000000000E+00 -0.00000000000E+00 -0.18791647895E+03  0.18791647895E+03  0.00000000000E+00 0.  1.
         23    2    1    2    0    0 -0.21981499458E+03 -0.67183151172E+02  0.71367385585E+02  0.27119688004E+03  0.12498894500E+03 0.  0.
         23    2    1    2    0    0  0.21981499458E+03  0.67183151172E+02  0.85399352975E+02  0.26140281643E+03  0.90587942384E+02 0.  0.
          5    1    3    3  502    0 -0.46847149726E+02 -0.56385591269E+02  0.64396998250E+02  0.97688554723E+02  0.47000000000E+01 0.  1.
         -5    1    3    3    0  502 -0.17296784486E+03 -0.10797559904E+02  0.69703873354E+01  0.17350832531E+03  0.47000000000E+01 0.  1.
        -11    1    4    4    0    0  0.72759781220E+02  0.13734593756E+02 -0.14925980011E+02  0.75534162523E+02  0.00000000000E+00 0.  1.
         11    1    4    4    0    0  0.14705521336E+03  0.53448557417E+02  0.10032533299E+03  0.18586865391E+03  0.00000000000E+00 0. -1.
<mgrwt>
<rscale>  0 0.25791464E+03</rscale>
<asrwt>0</asrwt>
<pdfrwt beam="1">  1        2 0.53028187E-01 0.26163800E+03</pdfrwt>
<pdfrwt beam="2">  1       -2 0.28910228E-01 0.26163800E+03</pdfrwt>
<totfact> 0.10290998E+03</totfact>
</mgrwt>
</event>
<event>
 8    1  0.1550723E-005  0.1314231E+03  0.7546771E-02  0.1238954E+00
         -2   -1    0    0    0  501 -0.00000000000E+00  0.00000000000E+00  0.14793349980E+02  0.14793349980E+02  0.00000000000E+00 0. -1.
          2   -1    0    0  501    0  0.00000000000E+00 -0.00000000000E+00 -0.94896728979E+03  0.94896728979E+03  0.00000000000E+00 0.  1.
         23    2    1    2    0    0 -0.12883643325E+02 -0.38490265359E+02 -0.63704596008E+03  0.65046105774E+03  0.12499817433E+03 0.  0.
         23    2    1    2    0    0  0.12883643325E+02  0.38490265359E+02 -0.29712797973E+03  0.31329958203E+03  0.90686840116E+02 0.  0.
          5    1    3    3  502    0 -0.75192452247E+01  0.45290695245E+02 -0.26920078523E+03  0.27312806317E+03  0.47000000000E+01 0.  1.
         -5    1    3    3    0  502 -0.53643980999E+01 -0.83780960604E+02 -0.36784517485E+03  0.37733299456E+03  0.47000000000E+01 0.  1.
        -11    1    4    4    0    0 -0.31064474669E+02  0.37280080077E+02 -0.97756642525E+02  0.10913829353E+03  0.00000000000E+00 0. -1.
         11    1    4    4    0    0  0.43948117993E+02  0.12101852814E+01 -0.19937133721E+03  0.20416128850E+03  0.00000000000E+00 0.  1.
<mgrwt>
<rscale>  0 0.12254686E+03</rscale>
<asrwt>0</asrwt>
<pdfrwt beam="2">  1        2 0.14599501E+00 0.13142310E+03</pdfrwt>
<pdfrwt beam="1">  1       -2 0.22758993E-02 0.13142310E+03</pdfrwt>
<totfact> 0.17191729E+04</totfact>
</mgrwt>
</event>
<event>
 8    1  0.1550723E-005  0.1710741E+03  0.7546771E-02  0.1183091E+00
         -1   -1    0    0    0  501 -0.00000000000E+00  0.00000000000E+00  0.80873854003E+02  0.80873854003E+02  0.00000000000E+00 0.  1.
          1   -1    0    0  501    0  0.00000000000E+00 -0.00000000000E+00 -0.33426935772E+03  0.33426935772E+03  0.00000000000E+00 0. -1.
         23    2    1    2    0    0  0.41903571392E+02  0.10901634714E+03 -0.85865984711E+02  0.19141400730E+03  0.12500352643E+03 0.  0.
         23    2    1    2    0    0 -0.41903571392E+02 -0.10901634714E+03 -0.16752951900E+03  0.22372920442E+03  0.91368177909E+02 0.  0.
          5    1    3    3  502    0 -0.25474609691E+01  0.12263050629E+03 -0.50130234742E+02  0.13258906843E+03  0.47000000000E+01 0.  1.
         -5    1    3    3    0  502  0.44451032361E+02 -0.13614159154E+02 -0.35735749969E+02  0.58824938872E+02  0.47000000000E+01 0.  1.
        -11    1    4    4    0    0 -0.58299177247E+02 -0.27912830795E+02 -0.85843593959E+02  0.10745716735E+03  0.00000000000E+00 0.  1.
         11    1    4    4    0    0  0.16395605855E+02 -0.81103516344E+02 -0.81685925042E+02  0.11627203707E+03  0.00000000000E+00 0. -1.
<mgrwt>
<rscale>  0 0.16506803E+03</rscale>
<asrwt>0</asrwt>
<pdfrwt beam="2">  1        1 0.51426054E-01 0.17107412E+03</pdfrwt>
<pdfrwt beam="1">  1       -1 0.12442132E-01 0.17107412E+03</pdfrwt>
<totfact> 0.32317518E+03</totfact>
</mgrwt>
</event>
<event>
 8    1  0.1550723E-005  0.1801893E+03  0.7546771E-02  0.1173493E+00
          2   -1    0    0  501    0  0.00000000000E+00  0.00000000000E+00  0.79046465412E+02  0.79046465412E+02  0.00000000000E+00 0. -1.
         -2   -1    0    0    0  501 -0.00000000000E+00 -0.00000000000E+00 -0.12891176993E+04  0.12891176993E+04  0.00000000000E+00 0.  1.
         23    2    1    2    0    0  0.35328868652E+02  0.12488458561E+03 -0.11965313921E+04  0.12100229542E+04  0.12499555515E+03 0.  0.
         23    2    1    2    0    0 -0.35328868652E+02 -0.12488458561E+03 -0.13539841810E+02  0.15814121050E+03  0.89336590812E+02 0.  0.
          5    1    3    3  502    0  0.37967752963E+02 -0.74841091547E+00 -0.55290597934E+03  0.55422849293E+03  0.47000000000E+01 0. -1.
         -5    1    3    3    0  502 -0.26388843107E+01  0.12563299653E+03 -0.64362541272E+03  0.65579446127E+03  0.47000000000E+01 0. -1.
        -11    1    4    4    0    0 -0.29613281402E+02 -0.10987644687E+03 -0.45355034561E+02  0.12250248640E+03  0.00000000000E+00 0.  1.
         11    1    4    4    0    0 -0.57155872503E+01 -0.15008138740E+02  0.31815192751E+02  0.35638724105E+02  0.00000000000E+00 0. -1.
<mgrwt>
<rscale>  0 0.17424429E+03</rscale>
<asrwt>0</asrwt>
<pdfrwt beam="1">  1        2 0.12160994E-01 0.18018928E+03</pdfrwt>
<pdfrwt beam="2">  1       -2 0.19832581E+00 0.18018928E+03</pdfrwt>
<totfact> 0.75064072E+01</totfact>
</mgrwt>
</event>
<event>
 8    1  0.1550723E-005  0.1946413E+03  0.7546771E-02  0.1158937E+00
          2   -1    0    0  501    0  0.00000000000E+00  0.00000000000E+00  0.24250824793E+03  0.24250824793E+03  0.00000000000E+00 0. -1.
         -2   -1    0    0    0  501 -0.00000000000E+00 -0.00000000000E+00 -0.17131256468E+03  0.17131256468E+03  0.00000000000E+00 0.  1.
         23    2    1    2    0    0  0.11989376540E+03  0.88793099313E+02 -0.50211923260E+02  0.20101365317E+03  0.12500608808E+03 0.  0.
         23    2    1    2    0    0 -0.11989376540E+03 -0.88793099313E+02  0.12140760650E+03  0.21280715944E+03  0.91040379639E+02 0.  0.
          5    1    3    3  502    0  0.74747235763E+02 -0.18242347384E+02 -0.87499404325E+01  0.77579533060E+02  0.47000000000E+01 0. -1.
         -5    1    3    3    0  502  0.45146529636E+02  0.10703544670E+03 -0.41461982827E+02  0.12343412011E+03  0.47000000000E+01 0. -1.
        -11    1    4    4    0    0 -0.53310820512E+01 -0.49810256623E+02  0.16767378135E+02  0.52826386117E+02  0.00000000000E+00 0.  1.
         11    1    4    4    0    0 -0.11456268335E+03 -0.38982842690E+02  0.10464022837E+03  0.15998077332E+03  0.00000000000E+00 0. -1.
<mgrwt>
<rscale>  0 0.18947309E+03</rscale>
<asrwt>0</asrwt>
<pdfrwt beam="1">  1        2 0.37308961E-01 0.19464134E+03</pdfrwt>
<pdfrwt beam="2">  1       -2 0.26355779E-01 0.19464134E+03</pdfrwt>
<totfact> 0.17643979E+03</totfact>
</mgrwt>
</event>
<event>
 8    1  0.1550723E-005  0.1264862E+03  0.7546771E-02  0.1248187E+00
          1   -1    0    0  501    0  0.00000000000E+00  0.00000000000E+00  0.88870770479E+03  0.88870770479E+03  0.00000000000E+00 0. -1.
         -1   -1    0    0    0  501 -0.00000000000E+00 -0.00000000000E+00 -0.13501995154E+02  0.13501995154E+02  0.00000000000E+00 0.  1.
         23    2    1    2    0    0 -0.72660286649E+01  0.17923268751E+02  0.49184638269E+03  0.50784999163E+03  0.12499884440E+03 0.  0.
         23    2    1    2    0    0  0.72660286649E+01 -0.17923268751E+02  0.38335932695E+03  0.39435970831E+03  0.90449805128E+02 0.  0.
          5    1    3    3  502    0 -0.16420691908E+02  0.45252825905E+02  0.46702690110E+03  0.46952494474E+03  0.47000000000E+01 0.  1.
         -5    1    3    3    0  502  0.91546632426E+01 -0.27329557154E+02  0.24819481583E+02  0.38325046893E+02  0.47000000000E+01 0.  1.
        -11    1    4    4    0    0  0.38207906464E+02  0.15697996249E+02  0.11625629876E+03  0.12337665177E+03  0.00000000000E+00 0.  1.
         11    1    4    4    0    0 -0.30941877799E+02 -0.33621265000E+02  0.26710302819E+03  0.27098305654E+03  0.00000000000E+00 0. -1.
<mgrwt>
<rscale>  0 0.11696639E+03</rscale>
<asrwt>0</asrwt>
<pdfrwt beam="1">  1        1 0.13672422E+00 0.12648616E+03</pdfrwt>
<pdfrwt beam="2">  1       -1 0.20772307E-02 0.12648616E+03</pdfrwt>
<totfact> 0.12071684E+04</totfact>
</mgrwt>
</event>
<event>
 8    1  0.1550723E-005  0.1363478E+03  0.7546771E-02  0.1228717E+00
          1   -1    0    0  501    0  0.00000000000E+00  0.00000000000E+00  0.22997602658E+03  0.22997602658E+03  0.00000000000E+00 0. -1.
         -1   -1    0    0    0  501 -0.00000000000E+00 -0.00000000000E+00 -0.81824306444E+02  0.81824306444E+02  0.00000000000E+00 0.  1.
         23    2    1    2    0    0  0.20353530824E+02  0.50515964957E+02  0.11950184813E+02  0.13687048093E+03  0.12499837079E+03 0.  0.
         23    2    1    2    0    0 -0.20353530824E+02 -0.50515964957E+02  0.13620153533E+03  0.17492985210E+03  0.95307219020E+02 0.  0.
          5    1    3    3  502    0  0.32561013195E+02 -0.27445489251E+02  0.34119374896E+02  0.54769482413E+02  0.47000000000E+01 0. -1.
         -5    1    3    3    0  502 -0.12207482372E+02  0.77961454208E+02 -0.22169190083E+02  0.82100998514E+02  0.47000000000E+01 0. -1.
        -11    1    4    4    0    0 -0.44146601813E+02  0.82108302245E+01  0.42584689733E+02  0.61885345473E+02  0.00000000000E+00 0.  1.
         11    1    4    4    0    0  0.23793070989E+02 -0.58726795182E+02  0.93616845592E+02  0.11304450662E+03  0.00000000000E+00 0. -1.
<mgrwt>
<rscale>  0 0.12915394E+03</rscale>
<asrwt>0</asrwt>
<pdfrwt beam="1">  1        1 0.35380927E-01 0.13634780E+03</pdfrwt>
<pdfrwt beam="2">  1       -1 0.12588355E-01 0.13634780E+03</pdfrwt>
<totfact> 0.49937221E+03</totfact>
</mgrwt>
</event>
<event>
 8    1  0.1550723E-005  0.2255724E+03  0.7546771E-02  0.1133178E+00
         -1   -1    0    0    0  501 -0.00000000000E+00  0.00000000000E+00  0.37826256531E+02  0.37826256531E+02  0.00000000000E+00 0.  1.
          1   -1    0    0  501    0  0.00000000000E+00 -0.00000000000E+00 -0.13258125686E+04  0.13258125686E+04  0.00000000000E+00 0. -1.
         23    2    1    2    0    0  0.17509770926E+03  0.67850482036E+02 -0.49596878180E+03  0.54485586970E+03  0.12497996050E+03 0.  0.
         23    2    1    2    0    0 -0.17509770926E+03 -0.67850482036E+02 -0.79201753024E+03  0.81878295540E+03  0.88605102286E+02 0.  0.
          5    1    3    3  502    0  0.88762094441E+02  0.94454529328E+02 -0.23169947629E+03  0.26553173978E+03  0.47000000000E+01 0. -1.
         -5    1    3    3    0  502  0.86335614815E+02 -0.26604047292E+02 -0.26426930551E+03  0.27932412992E+03  0.47000000000E+01 0. -1.
        -11    1    4    4    0    0 -0.10243454692E+03 -0.12394469066E+02 -0.55966818200E+03  0.56910010825E+03  0.00000000000E+00 0. -1.
         11    1    4    4    0    0 -0.72663162332E+02 -0.55456012970E+02 -0.23234934824E+03  0.24968284715E+03  0.00000000000E+00 0.  1.
<mgrwt>
<rscale>  0 0.22094867E+03</rscale>
<asrwt>0</asrwt>
<pdfrwt beam="2">  1        1 0.20397115E+00 0.22557235E+03</pdfrwt>
<pdfrwt beam="1">  1       -1 0.58194246E-02 0.22557235E+03</pdfrwt>
<totfact> 0.13139158E+03</totfact>
</mgrwt>
</event>
<event>
 8    1  0.1550723E-005  0.2708910E+03  0.7546771E-02  0.1102842E+00
         -2   -1    0    0    0  501 -0.00000000000E+00  0.00000000000E+00  0.10146439502E+03  0.10146439502E+03  0.00000000000E+00 0.  1.
          2   -1    0    0  501    0  0.00000000000E+00 -0.00000000000E+00 -0.84002639162E+03  0.84002639162E+03  0.00000000000E+00 0. -1.
         23    2    1    2    0    0  0.23385219022E+03 -0.55400320283E+02 -0.17583746427E+03  0.32295622613E+03  0.12500347114E+03 0.  0.
         23    2    1    2    0    0 -0.23385219022E+03  0.55400320283E+02 -0.56272453233E+03  0.61853456052E+03  0.90388389234E+02 0.  0.
          5    1    3    3  502    0  0.19866161211E+03  0.96004827035E+00 -0.15833280622E+03  0.25408409109E+03  0.47000000000E+01 0. -1.
         -5    1    3    3    0  502  0.35190578103E+02 -0.56360368553E+02 -0.17504658047E+02  0.68872135033E+02  0.47000000000E+01 0. -1.
        -11    1    4    4    0    0 -0.96484753987E+02  0.34830121869E-01 -0.13530982351E+03  0.16618681447E+03  0.00000000000E+00 0.  1.
         11    1    4    4    0    0 -0.13736743623E+03  0.55365490161E+02 -0.42741470882E+03  0.45234774605E+03  0.00000000000E+00 0. -1.
<mgrwt>
<rscale>  0 0.26728713E+03</rscale>
<asrwt>0</asrwt>
<pdfrwt beam="2">  1        2 0.12923483E+00 0.27089096E+03</pdfrwt>
<pdfrwt beam="1">  1       -2 0.15609907E-01 0.27089096E+03</pdfrwt>
<totfact> 0.10681641E+03</totfact>
</mgrwt>
</event>
<event>
 8    1  0.1550723E-005  0.1638848E+03  0.7546771E-02  0.1191209E+00
          1   -1    0    0  501    0  0.00000000000E+00  0.00000000000E+00  0.72462471645E+03  0.72462471645E+03  0.00000000000E+00 0. -1.
         -1   -1    0    0    0  501 -0.00000000000E+00 -0.00000000000E+00 -0.42379530111E+02  0.42379530111E+02  0.00000000000E+00 0.  1.
         23    2    1    2    0    0 -0.10558263611E+03 -0.10771429373E+02  0.17158361180E+03  0.23727443724E+03  0.12487796439E+03 0.  0.
         23    2    1    2    0    0  0.10558263611E+03  0.10771429373E+02  0.51066157454E+03  0.52972980933E+03  0.92599732357E+02 0.  0.
          5    1    3    3  502    0 -0.10038341318E+03 -0.35774251348E+02  0.18063108942E+03  0.20977680321E+03  0.47000000000E+01 0. -1.
         -5    1    3    3    0  502 -0.51992229329E+01  0.25002821975E+02 -0.90474776190E+01  0.27497634027E+02  0.47000000000E+01 0. -1.
        -11    1    4    4    0    0  0.78568466289E+01  0.34196357656E+02  0.20474721377E+03  0.20773190044E+03  0.00000000000E+00 0. -1.
         11    1    4    4    0    0  0.97725789485E+02 -0.23424928284E+02  0.30591436078E+03  0.32199790888E+03  0.00000000000E+00 0.  1.
<mgrwt>
<rscale>  0 0.15779469E+03</rscale>
<asrwt>0</asrwt>
<pdfrwt beam="1">  1        1 0.11148072E+00 0.16388478E+03</pdfrwt>
<pdfrwt beam="2">  1       -1 0.65199282E-02 0.16388478E+03</pdfrwt>
<totfact> 0.31049690E+03</totfact>
</mgrwt>
</event>
<event>
 8    1  0.1550723E-005  0.1585589E+03  0.7546771E-02  0.1198389E+00
          2   -1    0    0  501    0  0.00000000000E+00  0.00000000000E+00  0.11686525365E+04  0.11686525365E+04  0.00000000000E+00 0. -1.
         -2   -1    0    0    0  501 -0.00000000000E+00 -0.00000000000E+00 -0.18197891696E+02  0.18197891696E+02  0.00000000000E+00 0.  1.
         23    2    1    2    0    0 -0.97497097479E+02  0.29748221310E+01  0.60273683088E+03  0.62324363432E+03  0.12500562722E+03 0.  0.
         23    2    1    2    0    0  0.97497097479E+02 -0.29748221310E+01  0.54771781388E+03  0.56360679383E+03  0.90240128715E+02 0.  0.
          5    1    3    3  502    0 -0.17341963956E+02  0.42063888018E+02  0.73830867937E+02  0.86851605911E+02  0.47000000000E+01 0.  1.
         -5    1    3    3    0  502 -0.80155133523E+02 -0.39089065887E+02  0.52890596294E+03  0.53639202840E+03  0.47000000000E+01 0.  1.
        -11    1    4    4    0    0  0.86850675217E+02 -0.31903463734E+02  0.48471914217E+03  0.49347088827E+03  0.00000000000E+00 0. -1.
         11    1    4    4    0    0  0.10646422261E+02  0.28928641603E+02  0.62998671708E+02  0.70135905562E+02  0.00000000000E+00 0.  1.
<mgrwt>
<rscale>  0 0.15170860E+03</rscale>
<asrwt>0</asrwt>
<pdfrwt beam="1">  1        2 0.17979264E+00 0.15855895E+03</pdfrwt>
<pdfrwt beam="2">  1       -2 0.27996766E-02 0.15855895E+03</pdfrwt>
<totfact> 0.95488368E+03</totfact>
</mgrwt>
</event>
<event>
 8    1  0.1550723E-005  0.1324007E+03  0.7546771E-02  0.1237641E+00
         -3   -1    0    0    0  501 -0.00000000000E+00  0.00000000000E+00  0.15860237592E+03  0.15860237592E+03  0.00000000000E+00 0.  1.
          3   -1    0    0  501    0  0.00000000000E+00 -0.00000000000E+00 -0.90654695345E+02  0.90654695345E+02  0.00000000000E+00 0. -1.
         23    2    1    2    0    0  0.29478343354E+02 -0.32176062238E+02  0.69307108444E+02  0.14944371900E+03  0.12500271261E+03 0.  0.
         23    2    1    2    0    0 -0.29478343354E+02  0.32176062238E+02 -0.13594278703E+01  0.99813352264E+02  0.89758484490E+02 0.  0.
          5    1    3    3  502    0  0.45784778989E+01  0.35147060825E+02  0.68768305725E+02  0.77507730045E+02  0.47000000000E+01 0.  1.
         -5    1    3    3    0  502  0.24899865455E+02 -0.67323123063E+02  0.53880271989E+00  0.71935988956E+02  0.47000000000E+01 0.  1.
        -11    1    4    4    0    0 -0.56194100399E+02  0.43093892857E+02  0.13264670659E+01  0.70828102023E+02  0.00000000000E+00 0. -1.
         11    1    4    4    0    0  0.26715757045E+02 -0.10917830620E+02 -0.26858949363E+01  0.28985250241E+02  0.00000000000E+00 0.  1.
<mgrwt>
<rscale>  0 0.12336866E+03</rscale>
<asrwt>0</asrwt>
<pdfrwt beam="2">  1        3 0.13946876E-01 0.13240072E+03</pdfrwt>
<pdfrwt beam="1">  1       -3 0.24400365E-01 0.13240072E+03</pdfrwt>
<totfact> 0.15115786E+03</totfact>
</mgrwt>
</event>
<event>
 8    1  0.1550723E-005  0.1648192E+03  0.7546771E-02  0.1189226E+00
          1   -1    0    0  501    0  0.00000000000E+00  0.00000000000E+00  0.41351626095E+03  0.41351626095E+03  0.00000000000E+00 0. -1.
         -1   -1    0    0    0  501 -0.00000000000E+00 -0.00000000000E+00 -0.57918234029E+02  0.57918234029E+02  0.00000000000E+00 0.  1.
         23    2    1    2    0    0 -0.10726790488E+03  0.11821440381E+02  0.19272523994E+03  0.25359097508E+03  0.12457614001E+03 0.  0.
         23    2    1    2    0    0  0.10726790488E+03 -0.11821440381E+02  0.16287278698E+03  0.21784351991E+03  0.96343679375E+02 0.  0.
          5    1    3    3  502    0 -0.12380549167E+02  0.47289978463E+02  0.19446328685E+02  0.52819217716E+02  0.47000000000E+01 0.  1.
         -5    1    3    3    0  502 -0.94887355713E+02 -0.35468538082E+02  0.17327891126E+03  0.20077175736E+03  0.47000000000E+01 0.  1.
        -11    1    4    4    0    0  0.84169332590E+02  0.13704853311E+02  0.16238376250E+03  0.18341424666E+03  0.00000000000E+00 0. -1.
         11    1    4    4    0    0  0.23098572289E+02 -0.25526293692E+02  0.48902448231E+00  0.34429273249E+02  0.00000000000E+00 0.  1.
<mgrwt>
<rscale>  0 0.15953187E+03</rscale>
<asrwt>0</asrwt>
<pdfrwt beam="1">  1        1 0.63617885E-01 0.16481919E+03</pdfrwt>
<pdfrwt beam="2">  1       -1 0.89104978E-02 0.16481919E+03</pdfrwt>
<totfact> 0.41239860E+03</totfact>
</mgrwt>
</event>
<event>
 8    1  0.1550723E-005  0.1545328E+03  0.7546771E-02  0.1203280E+00
          1   -1    0    0  501    0  0.00000000000E+00  0.00000000000E+00  0.62395072075E+02  0.62395072075E+02  0.00000000000E+00 0. -1.
         -1   -1    0    0    0  501 -0.00000000000E+00 -0.00000000000E+00 -0.33724773656E+03  0.33724773656E+03  0.00000000000E+00 0.  1.
         23    2    1    2    0    0  0.88092355702E+02 -0.23505643378E+02 -0.19108328376E+03  0.24575030622E+03  0.12477024192E+03 0.  0.
         23    2    1    2    0    0 -0.88092355702E+02  0.23505643378E+02 -0.83769380724E+02  0.15389250242E+03  0.91393734747E+02 0.  0.
          5    1    3    3  502    0  0.10122209865E+03 -0.58152633662E+02 -0.13745823659E+03  0.18040093920E+03  0.47000000000E+01 0. -1.
         -5    1    3    3    0  502 -0.13129742945E+02  0.34646990285E+02 -0.53625047176E+02  0.65349367022E+02  0.47000000000E+01 0. -1.
        -11    1    4    4    0    0 -0.24751075876E+02  0.37911537691E+02  0.31457260524E+01  0.45384975923E+02  0.00000000000E+00 0. -1.
         11    1    4    4    0    0 -0.63341279826E+02 -0.14405894313E+02 -0.86915106776E+02  0.10850752650E+03  0.00000000000E+00 0.  1.
<mgrwt>
<rscale>  0 0.14773831E+03</rscale>
<asrwt>0</asrwt>
<pdfrwt beam="1">  1        1 0.95992417E-02 0.15453282E+03</pdfrwt>
<pdfrwt beam="2">  1       -1 0.51884268E-01 0.15453282E+03</pdfrwt>
<totfact> 0.25315965E+03</totfact>
</mgrwt>
</event>
<event>
 7    1  0.1550723E-005  0.1393854E+03  0.7546771E-02  0.1230165E+00
         -1   -1    0    0    0  501 -0.00000000000E+00  0.00000000000E+00  0.73721482152E+02  0.73721482152E+02  0.00000000000E+00 0.  1.
          1   -1    0    0  501    0  0.00000000000E+00 -0.00000000000E+00 -0.22846253455E+03  0.22846253455E+03  0.00000000000E+00 0. -1.
         23    2    1    2    0    0 -0.26004988169E+02  0.36105223664E+02 -0.12457704490E+03  0.15957208513E+03  0.89241042416E+02 0.  0.
          5    1    1    2  502    0 -0.39830092128E+02  0.17430758253E+02 -0.37095320199E+02  0.57344750003E+02  0.47000000000E+01 0. -1.
         -5    1    1    2    0  502  0.65835080297E+02 -0.53535981918E+02  0.69313126966E+01  0.85267181573E+02  0.47000000000E+01 0.  1.
        -11    1    3    3    0    0  0.15362635418E+02  0.33865761590E+02 -0.11160420635E+02  0.38825962497E+02  0.00000000000E+00 0.  1.
         11    1    3    3    0    0 -0.41367623587E+02  0.22394620743E+01 -0.11341662426E+03  0.12074612263E+03  0.00000000000E+00 0. -1.
<mgrwt>
<rscale>  0 0.12819088E+03</rscale>
<asrwt>0</asrwt>
<pdfrwt beam="2">  1        1 0.35148082E-01 0.13938542E+03</pdfrwt>
<pdfrwt beam="1">  1       -1 0.11341767E-01 0.13938542E+03</pdfrwt>
<totfact> 0.59215278E+03</totfact>
</mgrwt>
</event>
<event>
 8    1  0.1550723E-005  0.1487533E+03  0.7546771E-02  0.1211242E+00
          1   -1    0    0  501    0  0.00000000000E+00  0.00000000000E+00  0.49866775337E+03  0.49866775337E+03  0.00000000000E+00 0. -1.
         -1   -1    0    0    0  501 -0.00000000000E+00 -0.00000000000E+00 -0.37126974748E+02  0.37126974748E+02  0.00000000000E+00 0.  1.
         23    2    1    2    0    0 -0.61612820995E+02 -0.51997995836E+02  0.22660853095E+03  0.27107003925E+03  0.12501043395E+03 0.  0.
         23    2    1    2    0    0  0.61612820995E+02  0.51997995836E+02  0.23493224767E+03  0.26472468887E+03  0.91575480445E+02 0.  0.
          5    1    3    3  502    0 -0.33309263493E+02 -0.79193356091E+02  0.21222363505E+03  0.22900230557E+03  0.47000000000E+01 0.  1.
         -5    1    3    3    0  502 -0.28303557502E+02  0.27195360255E+02  0.14384895901E+02  0.42067733678E+02  0.47000000000E+01 0.  1.
        -11    1    4    4    0    0  0.39927251354E+02  0.18093959187E+02  0.21571865010E+03  0.22012749206E+03  0.00000000000E+00 0. -1.
         11    1    4    4    0    0  0.21685569641E+02  0.33904036649E+02  0.19213597575E+02  0.44597196812E+02  0.00000000000E+00 0.  1.
<mgrwt>
<rscale>  0 0.14156216E+03</rscale>
<asrwt>0</asrwt>
<pdfrwt beam="1">  1        1 0.76718111E-01 0.14875329E+03</pdfrwt>
<pdfrwt beam="2">  1       -1 0.57118426E-02 0.14875329E+03</pdfrwt>
<totfact> 0.62968647E+03</totfact>
</mgrwt>
</event>
<event>
 8    1  0.1550723E-005  0.2197472E+03  0.7546771E-02  0.1136988E+00
          2   -1    0    0  501    0  0.00000000000E+00  0.00000000000E+00  0.29329796696E+03  0.29329796696E+03  0.00000000000E+00 0. -1.
         -2   -1    0    0    0  501 -0.00000000000E+00 -0.00000000000E+00 -0.15446561497E+03  0.15446561497E+03  0.00000000000E+00 0.  1.
         23    2    1    2    0    0 -0.84707903627E+02  0.15965674031E+03  0.54766936345E+02  0.22646908286E+03  0.12499249782E+03 0.  0.
         23    2    1    2    0    0  0.84707903627E+02 -0.15965674031E+03  0.84065415645E+02  0.22129449907E+03  0.96117415412E+02 0.  0.
          5    1    3    3  502    0  0.38893118625E+01  0.11990505138E+03  0.13369833333E+02  0.12080227869E+03  0.47000000000E+01 0. -1.
         -5    1    3    3    0  502 -0.88597215489E+02  0.39751688932E+02  0.41397103013E+02  0.10566680417E+03  0.47000000000E+01 0. -1.
        -11    1    4    4    0    0  0.55586195493E+01 -0.94231139737E+02  0.10507652012E+02  0.94977980071E+02  0.00000000000E+00 0.  1.
         11    1    4    4    0    0  0.79149284077E+02 -0.65425600576E+02  0.73557763633E+02  0.12631651900E+03  0.00000000000E+00 0. -1.
<mgrwt>
<rscale>  0 0.21588615E+03</rscale>
<asrwt>0</asrwt>
<pdfrwt beam="1">  1        2 0.45122764E-01 0.21974719E+03</pdfrwt>
<pdfrwt beam="2">  1       -2 0.23763941E-01 0.21974719E+03</pdfrwt>
<totfact> 0.17312458E+03</totfact>
</mgrwt>
</event>
<event>
 7    1  0.1550723E-005  0.1537712E+03  0.7546771E-02  0.1208916E+00
         -1   -1    0    0    0  501 -0.00000000000E+00  0.00000000000E+00  0.30859421158E+03  0.30859421158E+03  0.00000000000E+00 0.  1.
          1   -1    0    0  501    0  0.00000000000E+00 -0.00000000000E+00 -0.60140595620E+02  0.60140595620E+02  0.00000000000E+00 0. -1.
         23    2    1    2    0    0  0.30469580522E+02  0.57488412427E+02  0.13245935209E+03  0.17612052083E+03  0.96123072145E+02 0.  0.
          5    1    1    2  502    0  0.56759205612E+01  0.45683537808E+01 -0.29254856643E+02  0.30512662416E+02  0.47000000000E+01 0. -1.
         -5    1    1    2    0  502 -0.36145501084E+02 -0.62056766208E+02  0.14524912051E+03  0.16210162396E+03  0.47000000000E+01 0.  1.
        -11    1    3    3    0    0  0.37759104847E+02 -0.74754019157E+01  0.14260490847E+02  0.41048669063E+02  0.00000000000E+00 0.  1.
         11    1    3    3    0    0 -0.72895243247E+01  0.64963814343E+02  0.11819886125E+03  0.13507185176E+03  0.00000000000E+00 0. -1.
<mgrwt>
<rscale>  0 0.14333069E+03</rscale>
<asrwt>0</asrwt>
<pdfrwt beam="2">  1        1 0.92523995E-02 0.15377124E+03</pdfrwt>
<pdfrwt beam="1">  1       -1 0.47476032E-01 0.15377124E+03</pdfrwt>
<totfact> 0.31270385E+03</totfact>
</mgrwt>
</event>
<event>
 8    1  0.1550723E-005  0.1665802E+03  0.7546771E-02  0.1188416E+00
         -2   -1    0    0    0  501 -0.00000000000E+00  0.00000000000E+00  0.14365229803E+03  0.14365229803E+03  0.00000000000E+00 0. -1.
          2   -1    0    0  501    0  0.00000000000E+00 -0.00000000000E+00 -0.20013954861E+03  0.20013954861E+03  0.00000000000E+00 0.  1.
         23    2    1    2    0    0 -0.10806398268E+03  0.21130970828E+02  0.40312500702E+02  0.17138862339E+03  0.12499848093E+03 0.  0.
         23    2    1    2    0    0  0.10806398268E+03 -0.21130970828E+02 -0.96799751289E+02  0.17240322325E+03  0.90710182757E+02 0.  0.
          5    1    3    3  502    0 -0.78912911907E+02  0.23370020290E+02  0.84594726621E+02  0.11811758246E+03  0.47000000000E+01 0.  1.
         -5    1    3    3    0  502 -0.29151070775E+02 -0.22390494617E+01 -0.44282225919E+02  0.53271040934E+02  0.47000000000E+01 0.  1.
        -11    1    4    4    0    0 -0.74895787258E+01  0.17043236441E+02 -0.32317617344E+01  0.18894707772E+02  0.00000000000E+00 0.  1.
         11    1    4    4    0    0  0.11555356141E+03 -0.38174207269E+02 -0.93567989555E+02  0.15350851548E+03  0.00000000000E+00 0. -1.
<mgrwt>
<rscale>  0 0.16024896E+03</rscale>
<asrwt>0</asrwt>
<pdfrwt beam="2">  1        2 0.30790700E-01 0.16658020E+03</pdfrwt>
<pdfrwt beam="1">  1       -2 0.22100354E-01 0.16658020E+03</pdfrwt>
<totfact> 0.29380682E+03</totfact>
</mgrwt>
</event>
<event>
 8    1  0.1550723E-005  0.1284699E+03  0.7546771E-02  0.1243962E+00
         -1   -1    0    0    0  501 -0.00000000000E+00  0.00000000000E+00  0.28058536329E+03  0.28058536329E+03  0.00000000000E+00 0.  1.
          1   -1    0    0  501    0  0.00000000000E+00 -0.00000000000E+00 -0.44988845766E+02  0.44988845766E+02  0.00000000000E+00 0. -1.
         23    2    1    2    0    0  0.19224341768E+02 -0.22627773254E+02  0.14032311045E+03  0.19025004975E+03  0.12499165838E+03 0.  0.
         23    2    1    2    0    0 -0.19224341768E+02  0.22627773254E+02  0.95273407066E+02  0.13532415930E+03  0.91400298454E+02 0.  0.
          5    1    3    3  502    0  0.99290687547E+01 -0.30736858693E+02 -0.13889708266E+02  0.35473298189E+02  0.47000000000E+01 0.  1.
         -5    1    3    3    0  502  0.92952730132E+01  0.81090854400E+01  0.15421281872E+03  0.15477675156E+03  0.47000000000E+01 0.  1.
        -11    1    4    4    0    0  0.29261290033E+01 -0.25255676271E+02  0.74334604511E+02  0.78562362762E+02  0.00000000000E+00 0.  1.
         11    1    4    4    0    0 -0.22150470771E+02  0.47883449525E+02  0.20938802555E+02  0.56761796538E+02  0.00000000000E+00 0. -1.
<mgrwt>
<rscale>  0 0.11947695E+03</rscale>
<asrwt>0</asrwt>
<pdfrwt beam="2">  1        1 0.69213611E-02 0.12846986E+03</pdfrwt>
<pdfrwt beam="1">  1       -1 0.43166978E-01 0.12846986E+03</pdfrwt>
<totfact> 0.54157025E+03</totfact>
</mgrwt>
</event>
<event>
 8    1  0.1550723E-005  0.2680210E+03  0.7546771E-02  0.1104323E+00
          1   -1    0    0  501    0  0.00000000000E+00  0.00000000000E+00  0.62452827062E+03  0.62452827062E+03  0.00000000000E+00 0. -1.
         -1   -1    0    0    0  501 -0.00000000000E+00 -0.00000000000E+00 -0.11132670275E+03  0.11132670275E+03  0.00000000000E+00 0.  1.
         23    2    1    2    0    0  0.20250902692E+02  0.23622485462E+03  0.21664866063E+03  0.34463296372E+03  0.12499182584E+03 0.  0.
         23    2    1    2    0    0 -0.20250902692E+02 -0.23622485462E+03  0.29655290725E+03  0.39122200965E+03  0.94333202194E+02 0.  0.
          5    1    3    3  502    0  0.12013049671E+01  0.41452603479E+02 -0.12198303755E+02  0.43481606264E+02  0.47000000000E+01 0. -1.
         -5    1    3    3    0  502  0.19049597724E+02  0.19477225114E+03  0.22884696438E+03  0.30115135745E+03  0.47000000000E+01 0. -1.
        -11    1    4    4    0    0  0.34075544759E+02 -0.83702511804E+02  0.79012376240E+02  0.12004252926E+03  0.00000000000E+00 0. -1.
         11    1    4    4    0    0 -0.54326447450E+02 -0.15252234282E+03  0.21754053101E+03  0.27117948039E+03  0.00000000000E+00 0.  1.
<mgrwt>
<rscale>  0 0.26474843E+03</rscale>
<asrwt>0</asrwt>
<pdfrwt beam="1">  1        1 0.96081270E-01 0.26802096E+03</pdfrwt>
<pdfrwt beam="2">  1       -1 0.17127185E-01 0.26802096E+03</pdfrwt>
<totfact> 0.86519147E+02</totfact>
</mgrwt>
</event>
<event>
 8    1  0.1550723E-005  0.1256573E+03  0.7546771E-02  0.1251541E+00
         -4   -1    0    0    0  501 -0.00000000000E+00  0.00000000000E+00  0.16640374405E+03  0.16640374405E+03  0.00000000000E+00 0.  1.
          4   -1    0    0  501    0  0.00000000000E+00 -0.00000000000E+00 -0.91819249022E+02  0.91819249022E+02  0.00000000000E+00 0. -1.
         23    2    1    2    0    0 -0.61814828971E+01 -0.11226344571E+02  0.10618237325E+03  0.16451280954E+03  0.12500210626E+03 0.  0.
         23    2    1    2    0    0  0.61814828971E+01  0.11226344571E+02 -0.31597878221E+02  0.93710183534E+02  0.87286488340E+02 0.  0.
          5    1    3    3  502    0  0.98362175125E+01  0.51219756739E+02  0.18412898770E+02  0.55509814416E+02  0.47000000000E+01 0.  1.
         -5    1    3    3    0  502 -0.16017700410E+02 -0.62446101310E+02  0.87769474481E+02  0.10900299512E+03  0.47000000000E+01 0.  1.
        -11    1    4    4    0    0  0.56846419291E+01 -0.23170990748E+02  0.20381224562E+02  0.31378404688E+02  0.00000000000E+00 0.  1.
         11    1    4    4    0    0  0.49684096796E+00  0.34397335319E+02 -0.51979102783E+02  0.62331778846E+02  0.00000000000E+00 0. -1.
<mgrwt>
<rscale>  0 0.11502321E+03</rscale>
<asrwt>0</asrwt>
<pdfrwt beam="2">  1        4 0.14126038E-01 0.12565734E+03</pdfrwt>
<pdfrwt beam="1">  1       -4 0.25600576E-01 0.12565734E+03</pdfrwt>
<totfact> 0.97478527E+02</totfact>
</mgrwt>
</event>
<event>
 8    1  0.1550723E-005  0.2593586E+03  0.7546771E-02  0.1109804E+00
         -1   -1    0    0    0  501 -0.00000000000E+00  0.00000000000E+00  0.16224674526E+03  0.16224674526E+03  0.00000000000E+00 0.  1.
          1   -1    0    0  501    0  0.00000000000E+00 -0.00000000000E+00 -0.41334931628E+03  0.41334931628E+03  0.00000000000E+00 0. -1.
         23    2    1    2    0    0  0.22723475384E+03  0.24403300416E+01 -0.62908211586E+02  0.26687881669E+03  0.12500108458E+03 0.  0.
         23    2    1    2    0    0 -0.22723475384E+03 -0.24403300416E+01 -0.18819435944E+03  0.30871724485E+03  0.90816473050E+02 0.  0.
          5    1    3    3  502    0  0.17649975358E+02  0.40454389646E+02  0.11483602239E+01  0.44401441451E+02  0.47000000000E+01 0.  1.
         -5    1    3    3    0  502  0.20958477849E+03 -0.38014059604E+02 -0.64056571810E+02  0.22247737524E+03  0.47000000000E+01 0.  1.
        -11    1    4    4    0    0 -0.10982441446E+03  0.14052500060E+02 -0.37339617438E+02  0.11684657376E+03  0.00000000000E+00 0.  1.
         11    1    4    4    0    0 -0.11741033938E+03 -0.16492830102E+02 -0.15085474200E+03  0.19187067108E+03  0.00000000000E+00 0. -1.
<mgrwt>
<rscale>  0 0.25561952E+03</rscale>
<asrwt>0</asrwt>
<pdfrwt beam="2">  1        1 0.63592202E-01 0.25935855E+03</pdfrwt>
<pdfrwt beam="1">  1       -1 0.24961038E-01 0.25935855E+03</pdfrwt>
<totfact> 0.81272684E+02</totfact>
</mgrwt>
</event>
<event>
 8    1  0.1550723E-005  0.1731869E+03  0.7546771E-02  0.1180737E+00
          2   -1    0    0  501    0  0.00000000000E+00  0.00000000000E+00  0.34072067518E+03  0.34072067518E+03  0.00000000000E+00 0. -1.
         -2   -1    0    0    0  501 -0.00000000000E+00 -0.00000000000E+00 -0.12518379919E+03  0.12518379919E+03  0.00000000000E+00 0.  1.
         23    2    1    2    0    0  0.94617591060E+02 -0.73599573568E+02 -0.32002430070E+02  0.17611885080E+03  0.12499723321E+03 0.  0.
         23    2    1    2    0    0 -0.94617591060E+02  0.73599573568E+02  0.24753930607E+03  0.28978562357E+03  0.91272196270E+02 0.  0.
          5    1    3    3  502    0 -0.17897887994E+02 -0.34222391961E+02 -0.40949649153E+02  0.56484247998E+02  0.47000000000E+01 0.  1.
         -5    1    3    3    0  502  0.11251547905E+03 -0.39377181607E+02  0.89472190832E+01  0.11963460280E+03  0.47000000000E+01 0.  1.
        -11    1    4    4    0    0 -0.70265592628E+02  0.25559666681E+02  0.21314944898E+03  0.22588323901E+03  0.00000000000E+00 0. -1.
         11    1    4    4    0    0 -0.24351998432E+02  0.48039906887E+02  0.34389857093E+02  0.63902384558E+02  0.00000000000E+00 0.  1.
<mgrwt>
<rscale>  0 0.16725899E+03</rscale>
<asrwt>0</asrwt>
<pdfrwt beam="1">  1        2 0.52418565E-01 0.17318688E+03</pdfrwt>
<pdfrwt beam="2">  1       -2 0.19259046E-01 0.17318688E+03</pdfrwt>
<totfact> 0.21027075E+03</totfact>
</mgrwt>
</event>
<event>
 8    1  0.1550723E-005  0.2500671E+03  0.7546771E-02  0.1116954E+00
          4   -1    0    0  501    0  0.00000000000E+00  0.00000000000E+00  0.24770940127E+03  0.24770940127E+03  0.00000000000E+00 0.  1.
         -4   -1    0    0    0  501 -0.00000000000E+00 -0.00000000000E+00 -0.23506529787E+03  0.23506529787E+03  0.00000000000E+00 0. -1.
         23    2    1    2    0    0 -0.12477456725E+03  0.17703375614E+03 -0.27025259881E+02  0.25152320090E+03  0.12499564981E+03 0.  0.
         23    2    1    2    0    0  0.12477456725E+03 -0.17703375614E+03  0.39669363280E+02  0.23125149825E+03  0.70667910767E+02 0.  0.
          5    1    3    3  502    0 -0.10490798619E+03  0.85328308559E+02  0.33971037249E+02  0.13950887850E+03  0.47000000000E+01 0. -1.
         -5    1    3    3    0  502 -0.19866581064E+02  0.91705447583E+02 -0.60996297130E+02  0.11201432240E+03  0.47000000000E+01 0. -1.
        -11    1    4    4    0    0  0.44997824191E+02 -0.41037465331E+02  0.41284136252E+02  0.73574843858E+02  0.00000000000E+00 0.  1.
         11    1    4    4    0    0  0.79776743059E+02 -0.13599629081E+03 -0.16147729721E+01  0.15767665439E+03  0.00000000000E+00 0. -1.
<mgrwt>
<rscale>  0 0.24431048E+03</rscale>
<asrwt>0</asrwt>
<pdfrwt beam="1">  1        4 0.38109139E-01 0.25006710E+03</pdfrwt>
<pdfrwt beam="2">  1       -4 0.36163892E-01 0.25006710E+03</pdfrwt>
<totfact> 0.90712839E+01</totfact>
</mgrwt>
</event>
<event>
 8    1  0.1550723E-005  0.2640704E+03  0.7546771E-02  0.1106651E+00
          2   -1    0    0  501    0  0.00000000000E+00  0.00000000000E+00  0.89547207051E+03  0.89547207051E+03  0.00000000000E+00 0. -1.
         -2   -1    0    0    0  501 -0.00000000000E+00 -0.00000000000E+00 -0.12728774918E+03  0.12728774918E+03  0.00000000000E+00 0.  1.
         23    2    1    2    0    0 -0.14392258368E+03 -0.18273952502E+03  0.59300708602E+02  0.27064690013E+03  0.12500290561E+03 0.  0.
         23    2    1    2    0    0  0.14392258368E+03  0.18273952502E+03  0.70888361273E+03  0.75211291956E+03  0.95133712619E+02 0.  0.
          5    1    3    3  502    0 -0.41785827130E+02 -0.13610499824E+03 -0.23440256838E+01  0.14247178791E+03  0.47000000000E+01 0. -1.
         -5    1    3    3    0  502 -0.10213675655E+03 -0.46634526783E+02  0.61644734285E+02  0.12817511221E+03  0.47000000000E+01 0. -1.
        -11    1    4    4    0    0  0.47832247186E+02  0.60688099368E+02  0.11722094036E+03  0.14039842639E+03  0.00000000000E+00 0.  1.
         11    1    4    4    0    0  0.96090336490E+02  0.12205142565E+03  0.59166267237E+03  0.61171449317E+03  0.00000000000E+00 0. -1.
<mgrwt>
<rscale>  0 0.26082139E+03</rscale>
<asrwt>0</asrwt>
<pdfrwt beam="1">  1        2 0.13776493E+00 0.26407039E+03</pdfrwt>
<pdfrwt beam="2">  1       -2 0.19582731E-01 0.26407039E+03</pdfrwt>
<totfact> 0.66957832E+02</totfact>
</mgrwt>
</event>
<event>
 8    1  0.1550723E-005  0.2026805E+03  0.7546771E-02  0.1151453E+00
         -2   -1    0    0    0  501 -0.00000000000E+00  0.00000000000E+00  0.97004442746E+02  0.97004442746E+02  0.00000000000E+00 0.  1.
          2   -1    0    0  501    0  0.00000000000E+00 -0.00000000000E+00 -0.44628534723E+03  0.44628534723E+03  0.00000000000E+00 0. -1.
         23    2    1    2    0    0 -0.14203102043E+02  0.15889325697E+03 -0.82317880243E+02  0.21875925695E+03  0.12502233351E+03 0.  0.
         23    2    1    2    0    0  0.14203102043E+02 -0.15889325697E+03 -0.26696302424E+03  0.32453053303E+03  0.92747050290E+02 0.  0.
          5    1    3    3  502    0  0.17589878333E+02  0.96508484279E+02 -0.10618071764E+03  0.14463653119E+03  0.47000000000E+01 0.  1.
         -5    1    3    3    0  502 -0.31792980376E+02  0.62384772688E+02  0.23862837396E+02  0.74122725754E+02  0.47000000000E+01 0.  1.
        -11    1    4    4    0    0  0.20569300485E+02 -0.13158359005E+02 -0.53509066395E+01  0.24997414587E+02  0.00000000000E+00 0.  1.
         11    1    4    4    0    0 -0.63661984418E+01 -0.14573489796E+03 -0.26161211760E+03  0.29953311844E+03  0.00000000000E+00 0. -1.
<mgrwt>
<rscale>  0 0.19798162E+03</rscale>
<asrwt>0</asrwt>
<pdfrwt beam="2">  1        2 0.68659284E-01 0.20268049E+03</pdfrwt>
<pdfrwt beam="1">  1       -2 0.14923760E-01 0.20268049E+03</pdfrwt>
<totfact> 0.24159883E+03</totfact>
</mgrwt>
</event>
<event>
 7    1  0.1550723E-005  0.1803360E+03  0.7546771E-02  0.1187540E+00
          1   -1    0    0  501    0  0.00000000000E+00  0.00000000000E+00  0.86665864897E+02  0.86665864897E+02  0.00000000000E+00 0. -1.
         -1   -1    0    0    0  501 -0.00000000000E+00 -0.00000000000E+00 -0.32017192494E+03  0.32017192494E+03  0.00000000000E+00 0.  1.
         23    2    1    2    0    0  0.63179772643E+02 -0.15391954796E+01 -0.36820679466E+01  0.11470746127E+03  0.95656632034E+02 0.  0.
          5    1    1    2  502    0  0.15765220231E+02  0.67481513785E+02 -0.13652974955E+03  0.15318211183E+03  0.47000000000E+01 0.  1.
         -5    1    1    2    0  502 -0.78944992874E+02 -0.65942318305E+02 -0.93294242545E+02  0.13894821674E+03  0.47000000000E+01 0. -1.
        -11    1    3    3    0    0  0.23514651702E+01  0.30108315793E+02 -0.28753603443E+02  0.41699038110E+02  0.00000000000E+00 0.  1.
         11    1    3    3    0    0  0.60828307472E+02 -0.31647511273E+02  0.25071535496E+02  0.73008423157E+02  0.00000000000E+00 0. -1.
<mgrwt>
<rscale>  0 0.16102886E+03</rscale>
<asrwt>0</asrwt>
<pdfrwt beam="1">  1        1 0.13333210E-01 0.18033597E+03</pdfrwt>
<pdfrwt beam="2">  1       -1 0.49257219E-01 0.18033597E+03</pdfrwt>
<totfact> 0.18137190E+03</totfact>
</mgrwt>
</event>
<event>
 8    1  0.1550723E-005  0.1402888E+03  0.7546771E-02  0.1221611E+00
          2   -1    0    0  501    0  0.00000000000E+00  0.00000000000E+00  0.10183854668E+03  0.10183854668E+03  0.00000000000E+00 0. -1.
         -2   -1    0    0    0  501 -0.00000000000E+00 -0.00000000000E+00 -0.17832778464E+03  0.17832778464E+03  0.00000000000E+00 0.  1.
         23    2    1    2    0    0  0.23482472378E+02 -0.59197423476E+02 -0.83248523114E+02  0.16312962847E+03  0.12500079051E+03 0.  0.
         23    2    1    2    0    0 -0.23482472378E+02  0.59197423476E+02  0.67592851534E+01  0.11703670284E+03  0.97959891904E+02 0.  0.
          5    1    3    3  502    0  0.21781477769E+02 -0.97940366247E+02 -0.67465540208E+02  0.12099767448E+03  0.47000000000E+01 0.  1.
         -5    1    3    3    0  502  0.17009946096E+01  0.38742942771E+02 -0.15782982906E+02  0.42131953985E+02  0.47000000000E+01 0.  1.
        -11    1    4    4    0    0 -0.20076113442E+02 -0.14797438412E+02 -0.26013161229E+02  0.36037467608E+02  0.00000000000E+00 0.  1.
         11    1    4    4    0    0 -0.34063589366E+01  0.73994861888E+02  0.32772446383E+02  0.80999235237E+02  0.00000000000E+00 0. -1.
<mgrwt>
<rscale>  0 0.13401904E+03</rscale>
<asrwt>0</asrwt>
<pdfrwt beam="1">  1        2 0.15667469E-01 0.14028884E+03</pdfrwt>
<pdfrwt beam="2">  1       -2 0.27435043E-01 0.14028884E+03</pdfrwt>
<totfact> 0.42636592E+03</totfact>
</mgrwt>
</event>
<event>
 8    1  0.1550723E-005  0.1269051E+03  0.7546771E-02  0.1247056E+00
          1   -1    0    0  501    0  0.00000000000E+00  0.00000000000E+00  0.29910886659E+03  0.29910886659E+03  0.00000000000E+00 0. -1.
         -1   -1    0    0    0  501 -0.00000000000E+00 -0.00000000000E+00 -0.42406055601E+02  0.42406055601E+02  0.00000000000E+00 0.  1.
         23    2    1    2    0    0 -0.16544580480E+02 -0.14318854940E+02  0.11271579333E+03  0.16973439748E+03  0.12500465140E+03 0.  0.
         23    2    1    2    0    0  0.16544580480E+02  0.14318854940E+02  0.14398701766E+03  0.17178052471E+03  0.91090804510E+02 0.  0.
          5    1    3    3  502    0 -0.10055999703E+02 -0.66064122043E+02  0.91116886064E+02  0.11309274193E+03  0.47000000000E+01 0. -1.
         -5    1    3    3    0  502 -0.64885807768E+01  0.51745267104E+02  0.21598907267E+02  0.56641655549E+02  0.47000000000E+01 0. -1.
        -11    1    4    4    0    0 -0.37308870136E+02  0.32286970772E+01  0.44960700269E+02  0.58513595380E+02  0.00000000000E+00 0.  1.
         11    1    4    4    0    0  0.53853450616E+02  0.11090157862E+02  0.99026317388E+02  0.11326692933E+03  0.00000000000E+00 0. -1.
<mgrwt>
<rscale>  0 0.11763140E+03</rscale>
<asrwt>0</asrwt>
<pdfrwt beam="1">  1        1 0.46016747E-01 0.12690514E+03</pdfrwt>
<pdfrwt beam="2">  1       -1 0.65240088E-02 0.12690514E+03</pdfrwt>
<totfact> 0.97405160E+03</totfact>
</mgrwt>
</event>
<event>
 8    1  0.1550723E-005  0.1369578E+03  0.7546771E-02  0.1229750E+00
          1   -1    0    0  501    0  0.00000000000E+00  0.00000000000E+00  0.39203543467E+03  0.39203543467E+03  0.00000000000E+00 0. -1.
         -1   -1    0    0    0  501 -0.00000000000E+00 -0.00000000000E+00 -0.39204144067E+02  0.39204144067E+02  0.00000000000E+00 0.  1.
         23    2    1    2    0    0  0.58481890185E+01  0.55662680408E+02  0.15537615172E+03  0.20712122275E+03  0.12499966833E+03 0.  0.
         23    2    1    2    0    0 -0.58481890185E+01 -0.55662680408E+02  0.19745513888E+03  0.22411835599E+03  0.90044268644E+02 0.  0.
          5    1    3    3  502    0 -0.48878338722E+02  0.58156634059E+02  0.11876856529E+03  0.14106504947E+03  0.47000000000E+01 0. -1.
         -5    1    3    3    0  502  0.54726527741E+02 -0.24939536506E+01  0.36607586430E+02  0.66056173274E+02  0.47000000000E+01 0. -1.
        -11    1    4    4    0    0 -0.42169951873E+02 -0.54091028052E+02  0.14362592537E+03  0.15916202623E+03  0.00000000000E+00 0.  1.
         11    1    4    4    0    0  0.36321762854E+02 -0.15716523565E+01  0.53829213514E+02  0.64956329757E+02  0.00000000000E+00 0. -1.
<mgrwt>
<rscale>  0 0.12846607E+03</rscale>
<asrwt>0</asrwt>
<pdfrwt beam="1">  1        1 0.60313141E-01 0.13695785E+03</pdfrwt>
<pdfrwt beam="2">  1       -1 0.60314071E-02 0.13695785E+03</pdfrwt>
<totfact> 0.78614594E+03</totfact>
</mgrwt>
</event>
<event>
 8    1  0.1550723E-005  0.1498197E+03  0.7546771E-02  0.1208991E+00
          2   -1    0    0  501    0  0.00000000000E+00  0.00000000000E+00  0.10830567927E+04  0.10830567927E+04  0.00000000000E+00 0.  1.
         -2   -1    0    0    0  501 -0.00000000000E+00 -0.00000000000E+00 -0.20136762616E+02  0.20136762616E+02  0.00000000000E+00 0. -1.
         23    2    1    2    0    0 -0.47454937248E+02 -0.67607207070E+02  0.37257824157E+03  0.40157252688E+03  0.12499297076E+03 0.  0.
         23    2    1    2    0    0  0.47454937248E+02  0.67607207070E+02  0.69034178852E+03  0.70162102844E+03  0.94220894995E+02 0.  0.
          5    1    3    3  502    0 -0.70476466562E+02  0.72764346978E+01  0.19030609069E+03  0.20312158181E+03  0.47000000000E+01 0.  1.
         -5    1    3    3    0  502  0.23021529314E+02 -0.74883641768E+02  0.18227215088E+03  0.19845094507E+03  0.47000000000E+01 0.  1.
        -11    1    4    4    0    0  0.73643549076E+02  0.30303717830E+02  0.42629817533E+03  0.43367248232E+03  0.00000000000E+00 0. -1.
         11    1    4    4    0    0 -0.26188611828E+02  0.37303489240E+02  0.26404361319E+03  0.26794854612E+03  0.00000000000E+00 0.  1.
<mgrwt>
<rscale>  0 0.14327327E+03</rscale>
<asrwt>0</asrwt>
<pdfrwt beam="1">  1        2 0.16662408E+00 0.14981972E+03</pdfrwt>
<pdfrwt beam="2">  1       -2 0.30979643E-02 0.14981972E+03</pdfrwt>
<totfact> 0.91792426E+03</totfact>
</mgrwt>
</event>
<event>
 8    1  0.1550723E-005  0.1226301E+03  0.7546771E-02  0.1246685E+00
         -2   -1    0    0    0  501 -0.00000000000E+00  0.00000000000E+00  0.15984270383E+04  0.15984270383E+04  0.00000000000E+00 0.  1.
          2   -1    0    0  501    0  0.00000000000E+00 -0.00000000000E+00 -0.11170627049E+03  0.11170627049E+03  0.00000000000E+00 0. -1.
         23    2    1    2    0    0 -0.31640999925E+02  0.40328907432E+02  0.15710150978E+04  0.15757939514E+04  0.11140271986E+03 0.  0.
         23    2    1    2    0    0  0.31640999925E+02 -0.40328907432E+02 -0.84294329978E+02  0.13433935743E+03  0.91180892947E+02 0.  0.
          5    1    3    3  502    0 -0.13966428023E+02 -0.33007791900E+02  0.86283712066E+03  0.86359397996E+03  0.47000000000E+01 0. -1.
         -5    1    3    3    0  502 -0.17674571902E+02  0.73336699332E+02  0.70817797715E+03  0.71219997141E+03  0.47000000000E+01 0.  1.
        -11    1    4    4    0    0 -0.25966691062E+02 -0.14110350879E+02 -0.59363479197E+02  0.66312847239E+02  0.00000000000E+00 0.  1.
         11    1    4    4    0    0  0.57607690987E+02 -0.26218556553E+02 -0.24930850781E+02  0.68026510195E+02  0.00000000000E+00 0. -1.
<mgrwt>
<rscale>  0 0.11785080E+03</rscale>
<asrwt>0</asrwt>
<pdfrwt beam="2">  1        2 0.17185581E-01 0.12263009E+03</pdfrwt>
<pdfrwt beam="1">  1       -2 0.24591184E+00 0.12263009E+03</pdfrwt>
<totfact> 0.26251827E+01</totfact>
</mgrwt>
</event>
<event>
 8    1  0.1550723E-005  0.1411600E+03  0.7546771E-02  0.1225945E+00
         -1   -1    0    0    0  501 -0.00000000000E+00  0.00000000000E+00  0.32873080538E+02  0.32873080538E+02  0.00000000000E+00 0.  1.
          1   -1    0    0  501    0  0.00000000000E+00 -0.00000000000E+00 -0.51957696270E+03  0.51957696270E+03  0.00000000000E+00 0. -1.
         23    2    1    2    0    0  0.60293482678E+02  0.25821545691E+02 -0.18258532413E+03  0.23078895995E+03  0.12499634864E+03 0.  0.
         23    2    1    2    0    0 -0.60293482678E+02 -0.25821545691E+02 -0.30411855803E+03  0.32166108329E+03  0.81704950191E+02 0.  0.
          5    1    3    3  502    0  0.81580656883E+02 -0.17252312493E+02 -0.15259699631E+03  0.17395683128E+03  0.47000000000E+01 0.  1.
         -5    1    3    3    0  502 -0.21287174205E+02  0.43073858184E+02 -0.29988327811E+02  0.56832128672E+02  0.47000000000E+01 0.  1.
        -11    1    4    4    0    0 -0.72429112210E+02  0.38892655928E+01 -0.21853979313E+03  0.23026233705E+03  0.00000000000E+00 0.  1.
         11    1    4    4    0    0  0.12135629532E+02 -0.29710811284E+02 -0.85578764898E+02  0.91398746232E+02  0.00000000000E+00 0. -1.
<mgrwt>
<rscale>  0 0.13102311E+03</rscale>
<asrwt>0</asrwt>
<pdfrwt beam="2">  1        1 0.79934910E-01 0.14115999E+03</pdfrwt>
<pdfrwt beam="1">  1       -1 0.50573975E-02 0.14115999E+03</pdfrwt>
<totfact> 0.71273533E+03</totfact>
</mgrwt>
</event>
<event>
 8    1  0.1550723E-005  0.1535429E+03  0.7546771E-02  0.1204888E+00
          1   -1    0    0  501    0  0.00000000000E+00  0.00000000000E+00  0.56666349547E+03  0.56666349547E+03  0.00000000000E+00 0. -1.
         -1   -1    0    0    0  501 -0.00000000000E+00 -0.00000000000E+00 -0.35160576643E+02  0.35160576643E+02  0.00000000000E+00 0.  1.
         23    2    1    2    0    0 -0.44310123873E+02 -0.77394211797E+02  0.25821998517E+03  0.30042136774E+03  0.12498874492E+03 0.  0.
         23    2    1    2    0    0  0.44310123873E+02  0.77394211797E+02  0.27328293366E+03  0.30140270438E+03  0.90591264917E+02 0.  0.
          5    1    3    3  502    0  0.36166180158E+02 -0.39666040709E+02  0.48106689933E+02  0.72233863174E+02  0.47000000000E+01 0.  1.
         -5    1    3    3    0  502 -0.80476304031E+02 -0.37728171089E+02  0.21011329524E+03  0.22818750457E+03  0.47000000000E+01 0.  1.
        -11    1    4    4    0    0 -0.25438418057E+02  0.32555058930E+02  0.62753707778E+02  0.75133034113E+02  0.00000000000E+00 0.  1.
         11    1    4    4    0    0  0.69748541930E+02  0.44839152868E+02  0.21052922588E+03  0.22626967026E+03  0.00000000000E+00 0. -1.
<mgrwt>
<rscale>  0 0.14646292E+03</rscale>
<asrwt>0</asrwt>
<pdfrwt beam="1">  1        1 0.87178993E-01 0.15354295E+03</pdfrwt>
<pdfrwt beam="2">  1       -1 0.54093199E-02 0.15354295E+03</pdfrwt>
<totfact> 0.57733667E+03</totfact>
</mgrwt>
</event>
<event>
 8    1  0.1550723E-005  0.1278172E+03  0.7546771E-02  0.1238073E+00
          1   -1    0    0  501    0  0.00000000000E+00  0.00000000000E+00  0.19559996848E+03  0.19559996848E+03  0.00000000000E+00 0. -1.
         -1   -1    0    0    0  501 -0.00000000000E+00 -0.00000000000E+00 -0.14236195144E+03  0.14236195144E+03  0.00000000000E+00 0.  1.
         23    2    1    2    0    0 -0.29032724077E+02 -0.54349232893E+02 -0.90774221143E+02  0.15677119817E+03  0.11198442378E+03 0.  0.
         23    2    1    2    0    0  0.29032724077E+02  0.54349232893E+02  0.14401223818E+03  0.18119072175E+03  0.91070383325E+02 0.  0.
          5    1    3    3  502    0  0.19324684568E+02  0.26411282054E+02 -0.17623809278E+02  0.37465823184E+02  0.47000000000E+01 0. -1.
         -5    1    3    3    0  502 -0.48357408645E+02 -0.80760514947E+02 -0.73150411865E+02  0.11930537499E+03  0.47000000000E+01 0.  1.
        -11    1    4    4    0    0  0.51903111293E+01  0.45000095108E+02  0.14844265959E+03  0.15520042228E+03  0.00000000000E+00 0. -1.
         11    1    4    4    0    0  0.23842412948E+02  0.93491377848E+01 -0.44304214138E+01  0.25990299467E+02  0.00000000000E+00 0.  1.
<mgrwt>
<rscale>  0 0.12309711E+03</rscale>
<asrwt>0</asrwt>
<pdfrwt beam="1">  1        1 0.30092303E-01 0.12781725E+03</pdfrwt>
<pdfrwt beam="2">  1       -1 0.21901839E-01 0.12781725E+03</pdfrwt>
<totfact> 0.25360358E+03</totfact>
</mgrwt>
</event>
<event>
 8    1  0.1550723E-005  0.1489797E+03  0.7546771E-02  0.1210203E+00
         -1   -1    0    0    0  501 -0.00000000000E+00  0.00000000000E+00  0.39088910667E+02  0.39088910667E+02  0.00000000000E+00 0.  1.
          1   -1    0    0  501    0  0.00000000000E+00 -0.00000000000E+00 -0.56894979212E+03  0.56894979212E+03  0.00000000000E+00 0. -1.
         23    2    1    2    0    0  0.73717789494E+02 -0.33702821747E+02 -0.16344843040E+03  0.22115681618E+03  0.12499902103E+03 0.  0.
         23    2    1    2    0    0 -0.73717789494E+02  0.33702821747E+02 -0.36641245105E+03  0.38688188660E+03  0.94070809608E+02 0.  0.
          5    1    3    3  502    0  0.68332009702E+02 -0.22174770107E+02 -0.16859060494E+02  0.73941205697E+02  0.47000000000E+01 0. -1.
         -5    1    3    3    0  502  0.53857797918E+01 -0.11528051641E+02 -0.14658936991E+03  0.14721561048E+03  0.47000000000E+01 0. -1.
        -11    1    4    4    0    0 -0.52921035534E+01  0.52146622262E+02 -0.13327565834E+03  0.14321200256E+03  0.00000000000E+00 0.  1.
         11    1    4    4    0    0 -0.68425685940E+02 -0.18443800515E+02 -0.23313679271E+03  0.24366988404E+03  0.00000000000E+00 0. -1.
<mgrwt>
<rscale>  0 0.14234890E+03</rscale>
<asrwt>0</asrwt>
<pdfrwt beam="2">  1        1 0.87530729E-01 0.14897969E+03</pdfrwt>
<pdfrwt beam="1">  1       -1 0.60136792E-02 0.14897969E+03</pdfrwt>
<totfact> 0.48961305E+03</totfact>
</mgrwt>
</event>
<event>
 8    1  0.1550723E-005  0.1204408E+03  0.7546771E-02  0.1255435E+00
          1   -1    0    0  501    0  0.00000000000E+00  0.00000000000E+00  0.73481718017E+03  0.73481718017E+03  0.00000000000E+00 0. -1.
         -1   -1    0    0    0  501 -0.00000000000E+00 -0.00000000000E+00 -0.15464880646E+02  0.15464880646E+02  0.00000000000E+00 0.  1.
         23    2    1    2    0    0  0.19906363180E+02  0.36739830267E+01  0.40010060243E+03  0.41783546874E+03  0.11872752596E+03 0.  0.
         23    2    1    2    0    0 -0.19906363180E+02 -0.36739830267E+01  0.31925169709E+03  0.33244659208E+03  0.90494911694E+02 0.  0.
          5    1    3    3  502    0 -0.28877061711E+02 -0.32321340481E+02  0.27836004171E+03  0.28175336123E+03  0.47000000000E+01 0. -1.
         -5    1    3    3    0  502  0.48783424890E+02  0.35995323508E+02  0.12174056072E+03  0.13608210751E+03  0.47000000000E+01 0.  1.
        -11    1    4    4    0    0  0.87783300892E+01 -0.43080075940E+02  0.15528331133E+03  0.16138729442E+03  0.00000000000E+00 0.  1.
         11    1    4    4    0    0 -0.28684693269E+02  0.39406092913E+02  0.16396838576E+03  0.17105929766E+03  0.00000000000E+00 0. -1.
<mgrwt>
<rscale>  0 0.11282018E+03</rscale>
<asrwt>0</asrwt>
<pdfrwt beam="1">  1        1 0.11304877E+00 0.12044080E+03</pdfrwt>
<pdfrwt beam="2">  1       -1 0.23792130E-02 0.12044080E+03</pdfrwt>
<totfact> 0.13179094E+04</totfact>
</mgrwt>
</event>
<event>
 7    1  0.1550723E-005  0.1495026E+03  0.7546771E-02  0.1212535E+00
         -2   -1    0    0    0  501 -0.00000000000E+00  0.00000000000E+00  0.18726430801E+03  0.18726430801E+03  0.00000000000E+00 0.  1.
          2   -1    0    0  501    0  0.00000000000E+00 -0.00000000000E+00 -0.96240896274E+02  0.96240896274E+02  0.00000000000E+00 0. -1.
         23    2    1    2    0    0  0.63539292680E+02  0.33874676714E+02  0.57474155953E+02  0.13028454330E+03  0.92119749158E+02 0.  0.
          5    1    1    2  502    0 -0.49387234678E+01  0.20196602468E+02 -0.39561375895E+02  0.44938693833E+02  0.47000000000E+01 0. -1.
         -5    1    1    2    0  502 -0.58600569212E+02 -0.54071279181E+02  0.73110631675E+02  0.10828196714E+03  0.47000000000E+01 0.  1.
        -11    1    3    3    0    0  0.73155817088E+02  0.13102591671E+01  0.12972731339E+02  0.74308694722E+02  0.00000000000E+00 0. -1.
         11    1    3    3    0    0 -0.96165244088E+01  0.32564417546E+02  0.44501424614E+02  0.55975848582E+02  0.00000000000E+00 0.  1.
<mgrwt>
<rscale>  0 0.14059202E+03</rscale>
<asrwt>0</asrwt>
<pdfrwt beam="2">  1        2 0.14806292E-01 0.14950257E+03</pdfrwt>
<pdfrwt beam="1">  1       -2 0.28809893E-01 0.14950257E+03</pdfrwt>
<totfact> 0.41915712E+03</totfact>
</mgrwt>
</event>
<event>
 8    1  0.1550723E-005  0.1548748E+03  0.7546771E-02  0.1202720E+00
         -2   -1    0    0    0  501 -0.00000000000E+00  0.00000000000E+00  0.10929214656E+03  0.10929214656E+03  0.00000000000E+00 0.  1.
          2   -1    0    0  501    0  0.00000000000E+00 -0.00000000000E+00 -0.23412550959E+03  0.23412550959E+03  0.00000000000E+00 0. -1.
         23    2    1    2    0    0 -0.89288144976E+02  0.19731141543E+02  0.11339850119E+02  0.15528939437E+03  0.12499805208E+03 0.  0.
         23    2    1    2    0    0  0.89288144976E+02 -0.19731141543E+02 -0.13617321315E+03  0.18812826177E+03  0.92127130201E+02 0.  0.
          5    1    3    3  502    0 -0.88364788306E+01  0.50802294985E+02 -0.29669588896E+02  0.59676888651E+02  0.47000000000E+01 0.  1.
         -5    1    3    3    0  502 -0.80451666145E+02 -0.31071153442E+02  0.41009439015E+02  0.95612505720E+02  0.47000000000E+01 0.  1.
        -11    1    4    4    0    0  0.93717924139E+02  0.30219486567E+01 -0.67190000333E+02  0.11535457348E+03  0.00000000000E+00 0.  1.
         11    1    4    4    0    0 -0.44297791635E+01 -0.22753090199E+02 -0.68983212817E+02  0.72773688292E+02  0.00000000000E+00 0. -1.
<mgrwt>
<rscale>  0 0.14818616E+03</rscale>
<asrwt>0</asrwt>
<pdfrwt beam="2">  1        2 0.36019309E-01 0.15487480E+03</pdfrwt>
<pdfrwt beam="1">  1       -2 0.16814176E-01 0.15487480E+03</pdfrwt>
<totfact> 0.39237396E+03</totfact>
</mgrwt>
</event>
<event>
 8    1  0.1550723E-005  0.1535642E+03  0.7546771E-02  0.1204937E+00
         -1   -1    0    0    0  501 -0.00000000000E+00  0.00000000000E+00  0.91784397811E+02  0.91784397811E+02  0.00000000000E+00 0.  1.
          1   -1    0    0  501    0  0.00000000000E+00 -0.00000000000E+00 -0.24286950637E+03  0.24286950637E+03  0.00000000000E+00 0. -1.
         23    2    1    2    0    0 -0.28042472502E+02 -0.84680571938E+02 -0.24718014427E+02  0.15554083739E+03  0.12499916932E+03 0.  0.
         23    2    1    2    0    0  0.28042472502E+02  0.84680571938E+02 -0.12636709413E+03  0.17911306679E+03  0.90308740925E+02 0.  0.
          5    1    3    3  502    0 -0.15280262597E+02  0.26361614212E+02  0.18104517159E+02  0.35753107144E+02  0.47000000000E+01 0.  1.
         -5    1    3    3    0  502 -0.12762209904E+02 -0.11104218615E+03 -0.42822531586E+02  0.11978773025E+03  0.47000000000E+01 0.  1.
        -11    1    4    4    0    0 -0.10285724183E+02  0.74552033421E+02 -0.42697667429E+02  0.86526831752E+02  0.00000000000E+00 0.  1.
         11    1    4    4    0    0  0.38328196684E+02  0.10128538517E+02 -0.83669426702E+02  0.92586235036E+02  0.00000000000E+00 0. -1.
<mgrwt>
<rscale>  0 0.14642461E+03</rscale>
<asrwt>0</asrwt>
<pdfrwt beam="2">  1        1 0.37364539E-01 0.15356423E+03</pdfrwt>
<pdfrwt beam="1">  1       -1 0.14120677E-01 0.15356423E+03</pdfrwt>
<totfact> 0.39284447E+03</totfact>
</mgrwt>
</event>
<event>
 8    1  0.1550723E-005  0.1225342E+03  0.7546771E-02  0.1247927E+00
          1   -1    0    0  501    0  0.00000000000E+00  0.00000000000E+00  0.35709082661E+03  0.35709082661E+03  0.00000000000E+00 0. -1.
         -1   -1    0    0    0  501 -0.00000000000E+00 -0.00000000000E+00 -0.38525825993E+02  0.38525825993E+02  0.00000000000E+00 0.  1.
         23    2    1    2    0    0  0.32519600425E+01 -0.43971060336E+02  0.11615622439E+03  0.16883983959E+03  0.11432669670E+03 0.  0.
         23    2    1    2    0    0 -0.32519600425E+01  0.43971060336E+02  0.20240877623E+03  0.22677681302E+03  0.92273402639E+02 0.  0.
          5    1    3    3  502    0  0.19317154697E+02  0.34132413468E+02  0.57409653253E+02  0.69685955553E+02  0.47000000000E+01 0. -1.
         -5    1    3    3    0  502 -0.16065194655E+02 -0.78103473804E+02  0.58746571134E+02  0.99153884037E+02  0.47000000000E+01 0.  1.
        -11    1    4    4    0    0 -0.16554388639E+02 -0.52084791748E+01 -0.70725401527E+00  0.17368829747E+02  0.00000000000E+00 0.  1.
         11    1    4    4    0    0  0.13302428597E+02  0.49179539511E+02  0.20311603025E+03  0.20940798327E+03  0.00000000000E+00 0. -1.
<mgrwt>
<rscale>  0 0.11711867E+03</rscale>
<asrwt>0</asrwt>
<pdfrwt beam="1">  1        1 0.54937048E-01 0.12253417E+03</pdfrwt>
<pdfrwt beam="2">  1       -1 0.59270504E-02 0.12253417E+03</pdfrwt>
<totfact> 0.89972693E+03</totfact>
</mgrwt>
</event>
<event>
 7    1  0.1550723E-005  0.6259618E+03  0.7546771E-02  0.9852961E-01
         -2   -1    0    0    0  501 -0.00000000000E+00  0.00000000000E+00  0.11585789574E+04  0.11585789574E+04  0.00000000000E+00 0.  1.
          2   -1    0    0  501    0  0.00000000000E+00 -0.00000000000E+00 -0.84549311713E+02  0.84549311713E+02  0.00000000000E+00 0. -1.
         23    2    1    2    0    0 -0.67648670840E+02  0.78366468401E+02  0.62225719976E+02  0.15506112694E+03  0.97233054180E+02 0.  0.
          5    1    1    2  502    0 -0.94434595500E+02 -0.17489699163E+02  0.45525001631E+02  0.10638796068E+03  0.47000000000E+01 0. -1.
         -5    1    1    2    0  502  0.16208326634E+03 -0.60876769237E+02  0.96627892411E+03  0.98167918153E+03  0.47000000000E+01 0.  1.
        -11    1    3    3    0    0 -0.17398386799E+02 -0.22681147237E+02  0.18410713953E+02  0.34001363082E+02  0.00000000000E+00 0.  1.
         11    1    3    3    0    0 -0.50250284041E+02  0.10104761564E+03  0.43815006023E+02  0.12105976386E+03  0.00000000000E+00 0. -1.
<mgrwt>
<rscale>  0 0.62596183E+03</rscale>
<asrwt>0</asrwt>
<pdfrwt beam="2">  1        2 0.13007587E-01 0.62596183E+03</pdfrwt>
<pdfrwt beam="1">  1       -2 0.17824291E+00 0.62596183E+03</pdfrwt>
<totfact> 0.90873086E+01</totfact>
</mgrwt>
</event>
<event>
 7    1  0.1550723E-005  0.1229676E+03  0.7546771E-02  0.1288070E+00
          2   -1    0    0  501    0  0.00000000000E+00  0.00000000000E+00  0.99142760147E+02  0.99142760147E+02  0.00000000000E+00 0. -1.
         -2   -1    0    0    0  501 -0.00000000000E+00 -0.00000000000E+00 -0.12823304279E+03  0.12823304279E+03  0.00000000000E+00 0.  1.
         23    2    1    2    0    0 -0.12516597924E+02 -0.46790631214E+01 -0.88843030917E+02  0.15170403010E+03  0.12223939525E+03 0.  0.
          5    1    3    3  502    0  0.36784406866E+02  0.39018341314E+02 -0.23301033479E+02  0.58656216282E+02  0.47000000000E+01 0. -1.
         -5    1    3    3    0  502 -0.49301004789E+02 -0.43697404435E+02 -0.65541997438E+02  0.93047813815E+02  0.47000000000E+01 0.  1.
        -11    1    1    2    0    0 -0.11192499522E+02 -0.10449690901E+02  0.35011016368E+02  0.38213078293E+02  0.00000000000E+00 0.  1.
         11    1    1    2    0    0  0.23709097446E+02  0.15128754023E+02  0.24741731902E+02  0.37458694551E+02  0.00000000000E+00 0. -1.
<mgrwt>
<rscale>  0 0.96392828E+02</rscale>
<asrwt>0</asrwt>
<pdfrwt beam="1">  1        2 0.15252732E-01 0.12296759E+03</pdfrwt>
<pdfrwt beam="2">  1       -2 0.19728160E-01 0.12296759E+03</pdfrwt>
<totfact> 0.77041912E+03</totfact>
</mgrwt>
</event>
<event>
 8    1  0.1550723E-005  0.1262108E+03  0.7546771E-02  0.1248624E+00
          1   -1    0    0  501    0  0.00000000000E+00  0.00000000000E+00  0.54932470970E+03  0.54932470970E+03  0.00000000000E+00 0. -1.
         -1   -1    0    0    0  501 -0.00000000000E+00 -0.00000000000E+00 -0.22623589091E+02  0.22623589091E+02  0.00000000000E+00 0.  1.
         23    2    1    2    0    0  0.13756199197E+02  0.10308371248E+02  0.24637494297E+03  0.27682084333E+03  0.12503468018E+03 0.  0.
         23    2    1    2    0    0 -0.13756199197E+02 -0.10308371248E+02  0.28032617765E+03  0.29512745546E+03  0.90674988617E+02 0.  0.
          5    1    3    3  502    0  0.36678245181E+02  0.59977079911E+02  0.12238934541E+03  0.14122246866E+03  0.47000000000E+01 0. -1.
         -5    1    3    3    0  502 -0.22922045984E+02 -0.49668708663E+02  0.12398559755E+03  0.13559837467E+03  0.47000000000E+01 0. -1.
        -11    1    4    4    0    0 -0.34208236889E+02  0.30929325132E+02  0.13212037007E+03  0.13993791056E+03  0.00000000000E+00 0.  1.
         11    1    4    4    0    0  0.20452037693E+02 -0.41237696379E+02  0.14820580758E+03  0.15518954491E+03  0.00000000000E+00 0. -1.
<mgrwt>
<rscale>  0 0.11671081E+03</rscale>
<asrwt>0</asrwt>
<pdfrwt beam="1">  1        1 0.84511484E-01 0.12621080E+03</pdfrwt>
<pdfrwt beam="2">  1       -1 0.34805526E-02 0.12621080E+03</pdfrwt>
<totfact> 0.11383581E+04</totfact>
</mgrwt>
</event>
<event>
 8    1  0.1550723E-005  0.2069664E+03  0.7546771E-02  0.1147560E+00
         -1   -1    0    0    0  501 -0.00000000000E+00  0.00000000000E+00  0.42123540865E+02  0.42123540865E+02  0.00000000000E+00 0.  1.
          1   -1    0    0  501    0  0.00000000000E+00 -0.00000000000E+00 -0.95725878434E+03  0.95725878434E+03  0.00000000000E+00 0. -1.
         23    2    1    2    0    0  0.12052252120E+02 -0.16451379151E+03 -0.55182534484E+03  0.58936092040E+03  0.12500015564E+03 0.  0.
         23    2    1    2    0    0 -0.12052252120E+02  0.16451379151E+03 -0.36330989863E+03  0.41002140480E+03  0.94410939911E+02 0.  0.
          5    1    3    3  502    0 -0.24586215270E+02 -0.35707015423E+02 -0.36401314242E+02  0.56803332739E+02  0.47000000000E+01 0.  1.
         -5    1    3    3    0  502  0.36638467390E+02 -0.12880677608E+03 -0.51542403060E+03  0.53255758766E+03  0.47000000000E+01 0.  1.
        -11    1    4    4    0    0 -0.20974330917E+00  0.87827503412E+02 -0.29096937431E+03  0.30393566940E+03  0.00000000000E+00 0. -1.
         11    1    4    4    0    0 -0.11842508811E+02  0.76686288093E+02 -0.72340524325E+02  0.10608573540E+03  0.00000000000E+00 0.  1.
<mgrwt>
<rscale>  0 0.20260424E+03</rscale>
<asrwt>0</asrwt>
<pdfrwt beam="2">  1        1 0.14727058E+00 0.20696638E+03</pdfrwt>
<pdfrwt beam="1">  1       -1 0.64805448E-02 0.20696638E+03</pdfrwt>
<totfact> 0.20417296E+03</totfact>
</mgrwt>
</event>
<event>
 8    1  0.1550723E-005  0.1384632E+03  0.7546771E-02  0.1227117E+00
          1   -1    0    0  501    0  0.00000000000E+00  0.00000000000E+00  0.14974560363E+03  0.14974560363E+03  0.00000000000E+00 0. -1.
         -1   -1    0    0    0  501 -0.00000000000E+00 -0.00000000000E+00 -0.11372657172E+03  0.11372657172E+03  0.00000000000E+00 0.  1.
         23    2    1    2    0    0  0.57662729869E+02 -0.14841695878E+02 -0.22581697298E+02  0.14029248450E+03  0.12500712701E+03 0.  0.
         23    2    1    2    0    0 -0.57662729869E+02  0.14841695878E+02  0.58600729204E+02  0.12317969085E+03  0.90520298393E+02 0.  0.
          5    1    3    3  502    0  0.52853330510E+02 -0.53664350671E+02 -0.51545564613E+02  0.91391314195E+02  0.47000000000E+01 0. -1.
         -5    1    3    3    0  502  0.48093993586E+01  0.38822654793E+02  0.28963867315E+02  0.48901170306E+02  0.47000000000E+01 0. -1.
        -11    1    4    4    0    0 -0.27896297245E+02 -0.12330567286E+02  0.73996442936E+02  0.80035741121E+02  0.00000000000E+00 0. -1.
         11    1    4    4    0    0 -0.29766432624E+02  0.27172263164E+02 -0.15395713732E+02  0.43143949725E+02  0.00000000000E+00 0.  1.
<mgrwt>
<rscale>  0 0.13022833E+03</rscale>
<asrwt>0</asrwt>
<pdfrwt beam="1">  1        1 0.23037785E-01 0.13846317E+03</pdfrwt>
<pdfrwt beam="2">  1       -1 0.17496396E-01 0.13846317E+03</pdfrwt>
<totfact> 0.50974366E+03</totfact>
</mgrwt>
</event>
<event>
 8    1  0.1550723E-005  0.1713491E+03  0.7546771E-02  0.1182498E+00
         -2   -1    0    0    0  501 -0.00000000000E+00  0.00000000000E+00  0.21351516994E+02  0.21351516994E+02  0.00000000000E+00 0.  1.
          2   -1    0    0  501    0  0.00000000000E+00 -0.00000000000E+00 -0.12439685322E+04  0.12439685322E+04  0.00000000000E+00 0. -1.
         23    2    1    2    0    0 -0.18626933780E+02  0.11565431104E+03 -0.54083071834E+03  0.56732565096E+03  0.12505057382E+03 0.  0.
         23    2    1    2    0    0  0.18626933780E+02 -0.11565431104E+03 -0.68178629682E+03  0.69799439819E+03  0.92955597187E+02 0.  0.
          5    1    3    3  502    0 -0.32640454019E+02  0.12581500907E+03 -0.53135134819E+03  0.54703853701E+03  0.47000000000E+01 0.  1.
         -5    1    3    3    0  502  0.14013520239E+02 -0.10160698034E+02 -0.94793701448E+01  0.20287113949E+02  0.47000000000E+01 0.  1.
        -11    1    4    4    0    0 -0.22241576806E+02 -0.10482412374E+03 -0.47674253507E+03  0.48863711423E+03  0.00000000000E+00 0. -1.
         11    1    4    4    0    0  0.40868510586E+02 -0.10830187291E+02 -0.20504376175E+03  0.20935728396E+03  0.00000000000E+00 0.  1.
<mgrwt>
<rscale>  0 0.16561674E+03</rscale>
<asrwt>0</asrwt>
<pdfrwt beam="2">  1        2 0.19137982E+00 0.17134914E+03</pdfrwt>
<pdfrwt beam="1">  1       -2 0.32848479E-02 0.17134914E+03</pdfrwt>
<totfact> 0.68671656E+03</totfact>
</mgrwt>
</event>
<event>
 8    1  0.1550723E-005  0.1484791E+03  0.7546771E-02  0.1212629E+00
         -1   -1    0    0    0  501 -0.00000000000E+00  0.00000000000E+00  0.34623672120E+02  0.34623672120E+02  0.00000000000E+00 0.  1.
          1   -1    0    0  501    0  0.00000000000E+00 -0.00000000000E+00 -0.51729224087E+03  0.51729224087E+03  0.00000000000E+00 0. -1.
         23    2    1    2    0    0 -0.79811136582E+02 -0.70319511256E+01 -0.26179677356E+03  0.30097106235E+03  0.12500705527E+03 0.  0.
         23    2    1    2    0    0  0.79811136582E+02  0.70319511256E+01 -0.22087179519E+03  0.25094485064E+03  0.88145914784E+02 0.  0.
          5    1    3    3  502    0  0.19416200741E+02 -0.38983706938E+02 -0.86711898001E+02  0.97148142096E+02  0.47000000000E+01 0. -1.
         -5    1    3    3    0  502 -0.99227337323E+02  0.31951755813E+02 -0.17508487556E+03  0.20382292026E+03  0.47000000000E+01 0. -1.
        -11    1    4    4    0    0 -0.15794020506E+02  0.96976056395E+01 -0.14652606272E+02  0.23626119222E+02  0.00000000000E+00 0.  1.
         11    1    4    4    0    0  0.95605157088E+02 -0.26656545140E+01 -0.20621918891E+03  0.22731873142E+03  0.00000000000E+00 0. -1.
<mgrwt>
<rscale>  0 0.14052149E+03</rscale>
<asrwt>0</asrwt>
<pdfrwt beam="2">  1        1 0.79583419E-01 0.14847905E+03</pdfrwt>
<pdfrwt beam="1">  1       -1 0.53267190E-02 0.14847905E+03</pdfrwt>
<totfact> 0.66572277E+03</totfact>
</mgrwt>
</event>
<event>
 8    1  0.1550723E-005  0.1560807E+03  0.7546771E-02  0.1201771E+00
          1   -1    0    0  501    0  0.00000000000E+00  0.00000000000E+00  0.97602385786E+03  0.97602385786E+03  0.00000000000E+00 0. -1.
         -1   -1    0    0    0  501 -0.00000000000E+00 -0.00000000000E+00 -0.21556246184E+02  0.21556246184E+02  0.00000000000E+00 0.  1.
         23    2    1    2    0    0 -0.23398765750E+02  0.90489940951E+02  0.60816058715E+03  0.62786980813E+03  0.12500105820E+03 0.  0.
         23    2    1    2    0    0  0.23398765750E+02 -0.90489940951E+02  0.34630702452E+03  0.36971029591E+03  0.89561241702E+02 0.  0.
          5    1    3    3  502    0  0.31043409124E+02  0.50472948208E+02  0.47267483350E+03  0.47639773297E+03  0.47000000000E+01 0.  1.
         -5    1    3    3    0  502 -0.54442174874E+02  0.40016992743E+02  0.13548575365E+03  0.15147207517E+03  0.47000000000E+01 0.  1.
        -11    1    4    4    0    0  0.30982760298E+02 -0.43520026702E+02  0.63744935217E+02  0.83170553236E+02  0.00000000000E+00 0.  1.
         11    1    4    4    0    0 -0.75839945485E+01 -0.46969914250E+02  0.28256208931E+03  0.28653974267E+03  0.00000000000E+00 0. -1.
<mgrwt>
<rscale>  0 0.14894879E+03</rscale>
<asrwt>0</asrwt>
<pdfrwt beam="1">  1        1 0.15015748E+00 0.15608074E+03</pdfrwt>
<pdfrwt beam="2">  1       -1 0.33163463E-02 0.15608074E+03</pdfrwt>
<totfact> 0.53131219E+03</totfact>
</mgrwt>
</event>
<event>
 8    1  0.1550723E-005  0.1370878E+03  0.7546771E-02  0.1232576E+00
         -2   -1    0    0    0  501 -0.00000000000E+00  0.00000000000E+00  0.54878628095E+03  0.54878628095E+03  0.00000000000E+00 0.  1.
          2   -1    0    0  501    0  0.00000000000E+00 -0.00000000000E+00 -0.36788996210E+02  0.36788996210E+02  0.00000000000E+00 0. -1.
         23    2    1    2    0    0  0.30811792988E+02  0.47112009712E+02  0.44446322983E+03  0.46512430335E+03  0.12499658733E+03 0.  0.
         23    2    1    2    0    0 -0.30811792988E+02 -0.47112009712E+02  0.67534054905E+02  0.12045097381E+03  0.82332742416E+02 0.  0.
          5    1    3    3  502    0  0.28366635525E+02  0.81108364808E+02  0.39863558301E+03  0.40781815910E+03  0.47000000000E+01 0. -1.
         -5    1    3    3    0  502  0.24451574632E+01 -0.33996355096E+02  0.45827646825E+02  0.57306144246E+02  0.47000000000E+01 0. -1.
        -11    1    4    4    0    0  0.19027847911E+01 -0.28537205044E+02  0.76590382598E+02  0.81756219141E+02  0.00000000000E+00 0.  1.
         11    1    4    4    0    0 -0.32714577779E+02 -0.18574804668E+02 -0.90563276926E+01  0.38694754670E+02  0.00000000000E+00 0. -1.
<mgrwt>
<rscale>  0 0.12660876E+03</rscale>
<asrwt>0</asrwt>
<pdfrwt beam="2">  1        2 0.56598460E-02 0.13708776E+03</pdfrwt>
<pdfrwt beam="1">  1       -2 0.84428653E-01 0.13708776E+03</pdfrwt>
<totfact> 0.16265913E+03</totfact>
</mgrwt>
</event>
<event>
 8    1  0.1550723E-005  0.1250785E+03  0.7546771E-02  0.1255864E+00
         -1   -1    0    0    0  501 -0.00000000000E+00  0.00000000000E+00  0.94711195538E+02  0.94711195538E+02  0.00000000000E+00 0. -1.
          1   -1    0    0  501    0  0.00000000000E+00 -0.00000000000E+00 -0.11406087592E+03  0.11406087592E+03  0.00000000000E+00 0.  1.
         23    2    1    2    0    0  0.40521597569E+01  0.11800922436E+01 -0.32836165677E+01  0.12512160658E+03  0.12500728650E+03 0.  0.
         23    2    1    2    0    0 -0.40521597569E+01 -0.11800922436E+01 -0.16066063816E+02  0.83650464884E+02  0.81984567160E+02 0.  0.
          5    1    3    3  502    0 -0.36815630470E+02 -0.46806404507E+02 -0.13108485551E+02  0.61156786567E+02  0.47000000000E+01 0.  1.
         -5    1    3    3    0  502  0.40867790227E+02  0.47986496750E+02  0.98248689832E+01  0.63964820010E+02  0.47000000000E+01 0.  1.
        -11    1    4    4    0    0 -0.27664719261E+01 -0.33134166934E+02 -0.33523403840E+02  0.47215940003E+02  0.00000000000E+00 0.  1.
         11    1    4    4    0    0 -0.12856878308E+01  0.31954074691E+02  0.17457340025E+02  0.36434524880E+02  0.00000000000E+00 0. -1.
<mgrwt>
<rscale>  0 0.11258065E+03</rscale>
<asrwt>0</asrwt>
<pdfrwt beam="2">  1        1 0.17547827E-01 0.12507851E+03</pdfrwt>
<pdfrwt beam="1">  1       -1 0.14570953E-01 0.12507851E+03</pdfrwt>
<totfact> 0.95344420E+03</totfact>
</mgrwt>
</event>
<event>
 8    1  0.1550723E-005  0.1320774E+03  0.7546771E-02  0.1238492E+00
          2   -1    0    0  501    0  0.00000000000E+00  0.00000000000E+00  0.35411958910E+03  0.35411958910E+03  0.00000000000E+00 0. -1.
         -2   -1    0    0    0  501 -0.00000000000E+00 -0.00000000000E+00 -0.39531182665E+02  0.39531182665E+02  0.00000000000E+00 0.  1.
         23    2    1    2    0    0 -0.31141827289E+01 -0.42577901239E+02  0.13619516699E+03  0.18971969556E+03  0.12498745363E+03 0.  0.
         23    2    1    2    0    0  0.31141827289E+01  0.42577901239E+02  0.17839323945E+03  0.20393107620E+03  0.89113187310E+02 0.  0.
          5    1    3    3  502    0  0.73024584712E+00  0.59959032281E+01 -0.22436949347E+02  0.23706345364E+02  0.47000000000E+01 0.  1.
         -5    1    3    3    0  502 -0.38444285761E+01 -0.48573804467E+02  0.15863211633E+03  0.16601335020E+03  0.47000000000E+01 0.  1.
        -11    1    4    4    0    0  0.90324435737E+01 -0.27072629284E+02  0.43988555136E+02  0.52435725190E+02  0.00000000000E+00 0.  1.
         11    1    4    4    0    0 -0.59182608447E+01  0.69650530523E+02  0.13440468431E+03  0.15149535101E+03  0.00000000000E+00 0. -1.
<mgrwt>
<rscale>  0 0.12283535E+03</rscale>
<asrwt>0</asrwt>
<pdfrwt beam="1">  1        2 0.54479935E-01 0.13207740E+03</pdfrwt>
<pdfrwt beam="2">  1       -2 0.60817207E-02 0.13207740E+03</pdfrwt>
<totfact> 0.12459786E+04</totfact>
</mgrwt>
</event>
<event>
 8    1  0.1550723E-005  0.1282740E+03  0.7546771E-02  0.1243872E+00
          2   -1    0    0  501    0  0.00000000000E+00  0.00000000000E+00  0.43602072039E+03  0.43602072039E+03  0.00000000000E+00 0. -1.
         -2   -1    0    0    0  501 -0.00000000000E+00 -0.00000000000E+00 -0.30866207348E+02  0.30866207348E+02  0.00000000000E+00 0.  1.
         23    2    1    2    0    0  0.26449015349E+02  0.11384891845E+02  0.17280852730E+03  0.21521385867E+03  0.12500020672E+03 0.  0.
         23    2    1    2    0    0 -0.26449015349E+02 -0.11384891845E+02  0.23234598574E+03  0.25167306907E+03  0.92333690650E+02 0.  0.
          5    1    3    3  502    0  0.56277355884E+02 -0.12212966353E+02  0.16667140364E+03  0.17640222256E+03  0.47000000000E+01 0.  1.
         -5    1    3    3    0  502 -0.29828340535E+02  0.23597858198E+02  0.61371236579E+01  0.38811636108E+02  0.47000000000E+01 0.  1.
        -11    1    4    4    0    0  0.30387566277E+02 -0.17318236695E+02  0.53493376105E+02  0.63912962641E+02  0.00000000000E+00 0. -1.
         11    1    4    4    0    0 -0.56836581626E+02  0.59333448501E+01  0.17885260964E+03  0.18776010643E+03  0.00000000000E+00 0.  1.
<mgrwt>
<rscale>  0 0.11953155E+03</rscale>
<asrwt>0</asrwt>
<pdfrwt beam="1">  1        2 0.67080106E-01 0.12827400E+03</pdfrwt>
<pdfrwt beam="2">  1       -2 0.47486476E-02 0.12827400E+03</pdfrwt>
<totfact> 0.14449592E+04</totfact>
</mgrwt>
</event>
<event>
 7    1  0.1550723E-005  0.4046441E+03  0.7546771E-02  0.1094494E+00
          1   -1    0    0  501    0  0.00000000000E+00  0.00000000000E+00  0.23573123223E+03  0.23573123223E+03  0.00000000000E+00 0. -1.
         -1   -1    0    0    0  501 -0.00000000000E+00 -0.00000000000E+00 -0.26558176867E+03  0.26558176867E+03  0.00000000000E+00 0.  1.
         23    2    1    2    0    0  0.18675589584E+02 -0.14489901012E+02 -0.26451879036E+01  0.95755368941E+02  0.92754292538E+02 0.  0.
          5    1    1    2  502    0  0.16566820105E+03  0.76854712394E+02 -0.86405817755E+02  0.20209070982E+03  0.47000000000E+01 0. -1.
         -5    1    1    2    0  502 -0.18434379063E+03 -0.62364811383E+02  0.59200469219E+02  0.20346692213E+03  0.47000000000E+01 0.  1.
        -11    1    3    3    0    0 -0.35242558386E+02 -0.16952470555E+02 -0.12147343483E+02  0.40950972311E+02  0.00000000000E+00 0. -1.
         11    1    3    3    0    0  0.53918147970E+02  0.24625695437E+01  0.95021555795E+01  0.54804396630E+02  0.00000000000E+00 0.  1.
<mgrwt>
<rscale>  0 0.28219822E+03</rscale>
<asrwt>0</asrwt>
<pdfrwt beam="1">  1        1 0.36266343E-01 0.40464412E+03</pdfrwt>
<pdfrwt beam="2">  1       -1 0.40858734E-01 0.40464412E+03</pdfrwt>
<totfact> 0.70885654E+02</totfact>
</mgrwt>
</event>
<event>
 8    1  0.1550723E-005  0.1423284E+03  0.7546771E-02  0.1220425E+00
         -1   -1    0    0    0  501 -0.00000000000E+00  0.00000000000E+00  0.74814305043E+02  0.74814305043E+02  0.00000000000E+00 0.  1.
          1   -1    0    0  501    0  0.00000000000E+00 -0.00000000000E+00 -0.22308332698E+03  0.22308332698E+03  0.00000000000E+00 0. -1.
         23    2    1    2    0    0 -0.56093471861E+02  0.38545689045E+02 -0.66937790906E+02  0.15728328948E+03  0.12500047027E+03 0.  0.
         23    2    1    2    0    0  0.56093471861E+02 -0.38545689045E+02 -0.81331231031E+02  0.14061434254E+03  0.92332965177E+02 0.  0.
          5    1    3    3  502    0  0.39617633190E+02  0.18132087529E+02 -0.27047151848E+02  0.51497260906E+02  0.47000000000E+01 0.  1.
         -5    1    3    3    0  502 -0.95711105051E+02  0.20413601516E+02 -0.39890639058E+02  0.10578602857E+03  0.47000000000E+01 0.  1.
        -11    1    4    4    0    0 -0.24931425974E+02 -0.16048863826E+00 -0.15118363719E+02  0.29157617860E+02  0.00000000000E+00 0.  1.
         11    1    4    4    0    0  0.81024897835E+02 -0.38385200406E+02 -0.66212867312E+02  0.11145672468E+03  0.00000000000E+00 0. -1.
<mgrwt>
<rscale>  0 0.13485461E+03</rscale>
<asrwt>0</asrwt>
<pdfrwt beam="2">  1        1 0.34320511E-01 0.14232837E+03</pdfrwt>
<pdfrwt beam="1">  1       -1 0.11509893E-01 0.14232837E+03</pdfrwt>
<totfact> 0.59702385E+03</totfact>
</mgrwt>
</event>
<event>
 8    1  0.1550723E-005  0.1890914E+03  0.7546771E-02  0.1163643E+00
         -2   -1    0    0    0  501 -0.00000000000E+00  0.00000000000E+00  0.45060333100E+02  0.45060333100E+02  0.00000000000E+00 0.  1.
          2   -1    0    0  501    0  0.00000000000E+00 -0.00000000000E+00 -0.90487069826E+03  0.90487069826E+03  0.00000000000E+00 0. -1.
         23    2    1    2    0    0 -0.94423201854E+02 -0.10590171372E+03 -0.23210232338E+03  0.29937775654E+03  0.12499855430E+03 0.  0.
         23    2    1    2    0    0  0.94423201854E+02  0.10590171372E+03 -0.62770804179E+03  0.65055327483E+03  0.95243181631E+02 0.  0.
          5    1    3    3  502    0  0.12193595776E+02 -0.11372159218E+02 -0.11092863576E+03  0.11227315803E+03  0.47000000000E+01 0. -1.
         -5    1    3    3    0  502 -0.10661679763E+03 -0.94529554497E+02 -0.12117368762E+03  0.18710459850E+03  0.47000000000E+01 0. -1.
        -11    1    4    4    0    0  0.87480667102E+02  0.34550075380E+02 -0.43220795836E+03  0.44232374353E+03  0.00000000000E+00 0.  1.
         11    1    4    4    0    0  0.69425347525E+01  0.71351638335E+02 -0.19550008343E+03  0.20822953130E+03  0.00000000000E+00 0. -1.
<mgrwt>
<rscale>  0 0.18436595E+03</rscale>
<asrwt>0</asrwt>
<pdfrwt beam="2">  1        2 0.13921088E+00 0.18909139E+03</pdfrwt>
<pdfrwt beam="1">  1       -2 0.69323587E-02 0.18909139E+03</pdfrwt>
<totfact> 0.35309633E+03</totfact>
</mgrwt>
</event>
<event>
 8    1  0.1550723E-005  0.1682774E+03  0.7546771E-02  0.1186991E+00
          1   -1    0    0  501    0  0.00000000000E+00  0.00000000000E+00  0.18236727335E+03  0.18236727335E+03  0.00000000000E+00 0. -1.
         -1   -1    0    0    0  501 -0.00000000000E+00 -0.00000000000E+00 -0.16303531585E+03  0.16303531585E+03  0.00000000000E+00 0.  1.
         23    2    1    2    0    0  0.85467195742E+02 -0.73446771829E+02 -0.64001841592E+02  0.18003753124E+03  0.12497282540E+03 0.  0.
         23    2    1    2    0    0 -0.85467195742E+02  0.73446771829E+02  0.83333799090E+02  0.16536505795E+03  0.87761098905E+02 0.  0.
          5    1    3    3  502    0 -0.25728037124E+02 -0.26786324952E+02 -0.43899236246E+02  0.57694644826E+02  0.47000000000E+01 0.  1.
         -5    1    3    3    0  502  0.11119523287E+03 -0.46660446877E+02 -0.20102605346E+02  0.12234288642E+03  0.47000000000E+01 0.  1.
        -11    1    4    4    0    0 -0.16704414778E+02  0.24634918616E+02 -0.17018972672E+02  0.34286471371E+02  0.00000000000E+00 0.  1.
         11    1    4    4    0    0 -0.68762780964E+02  0.48811853213E+02  0.10035277176E+03  0.13107858658E+03  0.00000000000E+00 0. -1.
<mgrwt>
<rscale>  0 0.16151987E+03</rscale>
<asrwt>0</asrwt>
<pdfrwt beam="1">  1        1 0.28056504E-01 0.16827738E+03</pdfrwt>
<pdfrwt beam="2">  1       -1 0.25082356E-01 0.16827738E+03</pdfrwt>
<totfact> 0.22421641E+03</totfact>
</mgrwt>
</event>
<event>
 8    1  0.1550723E-005  0.1686931E+03  0.7546771E-02  0.1184196E+00
         -1   -1    0    0    0  501 -0.00000000000E+00  0.00000000000E+00  0.47025879080E+02  0.47025879080E+02  0.00000000000E+00 0.  1.
          1   -1    0    0  501    0  0.00000000000E+00 -0.00000000000E+00 -0.58600248880E+03  0.58600248880E+03  0.00000000000E+00 0. -1.
         23    2    1    2    0    0 -0.41257083772E+02  0.10549574231E+03 -0.19772611386E+03  0.25990954113E+03  0.12500341940E+03 0.  0.
         23    2    1    2    0    0  0.41257083772E+02 -0.10549574231E+03 -0.34125049586E+03  0.37311882675E+03  0.99670754720E+02 0.  0.
          5    1    3    3  502    0  0.34203007734E+02  0.73979468012E+01 -0.86559889608E+02  0.93484115463E+02  0.47000000000E+01 0. -1.
         -5    1    3    3    0  502 -0.75460091506E+02  0.98097795506E+02 -0.11116622425E+03  0.16642542566E+03  0.47000000000E+01 0. -1.
        -11    1    4    4    0    0  0.62563041517E+01 -0.74934076737E+02 -0.88494350815E+02  0.11612711709E+03  0.00000000000E+00 0.  1.
         11    1    4    4    0    0  0.35000779620E+02 -0.30561665571E+02 -0.25275614504E+03  0.25699170966E+03  0.00000000000E+00 0. -1.
<mgrwt>
<rscale>  0 0.16405263E+03</rscale>
<asrwt>0</asrwt>
<pdfrwt beam="2">  1        1 0.90154229E-01 0.16869307E+03</pdfrwt>
<pdfrwt beam="1">  1       -1 0.72347507E-02 0.16869307E+03</pdfrwt>
<totfact> 0.35827601E+03</totfact>
</mgrwt>
</event>
<event>
 8    1  0.1550723E-005  0.1298279E+03  0.7546771E-02  0.1239914E+00
          2   -1    0    0  501    0  0.00000000000E+00  0.00000000000E+00  0.71818098529E+02  0.71818098529E+02  0.00000000000E+00 0. -1.
         -2   -1    0    0    0  501 -0.00000000000E+00 -0.00000000000E+00 -0.21672834960E+03  0.21672834960E+03  0.00000000000E+00 0.  1.
         23    2    1    2    0    0  0.32095523722E+02 -0.14113453034E+02 -0.13450449476E+03  0.18694047249E+03  0.12500387572E+03 0.  0.
         23    2    1    2    0    0 -0.32095523722E+02  0.14113453034E+02 -0.10405756306E+02  0.10160597563E+03  0.94795476267E+02 0.  0.
          5    1    3    3  502    0 -0.38877608407E+02 -0.66513926777E+01 -0.64137227930E+01  0.40235995080E+02  0.47000000000E+01 0.  1.
         -5    1    3    3    0  502  0.70973132129E+02 -0.74620603562E+01 -0.12809077197E+03  0.14670447741E+03  0.47000000000E+01 0.  1.
        -11    1    4    4    0    0 -0.42763499458E+02  0.41751076940E+02 -0.29205404742E+02  0.66519357917E+02  0.00000000000E+00 0.  1.
         11    1    4    4    0    0  0.10667975736E+02 -0.27637623906E+02  0.18799648436E+02  0.35086617717E+02  0.00000000000E+00 0. -1.
<mgrwt>
<rscale>  0 0.12195045E+03</rscale>
<asrwt>0</asrwt>
<pdfrwt beam="1">  1        2 0.11048938E-01 0.12982789E+03</pdfrwt>
<pdfrwt beam="2">  1       -2 0.33342822E-01 0.12982789E+03</pdfrwt>
<totfact> 0.45229769E+03</totfact>
</mgrwt>
</event>
<event>
 8    1  0.1550723E-005  0.1582658E+03  0.7546771E-02  0.1197648E+00
          1   -1    0    0  501    0  0.00000000000E+00  0.00000000000E+00  0.10034957056E+04  0.10034957056E+04  0.00000000000E+00 0. -1.
         -1   -1    0    0    0  501 -0.00000000000E+00 -0.00000000000E+00 -0.21554379379E+02  0.21554379379E+02  0.00000000000E+00 0.  1.
         23    2    1    2    0    0  0.62752993738E+02 -0.73882150517E+02  0.51673739880E+03  0.54043093235E+03  0.12510612673E+03 0.  0.
         23    2    1    2    0    0 -0.62752993738E+02  0.73882150517E+02  0.46520392740E+03  0.48461915260E+03  0.95102674033E+02 0.  0.
          5    1    3    3  502    0  0.28900800455E+01 -0.26493887525E+02  0.11447702397E+02  0.29383984226E+02  0.47000000000E+01 0. -1.
         -5    1    3    3    0  502  0.59862913692E+02 -0.47388262992E+02  0.50528969640E+03  0.51104694813E+03  0.47000000000E+01 0. -1.
        -11    1    4    4    0    0 -0.46216292219E+02  0.76378788765E+02  0.45763652955E+03  0.46626264940E+03  0.00000000000E+00 0. -1.
         11    1    4    4    0    0 -0.16536701519E+02 -0.24966382487E+01  0.75673978481E+01  0.18356503204E+02  0.00000000000E+00 0.  1.
<mgrwt>
<rscale>  0 0.15232226E+03</rscale>
<asrwt>0</asrwt>
<pdfrwt beam="1">  1        1 0.15438392E+00 0.15826577E+03</pdfrwt>
<pdfrwt beam="2">  1       -1 0.33160591E-02 0.15826577E+03</pdfrwt>
<totfact> 0.50737178E+03</totfact>
</mgrwt>
</event>
<event>
 8    1  0.1550723E-005  0.1861491E+03  0.7546771E-02  0.1167312E+00
         -1   -1    0    0    0  501 -0.00000000000E+00  0.00000000000E+00  0.48081915464E+02  0.48081915464E+02  0.00000000000E+00 0.  1.
          1   -1    0    0  501    0  0.00000000000E+00 -0.00000000000E+00 -0.68048048572E+03  0.68048048572E+03  0.00000000000E+00 0. -1.
         23    2    1    2    0    0  0.98759512510E+02 -0.96701041996E+02 -0.24537421193E+03  0.30799348816E+03  0.12468741731E+03 0.  0.
         23    2    1    2    0    0 -0.98759512510E+02  0.96701041996E+02 -0.38702435833E+03  0.42056891302E+03  0.89363436756E+02 0.  0.
          5    1    3    3  502    0  0.78662483850E+02 -0.12694722250E+03 -0.19268228051E+03  0.24382767458E+03  0.47000000000E+01 0. -1.
         -5    1    3    3    0  502  0.20097028661E+02  0.30246180508E+02 -0.52691931417E+02  0.64165813583E+02  0.47000000000E+01 0. -1.
        -11    1    4    4    0    0 -0.26297256756E+02  0.74194462173E+02 -0.26880917433E+03  0.28009772604E+03  0.00000000000E+00 0. -1.
         11    1    4    4    0    0 -0.72462255755E+02  0.22506579823E+02 -0.11821518400E+03  0.14047118698E+03  0.00000000000E+00 0.  1.
<mgrwt>
<rscale>  0 0.18050845E+03</rscale>
<asrwt>0</asrwt>
<pdfrwt beam="2">  1        1 0.10468931E+00 0.18614909E+03</pdfrwt>
<pdfrwt beam="1">  1       -1 0.73972175E-02 0.18614909E+03</pdfrwt>
<totfact> 0.28208233E+03</totfact>
</mgrwt>
</event>
<event>
 8    1  0.1550723E-005  0.1973958E+03  0.7546771E-02  0.1154901E+00
          2   -1    0    0  501    0  0.00000000000E+00  0.00000000000E+00  0.67240714160E+03  0.67240714160E+03  0.00000000000E+00 0.  1.
         -2   -1    0    0    0  501 -0.00000000000E+00 -0.00000000000E+00 -0.55453204731E+02  0.55453204731E+02  0.00000000000E+00 0. -1.
         23    2    1    2    0    0  0.14252803171E+03 -0.55081979665E+02  0.26273156868E+03  0.32862287488E+03  0.12496740537E+03 0.  0.
         23    2    1    2    0    0 -0.14252803171E+03  0.55081979665E+02  0.35422236818E+03  0.39923747145E+03  0.10280470894E+03 0.  0.
          5    1    3    3  502    0  0.11353180503E+03  0.19846453525E+02  0.13405576087E+03  0.17685132031E+03  0.47000000000E+01 0. -1.
         -5    1    3    3    0  502  0.28996226679E+02 -0.74928433190E+02  0.12867580781E+03  0.15177155457E+03  0.47000000000E+01 0. -1.
        -11    1    4    4    0    0 -0.71995737918E+02  0.16949417471E+01  0.65781120719E+02  0.97536736407E+02  0.00000000000E+00 0. -1.
         11    1    4    4    0    0 -0.70532293791E+02  0.53387037918E+02  0.28844124746E+03  0.30170073504E+03  0.00000000000E+00 0.  1.
<mgrwt>
<rscale>  0 0.19400181E+03</rscale>
<asrwt>0</asrwt>
<pdfrwt beam="1">  1        2 0.10344725E+00 0.19739584E+03</pdfrwt>
<pdfrwt beam="2">  1       -2 0.85312627E-02 0.19739584E+03</pdfrwt>
<totfact> 0.37155815E+03</totfact>
</mgrwt>
</event>
<event>
 8    1  0.1550723E-005  0.1983895E+03  0.7546771E-02  0.1155421E+00
          2   -1    0    0  501    0  0.00000000000E+00  0.00000000000E+00  0.69264878549E+02  0.69264878549E+02  0.00000000000E+00 0. -1.
         -2   -1    0    0    0  501 -0.00000000000E+00 -0.00000000000E+00 -0.57456009528E+03  0.57456009528E+03  0.00000000000E+00 0.  1.
         23    2    1    2    0    0 -0.14147971508E+03 -0.60993090988E+02 -0.36799508912E+03  0.41806551765E+03  0.12498689732E+03 0.  0.
         23    2    1    2    0    0  0.14147971508E+03  0.60993090988E+02 -0.13730012761E+03  0.22575945618E+03  0.91538735434E+02 0.  0.
          5    1    3    3  502    0 -0.81309964357E+02 -0.98021254686E+02 -0.24402569266E+03  0.27530002788E+03  0.47000000000E+01 0. -1.
         -5    1    3    3    0  502 -0.60169750727E+02  0.37028163698E+02 -0.12396939647E+03  0.14276548977E+03  0.47000000000E+01 0. -1.
        -11    1    4    4    0    0  0.11305609860E+03  0.66639172894E+02 -0.14520507182E+03  0.19572167401E+03  0.00000000000E+00 0.  1.
         11    1    4    4    0    0  0.28423616481E+02 -0.56460819059E+01  0.79049442098E+01  0.30037782170E+02  0.00000000000E+00 0. -1.
<mgrwt>
<rscale>  0 0.19341012E+03</rscale>
<asrwt>0</asrwt>
<pdfrwt beam="1">  1        2 0.10656135E-01 0.19838949E+03</pdfrwt>
<pdfrwt beam="2">  1       -2 0.88393859E-01 0.19838949E+03</pdfrwt>
<totfact> 0.66935052E+02</totfact>
</mgrwt>
</event>
<event>
 7    1  0.1550723E-005  0.1902013E+03  0.7546771E-02  0.1180623E+00
         -1   -1    0    0    0  501 -0.00000000000E+00  0.00000000000E+00  0.25817268828E+03  0.25817268828E+03  0.00000000000E+00 0.  1.
          1   -1    0    0  501    0  0.00000000000E+00 -0.00000000000E+00 -0.89718865909E+02  0.89718865909E+02  0.00000000000E+00 0. -1.
         23    2    1    2    0    0  0.51150168926E+02  0.47150460118E+02  0.68539674709E+02  0.13304426735E+03  0.90352556103E+02 0.  0.
          5    1    1    2  502    0 -0.50089555224E+02  0.49879978271E+02 -0.60323748261E+01  0.71101725161E+02  0.47000000000E+01 0. -1.
         -5    1    1    2    0  502 -0.10606137019E+01 -0.97030438389E+02  0.10594652249E+03  0.14374556168E+03  0.47000000000E+01 0.  1.
        -11    1    3    3    0    0  0.72657162296E+02  0.21127763551E+02  0.63758612248E+02  0.98947492446E+02  0.00000000000E+00 0.  1.
         11    1    3    3    0    0 -0.21506993370E+02  0.26022696567E+02  0.47810624605E+01  0.34096774902E+02  0.00000000000E+00 0. -1.
<mgrwt>
<rscale>  0 0.16736547E+03</rscale>
<asrwt>0</asrwt>
<pdfrwt beam="2">  1        1 0.13802903E-01 0.19020126E+03</pdfrwt>
<pdfrwt beam="1">  1       -1 0.39718875E-01 0.19020126E+03</pdfrwt>
<totfact> 0.25571441E+03</totfact>
</mgrwt>
</event>
<event>
 8    1  0.1550723E-005  0.1677991E+03  0.7546771E-02  0.1187502E+00
         -2   -1    0    0    0  501 -0.00000000000E+00  0.00000000000E+00  0.10437659081E+03  0.10437659081E+03  0.00000000000E+00 0.  1.
          2   -1    0    0  501    0  0.00000000000E+00 -0.00000000000E+00 -0.49136898576E+03  0.49136898576E+03  0.00000000000E+00 0. -1.
         23    2    1    2    0    0  0.66499039042E+01  0.11174263383E+03  0.15771565782E+02  0.16853868446E+03  0.12500363368E+03 0.  0.
         23    2    1    2    0    0 -0.66499039042E+01 -0.11174263383E+03 -0.40276396073E+03  0.42720689210E+03  0.88069763014E+02 0.  0.
          5    1    3    3  502    0  0.40398644544E+02  0.92682611624E+02 -0.32638792814E+02  0.10634612252E+03  0.47000000000E+01 0.  1.
         -5    1    3    3    0  502 -0.33748740640E+02  0.19060022208E+02  0.48410358595E+02  0.62192561940E+02  0.47000000000E+01 0.  1.
        -11    1    4    4    0    0  0.22571385020E+02 -0.10729586762E+03 -0.27464148716E+03  0.29571915241E+03  0.00000000000E+00 0.  1.
         11    1    4    4    0    0 -0.29221288924E+02 -0.44467662102E+01 -0.12812247357E+03  0.13148773969E+03  0.00000000000E+00 0. -1.
<mgrwt>
<rscale>  0 0.16106244E+03</rscale>
<asrwt>0</asrwt>
<pdfrwt beam="2">  1        2 0.75595229E-01 0.16779912E+03</pdfrwt>
<pdfrwt beam="1">  1       -2 0.16057937E-01 0.16779912E+03</pdfrwt>
<totfact> 0.19160468E+03</totfact>
</mgrwt>
</event>
<event>
 8    1  0.1550723E-005  0.1599911E+03  0.7546771E-02  0.1195049E+00
         -3   -1    0    0    0  501 -0.00000000000E+00  0.00000000000E+00  0.62771497027E+02  0.62771497027E+02  0.00000000000E+00 0.  1.
          3   -1    0    0  501    0  0.00000000000E+00 -0.00000000000E+00 -0.37600728481E+03  0.37600728481E+03  0.00000000000E+00 0. -1.
         23    2    1    2    0    0 -0.27992443571E+02  0.95857920064E+02 -0.11693292580E+03  0.19816773693E+03  0.12499930035E+03 0.  0.
         23    2    1    2    0    0  0.27992443571E+02 -0.95857920064E+02 -0.19630286198E+03  0.24061104490E+03  0.96884176056E+02 0.  0.
          5    1    3    3  502    0  0.74594605783E+01  0.27608647209E+02  0.23945692723E+02  0.37594775605E+02  0.47000000000E+01 0.  1.
         -5    1    3    3    0  502 -0.35451904149E+02  0.68249272855E+02 -0.14087861852E+03  0.16057296133E+03  0.47000000000E+01 0.  1.
        -11    1    4    4    0    0  0.43525829268E+02 -0.92506270111E+02 -0.19971198421E+03  0.22435860684E+03  0.00000000000E+00 0. -1.
         11    1    4    4    0    0 -0.15533385698E+02 -0.33516499531E+01  0.34091222314E+01  0.16252438064E+02  0.00000000000E+00 0.  1.
<mgrwt>
<rscale>  0 0.15450117E+03</rscale>
<asrwt>0</asrwt>
<pdfrwt beam="2">  1        3 0.57847276E-01 0.15999107E+03</pdfrwt>
<pdfrwt beam="1">  1       -3 0.96571532E-02 0.15999107E+03</pdfrwt>
<totfact> 0.55105771E+02</totfact>
</mgrwt>
</event>
<event>
 8    1  0.1550723E-005  0.2105486E+03  0.7546771E-02  0.1144940E+00
         -3   -1    0    0    0  501 -0.00000000000E+00  0.00000000000E+00  0.28071294087E+02  0.28071294087E+02  0.00000000000E+00 0.  1.
          3   -1    0    0  501    0  0.00000000000E+00 -0.00000000000E+00 -0.16922063709E+04  0.16922063709E+04  0.00000000000E+00 0. -1.
         23    2    1    2    0    0 -0.10719929935E+03 -0.13120343767E+03 -0.11933580195E+04  0.12117896093E+04  0.12499864985E+03 0.  0.
         23    2    1    2    0    0  0.10719929935E+03  0.13120343767E+03 -0.47077705729E+03  0.50848805575E+03  0.90680942472E+02 0.  0.
          5    1    3    3  502    0 -0.90478903607E+02 -0.15590568877E+03 -0.10146396104E+04  0.10305380366E+04  0.47000000000E+01 0. -1.
         -5    1    3    3    0  502 -0.16720395742E+02  0.24702251091E+02 -0.17871840910E+03  0.18125157267E+03  0.47000000000E+01 0. -1.
        -11    1    4    4    0    0  0.67710524932E+02  0.96496542827E+02 -0.19593633069E+03  0.22866425966E+03  0.00000000000E+00 0.  1.
         11    1    4    4    0    0  0.39488774416E+02  0.34706894848E+02 -0.27484072660E+03  0.27982379608E+03  0.00000000000E+00 0. -1.
<mgrwt>
<rscale>  0 0.20579520E+03</rscale>
<asrwt>0</asrwt>
<pdfrwt beam="2">  1        3 0.26033942E+00 0.21054856E+03</pdfrwt>
<pdfrwt beam="1">  1       -3 0.43186610E-02 0.21054856E+03</pdfrwt>
<totfact> 0.51709350E+01</totfact>
</mgrwt>
</event>
<event>
 8    1  0.1550723E-005  0.1340770E+03  0.7546771E-02  0.1234436E+00
          2   -1    0    0  501    0  0.00000000000E+00  0.00000000000E+00  0.15067040479E+03  0.15067040479E+03  0.00000000000E+00 0. -1.
         -2   -1    0    0    0  501 -0.00000000000E+00 -0.00000000000E+00 -0.93934992534E+02  0.93934992534E+02  0.00000000000E+00 0.  1.
         23    2    1    2    0    0  0.28727952965E+02  0.39060422464E+02  0.19723563056E+02  0.13551994433E+03  0.12500249792E+03 0.  0.
         23    2    1    2    0    0 -0.28727952965E+02 -0.39060422464E+02  0.37011849202E+02  0.10908545300E+03  0.90436426232E+02 0.  0.
          5    1    3    3  502    0  0.15962754999E+02 -0.34764796782E+02  0.42207276406E+02  0.57157193983E+02  0.47000000000E+01 0.  1.
         -5    1    3    3    0  502  0.12765197965E+02  0.73825219246E+02 -0.22483713350E+02  0.78362750346E+02  0.47000000000E+01 0.  1.
        -11    1    4    4    0    0 -0.54659189880E+02 -0.33001050045E+00  0.28712374191E+02  0.61742500572E+02  0.00000000000E+00 0. -1.
         11    1    4    4    0    0  0.25931236915E+02 -0.38730411964E+02  0.82994750108E+01  0.47342952425E+02  0.00000000000E+00 0.  1.
<mgrwt>
<rscale>  0 0.12540590E+03</rscale>
<asrwt>0</asrwt>
<pdfrwt beam="1">  1        2 0.23180062E-01 0.13407698E+03</pdfrwt>
<pdfrwt beam="2">  1       -2 0.14451537E-01 0.13407698E+03</pdfrwt>
<totfact> 0.80634993E+03</totfact>
</mgrwt>
</event>
<event>
 8    1  0.1550723E-005  0.1945845E+03  0.7546771E-02  0.1158922E+00
          2   -1    0    0  501    0  0.00000000000E+00  0.00000000000E+00  0.46447929900E+02  0.46447929900E+02  0.00000000000E+00 0. -1.
         -2   -1    0    0    0  501 -0.00000000000E+00 -0.00000000000E+00 -0.82797890928E+03  0.82797890928E+03  0.00000000000E+00 0.  1.
         23    2    1    2    0    0 -0.14236123187E+03  0.44405375223E+02 -0.55536391535E+03  0.58846597545E+03  0.12499827243E+03 0.  0.
         23    2    1    2    0    0  0.14236123187E+03 -0.44405375223E+02 -0.22616706403E+03  0.28596086372E+03  0.91561547837E+02 0.  0.
          5    1    3    3  502    0 -0.13131166761E+03  0.80292089568E+02 -0.40148357264E+03  0.43000084046E+03  0.47000000000E+01 0.  1.
         -5    1    3    3    0  502 -0.11049564257E+02 -0.35886714345E+02 -0.15388034270E+03  0.15846513499E+03  0.47000000000E+01 0.  1.
        -11    1    4    4    0    0 -0.44509679875E+01 -0.25255720823E+02 -0.46950080579E+02  0.53497407570E+02  0.00000000000E+00 0. -1.
         11    1    4    4    0    0  0.14681219985E+03 -0.19149654400E+02 -0.17921698345E+03  0.23246345616E+03  0.00000000000E+00 0.  1.
<mgrwt>
<rscale>  0 0.18948965E+03</rscale>
<asrwt>0</asrwt>
<pdfrwt beam="1">  1        2 0.71458353E-02 0.19458450E+03</pdfrwt>
<pdfrwt beam="2">  1       -2 0.12738137E+00 0.19458450E+03</pdfrwt>
<totfact> 0.46833715E+02</totfact>
</mgrwt>
</event>
<event>
 8    1  0.1550723E-005  0.2394893E+03  0.7546771E-02  0.1124984E+00
          1   -1    0    0  501    0  0.00000000000E+00  0.00000000000E+00  0.31437523953E+03  0.31437523953E+03  0.00000000000E+00 0. -1.
         -1   -1    0    0    0  501 -0.00000000000E+00 -0.00000000000E+00 -0.16888434206E+03  0.16888434206E+03  0.00000000000E+00 0.  1.
         23    2    1    2    0    0  0.18956921660E+03  0.76118037099E+02  0.12465753596E+03  0.26999001085E+03  0.12499864492E+03 0.  0.
         23    2    1    2    0    0 -0.18956921660E+03 -0.76118037099E+02  0.20833361519E+02  0.21326957074E+03  0.57614558890E+02 0.  0.
          5    1    3    3  502    0  0.20081535516E+03  0.90633952247E+02  0.11741175654E+03  0.24969767869E+03  0.47000000000E+01 0. -1.
         -5    1    3    3    0  502 -0.11246138560E+02 -0.14515915148E+02  0.72457794163E+01  0.20292332159E+02  0.47000000000E+01 0. -1.
        -11    1    4    4    0    0 -0.16820411933E+03 -0.60495664346E+02  0.36601663504E+02  0.18246104498E+03  0.00000000000E+00 0. -1.
         11    1    4    4    0    0 -0.21365097272E+02 -0.15622372752E+02 -0.15768301986E+02  0.30808525758E+02  0.00000000000E+00 0.  1.
<mgrwt>
<rscale>  0 0.23236795E+03</rscale>
<asrwt>0</asrwt>
<pdfrwt beam="1">  1        1 0.48365421E-01 0.23948926E+03</pdfrwt>
<pdfrwt beam="2">  1       -1 0.25982206E-01 0.23948926E+03</pdfrwt>
<totfact> 0.10770676E+03</totfact>
</mgrwt>
</event>
<event>
 8    1  0.1550723E-005  0.1405893E+03  0.7546771E-02  0.1222705E+00
         -1   -1    0    0    0  501 -0.00000000000E+00  0.00000000000E+00  0.68323213968E+02  0.68323213968E+02  0.00000000000E+00 0.  1.
          1   -1    0    0  501    0  0.00000000000E+00 -0.00000000000E+00 -0.25376497443E+03  0.25376497443E+03  0.00000000000E+00 0. -1.
         23    2    1    2    0    0 -0.18276333396E+02 -0.61742261752E+02 -0.59758772732E+02  0.15276273393E+03  0.12497684070E+03 0.  0.
         23    2    1    2    0    0  0.18276333396E+02  0.61742261752E+02 -0.12568298773E+03  0.16932545446E+03  0.93427859210E+02 0.  0.
          5    1    3    3  502    0 -0.46162556411E+02 -0.26801414714E+02 -0.85543856131E+02  0.10094126394E+03  0.47000000000E+01 0. -1.
         -5    1    3    3    0  502  0.27886223015E+02 -0.34940847038E+02  0.25785083398E+02  0.51821469988E+02  0.47000000000E+01 0. -1.
        -11    1    4    4    0    0 -0.10782416208E+02  0.43794086096E+02 -0.12737955278E+03  0.13512857930E+03  0.00000000000E+00 0. -1.
         11    1    4    4    0    0  0.29058749604E+02  0.17948175656E+02  0.16965650572E+01  0.34196875163E+02  0.00000000000E+00 0.  1.
<mgrwt>
<rscale>  0 0.13325456E+03</rscale>
<asrwt>0</asrwt>
<pdfrwt beam="2">  1        1 0.39040766E-01 0.14058927E+03</pdfrwt>
<pdfrwt beam="1">  1       -1 0.10511264E-01 0.14058927E+03</pdfrwt>
<totfact> 0.58460991E+03</totfact>
</mgrwt>
</event>
<event>
 8    1  0.2421167E-005  0.3783628E+03  0.7546771E-02  0.1052520E+00
          1   -1    0    0  501    0  0.00000000000E+00  0.00000000000E+00  0.84040882849E+03  0.84040882849E+03  0.00000000000E+00 0. -1.
         -1   -1    0    0    0  501 -0.00000000000E+00 -0.00000000000E+00 -0.16683833344E+03  0.16683833344E+03  0.00000000000E+00 0.  1.
         23    2    1    2    0    0  0.20620760611E+03 -0.29156953435E+03  0.38306379499E+03  0.53842016321E+03  0.12499612371E+03 0.  0.
         23    2    1    2    0    0 -0.20620760611E+03  0.29156953435E+03  0.29050670006E+03  0.46882699871E+03  0.88714383069E+02 0.  0.
          5    1    3    3  502    0 -0.29085059760E+01 -0.82275673128E+02  0.82494001472E+02  0.11664088509E+03  0.47000000000E+01 0.  1.
         -5    1    3    3    0  502  0.20911611208E+03 -0.20929386123E+03  0.30056979351E+03  0.42177927812E+03  0.47000000000E+01 0.  1.
        -11    1    4    4    0    0 -0.65560841233E+02  0.13968991498E+03  0.16878392274E+03  0.22869085864E+03  0.00000000000E+00 0. -1.
         11    1    4    4    0    0 -0.14064676487E+03  0.15187961937E+03  0.12172277732E+03  0.24013614007E+03  0.00000000000E+00 0.  1.
<mgrwt>
<rscale>  0 0.37573833E+03</rscale>
<asrwt>0</asrwt>
<pdfrwt beam="1">  1        1 0.12929366E+00 0.37836279E+03</pdfrwt>
<pdfrwt beam="2">  1       -1 0.25667436E-01 0.37836279E+03</pdfrwt>
<totfact> 0.28312383E+02</totfact>
</mgrwt>
</event>
<event>
 7    1  0.1550723E-005  0.2902888E+03  0.7546771E-02  0.1090198E+00
          1   -1    0    0  501    0  0.00000000000E+00  0.00000000000E+00  0.32776395573E+03  0.32776395573E+03  0.00000000000E+00 0. -1.
         -1   -1    0    0    0  501 -0.00000000000E+00 -0.00000000000E+00 -0.64274614721E+02  0.64274614721E+02  0.00000000000E+00 0.  1.
         23    2    1    2    0    0 -0.24330568389E+01 -0.33122711148E+02  0.10759319988E+03  0.16823739986E+03  0.12499796915E+03 0.  0.
          5    1    3    3  502    0 -0.54541754748E+01 -0.21521871365E+02 -0.25721705123E+02  0.34302114972E+02  0.47000000000E+01 0.  1.
         -5    1    3    3    0  502  0.30211186359E+01 -0.11600839783E+02  0.13331490500E+03  0.13393528489E+03  0.47000000000E+01 0.  1.
        -11    1    1    2    0    0  0.40263732832E+02 -0.48894681412E+02  0.33399464646E+02  0.71605742022E+02  0.00000000000E+00 0. -1.
         11    1    1    2    0    0 -0.37830675993E+02  0.82017392560E+02  0.12249667648E+03  0.15219542857E+03  0.00000000000E+00 0.  1.
<mgrwt>
<rscale>  0 0.29028884E+03</rscale>
<asrwt>0</asrwt>
<pdfrwt beam="1">  1        1 0.50425223E-01 0.29028884E+03</pdfrwt>
<pdfrwt beam="2">  1       -1 0.98884024E-02 0.29028884E+03</pdfrwt>
<totfact> 0.48374788E+03</totfact>
</mgrwt>
</event>
<event>
 8    1  0.1550723E-005  0.1589891E+03  0.7546771E-02  0.1197345E+00
          2   -1    0    0  501    0  0.00000000000E+00  0.00000000000E+00  0.62142707262E+02  0.62142707262E+02  0.00000000000E+00 0. -1.
         -2   -1    0    0    0  501 -0.00000000000E+00 -0.00000000000E+00 -0.35906546812E+03  0.35906546812E+03  0.00000000000E+00 0.  1.
         23    2    1    2    0    0 -0.29738727014E+02  0.93633120497E+02 -0.19821720711E+03  0.25410156055E+03  0.12500395492E+03 0.  0.
         23    2    1    2    0    0  0.29738727014E+02 -0.93633120497E+02 -0.98705553755E+02  0.16710661483E+03  0.92359521651E+02 0.  0.
          5    1    3    3  502    0 -0.65051797725E+02  0.10295013249E+03 -0.15856684290E+03  0.19998999934E+03  0.47000000000E+01 0. -1.
         -5    1    3    3    0  502  0.35313070711E+02 -0.93170119971E+01 -0.39650364206E+02  0.54111561216E+02  0.47000000000E+01 0. -1.
        -11    1    4    4    0    0  0.37583316290E+02 -0.71779229362E+02 -0.11359032060E+03  0.13952607055E+03  0.00000000000E+00 0.  1.
         11    1    4    4    0    0 -0.78445892763E+01 -0.21853891136E+02  0.14884766841E+02  0.27580544277E+02  0.00000000000E+00 0. -1.
<mgrwt>
<rscale>  0 0.15257391E+03</rscale>
<asrwt>0</asrwt>
<pdfrwt beam="1">  1        2 0.95604164E-02 0.15898913E+03</pdfrwt>
<pdfrwt beam="2">  1       -2 0.55240842E-01 0.15898913E+03</pdfrwt>
<totfact> 0.20705713E+03</totfact>
</mgrwt>
</event>
<event>
 8    1  0.1550723E-005  0.1579542E+03  0.7546771E-02  0.1201980E+00
         -1   -1    0    0    0  501 -0.00000000000E+00  0.00000000000E+00  0.35265155710E+02  0.35265155710E+02  0.00000000000E+00 0.  1.
          1   -1    0    0  501    0  0.00000000000E+00 -0.00000000000E+00 -0.60416858808E+03  0.60416858808E+03  0.00000000000E+00 0. -1.
         23    2    1    2    0    0 -0.32967471658E+02  0.90765986385E+02 -0.23516994866E+03  0.28329213738E+03  0.12499684746E+03 0.  0.
         23    2    1    2    0    0  0.32967471658E+02 -0.90765986385E+02 -0.33373348370E+03  0.35614160641E+03  0.78316583150E+02 0.  0.
          5    1    3    3  502    0 -0.74350528984E+02  0.85937583370E+02 -0.19167970844E+03  0.22288218867E+03  0.47000000000E+01 0. -1.
         -5    1    3    3    0  502  0.41383057326E+02  0.48284030152E+01 -0.43490240222E+02  0.60409948716E+02  0.47000000000E+01 0. -1.
        -11    1    4    4    0    0  0.24490459480E+02 -0.64618995432E+02 -0.31591463466E+03  0.32338437434E+03  0.00000000000E+00 0. -1.
         11    1    4    4    0    0  0.84770121771E+01 -0.26146990953E+02 -0.17818849048E+02  0.32757232068E+02  0.00000000000E+00 0.  1.
<mgrwt>
<rscale>  0 0.14878028E+03</rscale>
<asrwt>0</asrwt>
<pdfrwt beam="2">  1        1 0.92949010E-01 0.15795420E+03</pdfrwt>
<pdfrwt beam="1">  1       -1 0.54254088E-02 0.15795420E+03</pdfrwt>
<totfact> 0.52759538E+03</totfact>
</mgrwt>
</event>
<event>
 8    1  0.1550723E-005  0.1429862E+03  0.7546771E-02  0.1220112E+00
         -1   -1    0    0    0  501 -0.00000000000E+00  0.00000000000E+00  0.50941332161E+02  0.50941332161E+02  0.00000000000E+00 0.  1.
          1   -1    0    0  501    0  0.00000000000E+00 -0.00000000000E+00 -0.34637684836E+03  0.34637684836E+03  0.00000000000E+00 0. -1.
         23    2    1    2    0    0 -0.24441664790E+02 -0.64989365500E+02 -0.11294798751E+03  0.18221496877E+03  0.12499613736E+03 0.  0.
         23    2    1    2    0    0  0.24441664790E+02  0.64989365500E+02 -0.18248752869E+03  0.21510321175E+03  0.90258966157E+02 0.  0.
          5    1    3    3  502    0  0.45399091615E+01 -0.76406015282E+00 -0.11138548567E+03  0.11157961723E+03  0.47000000000E+01 0.  1.
         -5    1    3    3    0  502 -0.28981573952E+02 -0.64225305347E+02 -0.15625018401E+01  0.70635351543E+02  0.47000000000E+01 0.  1.
        -11    1    4    4    0    0 -0.10893625755E+02  0.43148691421E+02 -0.22609357208E+02  0.49916567258E+02  0.00000000000E+00 0.  1.
         11    1    4    4    0    0  0.35335290545E+02  0.21840674079E+02 -0.15987817148E+03  0.16518664449E+03  0.00000000000E+00 0. -1.
<mgrwt>
<rscale>  0 0.13507606E+03</rscale>
<asrwt>0</asrwt>
<pdfrwt beam="2">  1        1 0.53288745E-01 0.14298618E+03</pdfrwt>
<pdfrwt beam="1">  1       -1 0.78371282E-02 0.14298618E+03</pdfrwt>
<totfact> 0.62162301E+03</totfact>
</mgrwt>
</event>
<event>
 8    1  0.1550723E-005  0.1312599E+03  0.7546771E-02  0.1239184E+00
          1   -1    0    0  501    0  0.00000000000E+00  0.00000000000E+00  0.26741990657E+02  0.26741990657E+02  0.00000000000E+00 0. -1.
         -1   -1    0    0    0  501 -0.00000000000E+00 -0.00000000000E+00 -0.55220572868E+03  0.55220572868E+03  0.00000000000E+00 0.  1.
         23    2    1    2    0    0 -0.14940986773E+02  0.37164827172E+02 -0.38645140635E+03  0.40813459767E+03  0.12499881150E+03 0.  0.
         23    2    1    2    0    0  0.14940986773E+02 -0.37164827172E+02 -0.13901233167E+03  0.17081312167E+03  0.90819803532E+02 0.  0.
          5    1    3    3  502    0 -0.20678868558E+02  0.82122311608E+02 -0.27311188053E+03  0.28597880858E+03  0.47000000000E+01 0.  1.
         -5    1    3    3    0  502  0.57378817851E+01 -0.44957484436E+02 -0.11333952582E+03  0.12215578909E+03  0.47000000000E+01 0.  1.
        -11    1    4    4    0    0  0.31856480479E+02 -0.35553873877E+02 -0.14510956956E+03  0.15276027126E+03  0.00000000000E+00 0.  1.
         11    1    4    4    0    0 -0.16915493705E+02 -0.16109532953E+01  0.60972378984E+01  0.18052850407E+02  0.00000000000E+00 0. -1.
<mgrwt>
<rscale>  0 0.12240338E+03</rscale>
<asrwt>0</asrwt>
<pdfrwt beam="1">  1        1 0.41141525E-02 0.13125990E+03</pdfrwt>
<pdfrwt beam="2">  1       -1 0.84954725E-01 0.13125990E+03</pdfrwt>
<totfact> 0.30220801E+03</totfact>
</mgrwt>
</event>
<event>
 8    1  0.1550723E-005  0.1258392E+03  0.7546771E-02  0.1249082E+00
         -2   -1    0    0    0  501 -0.00000000000E+00  0.00000000000E+00  0.14549477628E+02  0.14549477628E+02  0.00000000000E+00 0.  1.
          2   -1    0    0  501    0  0.00000000000E+00 -0.00000000000E+00 -0.82289525140E+03  0.82289525140E+03  0.00000000000E+00 0. -1.
         23    2    1    2    0    0 -0.14515673588E+02  0.71309347649E+00 -0.43198041173E+03  0.44993618997E+03  0.12499714255E+03 0.  0.
         23    2    1    2    0    0  0.14515673588E+02 -0.71309347649E+00 -0.37636536205E+03  0.38750853906E+03  0.91108555103E+02 0.  0.
          5    1    3    3  502    0  0.42907574011E+02 -0.36940998674E+02 -0.20793081917E+03  0.21555280757E+03  0.47000000000E+01 0. -1.
         -5    1    3    3    0  502 -0.57423247598E+02  0.37654092150E+02 -0.22404959256E+03  0.23438338240E+03  0.47000000000E+01 0. -1.
        -11    1    4    4    0    0  0.15409276590E+02  0.43356006854E+02 -0.15027655092E+03  0.15716307102E+03  0.00000000000E+00 0.  1.
         11    1    4    4    0    0 -0.89360300225E+00 -0.44069100331E+02 -0.22608881113E+03  0.23034546804E+03  0.00000000000E+00 0. -1.
<mgrwt>
<rscale>  0 0.11644363E+03</rscale>
<asrwt>0</asrwt>
<pdfrwt beam="2">  1        2 0.12659925E+00 0.12583918E+03</pdfrwt>
<pdfrwt beam="1">  1       -2 0.22383815E-02 0.12583918E+03</pdfrwt>
<totfact> 0.21108795E+04</totfact>
</mgrwt>
</event>
<event>
 8    1  0.1550723E-005  0.1643143E+03  0.7546771E-02  0.1191132E+00
          1   -1    0    0  501    0  0.00000000000E+00  0.00000000000E+00  0.21158746475E+03  0.21158746475E+03  0.00000000000E+00 0. -1.
         -1   -1    0    0    0  501 -0.00000000000E+00 -0.00000000000E+00 -0.11228566679E+03  0.11228566679E+03  0.00000000000E+00 0.  1.
         23    2    1    2    0    0 -0.16815086808E+02  0.10532381217E+03  0.79359220137E+02  0.18247485230E+03  0.12499333321E+03 0.  0.
         23    2    1    2    0    0  0.16815086808E+02 -0.10532381217E+03  0.19942577823E+02  0.14139827924E+03  0.90663743624E+02 0.  0.
          5    1    3    3  502    0 -0.24234834321E+02  0.10249991960E+03  0.10887149422E+03  0.15155412553E+03  0.47000000000E+01 0. -1.
         -5    1    3    3    0  502  0.74197475123E+01  0.28238925707E+01 -0.29512274082E+02  0.30920726768E+02  0.47000000000E+01 0. -1.
        -11    1    4    4    0    0  0.34326488289E+01 -0.29595428293E+02  0.50511415829E+02  0.58643632075E+02  0.00000000000E+00 0. -1.
         11    1    4    4    0    0  0.13382437979E+02 -0.75728383875E+02 -0.30568838005E+02  0.82754647166E+02  0.00000000000E+00 0.  1.
<mgrwt>
<rscale>  0 0.15786170E+03</rscale>
<asrwt>0</asrwt>
<pdfrwt beam="1">  1        1 0.32551918E-01 0.16431429E+03</pdfrwt>
<pdfrwt beam="2">  1       -1 0.17274718E-01 0.16431429E+03</pdfrwt>
<totfact> 0.34039173E+03</totfact>
</mgrwt>
</event>
<event>
 8    1  0.1550723E-005  0.1390444E+03  0.7546771E-02  0.1226516E+00
         -1   -1    0    0    0  501 -0.00000000000E+00  0.00000000000E+00  0.51898859266E+02  0.51898859266E+02  0.00000000000E+00 0.  1.
          1   -1    0    0  501    0  0.00000000000E+00 -0.00000000000E+00 -0.29998928928E+03  0.29998928928E+03  0.00000000000E+00 0. -1.
         23    2    1    2    0    0  0.59200261796E+02 -0.14360101495E+02 -0.11620498569E+03  0.18120969610E+03  0.12498988660E+03 0.  0.
         23    2    1    2    0    0 -0.59200261796E+02  0.14360101495E+02 -0.13188544433E+03  0.17067845244E+03  0.89590625573E+02 0.  0.
          5    1    3    3  502    0  0.44207453206E+02  0.43495887625E+02 -0.15641929106E+02  0.64132293779E+02  0.47000000000E+01 0.  1.
         -5    1    3    3    0  502  0.14992808590E+02 -0.57855989119E+02 -0.10056305658E+03  0.11707740232E+03  0.47000000000E+01 0.  1.
        -11    1    4    4    0    0 -0.21673090852E+02  0.12497803687E+02  0.76586957442E+01  0.26164357141E+02  0.00000000000E+00 0.  1.
         11    1    4    4    0    0 -0.37527170944E+02  0.18622978078E+01 -0.13954414007E+03  0.14451409530E+03  0.00000000000E+00 0. -1.
<mgrwt>
<rscale>  0 0.13063560E+03</rscale>
<asrwt>0</asrwt>
<pdfrwt beam="2">  1        1 0.46152198E-01 0.13904444E+03</pdfrwt>
<pdfrwt beam="1">  1       -1 0.79844399E-02 0.13904444E+03</pdfrwt>
<totfact> 0.72141809E+03</totfact>
</mgrwt>
</event>
<event>
 8    1  0.1550723E-005  0.1367472E+03  0.7546771E-02  0.1230143E+00
         -3   -1    0    0    0  501 -0.00000000000E+00  0.00000000000E+00  0.62455515294E+03  0.62455515294E+03  0.00000000000E+00 0.  1.
          3   -1    0    0  501    0  0.00000000000E+00 -0.00000000000E+00 -0.24085803623E+02  0.24085803623E+02  0.00000000000E+00 0. -1.
         23    2    1    2    0    0 -0.54906917639E+02 -0.76750934687E+01  0.38717882880E+03  0.41061812388E+03  0.12500448604E+03 0.  0.
         23    2    1    2    0    0  0.54906917639E+02  0.76750934687E+01  0.21329052052E+03  0.23802283268E+03  0.89935232633E+02 0.  0.
          5    1    3    3  502    0 -0.74981132013E+02  0.32670956199E+02  0.31431317716E+03  0.32481444683E+03  0.47000000000E+01 0.  1.
         -5    1    3    3    0  502  0.20074214374E+02 -0.40346049668E+02  0.72865651638E+02  0.85803677049E+02  0.47000000000E+01 0.  1.
        -11    1    4    4    0    0 -0.81481370269E+01  0.22724688383E+02  0.12825611610E+02  0.27336786796E+02  0.00000000000E+00 0. -1.
         11    1    4    4    0    0  0.63055054666E+02 -0.15049594915E+02  0.20046490891E+03  0.21068604589E+03  0.00000000000E+00 0.  1.
<mgrwt>
<rscale>  0 0.12820552E+03</rscale>
<asrwt>0</asrwt>
<pdfrwt beam="2">  1        3 0.37055087E-02 0.13674721E+03</pdfrwt>
<pdfrwt beam="1">  1       -3 0.96085396E-01 0.13674721E+03</pdfrwt>
<totfact> 0.84005382E+02</totfact>
</mgrwt>
</event>
<event>
 8    1  0.1550723E-005  0.1273876E+03  0.7546771E-02  0.1246568E+00
         -2   -1    0    0    0  501 -0.00000000000E+00  0.00000000000E+00  0.53203053593E+03  0.53203053593E+03  0.00000000000E+00 0.  1.
          2   -1    0    0  501    0  0.00000000000E+00 -0.00000000000E+00 -0.24546055468E+02  0.24546055468E+02  0.00000000000E+00 0. -1.
         23    2    1    2    0    0 -0.24254570526E+02  0.37791819777E+01  0.36059783501E+03  0.38243744457E+03  0.12500013595E+03 0.  0.
         23    2    1    2    0    0  0.24254570526E+02 -0.37791819777E+01  0.14688664545E+03  0.17413914682E+03  0.90256243205E+02 0.  0.
          5    1    3    3  502    0 -0.37369267335E+02  0.14138589162E+02  0.36272277659E+03  0.36494693382E+03  0.47000000000E+01 0.  1.
         -5    1    3    3    0  502  0.13114696809E+02 -0.10359407184E+02 -0.21249415839E+01  0.17490510751E+02  0.47000000000E+01 0.  1.
        -11    1    4    4    0    0  0.44908790306E+02 -0.27939682954E+02  0.12447787336E+03  0.13524853525E+03  0.00000000000E+00 0.  1.
         11    1    4    4    0    0 -0.20654219780E+02  0.24160500976E+02  0.22408772083E+02  0.38890611572E+02  0.00000000000E+00 0. -1.
<mgrwt>
<rscale>  0 0.11792032E+03</rscale>
<asrwt>0</asrwt>
<pdfrwt beam="2">  1        2 0.37763166E-02 0.12738760E+03</pdfrwt>
<pdfrwt beam="1">  1       -2 0.81850843E-01 0.12738760E+03</pdfrwt>
<totfact> 0.29461985E+03</totfact>
</mgrwt>
</event>
<event>
 8    1  0.1550723E-005  0.1513641E+03  0.7546771E-02  0.1207983E+00
          1   -1    0    0  501    0  0.00000000000E+00  0.00000000000E+00  0.93950593501E+02  0.93950593501E+02  0.00000000000E+00 0. -1.
         -1   -1    0    0    0  501 -0.00000000000E+00 -0.00000000000E+00 -0.24018890475E+03  0.24018890475E+03  0.00000000000E+00 0.  1.
         23    2    1    2    0    0 -0.79129828049E+02  0.32021136205E+02 -0.14553860968E+03  0.20998233265E+03  0.12499684103E+03 0.  0.
         23    2    1    2    0    0  0.79129828049E+02 -0.32021136205E+02 -0.69970157037E+00  0.12415716560E+03  0.90153365645E+02 0.  0.
          5    1    3    3  502    0 -0.70404115480E+02 -0.38329066031E+02 -0.75510350657E+02  0.11022594901E+03  0.47000000000E+01 0.  1.
         -5    1    3    3    0  502 -0.87257125692E+01  0.70350202236E+02 -0.70028259022E+02  0.99756383636E+02  0.47000000000E+01 0.  1.
        -11    1    4    4    0    0  0.21168088717E+01 -0.45650111308E+02  0.35139187436E+01  0.45834061212E+02  0.00000000000E+00 0. -1.
         11    1    4    4    0    0  0.77013019177E+02  0.13628975103E+02 -0.42136203140E+01  0.78323104390E+02  0.00000000000E+00 0.  1.
<mgrwt>
<rscale>  0 0.14404839E+03</rscale>
<asrwt>0</asrwt>
<pdfrwt beam="1">  1        1 0.14453938E-01 0.15136411E+03</pdfrwt>
<pdfrwt beam="2">  1       -1 0.36952139E-01 0.15136411E+03</pdfrwt>
<totfact> 0.27048327E+03</totfact>
</mgrwt>
</event>
<event>
 8    1  0.1550723E-005  0.1318005E+03  0.7546771E-02  0.1237782E+00
          1   -1    0    0  501    0  0.00000000000E+00  0.00000000000E+00  0.21254221572E+03  0.21254221572E+03  0.00000000000E+00 0. -1.
         -1   -1    0    0    0  501 -0.00000000000E+00 -0.00000000000E+00 -0.67018421652E+02  0.67018421652E+02  0.00000000000E+00 0.  1.
         23    2    1    2    0    0  0.32414802458E+01  0.41891737461E+02  0.51029911994E+02  0.14133444682E+03  0.12492377307E+03 0.  0.
         23    2    1    2    0    0 -0.32414802458E+01 -0.41891737461E+02  0.94493882072E+02  0.13822619055E+03  0.91716744069E+02 0.  0.
          5    1    3    3  502    0 -0.53951153750E+02  0.43845791533E+02  0.91777551567E+01  0.70281588029E+02  0.47000000000E+01 0.  1.
         -5    1    3    3    0  502  0.57192633996E+02 -0.19540540723E+01  0.41852156837E+02  0.71052858793E+02  0.47000000000E+01 0.  1.
        -11    1    4    4    0    0 -0.26955426281E+02 -0.51082072942E+02  0.22696187601E+02  0.62057151994E+02  0.00000000000E+00 0.  1.
         11    1    4    4    0    0  0.23713946035E+02  0.91903354809E+01  0.71797694470E+02  0.76169038553E+02  0.00000000000E+00 0. -1.
<mgrwt>
<rscale>  0 0.12327992E+03</rscale>
<asrwt>0</asrwt>
<pdfrwt beam="1">  1        1 0.32698802E-01 0.13180051E+03</pdfrwt>
<pdfrwt beam="2">  1       -1 0.10310527E-01 0.13180051E+03</pdfrwt>
<totfact> 0.74674043E+03</totfact>
</mgrwt>
</event>
<event>
 7    1  0.1550723E-005  0.1891054E+03  0.7546771E-02  0.1167386E+00
         -2   -1    0    0    0  501 -0.00000000000E+00  0.00000000000E+00  0.80016433295E+02  0.80016433295E+02  0.00000000000E+00 0.  1.
          2   -1    0    0  501    0  0.00000000000E+00 -0.00000000000E+00 -0.38108065408E+03  0.38108065408E+03  0.00000000000E+00 0. -1.
         23    2    1    2    0    0  0.12664693832E+03 -0.94090705565E+01 -0.16872406205E+03  0.23028383114E+03  0.91841473049E+02 0.  0.
          5    1    1    2  502    0 -0.89465058727E+02 -0.29627401529E+01 -0.15945960688E+03  0.18292684546E+03  0.47000000000E+01 0. -1.
         -5    1    1    2    0  502 -0.37181879593E+02  0.12371810709E+02  0.27119448145E+02  0.47886410786E+02  0.47000000000E+01 0.  1.
        -11    1    3    3    0    0  0.31190594610E+02 -0.36919643508E+02 -0.22024547453E+02  0.53113030034E+02  0.00000000000E+00 0. -1.
         11    1    3    3    0    0  0.95456343711E+02  0.27510572952E+02 -0.14669951460E+03  0.17717080110E+03  0.00000000000E+00 0.  1.
<mgrwt>
<rscale>  0 0.18043164E+03</rscale>
<asrwt>0</asrwt>
<pdfrwt beam="2">  1        2 0.58627794E-01 0.18910537E+03</pdfrwt>
<pdfrwt beam="1">  1       -2 0.12310220E-01 0.18910537E+03</pdfrwt>
<totfact> 0.39158409E+03</totfact>
</mgrwt>
</event>
<event>
 8    1  0.1550723E-005  0.1563083E+03  0.7546771E-02  0.1201343E+00
         -2   -1    0    0    0  501 -0.00000000000E+00  0.00000000000E+00  0.13774617157E+03  0.13774617157E+03  0.00000000000E+00 0.  1.
          2   -1    0    0  501    0  0.00000000000E+00 -0.00000000000E+00 -0.17941228339E+03  0.17941228339E+03  0.00000000000E+00 0. -1.
         23    2    1    2    0    0 -0.85837185573E+02  0.37925373468E+02  0.42793088739E+02  0.16206029678E+03  0.12500373982E+03 0.  0.
         23    2    1    2    0    0  0.85837185573E+02 -0.37925373468E+02 -0.84459200562E+02  0.15509815818E+03  0.90087322810E+02 0.  0.
          5    1    3    3  502    0 -0.95188096619E+01  0.56296820132E+02 -0.20777072404E+02  0.60940269379E+02  0.47000000000E+01 0.  1.
         -5    1    3    3    0  502 -0.76318375911E+02 -0.18371446664E+02  0.63570161143E+02  0.10112002740E+03  0.47000000000E+01 0.  1.
        -11    1    4    4    0    0 -0.12853475211E+02 -0.27977781911E+02 -0.22693038386E+02  0.38248426071E+02  0.00000000000E+00 0. -1.
         11    1    4    4    0    0  0.98690660785E+02 -0.99475915572E+01 -0.61766162175E+02  0.11684973211E+03  0.00000000000E+00 0.  1.
<mgrwt>
<rscale>  0 0.14929432E+03</rscale>
<asrwt>0</asrwt>
<pdfrwt beam="2">  1        2 0.27601890E-01 0.15630832E+03</pdfrwt>
<pdfrwt beam="1">  1       -2 0.21191719E-01 0.15630832E+03</pdfrwt>
<totfact> 0.35471216E+03</totfact>
</mgrwt>
</event>
<event>
 8    1  0.1550723E-005  0.1329085E+03  0.7546771E-02  0.1238647E+00
          1   -1    0    0  501    0  0.00000000000E+00  0.00000000000E+00  0.35825404222E+03  0.35825404222E+03  0.00000000000E+00 0. -1.
         -1   -1    0    0    0  501 -0.00000000000E+00 -0.00000000000E+00 -0.45725124147E+02  0.45725124147E+02  0.00000000000E+00 0.  1.
         23    2    1    2    0    0  0.43528582177E+02 -0.12435816386E+02  0.87658413417E+02  0.15921260564E+03  0.12496107136E+03 0.  0.
         23    2    1    2    0    0 -0.43528582177E+02  0.12435816386E+02  0.22487050466E+03  0.24476656073E+03  0.85408069818E+02 0.  0.
          5    1    3    3  502    0 -0.29617864656E+02 -0.43880702496E+02  0.34650341052E+02  0.63446592449E+02  0.47000000000E+01 0. -1.
         -5    1    3    3    0  502  0.73146446833E+02  0.31444886110E+02  0.53008072365E+02  0.95766013192E+02  0.47000000000E+01 0. -1.
        -11    1    4    4    0    0  0.23239940041E+02  0.18293486193E+02  0.72973947234E+02  0.78739719489E+02  0.00000000000E+00 0. -1.
         11    1    4    4    0    0 -0.66768522218E+02 -0.58576698062E+01  0.15189655742E+03  0.16602684124E+03  0.00000000000E+00 0.  1.
<mgrwt>
<rscale>  0 0.12273845E+03</rscale>
<asrwt>0</asrwt>
<pdfrwt beam="1">  1        1 0.55116005E-01 0.13290845E+03</pdfrwt>
<pdfrwt beam="2">  1       -1 0.70346347E-02 0.13290845E+03</pdfrwt>
<totfact> 0.69797321E+03</totfact>
</mgrwt>
</event>
<event>
 8    1  0.1550723E-005  0.1368786E+03  0.7546771E-02  0.1231617E+00
          1   -1    0    0  501    0  0.00000000000E+00  0.00000000000E+00  0.16298941976E+03  0.16298941976E+03  0.00000000000E+00 0. -1.
         -1   -1    0    0    0  501 -0.00000000000E+00 -0.00000000000E+00 -0.89824808831E+02  0.89824808831E+02  0.00000000000E+00 0.  1.
         23    2    1    2    0    0 -0.79840636187E+01 -0.55173599439E+02  0.22373671021E+02  0.13869506325E+03  0.12501147174E+03 0.  0.
         23    2    1    2    0    0  0.79840636187E+01  0.55173599439E+02  0.50790939905E+02  0.11411916534E+03  0.85648076304E+02 0.  0.
          5    1    3    3  502    0  0.36253065629E+02 -0.75323198282E+02 -0.27587734324E+01  0.83770936474E+02  0.47000000000E+01 0.  1.
         -5    1    3    3    0  502 -0.44237129248E+02  0.20149598843E+02  0.25132444454E+02  0.54924126774E+02  0.47000000000E+01 0.  1.
        -11    1    4    4    0    0  0.45522671758E+02  0.29717007175E+02  0.15150667289E+02  0.56435422198E+02  0.00000000000E+00 0.  1.
         11    1    4    4    0    0 -0.37538608139E+02  0.25456592264E+02  0.35640272616E+02  0.57683743142E+02  0.00000000000E+00 0. -1.
<mgrwt>
<rscale>  0 0.12723516E+03</rscale>
<asrwt>0</asrwt>
<pdfrwt beam="1">  1        1 0.25075295E-01 0.13687856E+03</pdfrwt>
<pdfrwt beam="2">  1       -1 0.13819201E-01 0.13687856E+03</pdfrwt>
<totfact> 0.66344862E+03</totfact>
</mgrwt>
</event>
<event>
 8    1  0.1550723E-005  0.1406614E+03  0.7546771E-02  0.1221510E+00
          3   -1    0    0  501    0  0.00000000000E+00  0.00000000000E+00  0.51417763710E+02  0.51417763710E+02  0.00000000000E+00 0. -1.
         -3   -1    0    0    0  501 -0.00000000000E+00 -0.00000000000E+00 -0.32252316215E+03  0.32252316215E+03  0.00000000000E+00 0.  1.
         23    2    1    2    0    0 -0.19647014933E+02 -0.67657749271E+02 -0.16241176677E+03  0.21485626675E+03  0.12174587117E+03 0.  0.
         23    2    1    2    0    0  0.19647014933E+02  0.67657749271E+02 -0.10869363167E+03  0.15908465911E+03  0.92358253365E+02 0.  0.
          5    1    3    3  502    0  0.19093874714E+02 -0.67227700761E+02 -0.28925925386E+02  0.75782181024E+02  0.47000000000E+01 0. -1.
         -5    1    3    3    0  502 -0.38740889647E+02 -0.43004850958E+00 -0.13348584138E+03  0.13907408573E+03  0.47000000000E+01 0.  1.
        -11    1    4    4    0    0 -0.20150033473E+02 -0.34835373652E+01 -0.61683020945E+02  0.64984259282E+02  0.00000000000E+00 0. -1.
         11    1    4    4    0    0  0.39797048406E+02  0.71141286636E+02 -0.47010610727E+02  0.94100399824E+02  0.00000000000E+00 0.  1.
<mgrwt>
<rscale>  0 0.13409028E+03</rscale>
<asrwt>0</asrwt>
<pdfrwt beam="1">  1        3 0.79104249E-02 0.14066141E+03</pdfrwt>
<pdfrwt beam="2">  1       -3 0.49618950E-01 0.14066141E+03</pdfrwt>
<totfact> 0.10223261E+03</totfact>
</mgrwt>
</event>
<event>
 8    1  0.1550723E-005  0.3190836E+03  0.7546771E-02  0.1077437E+00
          2   -1    0    0  501    0  0.00000000000E+00  0.00000000000E+00  0.24004428518E+03  0.24004428518E+03  0.00000000000E+00 0. -1.
         -2   -1    0    0    0  501 -0.00000000000E+00 -0.00000000000E+00 -0.76854582530E+03  0.76854582530E+03  0.00000000000E+00 0.  1.
         23    2    1    2    0    0  0.11333952573E+03 -0.27081977809E+03 -0.61180318944E+03  0.69001268747E+03  0.12500066387E+03 0.  0.
         23    2    1    2    0    0 -0.11333952573E+03  0.27081977809E+03  0.83301649319E+02  0.31857742302E+03  0.91450584369E+02 0.  0.
          5    1    3    3  502    0 -0.77538432839E+01 -0.35385471883E+02 -0.19939373055E+02  0.41616370623E+02  0.47000000000E+01 0. -1.
         -5    1    3    3    0  502  0.12109336901E+03 -0.23543430620E+03 -0.59186381638E+03  0.64839631685E+03  0.47000000000E+01 0. -1.
        -11    1    4    4    0    0 -0.11871650541E+03  0.19223093307E+03  0.42616319621E+02  0.22991844421E+03  0.00000000000E+00 0. -1.
         11    1    4    4    0    0  0.53769796866E+01  0.78588845014E+02  0.40685329698E+02  0.88658978811E+02  0.00000000000E+00 0.  1.
<mgrwt>
<rscale>  0 0.31614584E+03</rscale>
<asrwt>0</asrwt>
<pdfrwt beam="1">  1        2 0.36929890E-01 0.31908364E+03</pdfrwt>
<pdfrwt beam="2">  1       -2 0.11823782E+00 0.31908364E+03</pdfrwt>
<totfact> 0.80535779E+01</totfact>
</mgrwt>
</event>
<event>
 8    1  0.1550723E-005  0.1570192E+03  0.7546771E-02  0.1201135E+00
          2   -1    0    0  501    0  0.00000000000E+00  0.00000000000E+00  0.39246521215E+03  0.39246521215E+03  0.00000000000E+00 0. -1.
         -2   -1    0    0    0  501 -0.00000000000E+00 -0.00000000000E+00 -0.73963848961E+02  0.73963848961E+02  0.00000000000E+00 0.  1.
         23    2    1    2    0    0  0.53889337667E+02 -0.78271305521E+02  0.43842866808E+02  0.16302522639E+03  0.12499827794E+03 0.  0.
         23    2    1    2    0    0 -0.53889337667E+02  0.78271305521E+02  0.27465849638E+03  0.30340383472E+03  0.87098446058E+02 0.  0.
          5    1    3    3  502    0  0.16676073560E+02 -0.82245965383E+02 -0.22232672290E+02  0.86941773437E+02  0.47000000000E+01 0.  1.
         -5    1    3    3    0  502  0.37213264106E+02  0.39746598623E+01  0.66075539098E+02  0.76083452955E+02  0.47000000000E+01 0.  1.
        -11    1    4    4    0    0 -0.55806393887E+02  0.72664446784E+01  0.14545671431E+03  0.15596413227E+03  0.00000000000E+00 0. -1.
         11    1    4    4    0    0  0.19170562202E+01  0.71004860843E+02  0.12920178207E+03  0.14743970245E+03  0.00000000000E+00 0.  1.
<mgrwt>
<rscale>  0 0.14946253E+03</rscale>
<asrwt>0</asrwt>
<pdfrwt beam="1">  1        2 0.60379262E-01 0.15701919E+03</pdfrwt>
<pdfrwt beam="2">  1       -2 0.11379054E-01 0.15701919E+03</pdfrwt>
<totfact> 0.42679484E+03</totfact>
</mgrwt>
</event>
<event>
 8    1  0.1550723E-005  0.1543437E+03  0.7546771E-02  0.1203514E+00
          1   -1    0    0  501    0  0.00000000000E+00  0.00000000000E+00  0.61882935582E+03  0.61882935582E+03  0.00000000000E+00 0. -1.
         -1   -1    0    0    0  501 -0.00000000000E+00 -0.00000000000E+00 -0.32804856955E+02  0.32804856955E+02  0.00000000000E+00 0.  1.
         23    2    1    2    0    0 -0.75385263282E+02  0.50120304715E+02  0.35438762360E+03  0.38653920022E+03  0.12500793046E+03 0.  0.
         23    2    1    2    0    0  0.75385263282E+02 -0.50120304715E+02  0.23163687526E+03  0.26509501255E+03  0.91786386988E+02 0.  0.
          5    1    3    3  502    0 -0.10595405686E+03  0.41050297746E+02  0.21229869627E+03  0.24084064347E+03  0.47000000000E+01 0.  1.
         -5    1    3    3    0  502  0.30568793579E+02  0.90700069685E+01  0.14208892733E+03  0.14569855675E+03  0.47000000000E+01 0.  1.
        -11    1    4    4    0    0  0.38991177652E+02  0.11601956709E+02  0.15470098515E+03  0.15996034553E+03  0.00000000000E+00 0. -1.
         11    1    4    4    0    0  0.36394085630E+02 -0.61722261424E+02  0.76935890104E+02  0.10513466702E+03  0.00000000000E+00 0.  1.
<mgrwt>
<rscale>  0 0.14755182E+03</rscale>
<asrwt>0</asrwt>
<pdfrwt beam="1">  1        1 0.95204507E-01 0.15434366E+03</pdfrwt>
<pdfrwt beam="2">  1       -1 0.50469015E-02 0.15434366E+03</pdfrwt>
<totfact> 0.56779024E+03</totfact>
</mgrwt>
</event>
<event>
 8    1  0.1550723E-005  0.1679431E+03  0.7546771E-02  0.1185535E+00
         -1   -1    0    0    0  501 -0.00000000000E+00  0.00000000000E+00  0.37217437269E+02  0.37217437269E+02  0.00000000000E+00 0.  1.
          1   -1    0    0  501    0  0.00000000000E+00 -0.00000000000E+00 -0.70831118862E+03  0.70831118862E+03  0.00000000000E+00 0. -1.
         23    2    1    2    0    0  0.48571587306E+02 -0.10111027171E+03 -0.27129178377E+03  0.31906757603E+03  0.12498959956E+03 0.  0.
         23    2    1    2    0    0 -0.48571587306E+02  0.10111027171E+03 -0.39980196758E+03  0.42646104985E+03  0.97185017485E+02 0.  0.
          5    1    3    3  502    0 -0.28546073541E+02 -0.38376444437E+02 -0.26643047030E+02  0.54950630181E+02  0.47000000000E+01 0.  1.
         -5    1    3    3    0  502  0.77117660846E+02 -0.62733827269E+02 -0.24464873674E+03  0.26411694585E+03  0.47000000000E+01 0.  1.
        -11    1    4    4    0    0  0.28722675393E+02  0.16059012119E+02 -0.10559354922E+03  0.11060235797E+03  0.00000000000E+00 0. -1.
         11    1    4    4    0    0 -0.77294262699E+02  0.85051259587E+02 -0.29420841836E+03  0.31585869188E+03  0.00000000000E+00 0.  1.
<mgrwt>
<rscale>  0 0.16283287E+03</rscale>
<asrwt>0</asrwt>
<pdfrwt beam="2">  1        1 0.10897094E+00 0.16794310E+03</pdfrwt>
<pdfrwt beam="1">  1       -1 0.57257601E-02 0.16794310E+03</pdfrwt>
<totfact> 0.39019475E+03</totfact>
</mgrwt>
</event>
<event>
 8    1  0.1550723E-005  0.1375958E+03  0.7546771E-02  0.1229331E+00
         -3   -1    0    0    0  501 -0.00000000000E+00  0.00000000000E+00  0.26578171287E+03  0.26578171287E+03  0.00000000000E+00 0.  1.
          3   -1    0    0  501    0  0.00000000000E+00 -0.00000000000E+00 -0.64669013476E+02  0.64669013476E+02  0.00000000000E+00 0. -1.
         23    2    1    2    0    0 -0.54631424504E+02  0.17936061958E+02  0.17349213994E+03  0.22143200466E+03  0.12500526072E+03 0.  0.
         23    2    1    2    0    0  0.54631424504E+02 -0.17936061958E+02  0.27620559452E+02  0.10901872168E+03  0.88407530846E+02 0.  0.
          5    1    3    3  502    0  0.33730364983E+02  0.31772714465E+02  0.75202069877E+02  0.88457245153E+02  0.47000000000E+01 0.  1.
         -5    1    3    3    0  502 -0.88361789487E+02 -0.13836652507E+02  0.98290070064E+02  0.13297475951E+03  0.47000000000E+01 0.  1.
        -11    1    4    4    0    0 -0.82374076518E+01  0.14133604029E+02  0.34426365437E+02  0.38115459919E+02  0.00000000000E+00 0.  1.
         11    1    4    4    0    0  0.62868832156E+02 -0.32069665987E+02 -0.68058059850E+01  0.70903261760E+02  0.00000000000E+00 0. -1.
<mgrwt>
<rscale>  0 0.12874421E+03</rscale>
<asrwt>0</asrwt>
<pdfrwt beam="2">  1        3 0.99490792E-02 0.13759582E+03</pdfrwt>
<pdfrwt beam="1">  1       -3 0.40889494E-01 0.13759582E+03</pdfrwt>
<totfact> 0.10230167E+03</totfact>
</mgrwt>
</event>
<event>
 8    1  0.1550723E-005  0.2029498E+03  0.7546771E-02  0.1151245E+00
          2   -1    0    0  501    0  0.00000000000E+00  0.00000000000E+00  0.26203230158E+03  0.26203230158E+03  0.00000000000E+00 0. -1.
         -2   -1    0    0    0  501 -0.00000000000E+00 -0.00000000000E+00 -0.14464330086E+03  0.14464330086E+03  0.00000000000E+00 0.  1.
         23    2    1    2    0    0  0.60787611381E+02 -0.14788392755E+03  0.42389564357E+02  0.20732940834E+03  0.12499527460E+03 0.  0.
         23    2    1    2    0    0 -0.60787611381E+02  0.14788392755E+03  0.74999436359E+02  0.19934619410E+03  0.92461883621E+02 0.  0.
          5    1    3    3  502    0  0.58157476972E+01 -0.91489850822E+02 -0.33638337914E+02  0.97764224041E+02  0.47000000000E+01 0.  1.
         -5    1    3    3    0  502  0.54971863684E+02 -0.56394076731E+02  0.76027902271E+02  0.10956518430E+03  0.47000000000E+01 0.  1.
        -11    1    4    4    0    0 -0.68776963620E+02  0.10656577658E+03  0.89057557956E+02  0.15497672113E+03  0.00000000000E+00 0. -1.
         11    1    4    4    0    0  0.79893522398E+01  0.41318150969E+02 -0.14058121597E+02  0.44369472969E+02  0.00000000000E+00 0.  1.
<mgrwt>
<rscale>  0 0.19822480E+03</rscale>
<asrwt>0</asrwt>
<pdfrwt beam="1">  1        2 0.40312662E-01 0.20294977E+03</pdfrwt>
<pdfrwt beam="2">  1       -2 0.22252816E-01 0.20294977E+03</pdfrwt>
<totfact> 0.21862275E+03</totfact>
</mgrwt>
</event>
<event>
 8    1  0.1550723E-005  0.1708509E+03  0.7546771E-02  0.1183763E+00
          1   -1    0    0  501    0  0.00000000000E+00  0.00000000000E+00  0.74874866207E+03  0.74874866207E+03  0.00000000000E+00 0. -1.
         -1   -1    0    0    0  501 -0.00000000000E+00 -0.00000000000E+00 -0.33669182343E+02  0.33669182343E+02  0.00000000000E+00 0.  1.
         23    2    1    2    0    0  0.11629109578E+03  0.72259402800E+01  0.39185662719E+03  0.42748293284E+03  0.12495682627E+03 0.  0.
         23    2    1    2    0    0 -0.11629109578E+03 -0.72259402800E+01  0.32322285254E+03  0.35493491157E+03  0.89050243562E+02 0.  0.
          5    1    3    3  502    0 -0.25656101813E+02 -0.66935039368E+01  0.82832845172E+02  0.87099993080E+02  0.47000000000E+01 0.  1.
         -5    1    3    3    0  502  0.14194719759E+03  0.13919444217E+02  0.30902378202E+03  0.34038293976E+03  0.47000000000E+01 0.  1.
        -11    1    4    4    0    0 -0.72153667389E+02 -0.44047937545E+02  0.14699460135E+03  0.16956941158E+03  0.00000000000E+00 0.  1.
         11    1    4    4    0    0 -0.44137428388E+02  0.36821997265E+02  0.17622825120E+03  0.18536549999E+03  0.00000000000E+00 0. -1.
<mgrwt>
<rscale>  0 0.16444945E+03</rscale>
<asrwt>0</asrwt>
<pdfrwt beam="1">  1        1 0.11519209E+00 0.17085093E+03</pdfrwt>
<pdfrwt beam="2">  1       -1 0.51798748E-02 0.17085093E+03</pdfrwt>
<totfact> 0.41805276E+03</totfact>
</mgrwt>
</event>
<event>
 8    1  0.1550723E-005  0.1768985E+03  0.7546771E-02  0.1176765E+00
         -2   -1    0    0    0  501 -0.00000000000E+00  0.00000000000E+00  0.62711152767E+02  0.62711152767E+02  0.00000000000E+00 0.  1.
          2   -1    0    0  501    0  0.00000000000E+00 -0.00000000000E+00 -0.48361220527E+03  0.48361220527E+03  0.00000000000E+00 0. -1.
         23    2    1    2    0    0  0.39338366659E+02  0.11883375861E+03 -0.13965871595E+03  0.22538327227E+03  0.12499637276E+03 0.  0.
         23    2    1    2    0    0 -0.39338366659E+02 -0.11883375861E+03 -0.28124233655E+03  0.32094008576E+03  0.90754159714E+02 0.  0.
          5    1    3    3  502    0 -0.43401055276E+02  0.20383927062E+02 -0.36134352862E+02  0.60224061124E+02  0.47000000000E+01 0. -1.
         -5    1    3    3    0  502  0.82739421934E+02  0.98449831549E+02 -0.10352436309E+03  0.16515921115E+03  0.47000000000E+01 0. -1.
        -11    1    4    4    0    0 -0.27554826226E+02 -0.18491952228E+02 -0.15863816520E+03  0.16207186123E+03  0.00000000000E+00 0.  1.
         11    1    4    4    0    0 -0.11783540432E+02 -0.10034180638E+03 -0.12260417135E+03  0.15886822453E+03  0.00000000000E+00 0. -1.
<mgrwt>
<rscale>  0 0.17104279E+03</rscale>
<asrwt>0</asrwt>
<pdfrwt beam="2">  1        2 0.74401879E-01 0.17689845E+03</pdfrwt>
<pdfrwt beam="1">  1       -2 0.96478695E-02 0.17689845E+03</pdfrwt>
<totfact> 0.44429191E+03</totfact>
</mgrwt>
</event>
<event>
 8    1  0.1550723E-005  0.1683286E+03  0.7546771E-02  0.1184916E+00
         -2   -1    0    0    0  501 -0.00000000000E+00  0.00000000000E+00  0.94205766982E+03  0.94205766982E+03  0.00000000000E+00 0. -1.
          2   -1    0    0  501    0  0.00000000000E+00 -0.00000000000E+00 -0.35513098261E+02  0.35513098261E+02  0.00000000000E+00 0.  1.
         23    2    1    2    0    0  0.11273162819E+03 -0.11683421788E+01  0.71540709845E+03  0.73494343147E+03  0.12499898376E+03 0.  0.
         23    2    1    2    0    0 -0.11273162819E+03  0.11683421788E+01  0.19113747311E+03  0.24262733660E+03  0.98105585080E+02 0.  0.
          5    1    3    3  502    0  0.12892195302E+03  0.21224968881E+02  0.46687754625E+03  0.48483822299E+03  0.47000000000E+01 0.  1.
         -5    1    3    3    0  502 -0.16190324831E+02 -0.22393311060E+02  0.24852955219E+03  0.25010520848E+03  0.47000000000E+01 0.  1.
        -11    1    4    4    0    0 -0.81308653694E+02  0.27561052741E+02  0.58761461666E+02  0.10403661937E+03  0.00000000000E+00 0.  1.
         11    1    4    4    0    0 -0.31422974492E+02 -0.26392710562E+02  0.13237601144E+03  0.13859071723E+03  0.00000000000E+00 0. -1.
<mgrwt>
<rscale>  0 0.16339566E+03</rscale>
<asrwt>0</asrwt>
<pdfrwt beam="2">  1        2 0.54635543E-02 0.16832864E+03</pdfrwt>
<pdfrwt beam="1">  1       -2 0.14493193E+00 0.16832864E+03</pdfrwt>
<totfact> 0.47835986E+02</totfact>
</mgrwt>
</event>
<event>
 8    1  0.1550723E-005  0.1290267E+03  0.7546771E-02  0.1242863E+00
         -2   -1    0    0    0  501 -0.00000000000E+00  0.00000000000E+00  0.26952966451E+02  0.26952966451E+02  0.00000000000E+00 0.  1.
          2   -1    0    0  501    0  0.00000000000E+00 -0.00000000000E+00 -0.56865853438E+03  0.56865853438E+03  0.00000000000E+00 0. -1.
         23    2    1    2    0    0  0.10835265578E+02  0.30078421705E+02 -0.18225058942E+03  0.22330063323E+03  0.12500312406E+03 0.  0.
         23    2    1    2    0    0 -0.10835265578E+02 -0.30078421705E+02 -0.35945497851E+03  0.37231086760E+03  0.91571753984E+02 0.  0.
          5    1    3    3  502    0  0.97272087331E+01 -0.26641645311E+02 -0.15938132772E+03  0.16195336823E+03  0.47000000000E+01 0. -1.
         -5    1    3    3    0  502  0.11080568449E+01  0.56720067016E+02 -0.22869261700E+02  0.61347265000E+02  0.47000000000E+01 0. -1.
        -11    1    4    4    0    0  0.10518023732E+02  0.20690450696E+02 -0.28270449567E+02  0.36577888019E+02  0.00000000000E+00 0.  1.
         11    1    4    4    0    0 -0.21353289310E+02 -0.50768872401E+02 -0.33118452894E+03  0.33573297958E+03  0.00000000000E+00 0. -1.
<mgrwt>
<rscale>  0 0.12014177E+03</rscale>
<asrwt>0</asrwt>
<pdfrwt beam="2">  1        2 0.87485920E-01 0.12902672E+03</pdfrwt>
<pdfrwt beam="1">  1       -2 0.41466106E-02 0.12902672E+03</pdfrwt>
<totfact> 0.13225016E+04</totfact>
</mgrwt>
</event>
<event>
 8    1  0.1550723E-005  0.1267337E+03  0.7546771E-02  0.1247204E+00
          1   -1    0    0  501    0  0.00000000000E+00  0.00000000000E+00  0.10711578670E+03  0.10711578670E+03  0.00000000000E+00 0. -1.
         -1   -1    0    0    0  501 -0.00000000000E+00 -0.00000000000E+00 -0.13077297613E+03  0.13077297613E+03  0.00000000000E+00 0.  1.
         23    2    1    2    0    0 -0.41541096587E+01 -0.20473589009E+02 -0.56175910850E+02  0.13862602255E+03  0.12500006678E+03 0.  0.
         23    2    1    2    0    0  0.41541096587E+01  0.20473589009E+02  0.32518721418E+02  0.99262740281E+02  0.91428660120E+02 0.  0.
          5    1    3    3  502    0 -0.16722438083E+00 -0.70444989641E+02 -0.11940496843E+02  0.71604399267E+02  0.47000000000E+01 0.  1.
         -5    1    3    3    0  502 -0.39868852779E+01  0.49971400632E+02 -0.44235414008E+02  0.67021623285E+02  0.47000000000E+01 0.  1.
        -11    1    4    4    0    0  0.32131813495E+02 -0.12195749616E+02 -0.12899918102E+02  0.36709639527E+02  0.00000000000E+00 0.  1.
         11    1    4    4    0    0 -0.27977703836E+02  0.32669338625E+02  0.45418639519E+02  0.62553100754E+02  0.00000000000E+00 0. -1.
<mgrwt>
<rscale>  0 0.11754456E+03</rscale>
<asrwt>0</asrwt>
<pdfrwt beam="1">  1        1 0.16479352E-01 0.12673374E+03</pdfrwt>
<pdfrwt beam="2">  1       -1 0.20118919E-01 0.12673374E+03</pdfrwt>
<totfact> 0.62113575E+03</totfact>
</mgrwt>
</event>
<event>
 8    1  0.1550723E-005  0.1595932E+03  0.7546771E-02  0.1197188E+00
          1   -1    0    0  501    0  0.00000000000E+00  0.00000000000E+00  0.78945343532E+02  0.78945343532E+02  0.00000000000E+00 0. -1.
         -1   -1    0    0    0  501 -0.00000000000E+00 -0.00000000000E+00 -0.27256144789E+03  0.27256144789E+03  0.00000000000E+00 0.  1.
         23    2    1    2    0    0  0.13708810561E+02 -0.98269842197E+02 -0.10677132209E+03  0.19201587993E+03  0.12500035822E+03 0.  0.
         23    2    1    2    0    0 -0.13708810561E+02  0.98269842197E+02 -0.86844782269E+02  0.15949091149E+03  0.89724251273E+02 0.  0.
          5    1    3    3  502    0 -0.90100346315E+01 -0.71318475791E+02  0.74156953971E+01  0.72419529489E+02  0.47000000000E+01 0.  1.
         -5    1    3    3    0  502  0.22718845192E+02 -0.26951366406E+02 -0.11418701748E+03  0.11959635044E+03  0.47000000000E+01 0.  1.
        -11    1    4    4    0    0  0.35932796476E+02  0.26043594919E+02 -0.17383108401E+02  0.47661380137E+02  0.00000000000E+00 0.  1.
         11    1    4    4    0    0 -0.49641607037E+02  0.72226247278E+02 -0.69461673868E+02  0.11182953135E+03  0.00000000000E+00 0. -1.
<mgrwt>
<rscale>  0 0.15270499E+03</rscale>
<asrwt>0</asrwt>
<pdfrwt beam="1">  1        1 0.12145438E-01 0.15959318E+03</pdfrwt>
<pdfrwt beam="2">  1       -1 0.41932530E-01 0.15959318E+03</pdfrwt>
<totfact> 0.27280743E+03</totfact>
</mgrwt>
</event>
<event>
 8    1  0.1550723E-005  0.1519873E+03  0.7546771E-02  0.1206168E+00
         -2   -1    0    0    0  501 -0.00000000000E+00  0.00000000000E+00  0.42177151617E+02  0.42177151617E+02  0.00000000000E+00 0.  1.
          2   -1    0    0  501    0  0.00000000000E+00 -0.00000000000E+00 -0.49359467636E+03  0.49359467636E+03  0.00000000000E+00 0. -1.
         23    2    1    2    0    0  0.25852690739E+02 -0.82506280802E+02 -0.31068445945E+03  0.34586842977E+03  0.12499795749E+03 0.  0.
         23    2    1    2    0    0 -0.25852690739E+02  0.82506280802E+02 -0.14073306529E+03  0.18990339821E+03  0.93711562757E+02 0.  0.
          5    1    3    3  502    0 -0.27148854524E+02  0.16957972858E+02 -0.12030765093E+03  0.12458191690E+03  0.47000000000E+01 0.  1.
         -5    1    3    3    0  502  0.53001545263E+02 -0.99464253660E+02 -0.19037680852E+03  0.22128651287E+03  0.47000000000E+01 0.  1.
        -11    1    4    4    0    0 -0.23461875048E+02  0.22441184573E+02  0.44478081241E+01  0.32769640567E+02  0.00000000000E+00 0.  1.
         11    1    4    4    0    0 -0.23908156913E+01  0.60065096229E+02 -0.14518087341E+03  0.15713375764E+03  0.00000000000E+00 0. -1.
<mgrwt>
<rscale>  0 0.14545786E+03</rscale>
<asrwt>0</asrwt>
<pdfrwt beam="2">  1        2 0.75937646E-01 0.15198729E+03</pdfrwt>
<pdfrwt beam="1">  1       -2 0.64887922E-02 0.15198729E+03</pdfrwt>
<totfact> 0.79731016E+03</totfact>
</mgrwt>
</event>
<event>
 8    1  0.1550723E-005  0.1298299E+03  0.7546771E-02  0.1241535E+00
         -3   -1    0    0    0  501 -0.00000000000E+00  0.00000000000E+00  0.29347112798E+02  0.29347112798E+02  0.00000000000E+00 0.  1.
          3   -1    0    0  501    0  0.00000000000E+00 -0.00000000000E+00 -0.45374229836E+03  0.45374229836E+03  0.00000000000E+00 0. -1.
         23    2    1    2    0    0  0.25642515487E+02  0.24074265782E+02 -0.20177623817E+03  0.23993633203E+03  0.12497473449E+03 0.  0.
         23    2    1    2    0    0 -0.25642515487E+02 -0.24074265782E+02 -0.22261894739E+03  0.24315307914E+03  0.91253028889E+02 0.  0.
          5    1    3    3  502    0 -0.37522803318E+00  0.46736329506E+02 -0.19959273924E+03  0.20504579208E+03  0.47000000000E+01 0.  1.
         -5    1    3    3    0  502  0.26017743520E+02 -0.22662063723E+02 -0.21834989299E+01  0.34890539945E+02  0.47000000000E+01 0.  1.
        -11    1    4    4    0    0 -0.59877216143E+02 -0.20796409422E+02 -0.14197369306E+03  0.15548087078E+03  0.00000000000E+00 0. -1.
         11    1    4    4    0    0  0.34234700656E+02 -0.32778563609E+01 -0.80645254331E+02  0.87672208353E+02  0.00000000000E+00 0.  1.
<mgrwt>
<rscale>  0 0.12095175E+03</rscale>
<asrwt>0</asrwt>
<pdfrwt beam="2">  1        3 0.69806508E-01 0.12982986E+03</pdfrwt>
<pdfrwt beam="1">  1       -3 0.45149404E-02 0.12982986E+03</pdfrwt>
<totfact> 0.12283673E+03</totfact>
</mgrwt>
</event>
<event>
 8    1  0.1550723E-005  0.1392196E+03  0.7546771E-02  0.1225836E+00
          2   -1    0    0  501    0  0.00000000000E+00  0.00000000000E+00  0.23536479597E+03  0.23536479597E+03  0.00000000000E+00 0.  1.
         -2   -1    0    0    0  501 -0.00000000000E+00 -0.00000000000E+00 -0.65691497641E+02  0.65691497641E+02  0.00000000000E+00 0. -1.
         23    2    1    2    0    0 -0.54963577666E+02 -0.27000161786E+02  0.94188854921E+02  0.16808818551E+03  0.12502837322E+03 0.  0.
         23    2    1    2    0    0  0.54963577666E+02  0.27000161786E+02  0.75484443405E+02  0.13296810810E+03  0.90733747684E+02 0.  0.
          5    1    3    3  502    0  0.10508141323E+02 -0.28288011867E+02  0.97679523596E+02  0.10234262054E+03  0.47000000000E+01 0.  1.
         -5    1    3    3    0  502 -0.65471718989E+02  0.12878500809E+01 -0.34906686748E+01  0.65745564968E+02  0.47000000000E+01 0.  1.
        -11    1    4    4    0    0  0.20961912017E+01 -0.30611271020E+02  0.27659484709E+02  0.41309696505E+02  0.00000000000E+00 0. -1.
         11    1    4    4    0    0  0.52867386464E+02  0.57611432805E+02  0.47824958696E+02  0.91658411593E+02  0.00000000000E+00 0.  1.
<mgrwt>
<rscale>  0 0.13109745E+03</rscale>
<asrwt>0</asrwt>
<pdfrwt beam="1">  1        2 0.36209968E-01 0.13921960E+03</pdfrwt>
<pdfrwt beam="2">  1       -2 0.10106384E-01 0.13921960E+03</pdfrwt>
<totfact> 0.88152764E+03</totfact>
</mgrwt>
</event>
<event>
 8    1  0.1550723E-005  0.1621837E+03  0.7546771E-02  0.1193453E+00
          2   -1    0    0  501    0  0.00000000000E+00  0.00000000000E+00  0.38816217830E+02  0.38816217830E+02  0.00000000000E+00 0. -1.
         -2   -1    0    0    0  501 -0.00000000000E+00 -0.00000000000E+00 -0.65274896900E+03  0.65274896900E+03  0.00000000000E+00 0.  1.
         23    2    1    2    0    0 -0.10332970016E+03  0.48925691588E+00 -0.44250018789E+03  0.47128543679E+03  0.12500512124E+03 0.  0.
         23    2    1    2    0    0  0.10332970016E+03 -0.48925691588E+00 -0.17143256327E+03  0.22027975004E+03  0.91960742819E+02 0.  0.
          5    1    3    3  502    0 -0.26621951456E+02  0.52810674290E+02 -0.98906187282E+02  0.11533524830E+03  0.47000000000E+01 0. -1.
         -5    1    3    3    0  502 -0.76707748701E+02 -0.52321417374E+02 -0.34359400061E+03  0.35595018849E+03  0.47000000000E+01 0. -1.
        -11    1    4    4    0    0 -0.81384106118E+01 -0.21505772034E+02 -0.44208459104E+02  0.49830912237E+02  0.00000000000E+00 0.  1.
         11    1    4    4    0    0  0.11146811077E+03  0.21016515118E+02 -0.12722410417E+03  0.17044883780E+03  0.00000000000E+00 0. -1.
<mgrwt>
<rscale>  0 0.15585876E+03</rscale>
<asrwt>0</asrwt>
<pdfrwt beam="1">  1        2 0.59717260E-02 0.16218368E+03</pdfrwt>
<pdfrwt beam="2">  1       -2 0.10042291E+00 0.16218368E+03</pdfrwt>
<totfact> 0.10337756E+03</totfact>
</mgrwt>
</event>
<event>
 8    1  0.1550723E-005  0.1329245E+03  0.7546771E-02  0.1234640E+00
          1   -1    0    0  501    0  0.00000000000E+00  0.00000000000E+00  0.13748020565E+03  0.13748020565E+03  0.00000000000E+00 0. -1.
         -1   -1    0    0    0  501 -0.00000000000E+00 -0.00000000000E+00 -0.10592626514E+03  0.10592626514E+03  0.00000000000E+00 0.  1.
         23    2    1    2    0    0  0.24056353130E+02 -0.38304579572E+02 -0.31017968270E+01  0.13296071005E+03  0.12499192107E+03 0.  0.
         23    2    1    2    0    0 -0.24056353130E+02  0.38304579572E+02  0.34655737338E+02  0.11044576073E+03  0.94611294203E+02 0.  0.
          5    1    3    3  502    0  0.54011333750E+01  0.67226801427E+01 -0.58330592048E+02  0.59151624142E+02  0.47000000000E+01 0.  1.
         -5    1    3    3    0  502  0.18655219755E+02 -0.45027259715E+02  0.55228795221E+02  0.73809085911E+02  0.47000000000E+01 0.  1.
        -11    1    4    4    0    0 -0.47294556245E+02 -0.33532391433E+01 -0.59720583961E+01  0.47787914211E+02  0.00000000000E+00 0.  1.
         11    1    4    4    0    0  0.23238203116E+02  0.41657818716E+02  0.40627795734E+02  0.62657846519E+02  0.00000000000E+00 0. -1.
<mgrwt>
<rscale>  0 0.12527498E+03</rscale>
<asrwt>0</asrwt>
<pdfrwt beam="1">  1        1 0.21150801E-01 0.13292452E+03</pdfrwt>
<pdfrwt beam="2">  1       -1 0.16296349E-01 0.13292452E+03</pdfrwt>
<totfact> 0.63376027E+03</totfact>
</mgrwt>
</event>
<event>
 8    1  0.1550723E-005  0.1277323E+03  0.7546771E-02  0.1245052E+00
          2   -1    0    0  501    0  0.00000000000E+00  0.00000000000E+00  0.46983343318E+02  0.46983343318E+02  0.00000000000E+00 0. -1.
         -2   -1    0    0    0  501 -0.00000000000E+00 -0.00000000000E+00 -0.28215825442E+03  0.28215825442E+03  0.00000000000E+00 0.  1.
         23    2    1    2    0    0 -0.66633900250E+01  0.24463268370E+02 -0.17304600010E+03  0.21508247120E+03  0.12519065063E+03 0.  0.
         23    2    1    2    0    0  0.66633900250E+01 -0.24463268370E+02 -0.62128911005E+02  0.11405912653E+03  0.92231396481E+02 0.  0.
          5    1    3    3  502    0 -0.21151902707E+02  0.59466492585E+02 -0.35987131577E+02  0.72806801658E+02  0.47000000000E+01 0.  1.
         -5    1    3    3    0  502  0.14488512682E+02 -0.35003224215E+02 -0.13705886852E+03  0.14227566955E+03  0.47000000000E+01 0.  1.
        -11    1    4    4    0    0  0.48925915747E+02 -0.90463494144E+01 -0.40440810469E+02  0.64117398737E+02  0.00000000000E+00 0.  1.
         11    1    4    4    0    0 -0.42262525722E+02 -0.15416918956E+02 -0.21688100537E+02  0.49941727797E+02  0.00000000000E+00 0. -1.
<mgrwt>
<rscale>  0 0.11882292E+03</rscale>
<asrwt>0</asrwt>
<pdfrwt beam="1">  1        2 0.72282067E-02 0.12773234E+03</pdfrwt>
<pdfrwt beam="2">  1       -2 0.43408962E-01 0.12773234E+03</pdfrwt>
<totfact> 0.46627734E+03</totfact>
</mgrwt>
</event>
<event>
 8    1  0.1550723E-005  0.1268825E+03  0.7546771E-02  0.1241186E+00
         -2   -1    0    0    0  501 -0.00000000000E+00  0.00000000000E+00  0.82722248966E+02  0.82722248966E+02  0.00000000000E+00 0.  1.
          2   -1    0    0  501    0  0.00000000000E+00 -0.00000000000E+00 -0.17735961164E+03  0.17735961164E+03  0.00000000000E+00 0. -1.
         23    2    1    2    0    0 -0.81212238891E+01 -0.18365416471E+02 -0.14753636293E+02  0.12773741363E+03  0.12528341573E+03 0.  0.
         23    2    1    2    0    0  0.81212238891E+01  0.18365416471E+02 -0.79883726383E+02  0.13234444698E+03  0.10358764456E+03 0.  0.
          5    1    3    3  502    0 -0.29882167233E+02  0.42234126543E+02 -0.31871429850E+02  0.60947054105E+02  0.47000000000E+01 0. -1.
         -5    1    3    3    0  502  0.21760943344E+02 -0.60599543015E+02  0.17117793557E+02  0.66790359522E+02  0.47000000000E+01 0. -1.
        -11    1    4    4    0    0 -0.25061591609E+02  0.58191679955E+01  0.15870820694E+02  0.30229605350E+02  0.00000000000E+00 0.  1.
         11    1    4    4    0    0  0.33182815498E+02  0.12546248476E+02 -0.95754547077E+02  0.10211484163E+03  0.00000000000E+00 0. -1.
<mgrwt>
<rscale>  0 0.12116607E+03</rscale>
<asrwt>0</asrwt>
<pdfrwt beam="2">  1        2 0.27286094E-01 0.12688253E+03</pdfrwt>
<pdfrwt beam="1">  1       -2 0.12726500E-01 0.12688253E+03</pdfrwt>
<totfact> 0.82388128E+03</totfact>
</mgrwt>
</event>
<event>
 8    1  0.1550723E-005  0.1964298E+03  0.7546771E-02  0.1157095E+00
         -1   -1    0    0    0  501 -0.00000000000E+00  0.00000000000E+00  0.85226169517E+02  0.85226169517E+02  0.00000000000E+00 0.  1.
          1   -1    0    0  501    0  0.00000000000E+00 -0.00000000000E+00 -0.41196594678E+03  0.41196594678E+03  0.00000000000E+00 0. -1.
         23    2    1    2    0    0 -0.10648383260E+03 -0.10780494817E+03 -0.15536180025E+03  0.25044350781E+03  0.12499579263E+03 0.  0.
         23    2    1    2    0    0  0.10648383260E+03  0.10780494817E+03 -0.17137797701E+03  0.24674860848E+03  0.92486492683E+02 0.  0.
          5    1    3    3  502    0 -0.22948209813E+02  0.93280716959E+00  0.17857909334E+02  0.29470076156E+02  0.47000000000E+01 0. -1.
         -5    1    3    3    0  502 -0.83535622783E+02 -0.10873775534E+03 -0.17321970959E+03  0.22097343166E+03  0.47000000000E+01 0. -1.
        -11    1    4    4    0    0  0.71352804021E+02  0.21391438389E+02 -0.37016879760E+02  0.83180921281E+02  0.00000000000E+00 0.  1.
         11    1    4    4    0    0  0.35131028575E+02  0.86413509782E+02 -0.13436109725E+03  0.16356768720E+03  0.00000000000E+00 0. -1.
<mgrwt>
<rscale>  0 0.19152226E+03</rscale>
<asrwt>0</asrwt>
<pdfrwt beam="2">  1        1 0.63379377E-01 0.19642979E+03</pdfrwt>
<pdfrwt beam="1">  1       -1 0.13111718E-01 0.19642979E+03</pdfrwt>
<totfact> 0.22968266E+03</totfact>
</mgrwt>
</event>
<event>
 8    1  0.1550723E-005  0.1264456E+03  0.7546771E-02  0.1248738E+00
          2   -1    0    0  501    0  0.00000000000E+00  0.00000000000E+00  0.11866794458E+03  0.11866794458E+03  0.00000000000E+00 0. -1.
         -2   -1    0    0    0  501 -0.00000000000E+00 -0.00000000000E+00 -0.13912911596E+03  0.13912911596E+03  0.00000000000E+00 0.  1.
         23    2    1    2    0    0  0.18868909590E+02 -0.24650067503E+01 -0.79020316634E+02  0.14910630176E+03  0.12500546698E+03 0.  0.
         23    2    1    2    0    0 -0.18868909590E+02  0.24650067503E+01  0.58559145250E+02  0.10869075878E+03  0.89567826504E+02 0.  0.
          5    1    3    3  502    0 -0.44579830619E+02 -0.99521075755E+01 -0.70985877736E+02  0.84542832819E+02  0.47000000000E+01 0.  1.
         -5    1    3    3    0  502  0.63448740209E+02  0.74871008252E+01 -0.80344388989E+01  0.64563468938E+02  0.47000000000E+01 0.  1.
        -11    1    4    4    0    0 -0.34588242716E+02  0.20486232058E+02 -0.52560813758E+01  0.40542060006E+02  0.00000000000E+00 0.  1.
         11    1    4    4    0    0  0.15719333126E+02 -0.18021225308E+02  0.63815226626E+02  0.68148698776E+02  0.00000000000E+00 0. -1.
<mgrwt>
<rscale>  0 0.11664399E+03</rscale>
<asrwt>0</asrwt>
<pdfrwt beam="1">  1        2 0.18256607E-01 0.12644556E+03</pdfrwt>
<pdfrwt beam="2">  1       -2 0.21404479E-01 0.12644556E+03</pdfrwt>
<totfact> 0.54648536E+03</totfact>
</mgrwt>
</event>
<event>
 8    1  0.1550723E-005  0.1616585E+03  0.7546771E-02  0.1194141E+00
         -1   -1    0    0    0  501 -0.00000000000E+00  0.00000000000E+00  0.22956152386E+03  0.22956152386E+03  0.00000000000E+00 0.  1.
          1   -1    0    0  501    0  0.00000000000E+00 -0.00000000000E+00 -0.11534380996E+03  0.11534380996E+03  0.00000000000E+00 0. -1.
         23    2    1    2    0    0  0.35718647037E+02  0.96091320924E+02  0.12859843269E+03  0.20656965161E+03  0.12499640144E+03 0.  0.
         23    2    1    2    0    0 -0.35718647037E+02 -0.96091320924E+02 -0.14380718788E+02  0.13833568221E+03  0.91763784775E+02 0.  0.
          5    1    3    3  502    0 -0.21125404395E+02  0.37121794936E+02  0.11582671592E+03  0.12354039214E+03  0.47000000000E+01 0. -1.
         -5    1    3    3    0  502  0.56844051432E+02  0.58969525988E+02  0.12771716773E+02  0.83029259468E+02  0.47000000000E+01 0. -1.
        -11    1    4    4    0    0  0.15295652760E+02 -0.76027474887E+02  0.10274131584E+02  0.78228458446E+02  0.00000000000E+00 0.  1.
         11    1    4    4    0    0 -0.51014299797E+02 -0.20063846037E+02 -0.24654850372E+02  0.60107223762E+02  0.00000000000E+00 0. -1.
<mgrwt>
<rscale>  0 0.15527179E+03</rscale>
<asrwt>0</asrwt>
<pdfrwt beam="2">  1        1 0.17745202E-01 0.16165848E+03</pdfrwt>
<pdfrwt beam="1">  1       -1 0.35317157E-01 0.16165848E+03</pdfrwt>
<totfact> 0.22493933E+03</totfact>
</mgrwt>
</event>
<event>
 8    1  0.1807762E-005  0.2003543E+03  0.7546771E-02  0.1153902E+00
         -1   -1    0    0    0  501 -0.00000000000E+00  0.00000000000E+00  0.19033892644E+02  0.19033892644E+02  0.00000000000E+00 0.  1.
          1   -1    0    0  501    0  0.00000000000E+00 -0.00000000000E+00 -0.19172908448E+04  0.19172908448E+04  0.00000000000E+00 0. -1.
         23    2    1    2    0    0  0.15161743177E+03 -0.39102658391E+02 -0.10813512995E+04  0.10997556521E+04  0.12499999147E+03 0.  0.
         23    2    1    2    0    0 -0.15161743177E+03  0.39102658391E+02 -0.81690565270E+03  0.83656908539E+03  0.89421058571E+02 0.  0.
          5    1    3    3  502    0  0.17391626335E+02  0.35640999578E+02 -0.36013479189E+03  0.36234225236E+03  0.47000000000E+01 0. -1.
         -5    1    3    3    0  502  0.13422580544E+03 -0.74743657969E+02 -0.72121650758E+03  0.73741339970E+03  0.47000000000E+01 0. -1.
        -11    1    4    4    0    0 -0.40894220569E+02 -0.29132776220E+02 -0.21941862256E+03  0.22509017716E+03  0.00000000000E+00 0.  1.
         11    1    4    4    0    0 -0.11072321120E+03  0.68235434611E+02 -0.59748703013E+03  0.61147890823E+03  0.00000000000E+00 0. -1.
<mgrwt>
<rscale>  0 0.19514444E+03</rscale>
<asrwt>0</asrwt>
<pdfrwt beam="2">  1        1 0.29496780E+00 0.20035434E+03</pdfrwt>
<pdfrwt beam="1">  1       -1 0.29282914E-02 0.20035434E+03</pdfrwt>
<totfact> 0.14980373E+03</totfact>
</mgrwt>
</event>
<event>
 8    1  0.1550723E-005  0.1857297E+03  0.7546771E-02  0.1165762E+00
          1   -1    0    0  501    0  0.00000000000E+00  0.00000000000E+00  0.68339180063E+02  0.68339180063E+02  0.00000000000E+00 0. -1.
         -1   -1    0    0    0  501 -0.00000000000E+00 -0.00000000000E+00 -0.49622489973E+03  0.49622489973E+03  0.00000000000E+00 0.  1.
         23    2    1    2    0    0 -0.13570724079E+03 -0.21300404582E+02 -0.28978358320E+03  0.34419476999E+03  0.12500140863E+03 0.  0.
         23    2    1    2    0    0  0.13570724079E+03  0.21300404582E+02 -0.13810213647E+03  0.22036930981E+03  0.10305469503E+03 0.  0.
          5    1    3    3  502    0 -0.46572010745E+02 -0.66306679974E+02 -0.92712655629E+02  0.12322034941E+03  0.47000000000E+01 0. -1.
         -5    1    3    3    0  502 -0.89135230043E+02  0.45006275392E+02 -0.19707092757E+03  0.22097442058E+03  0.47000000000E+01 0. -1.
        -11    1    4    4    0    0  0.92415563267E+02  0.14932521992E+01 -0.22179547854E+02  0.95051556952E+02  0.00000000000E+00 0. -1.
         11    1    4    4    0    0  0.43291677522E+02  0.19807152383E+02 -0.11592258862E+03  0.12531775285E+03  0.00000000000E+00 0.  1.
<mgrwt>
<rscale>  0 0.18212566E+03</rscale>
<asrwt>0</asrwt>
<pdfrwt beam="1">  1        1 0.10513720E-01 0.18572968E+03</pdfrwt>
<pdfrwt beam="2">  1       -1 0.76342291E-01 0.18572968E+03</pdfrwt>
<totfact> 0.10690008E+03</totfact>
</mgrwt>
</event>
<event>
 8    1  0.1550723E-005  0.1736380E+03  0.7546771E-02  0.1179980E+00
          2   -1    0    0  501    0  0.00000000000E+00  0.00000000000E+00  0.42384231763E+02  0.42384231763E+02  0.00000000000E+00 0.  1.
         -2   -1    0    0    0  501 -0.00000000000E+00 -0.00000000000E+00 -0.64676171088E+03  0.64676171088E+03  0.00000000000E+00 0. -1.
         23    2    1    2    0    0  0.23240949798E+02 -0.11824397476E+03 -0.38362701980E+03  0.42109362838E+03  0.12501349616E+03 0.  0.
         23    2    1    2    0    0 -0.23240949798E+02  0.11824397476E+03 -0.22075045932E+03  0.26805231427E+03  0.92733481440E+02 0.  0.
          5    1    3    3  502    0  0.20702824248E+02  0.23508559711E+02 -0.64410211654E+02  0.71777605677E+02  0.47000000000E+01 0.  1.
         -5    1    3    3    0  502  0.25381255491E+01 -0.14175253447E+03 -0.31921680815E+03  0.34931602270E+03  0.47000000000E+01 0.  1.
        -11    1    4    4    0    0  0.11723516496E+02  0.56191215099E+02 -0.17307002380E+03  0.18234068836E+03  0.00000000000E+00 0. -1.
         11    1    4    4    0    0 -0.34964466294E+02  0.62052759663E+02 -0.47680435525E+02  0.85711625914E+02  0.00000000000E+00 0.  1.
<mgrwt>
<rscale>  0 0.16797129E+03</rscale>
<asrwt>0</asrwt>
<pdfrwt beam="1">  1        2 0.65206521E-02 0.17363800E+03</pdfrwt>
<pdfrwt beam="2">  1       -2 0.99501786E-01 0.17363800E+03</pdfrwt>
<totfact> 0.94529424E+02</totfact>
</mgrwt>
</event>
<event>
 8    1  0.1550723E-005  0.1305931E+03  0.7546771E-02  0.1238942E+00
         -1   -1    0    0    0  501 -0.00000000000E+00  0.00000000000E+00  0.41334105518E+03  0.41334105518E+03  0.00000000000E+00 0.  1.
          1   -1    0    0  501    0  0.00000000000E+00 -0.00000000000E+00 -0.38085586846E+02  0.38085586846E+02  0.00000000000E+00 0. -1.
         23    2    1    2    0    0 -0.32501261096E+02  0.19283640346E+02  0.29356947684E+03  0.32130606998E+03  0.12500544834E+03 0.  0.
         23    2    1    2    0    0  0.32501261096E+02 -0.19283640346E+02  0.81685991497E+02  0.13012057205E+03  0.93971119532E+02 0.  0.
          5    1    3    3  502    0 -0.34446040118E+02  0.12431052359E+02  0.30489660423E+03  0.30712390010E+03  0.47000000000E+01 0.  1.
         -5    1    3    3    0  502  0.19447790226E+01  0.68525879869E+01 -0.11327127389E+02  0.14182169878E+02  0.47000000000E+01 0.  1.
        -11    1    4    4    0    0  0.58297258859E+02 -0.24165935143E+02  0.82481558252E+02  0.10385456304E+03  0.00000000000E+00 0.  1.
         11    1    4    4    0    0 -0.25795997763E+02  0.48822947964E+01 -0.79556675491E+00  0.26266009014E+02  0.00000000000E+00 0. -1.
<mgrwt>
<rscale>  0 0.12255386E+03</rscale>
<asrwt>0</asrwt>
<pdfrwt beam="2">  1        1 0.58593213E-02 0.13059308E+03</pdfrwt>
<pdfrwt beam="1">  1       -1 0.63590929E-01 0.13059308E+03</pdfrwt>
<totfact> 0.33253821E+03</totfact>
</mgrwt>
</event>
<event>
 8    1  0.1550723E-005  0.1170433E+03  0.7546771E-02  0.1258736E+00
         -3   -1    0    0    0  501 -0.00000000000E+00  0.00000000000E+00  0.67868107168E+02  0.67868107168E+02  0.00000000000E+00 0.  1.
          3   -1    0    0  501    0  0.00000000000E+00 -0.00000000000E+00 -0.18698176967E+03  0.18698176967E+03  0.00000000000E+00 0. -1.
         23    2    1    2    0    0  0.17724443945E+02 -0.19218015746E+02 -0.21742236068E+02  0.11904562926E+03  0.11408614716E+03 0.  0.
         23    2    1    2    0    0 -0.17724443945E+02  0.19218015746E+02 -0.97371426431E+02  0.13580424757E+03  0.90984124613E+02 0.  0.
          5    1    3    3  502    0 -0.35664034169E+02 -0.24758228951E+02  0.22686090781E+02  0.49210181354E+02  0.47000000000E+01 0. -1.
         -5    1    3    3    0  502  0.53388478114E+02  0.55402132049E+01 -0.44428326849E+02  0.69835447906E+02  0.47000000000E+01 0.  1.
        -11    1    4    4    0    0  0.13451916357E+02 -0.26201429668E+01  0.13100246944E+02  0.18958788801E+02  0.00000000000E+00 0.  1.
         11    1    4    4    0    0 -0.31176360301E+02  0.21838158713E+02 -0.11047167337E+03  0.11684545877E+03  0.00000000000E+00 0. -1.
<mgrwt>
<rscale>  0 0.11099621E+03</rscale>
<asrwt>0</asrwt>
<pdfrwt beam="2">  1        3 0.28766426E-01 0.11704331E+03</pdfrwt>
<pdfrwt beam="1">  1       -3 0.10441247E-01 0.11704331E+03</pdfrwt>
<totfact> 0.17812942E+03</totfact>
</mgrwt>
</event>
<event>
 7    1  0.1550723E-005  0.3311176E+03  0.7546771E-02  0.1070643E+00
          1   -1    0    0  501    0  0.00000000000E+00  0.00000000000E+00  0.96553065691E+03  0.96553065691E+03  0.00000000000E+00 0. -1.
         -1   -1    0    0    0  501 -0.00000000000E+00 -0.00000000000E+00 -0.28388244771E+02  0.28388244771E+02  0.00000000000E+00 0.  1.
         23    2    1    2    0    0  0.84209478564E+02  0.20703245857E+02  0.54159316118E+03  0.55617685935E+03  0.92139491912E+02 0.  0.
          5    1    1    2  502    0 -0.12646748758E+03 -0.20613642582E+02  0.19962767844E+03  0.23725987371E+03  0.47000000000E+01 0. -1.
         -5    1    1    2    0  502  0.42258009018E+02 -0.89603275463E-01  0.19592157253E+03  0.20048216862E+03  0.47000000000E+01 0.  1.
        -11    1    3    3    0    0  0.14097463665E+02 -0.30925359602E+02  0.88670278437E+02  0.94960700431E+02  0.00000000000E+00 0. -1.
         11    1    3    3    0    0  0.70112014900E+02  0.51628605459E+02  0.45292288274E+03  0.46121615892E+03  0.00000000000E+00 0.  1.
<mgrwt>
<rscale>  0 0.33111763E+03</rscale>
<asrwt>0</asrwt>
<pdfrwt beam="1">  1        1 0.14854315E+00 0.33111763E+03</pdfrwt>
<pdfrwt beam="2">  1       -1 0.43674230E-02 0.33111763E+03</pdfrwt>
<totfact> 0.36717690E+03</totfact>
</mgrwt>
</event>
<event>
 8    1  0.1550723E-005  0.1954797E+03  0.7546771E-02  0.1158276E+00
         -2   -1    0    0    0  501 -0.00000000000E+00  0.00000000000E+00  0.63840778091E+02  0.63840778091E+02  0.00000000000E+00 0.  1.
          2   -1    0    0  501    0  0.00000000000E+00 -0.00000000000E+00 -0.67365675168E+03  0.67365675168E+03  0.00000000000E+00 0. -1.
         23    2    1    2    0    0  0.54358488936E+02  0.14012908861E+03 -0.15302159396E+03  0.24824971811E+03  0.12498522925E+03 0.  0.
         23    2    1    2    0    0 -0.54358488936E+02 -0.14012908861E+03 -0.45679437963E+03  0.48924781166E+03  0.90062806753E+02 0.  0.
          5    1    3    3  502    0  0.56776711006E+02  0.33983876989E+02 -0.11973282261E+03  0.13688147288E+03  0.47000000000E+01 0.  1.
         -5    1    3    3    0  502 -0.24182220705E+01  0.10614521162E+03 -0.33288771349E+02  0.11136824523E+03  0.47000000000E+01 0.  1.
        -11    1    4    4    0    0 -0.78524317711E+01 -0.93827243426E+02 -0.16324151191E+03  0.18844894137E+03  0.00000000000E+00 0.  1.
         11    1    4    4    0    0 -0.46506057164E+02 -0.46301845181E+02 -0.29355286773E+03  0.30079887029E+03  0.00000000000E+00 0. -1.
<mgrwt>
<rscale>  0 0.19020531E+03</rscale>
<asrwt>0</asrwt>
<pdfrwt beam="2">  1        2 0.10363950E+00 0.19547970E+03</pdfrwt>
<pdfrwt beam="1">  1       -2 0.98216580E-02 0.19547970E+03</pdfrwt>
<totfact> 0.29693972E+03</totfact>
</mgrwt>
</event>
<event>
 8    1  0.1550723E-005  0.1554352E+03  0.7546771E-02  0.1202486E+00
         -4   -1    0    0    0  501 -0.00000000000E+00  0.00000000000E+00  0.11040078161E+03  0.11040078161E+03  0.00000000000E+00 0.  1.
          4   -1    0    0  501    0  0.00000000000E+00 -0.00000000000E+00 -0.18609251633E+03  0.18609251633E+03  0.00000000000E+00 0. -1.
         23    2    1    2    0    0  0.39708141195E+02  0.83367516675E+02 -0.23140122675E+02  0.15714818731E+03  0.12503282842E+03 0.  0.
         23    2    1    2    0    0 -0.39708141195E+02 -0.83367516675E+02 -0.52551612036E+02  0.13934511063E+03  0.90158242082E+02 0.  0.
          5    1    3    3  502    0  0.54433283693E+02  0.63293659775E+02  0.37342915399E+02  0.91573211540E+02  0.47000000000E+01 0.  1.
         -5    1    3    3    0  502 -0.14725142497E+02  0.20073856900E+02 -0.60483038074E+02  0.65574975769E+02  0.47000000000E+01 0.  1.
        -11    1    4    4    0    0 -0.34097779023E+01 -0.90100401011E+02 -0.25895151970E+02  0.93809742262E+02  0.00000000000E+00 0. -1.
         11    1    4    4    0    0 -0.36298363293E+02  0.67328843361E+01 -0.26656460065E+02  0.45535368369E+02  0.00000000000E+00 0.  1.
<mgrwt>
<rscale>  0 0.14837348E+03</rscale>
<asrwt>0</asrwt>
<pdfrwt beam="2">  1        4 0.28629618E-01 0.15543516E+03</pdfrwt>
<pdfrwt beam="1">  1       -4 0.16984736E-01 0.15543516E+03</pdfrwt>
<totfact> 0.59792782E+02</totfact>
</mgrwt>
</event>
<event>
 8    1  0.1550723E-005  0.1355648E+03  0.7546771E-02  0.1232261E+00
         -2   -1    0    0    0  501 -0.00000000000E+00  0.00000000000E+00  0.21764457300E+03  0.21764457300E+03  0.00000000000E+00 0.  1.
          2   -1    0    0  501    0  0.00000000000E+00 -0.00000000000E+00 -0.80377870011E+02  0.80377870011E+02  0.00000000000E+00 0. -1.
         23    2    1    2    0    0  0.50950738317E+02 -0.12543464439E+02  0.13905129999E+03  0.19419854194E+03  0.12499797370E+03 0.  0.
         23    2    1    2    0    0 -0.50950738317E+02  0.12543464439E+02 -0.17845969995E+01  0.10382390107E+03  0.89570650393E+02 0.  0.
          5    1    3    3  502    0  0.64406563479E+02 -0.53140698033E+02  0.12200776736E+03  0.14791931754E+03  0.47000000000E+01 0.  1.
         -5    1    3    3    0  502 -0.13455825162E+02  0.40597233594E+02  0.17043532629E+02  0.46279224397E+02  0.47000000000E+01 0.  1.
        -11    1    4    4    0    0 -0.11620864259E+02  0.25334553342E+02  0.37539152215E+02  0.46755449181E+02  0.00000000000E+00 0.  1.
         11    1    4    4    0    0 -0.39329874058E+02 -0.12791088903E+02 -0.39323749214E+02  0.57068451889E+02  0.00000000000E+00 0. -1.
<mgrwt>
<rscale>  0 0.12681436E+03</rscale>
<asrwt>0</asrwt>
<pdfrwt beam="2">  1        2 0.12365826E-01 0.13556478E+03</pdfrwt>
<pdfrwt beam="1">  1       -2 0.33483780E-01 0.13556478E+03</pdfrwt>
<totfact> 0.39298856E+03</totfact>
</mgrwt>
</event>
<event>
 8    1  0.1550723E-005  0.1653715E+03  0.7546771E-02  0.1190046E+00
          2   -1    0    0  501    0  0.00000000000E+00  0.00000000000E+00  0.47088151106E+02  0.47088151106E+02  0.00000000000E+00 0.  1.
         -2   -1    0    0    0  501 -0.00000000000E+00 -0.00000000000E+00 -0.56401192610E+03  0.56401192610E+03  0.00000000000E+00 0. -1.
         23    2    1    2    0    0 -0.82176616852E+02  0.70472955290E+02 -0.38172572352E+03  0.41600753318E+03  0.12501322282E+03 0.  0.
         23    2    1    2    0    0  0.82176616852E+02 -0.70472955290E+02 -0.13519805148E+03  0.19509254403E+03  0.89795065726E+02 0.  0.
          5    1    3    3  502    0 -0.84827740123E+01 -0.32787169447E+02 -0.47835724997E+02  0.58798830951E+02  0.47000000000E+01 0. -1.
         -5    1    3    3    0  502 -0.73693842839E+02  0.10326012474E+03 -0.33388999852E+03  0.35720870223E+03  0.47000000000E+01 0. -1.
        -11    1    4    4    0    0  0.37072802739E+02 -0.67588208855E+02 -0.33984992445E+02  0.84246889501E+02  0.00000000000E+00 0.  1.
         11    1    4    4    0    0  0.45103814113E+02 -0.28847464348E+01 -0.10121305903E+03  0.11084565453E+03  0.00000000000E+00 0. -1.
<mgrwt>
<rscale>  0 0.15881113E+03</rscale>
<asrwt>0</asrwt>
<pdfrwt beam="1">  1        2 0.72443307E-02 0.16537152E+03</pdfrwt>
<pdfrwt beam="2">  1       -2 0.86771068E-01 0.16537152E+03</pdfrwt>
<totfact> 0.11249949E+03</totfact>
</mgrwt>
</event>
<event>
 8    1  0.1550723E-005  0.1263523E+03  0.7546771E-02  0.1250042E+00
          2   -1    0    0  501    0  0.00000000000E+00  0.00000000000E+00  0.56346879358E+03  0.56346879358E+03  0.00000000000E+00 0. -1.
         -2   -1    0    0    0  501 -0.00000000000E+00 -0.00000000000E+00 -0.21434627804E+02  0.21434627804E+02  0.00000000000E+00 0.  1.
         23    2    1    2    0    0  0.18485231007E+02 -0.24747138634E+00  0.26072910111E+03  0.28973189626E+03  0.12499256992E+03 0.  0.
         23    2    1    2    0    0 -0.18485231007E+02  0.24747138634E+00  0.28130506466E+03  0.29517152513E+03  0.87475281265E+02 0.  0.
          5    1    3    3  502    0 -0.37490757655E+02 -0.39407814417E+02  0.14901725113E+03  0.15870338333E+03  0.47000000000E+01 0.  1.
         -5    1    3    3    0  502  0.55975988662E+02  0.39160343030E+02  0.11171184998E+03  0.13102851292E+03  0.47000000000E+01 0.  1.
        -11    1    4    4    0    0  0.71949096284E+01 -0.38956859573E+02  0.92298321286E+02  0.10044094655E+03  0.00000000000E+00 0.  1.
         11    1    4    4    0    0 -0.25680140635E+02  0.39204330959E+02  0.18900674338E+03  0.19473057857E+03  0.00000000000E+00 0. -1.
<mgrwt>
<rscale>  0 0.11588596E+03</rscale>
<asrwt>0</asrwt>
<pdfrwt beam="1">  1        2 0.86687496E-01 0.12635232E+03</pdfrwt>
<pdfrwt beam="2">  1       -2 0.32976355E-02 0.12635232E+03</pdfrwt>
<totfact> 0.18718078E+04</totfact>
</mgrwt>
</event>
<event>
 8    1  0.1550723E-005  0.1274762E+03  0.7546771E-02  0.1245731E+00
         -3   -1    0    0    0  501 -0.00000000000E+00  0.00000000000E+00  0.12721178391E+03  0.12721178391E+03  0.00000000000E+00 0.  1.
          3   -1    0    0  501    0  0.00000000000E+00 -0.00000000000E+00 -0.10161786226E+03  0.10161786226E+03  0.00000000000E+00 0. -1.
         23    2    1    2    0    0 -0.17981932371E+02  0.17339347380E+02 -0.90142437128E+01  0.12779451851E+03  0.12500471796E+03 0.  0.
         23    2    1    2    0    0  0.17981932371E+02 -0.17339347380E+02  0.34608165370E+02  0.10103512766E+03  0.91577120789E+02 0.  0.
          5    1    3    3  502    0 -0.84480627350E+00  0.25614382867E+02  0.54992780425E+02  0.60853152804E+02  0.47000000000E+01 0.  1.
         -5    1    3    3    0  502 -0.17137126098E+02 -0.82750354874E+01 -0.64007024138E+02  0.66941365703E+02  0.47000000000E+01 0.  1.
        -11    1    4    4    0    0  0.30736946558E+01  0.35781232362E+02  0.27857190918E+02  0.45450712580E+02  0.00000000000E+00 0.  1.
         11    1    4    4    0    0  0.14908237716E+02 -0.53120579742E+02  0.67509744523E+01  0.55584415082E+02  0.00000000000E+00 0. -1.
<mgrwt>
<rscale>  0 0.11841717E+03</rscale>
<asrwt>0</asrwt>
<pdfrwt beam="2">  1        3 0.15633517E-01 0.12747620E+03</pdfrwt>
<pdfrwt beam="1">  1       -3 0.19571044E-01 0.12747620E+03</pdfrwt>
<totfact> 0.18287135E+03</totfact>
</mgrwt>
</event>
<event>
 8    1  0.1550723E-005  0.1897044E+03  0.7546771E-02  0.1163910E+00
          2   -1    0    0  501    0  0.00000000000E+00  0.00000000000E+00  0.13749869311E+03  0.13749869311E+03  0.00000000000E+00 0. -1.
         -2   -1    0    0    0  501 -0.00000000000E+00 -0.00000000000E+00 -0.23910715185E+03  0.23910715185E+03  0.00000000000E+00 0.  1.
         23    2    1    2    0    0  0.30763714807E+02  0.13934318050E+03 -0.84076940065E+02  0.20750107500E+03  0.12499934470E+03 0.  0.
         23    2    1    2    0    0 -0.30763714807E+02 -0.13934318050E+03 -0.17531518668E+02  0.16910476996E+03  0.89028877186E+02 0.  0.
          5    1    3    3  502    0  0.41715731273E+02  0.15098524208E+03 -0.98808307244E+02  0.18526175304E+03  0.47000000000E+01 0. -1.
         -5    1    3    3    0  502 -0.10952016466E+02 -0.11642061572E+02  0.14731367179E+02  0.22239321961E+02  0.47000000000E+01 0. -1.
        -11    1    4    4    0    0 -0.23811709680E+02  0.10374625263E+01 -0.15699244682E+02  0.28540149439E+02  0.00000000000E+00 0.  1.
         11    1    4    4    0    0 -0.69520051269E+01 -0.14038064303E+03 -0.18322739858E+01  0.14056462052E+03  0.00000000000E+00 0. -1.
<mgrwt>
<rscale>  0 0.18408161E+03</rscale>
<asrwt>0</asrwt>
<pdfrwt beam="1">  1        2 0.21153645E-01 0.18970441E+03</pdfrwt>
<pdfrwt beam="2">  1       -2 0.36785715E-01 0.18970441E+03</pdfrwt>
<totfact> 0.17947636E+03</totfact>
</mgrwt>
</event>
<event>
 8    1  0.1550723E-005  0.1286417E+03  0.7546771E-02  0.1243245E+00
          1   -1    0    0  501    0  0.00000000000E+00  0.00000000000E+00  0.16677205934E+03  0.16677205934E+03  0.00000000000E+00 0. -1.
         -1   -1    0    0    0  501 -0.00000000000E+00 -0.00000000000E+00 -0.76443634990E+02  0.76443634990E+02  0.00000000000E+00 0.  1.
         23    2    1    2    0    0  0.21293749445E+02  0.21637695027E+02  0.54359497870E+02  0.13965546295E+03  0.12500831857E+03 0.  0.
         23    2    1    2    0    0 -0.21293749445E+02 -0.21637695027E+02  0.35968926478E+02  0.10356023138E+03  0.92246106907E+02 0.  0.
          5    1    3    3  502    0 -0.16792947698E+02  0.50228703279E+02  0.71254216617E+02  0.88905450402E+02  0.47000000000E+01 0.  1.
         -5    1    3    3    0  502  0.38086697143E+02 -0.28591008252E+02 -0.16894718747E+02  0.50750012548E+02  0.47000000000E+01 0.  1.
        -11    1    4    4    0    0 -0.40927423654E+02 -0.46255357577E+02  0.37105293039E+02  0.72051473844E+02  0.00000000000E+00 0. -1.
         11    1    4    4    0    0  0.19633674209E+02  0.24617662550E+02 -0.11363665604E+01  0.31508757534E+02  0.00000000000E+00 0.  1.
<mgrwt>
<rscale>  0 0.11991013E+03</rscale>
<asrwt>0</asrwt>
<pdfrwt beam="1">  1        1 0.25657240E-01 0.12864172E+03</pdfrwt>
<pdfrwt beam="2">  1       -1 0.11760559E-01 0.12864172E+03</pdfrwt>
<totfact> 0.82383121E+03</totfact>
</mgrwt>
</event>
<event>
 8    1  0.1550723E-005  0.1575996E+03  0.7546771E-02  0.1199404E+00
          2   -1    0    0  501    0  0.00000000000E+00  0.00000000000E+00  0.81298268681E+03  0.81298268681E+03  0.00000000000E+00 0. -1.
         -2   -1    0    0    0  501 -0.00000000000E+00 -0.00000000000E+00 -0.31083686059E+02  0.31083686059E+02  0.00000000000E+00 0.  1.
         23    2    1    2    0    0 -0.56172068889E+02 -0.77832177799E+02  0.24671291021E+03  0.29275400675E+03  0.12499799669E+03 0.  0.
         23    2    1    2    0    0  0.56172068889E+02  0.77832177799E+02  0.53518609053E+03  0.55131236612E+03  0.91148364275E+02 0.  0.
          5    1    3    3  502    0 -0.55837177281E+02 -0.80870619847E+02  0.26018290570E+03  0.27816376820E+03  0.47000000000E+01 0. -1.
         -5    1    3    3    0  502 -0.33489160820E+00  0.30384420479E+01 -0.13469995485E+02  0.14590238547E+02  0.47000000000E+01 0. -1.
        -11    1    4    4    0    0 -0.24061189696E+02  0.71017756163E+01  0.11757193498E+03  0.12021870055E+03  0.00000000000E+00 0. -1.
         11    1    4    4    0    0  0.80233258585E+02  0.70730402183E+02  0.41761415555E+03  0.43109366557E+03  0.00000000000E+00 0.  1.
<mgrwt>
<rscale>  0 0.15087310E+03</rscale>
<asrwt>0</asrwt>
<pdfrwt beam="1">  1        2 0.12507424E+00 0.15759965E+03</pdfrwt>
<pdfrwt beam="2">  1       -2 0.47821062E-02 0.15759965E+03</pdfrwt>
<totfact> 0.70886772E+03</totfact>
</mgrwt>
</event>
<event>
 8    1  0.1550723E-005  0.1292195E+03  0.7546771E-02  0.1241913E+00
          1   -1    0    0  501    0  0.00000000000E+00  0.00000000000E+00  0.40129597308E+03  0.40129597308E+03  0.00000000000E+00 0. -1.
         -1   -1    0    0    0  501 -0.00000000000E+00 -0.00000000000E+00 -0.33275419398E+02  0.33275419398E+02  0.00000000000E+00 0.  1.
         23    2    1    2    0    0  0.86688925442E+01 -0.31598707185E+02  0.17102875118E+03  0.21435607066E+03  0.12499625316E+03 0.  0.
         23    2    1    2    0    0 -0.86688925442E+01  0.31598707185E+02  0.19699180250E+03  0.22021532182E+03  0.92819123661E+02 0.  0.
          5    1    3    3  502    0  0.60831483770E+02 -0.34128629941E+02  0.13064041753E+03  0.14816963755E+03  0.47000000000E+01 0.  1.
         -5    1    3    3    0  502 -0.52162591226E+02  0.25299227561E+01  0.40388333646E+02  0.66186433105E+02  0.47000000000E+01 0.  1.
        -11    1    4    4    0    0  0.13337991638E+01 -0.22039770024E+02  0.79676459143E+01  0.23473684507E+02  0.00000000000E+00 0.  1.
         11    1    4    4    0    0 -0.10002691708E+02  0.53638477209E+02  0.18902415659E+03  0.19674163731E+03  0.00000000000E+00 0. -1.
<mgrwt>
<rscale>  0 0.12072053E+03</rscale>
<asrwt>0</asrwt>
<pdfrwt beam="1">  1        1 0.61737838E-01 0.12921955E+03</pdfrwt>
<pdfrwt beam="2">  1       -1 0.51192956E-02 0.12921955E+03</pdfrwt>
<totfact> 0.96978875E+03</totfact>
</mgrwt>
</event>
<event>
 8    1  0.1550723E-005  0.1366988E+03  0.7546771E-02  0.1230049E+00
         -2   -1    0    0    0  501 -0.00000000000E+00  0.00000000000E+00  0.24411153220E+02  0.24411153220E+02  0.00000000000E+00 0.  1.
          2   -1    0    0  501    0  0.00000000000E+00 -0.00000000000E+00 -0.61077854196E+03  0.61077854196E+03  0.00000000000E+00 0. -1.
         23    2    1    2    0    0  0.28916160289E+02  0.47184616977E+02 -0.36521836311E+03  0.38996282495E+03  0.12499607868E+03 0.  0.
         23    2    1    2    0    0 -0.28916160289E+02 -0.47184616977E+02 -0.22114902563E+03  0.24522687023E+03  0.90370315596E+02 0.  0.
          5    1    3    3  502    0 -0.12357220218E+02  0.74884620518E+02 -0.14043579843E+03  0.15970194351E+03  0.47000000000E+01 0. -1.
         -5    1    3    3    0  502  0.41273380507E+02 -0.27700003541E+02 -0.22478256469E+03  0.23026088144E+03  0.47000000000E+01 0. -1.
        -11    1    4    4    0    0  0.11143303543E+02 -0.54800130367E+02 -0.17463269965E+03  0.18336795600E+03  0.00000000000E+00 0. -1.
         11    1    4    4    0    0 -0.40059463832E+02  0.76155133903E+01 -0.46516325983E+02  0.61858914229E+02  0.00000000000E+00 0.  1.
<mgrwt>
<rscale>  0 0.12826780E+03</rscale>
<asrwt>0</asrwt>
<pdfrwt beam="2">  1        2 0.93965925E-01 0.13669876E+03</pdfrwt>
<pdfrwt beam="1">  1       -2 0.37555622E-02 0.13669876E+03</pdfrwt>
<totfact> 0.14190272E+04</totfact>
</mgrwt>
</event>
<event>
 8    1  0.1550723E-005  0.1338657E+03  0.7546771E-02  0.1233830E+00
          2   -1    0    0  501    0  0.00000000000E+00  0.00000000000E+00  0.38572687412E+02  0.38572687412E+02  0.00000000000E+00 0. -1.
         -2   -1    0    0    0  501 -0.00000000000E+00 -0.00000000000E+00 -0.38196414749E+03  0.38196414749E+03  0.00000000000E+00 0.  1.
         23    2    1    2    0    0  0.44292972067E+02  0.18222797686E+02 -0.23217621725E+03  0.26800339576E+03  0.12500434612E+03 0.  0.
         23    2    1    2    0    0 -0.44292972067E+02 -0.18222797686E+02 -0.11121524283E+03  0.15253343914E+03  0.92756035332E+02 0.  0.
          5    1    3    3  502    0  0.33441408976E+02  0.11868416600E+02 -0.24608378650E+03  0.24867349502E+03  0.47000000000E+01 0. -1.
         -5    1    3    3    0  502  0.10851563091E+02  0.63543810859E+01  0.13907569242E+02  0.19329900743E+02  0.47000000000E+01 0. -1.
        -11    1    4    4    0    0 -0.43554261950E+02 -0.51931989854E+02 -0.90111308332E+02  0.11275616699E+03  0.00000000000E+00 0.  1.
         11    1    4    4    0    0 -0.73871011747E+00  0.33709192168E+02 -0.21103934493E+02  0.39777272158E+02  0.00000000000E+00 0. -1.
<mgrwt>
<rscale>  0 0.12579646E+03</rscale>
<asrwt>0</asrwt>
<pdfrwt beam="1">  1        2 0.59342595E-02 0.13386569E+03</pdfrwt>
<pdfrwt beam="2">  1       -2 0.58763716E-01 0.13386569E+03</pdfrwt>
<totfact> 0.33032447E+03</totfact>
</mgrwt>
</event>
<event>
 8    1  0.1550723E-005  0.1387158E+03  0.7546771E-02  0.1226721E+00
          1   -1    0    0  501    0  0.00000000000E+00  0.00000000000E+00  0.31965213596E+03  0.31965213596E+03  0.00000000000E+00 0. -1.
         -1   -1    0    0    0  501 -0.00000000000E+00 -0.00000000000E+00 -0.65004526785E+02  0.65004526785E+02  0.00000000000E+00 0.  1.
         23    2    1    2    0    0  0.22013817721E+02  0.55961325156E+02  0.40471972728E+02  0.14449929830E+03  0.12500315416E+03 0.  0.
         23    2    1    2    0    0 -0.22013817721E+02 -0.55961325156E+02  0.21417563645E+03  0.24015736445E+03  0.90488001222E+02 0.  0.
          5    1    3    3  502    0  0.64681667707E+00 -0.40005881937E+02  0.11648425994E+02  0.41936437492E+02  0.47000000000E+01 0.  1.
         -5    1    3    3    0  502  0.21367001044E+02  0.95967207094E+02  0.28823546734E+02  0.10256286081E+03  0.47000000000E+01 0.  1.
        -11    1    4    4    0    0  0.29866650340E+02 -0.17437286748E+01  0.35898487794E+02  0.46730705303E+02  0.00000000000E+00 0.  1.
         11    1    4    4    0    0 -0.51880468061E+02 -0.54217596481E+02  0.17827714866E+03  0.19342665914E+03  0.00000000000E+00 0. -1.
<mgrwt>
<rscale>  0 0.13049675E+03</rscale>
<asrwt>0</asrwt>
<pdfrwt beam="1">  1        1 0.49177251E-01 0.13871578E+03</pdfrwt>
<pdfrwt beam="2">  1       -1 0.10000697E-01 0.13871578E+03</pdfrwt>
<totfact> 0.47369580E+03</totfact>
</mgrwt>
</event>
<event>
 8    1  0.1550723E-005  0.1469457E+03  0.7546771E-02  0.1214280E+00
          3   -1    0    0  501    0  0.00000000000E+00  0.00000000000E+00  0.47492636255E+02  0.47492636255E+02  0.00000000000E+00 0. -1.
         -3   -1    0    0    0  501 -0.00000000000E+00 -0.00000000000E+00 -0.52193364957E+03  0.52193364957E+03  0.00000000000E+00 0.  1.
         23    2    1    2    0    0 -0.49736507133E+02 -0.59111830292E+02 -0.40751647966E+03  0.43320056063E+03  0.12500046363E+03 0.  0.
         23    2    1    2    0    0  0.49736507133E+02  0.59111830292E+02 -0.66924533650E+02  0.13622572520E+03  0.90059016087E+02 0.  0.
          5    1    3    3  502    0 -0.72057965144E+02 -0.17018892391E+02 -0.35270772993E+03  0.36042589501E+03  0.47000000000E+01 0.  1.
         -5    1    3    3    0  502  0.22321458012E+02 -0.42092937900E+02 -0.54808749730E+02  0.72774665618E+02  0.47000000000E+01 0.  1.
        -11    1    4    4    0    0  0.67810720635E+02  0.55842926376E+02 -0.75614479728E+02  0.11590632340E+03  0.00000000000E+00 0.  1.
         11    1    4    4    0    0 -0.18074213502E+02  0.32689039161E+01  0.86899460788E+01  0.20319401797E+02  0.00000000000E+00 0. -1.
<mgrwt>
<rscale>  0 0.13929562E+03</rscale>
<asrwt>0</asrwt>
<pdfrwt beam="1">  1        3 0.73065598E-02 0.14694572E+03</pdfrwt>
<pdfrwt beam="2">  1       -3 0.80297480E-01 0.14694572E+03</pdfrwt>
<totfact> 0.42960210E+02</totfact>
</mgrwt>
</event>
<event>
 8    1  0.1550723E-005  0.1751486E+03  0.7546771E-02  0.1177980E+00
         -4   -1    0    0    0  501 -0.00000000000E+00  0.00000000000E+00  0.25187823562E+03  0.25187823562E+03  0.00000000000E+00 0.  1.
          4   -1    0    0  501    0  0.00000000000E+00 -0.00000000000E+00 -0.13094678181E+03  0.13094678181E+03  0.00000000000E+00 0. -1.
         23    2    1    2    0    0  0.23156369857E+02  0.12048329427E+03  0.14321912209E+03  0.22624928320E+03  0.12499831821E+03 0.  0.
         23    2    1    2    0    0 -0.23156369857E+02 -0.12048329427E+03 -0.22287668285E+02  0.15657573423E+03  0.94693076454E+02 0.  0.
          5    1    3    3  502    0  0.47186310391E+02  0.13225913846E+03  0.91038877292E+02  0.16741921865E+03  0.47000000000E+01 0.  1.
         -5    1    3    3    0  502 -0.24029940534E+02 -0.11775844189E+02  0.52180244801E+02  0.58830064558E+02  0.47000000000E+01 0.  1.
        -11    1    4    4    0    0  0.79719328560E+01 -0.52745393536E+02 -0.53688778868E+02  0.75684299753E+02  0.00000000000E+00 0.  1.
         11    1    4    4    0    0 -0.31128302713E+02 -0.67737900731E+02  0.31401110583E+02  0.80891434473E+02  0.00000000000E+00 0. -1.
<mgrwt>
<rscale>  0 0.16987318E+03</rscale>
<asrwt>0</asrwt>
<pdfrwt beam="2">  1        4 0.20145659E-01 0.17514857E+03</pdfrwt>
<pdfrwt beam="1">  1       -4 0.38750498E-01 0.17514857E+03</pdfrwt>
<totfact> 0.25110441E+02</totfact>
</mgrwt>
</event>
<event>
 8    1  0.1550723E-005  0.1288009E+03  0.7546771E-02  0.1243588E+00
         -1   -1    0    0    0  501 -0.00000000000E+00  0.00000000000E+00  0.13927442012E+02  0.13927442012E+02  0.00000000000E+00 0.  1.
          1   -1    0    0  501    0  0.00000000000E+00 -0.00000000000E+00 -0.94739572959E+03  0.94739572959E+03  0.00000000000E+00 0. -1.
         23    2    1    2    0    0  0.19557960424E+02 -0.24111314503E+02 -0.43454978271E+03  0.45323634167E+03  0.12500319375E+03 0.  0.
         23    2    1    2    0    0 -0.19557960424E+02  0.24111314503E+02 -0.49891850486E+03  0.50808682993E+03  0.90932298741E+02 0.  0.
          5    1    3    3  502    0 -0.46924351414E+01 -0.40512288334E+02 -0.39155599689E+02  0.56731961367E+02  0.47000000000E+01 0.  1.
         -5    1    3    3    0  502  0.24250395565E+02  0.16400973831E+02 -0.39539418302E+03  0.39650438030E+03  0.47000000000E+01 0.  1.
        -11    1    4    4    0    0 -0.15096499884E+02  0.58935823348E+02 -0.32929624714E+03  0.33486915947E+03  0.00000000000E+00 0.  1.
         11    1    4    4    0    0 -0.44614605398E+01 -0.34824508845E+02 -0.16962225772E+03  0.17321767046E+03  0.00000000000E+00 0. -1.
<mgrwt>
<rscale>  0 0.11970281E+03</rscale>
<asrwt>0</asrwt>
<pdfrwt beam="2">  1        1 0.14575318E+00 0.12880088E+03</pdfrwt>
<pdfrwt beam="1">  1       -1 0.21426835E-02 0.12880088E+03</pdfrwt>
<totfact> 0.10430000E+04</totfact>
</mgrwt>
</event>
<event>
 8    1  0.1550723E-005  0.2457299E+03  0.7546771E-02  0.1118702E+00
         -2   -1    0    0    0  501 -0.00000000000E+00  0.00000000000E+00  0.31751757872E+03  0.31751757872E+03  0.00000000000E+00 0.  1.
          2   -1    0    0  501    0  0.00000000000E+00 -0.00000000000E+00 -0.19154170149E+03  0.19154170149E+03  0.00000000000E+00 0. -1.
         23    2    1    2    0    0 -0.15124167241E+03 -0.14793215700E+03  0.13249137265E+03  0.27917222730E+03  0.12500080848E+03 0.  0.
         23    2    1    2    0    0  0.15124167241E+03  0.14793215700E+03 -0.65154954209E+01  0.22988705291E+03  0.89708633186E+02 0.  0.
          5    1    3    3  502    0 -0.10710983725E+03 -0.19710035552E+02  0.46364999673E+02  0.11846014491E+03  0.47000000000E+01 0.  1.
         -5    1    3    3    0  502 -0.44131835156E+02 -0.12822212145E+03  0.86126372977E+02  0.16071208239E+03  0.47000000000E+01 0.  1.
        -11    1    4    4    0    0  0.99394619770E+02  0.10994615886E+03  0.36380725091E+02  0.15261390974E+03  0.00000000000E+00 0.  1.
         11    1    4    4    0    0  0.51847052640E+02  0.37985998146E+02 -0.42896220511E+02  0.77273143179E+02  0.00000000000E+00 0. -1.
<mgrwt>
<rscale>  0 0.24164536E+03</rscale>
<asrwt>0</asrwt>
<pdfrwt beam="2">  1        2 0.29467954E-01 0.24572987E+03</pdfrwt>
<pdfrwt beam="1">  1       -2 0.48848858E-01 0.24572987E+03</pdfrwt>
<totfact> 0.72067948E+02</totfact>
</mgrwt>
</event>
<event>
 8    1  0.1550723E-005  0.1570136E+03  0.7546771E-02  0.1200200E+00
          3   -1    0    0  501    0  0.00000000000E+00  0.00000000000E+00  0.61364756674E+03  0.61364756674E+03  0.00000000000E+00 0. -1.
         -3   -1    0    0    0  501 -0.00000000000E+00 -0.00000000000E+00 -0.42957501666E+02  0.42957501666E+02  0.00000000000E+00 0.  1.
         23    2    1    2    0    0 -0.94458811144E+02 -0.10295860145E+02  0.15515348896E+03  0.22073940355E+03  0.12499922962E+03 0.  0.
         23    2    1    2    0    0  0.94458811144E+02  0.10295860145E+02  0.41553657612E+03  0.43586566486E+03  0.90993186396E+02 0.  0.
          5    1    3    3  502    0 -0.67344995919E+02  0.51340864302E+02  0.59237089075E+02  0.10345218966E+03  0.47000000000E+01 0.  1.
         -5    1    3    3    0  502 -0.27113815225E+02 -0.61636724446E+02  0.95916399881E+02  0.11728721389E+03  0.47000000000E+01 0.  1.
        -11    1    4    4    0    0  0.72281081475E+02  0.42702265472E+02  0.34568073778E+03  0.35572912544E+03  0.00000000000E+00 0. -1.
         11    1    4    4    0    0  0.22177729669E+02 -0.32406405327E+02  0.69855838339E+02  0.80136539416E+02  0.00000000000E+00 0.  1.
<mgrwt>
<rscale>  0 0.15022237E+03</rscale>
<asrwt>0</asrwt>
<pdfrwt beam="1">  1        3 0.94407311E-01 0.15701363E+03</pdfrwt>
<pdfrwt beam="2">  1       -3 0.66088469E-02 0.15701363E+03</pdfrwt>
<totfact> 0.35700484E+02</totfact>
</mgrwt>
</event>
<event>
 8    1  0.1550723E-005  0.1303123E+03  0.7546771E-02  0.1240486E+00
         -1   -1    0    0    0  501 -0.00000000000E+00  0.00000000000E+00  0.15060001455E+03  0.15060001455E+03  0.00000000000E+00 0.  1.
          1   -1    0    0  501    0  0.00000000000E+00 -0.00000000000E+00 -0.90171914667E+02  0.90171914667E+02  0.00000000000E+00 0. -1.
         23    2    1    2    0    0  0.15394056661E+01  0.36843131490E+02  0.56123097642E+02  0.14188413606E+03  0.12498607870E+03 0.  0.
         23    2    1    2    0    0 -0.15394056661E+01 -0.36843131490E+02  0.43050022386E+01  0.98887793155E+02  0.91654113290E+02 0.  0.
          5    1    3    3  502    0  0.45279616200E+02 -0.25652864833E+02  0.33920496993E+02  0.62297698462E+02  0.47000000000E+01 0.  1.
         -5    1    3    3    0  502 -0.43740210534E+02  0.62495996323E+02  0.22202600649E+02  0.79586437598E+02  0.47000000000E+01 0.  1.
        -11    1    4    4    0    0 -0.33451405414E+02 -0.41856801261E+02 -0.21307348387E+02  0.57662738673E+02  0.00000000000E+00 0. -1.
         11    1    4    4    0    0  0.31911999748E+02  0.50136697706E+01  0.25612350626E+02  0.41225054482E+02  0.00000000000E+00 0.  1.
<mgrwt>
<rscale>  0 0.12159672E+03</rscale>
<asrwt>0</asrwt>
<pdfrwt beam="2">  1        1 0.13872602E-01 0.13031234E+03</pdfrwt>
<pdfrwt beam="1">  1       -1 0.23169233E-01 0.13031234E+03</pdfrwt>
<totfact> 0.61889528E+03</totfact>
</mgrwt>
</event>
<event>
 8    1  0.1550723E-005  0.1471050E+03  0.7546771E-02  0.1215428E+00
          2   -1    0    0  501    0  0.00000000000E+00  0.00000000000E+00  0.38354358763E+03  0.38354358763E+03  0.00000000000E+00 0. -1.
         -2   -1    0    0    0  501 -0.00000000000E+00 -0.00000000000E+00 -0.45847902841E+02  0.45847902841E+02  0.00000000000E+00 0.  1.
         23    2    1    2    0    0 -0.75065595614E+02 -0.19480340924E+02  0.15857718318E+03  0.21630211074E+03  0.12500221101E+03 0.  0.
         23    2    1    2    0    0  0.75065595614E+02  0.19480340924E+02  0.17911850161E+03  0.21308937973E+03  0.85494554265E+02 0.  0.
          5    1    3    3  502    0 -0.94432991035E+01  0.26364351074E+02  0.12697515603E+03  0.13011162574E+03  0.47000000000E+01 0.  1.
         -5    1    3    3    0  502 -0.65622296511E+02 -0.45844691998E+02  0.31602027156E+02  0.86190484998E+02  0.47000000000E+01 0.  1.
        -11    1    4    4    0    0 -0.19214684838E+00  0.24130922407E+02  0.10359828319E+03  0.10637171907E+03  0.00000000000E+00 0. -1.
         11    1    4    4    0    0  0.75257742463E+02 -0.46505814822E+01  0.75520218419E+02  0.10671766067E+03  0.00000000000E+00 0.  1.
<mgrwt>
<rscale>  0 0.13845175E+03</rscale>
<asrwt>0</asrwt>
<pdfrwt beam="1">  1        2 0.59006704E-01 0.14710500E+03</pdfrwt>
<pdfrwt beam="2">  1       -2 0.70535238E-02 0.14710500E+03</pdfrwt>
<totfact> 0.92001815E+03</totfact>
</mgrwt>
</event>
<event>
 8    1  0.2797667E-005  0.1462824E+03  0.7546771E-02  0.1215133E+00
         -2   -1    0    0    0  501 -0.00000000000E+00  0.00000000000E+00  0.34198901164E+02  0.34198901164E+02  0.00000000000E+00 0.  1.
          2   -1    0    0  501    0  0.00000000000E+00 -0.00000000000E+00 -0.53772229020E+03  0.53772229020E+03  0.00000000000E+00 0. -1.
         23    2    1    2    0    0  0.74463933676E+02  0.15137606503E+02 -0.21389818894E+03  0.25913506354E+03  0.12499808548E+03 0.  0.
         23    2    1    2    0    0 -0.74463933676E+02 -0.15137606503E+02 -0.28962520010E+03  0.31278612783E+03  0.90434399869E+02 0.  0.
          5    1    3    3  502    0 -0.22498645781E+02  0.35575315428E+00  0.84850819211E+00  0.23002730021E+02  0.47000000000E+01 0. -1.
         -5    1    3    3    0  502  0.96962579457E+02  0.14781853349E+02 -0.21474669713E+03  0.23613233352E+03  0.47000000000E+01 0. -1.
        -11    1    4    4    0    0 -0.16820826073E+02  0.11131059248E+02 -0.44438583011E+01  0.20654020102E+02  0.00000000000E+00 0.  1.
         11    1    4    4    0    0 -0.57643107604E+02 -0.26268665751E+02 -0.28518134180E+03  0.29213210773E+03  0.00000000000E+00 0. -1.
<mgrwt>
<rscale>  0 0.13866767E+03</rscale>
<asrwt>0</asrwt>
<pdfrwt beam="2">  1        2 0.82726502E-01 0.14628242E+03</pdfrwt>
<pdfrwt beam="1">  1       -2 0.52613697E-02 0.14628242E+03</pdfrwt>
<totfact> 0.99444070E+03</totfact>
</mgrwt>
</event>
<event>
 8    1  0.1550723E-005  0.2378316E+03  0.7546771E-02  0.1124047E+00
         -1   -1    0    0    0  501 -0.00000000000E+00  0.00000000000E+00  0.12549265030E+03  0.12549265030E+03  0.00000000000E+00 0.  1.
          1   -1    0    0  501    0  0.00000000000E+00 -0.00000000000E+00 -0.72932996646E+03  0.72932996646E+03  0.00000000000E+00 0. -1.
         23    2    1    2    0    0 -0.18605795392E+03 -0.79503037963E+02 -0.30136728169E+02  0.23973340812E+03  0.12500235726E+03 0.  0.
         23    2    1    2    0    0  0.18605795392E+03  0.79503037963E+02 -0.57370058800E+03  0.61508920864E+03  0.90906956058E+02 0.  0.
          5    1    3    3  502    0 -0.18167163136E+03 -0.43565887761E+02  0.78517643883E+01  0.18704627347E+03  0.47000000000E+01 0. -1.
         -5    1    3    3    0  502 -0.43863225663E+01 -0.35937150203E+02 -0.37988492557E+02  0.52687134645E+02  0.47000000000E+01 0. -1.
        -11    1    4    4    0    0  0.19414452851E+03  0.65208102330E+02 -0.51798193958E+03  0.55700043473E+03  0.00000000000E+00 0. -1.
         11    1    4    4    0    0 -0.80865745878E+01  0.14294935634E+02 -0.55718648415E+02  0.58088773911E+02  0.00000000000E+00 0.  1.
<mgrwt>
<rscale>  0 0.23372247E+03</rscale>
<asrwt>0</asrwt>
<pdfrwt beam="2">  1        1 0.11220461E+00 0.23783163E+03</pdfrwt>
<pdfrwt beam="1">  1       -1 0.19306561E-01 0.23783163E+03</pdfrwt>
<totfact> 0.57052002E+02</totfact>
</mgrwt>
</event>
<event>
 8    1  0.1550723E-005  0.1264661E+03  0.7546771E-02  0.1247836E+00
          1   -1    0    0  501    0  0.00000000000E+00  0.00000000000E+00  0.24183456342E+03  0.24183456342E+03  0.00000000000E+00 0. -1.
         -1   -1    0    0    0  501 -0.00000000000E+00 -0.00000000000E+00 -0.49878847234E+02  0.49878847234E+02  0.00000000000E+00 0.  1.
         23    2    1    2    0    0  0.14705056038E+02 -0.12278068147E+02  0.11090732207E+03  0.16820850716E+03  0.12500671247E+03 0.  0.
         23    2    1    2    0    0 -0.14705056038E+02  0.12278068147E+02  0.81048394117E+02  0.12350490349E+03  0.91201038190E+02 0.  0.
          5    1    3    3  502    0 -0.15553167955E+02  0.30629472684E+02  0.11016232579E+03  0.11548979892E+03  0.47000000000E+01 0.  1.
         -5    1    3    3    0  502  0.30258223993E+02 -0.42907540831E+02  0.74499627644E+00  0.52718708243E+02  0.47000000000E+01 0.  1.
        -11    1    4    4    0    0 -0.15563131041E+02  0.30988345494E+02  0.94357600273E+02  0.10052783363E+03  0.00000000000E+00 0. -1.
         11    1    4    4    0    0  0.85807500304E+00 -0.18710277348E+02 -0.13309206155E+02  0.22977069866E+02  0.00000000000E+00 0.  1.
<mgrwt>
<rscale>  0 0.11717214E+03</rscale>
<asrwt>0</asrwt>
<pdfrwt beam="1">  1        1 0.37205317E-01 0.12646607E+03</pdfrwt>
<pdfrwt beam="2">  1       -1 0.76736689E-02 0.12646607E+03</pdfrwt>
<totfact> 0.99260558E+03</totfact>
</mgrwt>
</event>
<event>
 8    1  0.1550723E-005  0.1450682E+03  0.7546771E-02  0.1215697E+00
          1   -1    0    0  501    0  0.00000000000E+00  0.00000000000E+00  0.17396199387E+03  0.17396199387E+03  0.00000000000E+00 0. -1.
         -1   -1    0    0    0  501 -0.00000000000E+00 -0.00000000000E+00 -0.10335612782E+03  0.10335612782E+03  0.00000000000E+00 0.  1.
         23    2    1    2    0    0  0.72146405340E+02  0.14614720208E+02  0.16576698560E+02  0.14601226616E+03  0.12500440426E+03 0.  0.
         23    2    1    2    0    0 -0.72146405340E+02 -0.14614720208E+02  0.54029167485E+02  0.13130585552E+03  0.94357738980E+02 0.  0.
          5    1    3    3  502    0 -0.12732205803E+02  0.38774222784E+02 -0.25269539051E+02  0.48230581802E+02  0.47000000000E+01 0. -1.
         -5    1    3    3    0  502  0.84878611143E+02 -0.24159502575E+02  0.41846237611E+02  0.97781684361E+02  0.47000000000E+01 0. -1.
        -11    1    4    4    0    0 -0.52196357718E+02  0.39395436641E+01 -0.17156493099E+02  0.55084707667E+02  0.00000000000E+00 0.  1.
         11    1    4    4    0    0 -0.19950047623E+02 -0.18554263873E+02  0.71185660583E+02  0.76221147857E+02  0.00000000000E+00 0. -1.
<mgrwt>
<rscale>  0 0.13825473E+03</rscale>
<asrwt>0</asrwt>
<pdfrwt beam="1">  1        1 0.26763384E-01 0.14506824E+03</pdfrwt>
<pdfrwt beam="2">  1       -1 0.15900943E-01 0.14506824E+03</pdfrwt>
<totfact> 0.49249416E+03</totfact>
</mgrwt>
</event>
<event>
 8    1  0.1550723E-005  0.1643208E+03  0.7546771E-02  0.1191364E+00
          4   -1    0    0  501    0  0.00000000000E+00  0.00000000000E+00  0.87095637513E+03  0.87095637513E+03  0.00000000000E+00 0. -1.
         -4   -1    0    0    0  501 -0.00000000000E+00 -0.00000000000E+00 -0.30572143055E+02  0.30572143055E+02  0.00000000000E+00 0.  1.
         23    2    1    2    0    0  0.86195532371E+02 -0.62844600049E+02  0.28524353499E+03  0.32918870196E+03  0.12498885425E+03 0.  0.
         23    2    1    2    0    0 -0.86195532371E+02  0.62844600049E+02  0.55514069708E+03  0.57233981623E+03  0.89512893630E+02 0.  0.
          5    1    3    3  502    0  0.48168747279E+01 -0.33515843291E+02  0.34252292770E+01  0.34356021732E+02  0.47000000000E+01 0.  1.
         -5    1    3    3    0  502  0.81378657643E+02 -0.29328756758E+02  0.28181830572E+03  0.29483268023E+03  0.47000000000E+01 0.  1.
        -11    1    4    4    0    0 -0.34216258175E+02 -0.58585038892E+01  0.56505067226E+02  0.66316642055E+02  0.00000000000E+00 0.  1.
         11    1    4    4    0    0 -0.51979274197E+02  0.68703103938E+02  0.49863562986E+03  0.50602317417E+03  0.00000000000E+00 0. -1.
<mgrwt>
<rscale>  0 0.15765993E+03</rscale>
<asrwt>0</asrwt>
<pdfrwt beam="1">  1        4 0.13399327E+00 0.16432081E+03</pdfrwt>
<pdfrwt beam="2">  1       -4 0.47034073E-02 0.16432081E+03</pdfrwt>
<totfact> 0.19267238E+02</totfact>
</mgrwt>
</event>
<event>
 8    1  0.1550723E-005  0.2464891E+03  0.7546771E-02  0.1117815E+00
         -1   -1    0    0    0  501 -0.00000000000E+00  0.00000000000E+00  0.78346725819E+02  0.78346725819E+02  0.00000000000E+00 0.  1.
          1   -1    0    0  501    0  0.00000000000E+00 -0.00000000000E+00 -0.74119170207E+03  0.74119170207E+03  0.00000000000E+00 0. -1.
         23    2    1    2    0    0 -0.11126409658E+03  0.18304641150E+03 -0.29774108064E+03  0.38653151531E+03  0.12194742015E+03 0.  0.
         23    2    1    2    0    0  0.11126409658E+03 -0.18304641150E+03 -0.36510389562E+03  0.43300691258E+03  0.91150665357E+02 0.  0.
          5    1    3    3  502    0 -0.91491012218E+02  0.47747909635E+02 -0.85925595621E+02  0.13437174619E+03  0.47000000000E+01 0. -1.
         -5    1    3    3    0  502 -0.19773084366E+02  0.13529850186E+03 -0.21181548501E+03  0.25215976912E+03  0.47000000000E+01 0.  1.
        -11    1    4    4    0    0  0.25842020936E+02  0.10467350844E+01 -0.20168740360E+02  0.32797618635E+02  0.00000000000E+00 0.  1.
         11    1    4    4    0    0  0.85422075647E+02 -0.18409314658E+03 -0.34493515526E+03  0.40020929395E+03  0.00000000000E+00 0. -1.
<mgrwt>
<rscale>  0 0.24299217E+03</rscale>
<asrwt>0</asrwt>
<pdfrwt beam="2">  1        1 0.11402950E+00 0.24648907E+03</pdfrwt>
<pdfrwt beam="1">  1       -1 0.12053342E-01 0.24648907E+03</pdfrwt>
<totfact> 0.11789061E+03</totfact>
</mgrwt>
</event>
<event>
 8    1  0.1550723E-005  0.1295597E+03  0.7546771E-02  0.1242138E+00
          2   -1    0    0  501    0  0.00000000000E+00  0.00000000000E+00  0.64336347965E+03  0.64336347965E+03  0.00000000000E+00 0.  1.
         -2   -1    0    0    0  501 -0.00000000000E+00 -0.00000000000E+00 -0.20022274559E+02  0.20022274559E+02  0.00000000000E+00 0. -1.
         23    2    1    2    0    0  0.43838396797E+01  0.33792664094E+02  0.34162999180E+03  0.36537210025E+03  0.12499823256E+03 0.  0.
         23    2    1    2    0    0 -0.43838396797E+01 -0.33792664094E+02  0.28171121329E+03  0.29801365397E+03  0.91048163406E+02 0.  0.
          5    1    3    3  502    0 -0.58024022522E+02  0.10659855857E+01  0.17358076978E+03  0.18308549138E+03  0.47000000000E+01 0.  1.
         -5    1    3    3    0  502  0.62407862202E+02  0.32726678509E+02  0.16804922202E+03  0.18228660887E+03  0.47000000000E+01 0.  1.
        -11    1    4    4    0    0  0.37664229757E+02 -0.35831946317E+02  0.11739427883E+03  0.12838979431E+03  0.00000000000E+00 0. -1.
         11    1    4    4    0    0 -0.42048069437E+02  0.20392822223E+01  0.16431693446E+03  0.16962385966E+03  0.00000000000E+00 0.  1.
<mgrwt>
<rscale>  0 0.12058320E+03</rscale>
<asrwt>0</asrwt>
<pdfrwt beam="1">  1        2 0.98978981E-01 0.12955972E+03</pdfrwt>
<pdfrwt beam="2">  1       -2 0.30803504E-02 0.12955972E+03</pdfrwt>
<totfact> 0.17834510E+04</totfact>
</mgrwt>
</event>
<event>
 8    1  0.1550723E-005  0.1305666E+03  0.7546771E-02  0.1240221E+00
          1   -1    0    0  501    0  0.00000000000E+00  0.00000000000E+00  0.13692200603E+02  0.13692200603E+02  0.00000000000E+00 0. -1.
         -1   -1    0    0    0  501 -0.00000000000E+00 -0.00000000000E+00 -0.10375137989E+04  0.10375137989E+04  0.00000000000E+00 0.  1.
         23    2    1    2    0    0 -0.31383205792E+02  0.21004574610E+02 -0.71990018803E+03  0.73164467468E+03  0.12498620524E+03 0.  0.
         23    2    1    2    0    0  0.31383205792E+02 -0.21004574610E+02 -0.30392141030E+03  0.31956132486E+03  0.91242089770E+02 0.  0.
          5    1    3    3  502    0 -0.22817587958E+02 -0.35529920596E+02 -0.56270860461E+03  0.56431027040E+03  0.47000000000E+01 0. -1.
         -5    1    3    3    0  502 -0.85656178335E+01  0.56534495206E+02 -0.15719158342E+03  0.16733440428E+03  0.47000000000E+01 0. -1.
        -11    1    4    4    0    0  0.14659257500E+02  0.34054923192E+02 -0.77054368615E+02  0.85510276264E+02  0.00000000000E+00 0. -1.
         11    1    4    4    0    0  0.16723948292E+02 -0.55059497803E+02 -0.22686704169E+03  0.23405104860E+03  0.00000000000E+00 0.  1.
<mgrwt>
<rscale>  0 0.12176053E+03</rscale>
<asrwt>0</asrwt>
<pdfrwt beam="1">  1        1 0.21064917E-02 0.13056665E+03</pdfrwt>
<pdfrwt beam="2">  1       -1 0.15961756E+00 0.13056665E+03</pdfrwt>
<totfact> 0.17457315E+03</totfact>
</mgrwt>
</event>
<event>
 8    1  0.1550723E-005  0.2864962E+03  0.7546771E-02  0.1093986E+00
          1   -1    0    0  501    0  0.00000000000E+00  0.00000000000E+00  0.76451761686E+03  0.76451761686E+03  0.00000000000E+00 0. -1.
         -1   -1    0    0    0  501 -0.00000000000E+00 -0.00000000000E+00 -0.13937056302E+03  0.13937056302E+03  0.00000000000E+00 0.  1.
         23    2    1    2    0    0  0.45959892303E+02  0.25365823143E+03  0.85506886231E+02  0.29898412406E+03  0.12500107509E+03 0.  0.
         23    2    1    2    0    0 -0.45959892303E+02 -0.25365823143E+03  0.53964016761E+03  0.60490405583E+03  0.90788744814E+02 0.  0.
          5    1    3    3  502    0 -0.37608568268E+01  0.20118755510E+03  0.10055632352E+03  0.22499831237E+03  0.47000000000E+01 0. -1.
         -5    1    3    3    0  502  0.49720749129E+02  0.52470676330E+02 -0.15049437286E+02  0.73985811688E+02  0.47000000000E+01 0. -1.
        -11    1    4    4    0    0 -0.28559816668E+02 -0.13830575888E+03  0.39247595590E+03  0.41711092293E+03  0.00000000000E+00 0. -1.
         11    1    4    4    0    0 -0.17400075635E+02 -0.11535247254E+03  0.14716421171E+03  0.18779313289E+03  0.00000000000E+00 0.  1.
<mgrwt>
<rscale>  0 0.28314073E+03</rscale>
<asrwt>0</asrwt>
<pdfrwt beam="1">  1        1 0.11761809E+00 0.28649621E+03</pdfrwt>
<pdfrwt beam="2">  1       -1 0.21441625E-01 0.28649621E+03</pdfrwt>
<totfact> 0.44632973E+02</totfact>
</mgrwt>
</event>
<event>
 8    1  0.1550723E-005  0.1780365E+03  0.7546771E-02  0.1175742E+00
          4   -1    0    0  501    0  0.00000000000E+00  0.00000000000E+00  0.13140061002E+03  0.13140061002E+03  0.00000000000E+00 0.  1.
         -4   -1    0    0    0  501 -0.00000000000E+00 -0.00000000000E+00 -0.21979987482E+03  0.21979987482E+03  0.00000000000E+00 0. -1.
         23    2    1    2    0    0 -0.12379150553E+03  0.27331160756E+02 -0.81566944000E+02  0.19583199373E+03  0.12500269687E+03 0.  0.
         23    2    1    2    0    0  0.12379150553E+03 -0.27331160756E+02 -0.68323207923E+01  0.15536849112E+03  0.89562035680E+02 0.  0.
          5    1    3    3  502    0 -0.13817196431E+02  0.36336971300E+02 -0.75706513274E+02  0.85234127863E+02  0.47000000000E+01 0.  1.
         -5    1    3    3    0  502 -0.10997430910E+03 -0.90058105446E+01 -0.58604307257E+01  0.11059786586E+03  0.47000000000E+01 0.  1.
        -11    1    4    4    0    0  0.76719820513E+02 -0.83296663973E+01 -0.47244841135E+02  0.90484193181E+02  0.00000000000E+00 0.  1.
         11    1    4    4    0    0  0.47071685015E+02 -0.19001494358E+02  0.40412520343E+02  0.64884297935E+02  0.00000000000E+00 0. -1.
<mgrwt>
<rscale>  0 0.17203527E+03</rscale>
<asrwt>0</asrwt>
<pdfrwt beam="1">  1        4 0.20215479E-01 0.17803652E+03</pdfrwt>
<pdfrwt beam="2">  1       -4 0.33815365E-01 0.17803652E+03</pdfrwt>
<totfact> 0.32633017E+02</totfact>
</mgrwt>
</event>
<event>
 8    1  0.1550723E-005  0.1308973E+03  0.7546771E-02  0.1239516E+00
         -2   -1    0    0    0  501 -0.00000000000E+00  0.00000000000E+00  0.24665235859E+03  0.24665235859E+03  0.00000000000E+00 0. -1.
          2   -1    0    0  501    0  0.00000000000E+00 -0.00000000000E+00 -0.11819591291E+03  0.11819591291E+03  0.00000000000E+00 0.  1.
         23    2    1    2    0    0  0.38756870105E+02  0.30058202843E+01  0.20233784302E+03  0.24098692490E+03  0.12499186101E+03 0.  0.
         23    2    1    2    0    0 -0.38756870105E+02 -0.30058202843E+01 -0.73881397333E+02  0.12386134660E+03  0.91498865421E+02 0.  0.
          5    1    3    3  502    0 -0.13554475735E+02  0.23398390749E+02  0.17716289541E+03  0.17927629518E+03  0.47000000000E+01 0. -1.
         -5    1    3    3    0  502  0.52311345839E+02 -0.20392570464E+02  0.25174947609E+02  0.61710629723E+02  0.47000000000E+01 0. -1.
        -11    1    4    4    0    0  0.23826281233E+02 -0.25955981682E+01 -0.52522531557E+02  0.57732530937E+02  0.00000000000E+00 0.  1.
         11    1    4    4    0    0 -0.62583151337E+02 -0.41022211616E+00 -0.21358865776E+02  0.66128815661E+02  0.00000000000E+00 0. -1.
<mgrwt>
<rscale>  0 0.12219684E+03</rscale>
<asrwt>0</asrwt>
<pdfrwt beam="2">  1        2 0.18183987E-01 0.13089727E+03</pdfrwt>
<pdfrwt beam="1">  1       -2 0.37946517E-01 0.13089727E+03</pdfrwt>
<totfact> 0.19814158E+03</totfact>
</mgrwt>
</event>
<event>
 8    1  0.1550723E-005  0.1534426E+03  0.7546771E-02  0.1203294E+00
         -1   -1    0    0    0  501 -0.00000000000E+00  0.00000000000E+00  0.40038337238E+02  0.40038337238E+02  0.00000000000E+00 0.  1.
          1   -1    0    0  501    0  0.00000000000E+00 -0.00000000000E+00 -0.52442085210E+03  0.52442085210E+03  0.00000000000E+00 0. -1.
         23    2    1    2    0    0  0.17127577780E+02  0.87327283244E+02 -0.30958030618E+03  0.34552075992E+03  0.12500088497E+03 0.  0.
         23    2    1    2    0    0 -0.17127577780E+02 -0.87327283244E+02 -0.17480220868E+03  0.21893842942E+03  0.97256441410E+02 0.  0.
          5    1    3    3  502    0  0.18371275167E+02  0.66996165196E+02 -0.51522950061E+02  0.86618094445E+02  0.47000000000E+01 0. -1.
         -5    1    3    3    0  502 -0.12436973877E+01  0.20331118048E+02 -0.25805735612E+03  0.25890266548E+03  0.47000000000E+01 0. -1.
        -11    1    4    4    0    0  0.29713236780E+02 -0.77669139062E+02 -0.12257525791E+03  0.14812179264E+03  0.00000000000E+00 0. -1.
         11    1    4    4    0    0 -0.46840814559E+02 -0.96581441817E+01 -0.52226950771E+02  0.70816636777E+02  0.00000000000E+00 0.  1.
<mgrwt>
<rscale>  0 0.14772708E+03</rscale>
<asrwt>0</asrwt>
<pdfrwt beam="2">  1        1 0.80680133E-01 0.15344259E+03</pdfrwt>
<pdfrwt beam="1">  1       -1 0.61597441E-02 0.15344259E+03</pdfrwt>
<totfact> 0.52740155E+03</totfact>
</mgrwt>
</event>
<event>
 8    1  0.1550723E-005  0.1296141E+03  0.7546771E-02  0.1242166E+00
          2   -1    0    0  501    0  0.00000000000E+00  0.00000000000E+00  0.23305598333E+03  0.23305598333E+03  0.00000000000E+00 0. -1.
         -2   -1    0    0    0  501 -0.00000000000E+00 -0.00000000000E+00 -0.58427324807E+02  0.58427324807E+02  0.00000000000E+00 0.  1.
         23    2    1    2    0    0 -0.26543570267E+02 -0.21694937969E+02  0.64741996672E+02  0.14488392288E+03  0.12499837407E+03 0.  0.
         23    2    1    2    0    0  0.26543570267E+02  0.21694937969E+02  0.10988666185E+03  0.14659938525E+03  0.90780338441E+02 0.  0.
          5    1    3    3  502    0 -0.26484471960E+02  0.18234240904E+02  0.91158271561E+02  0.96777245623E+02  0.47000000000E+01 0.  1.
         -5    1    3    3    0  502 -0.59098307307E-01 -0.39929178873E+02 -0.26416274889E+02  0.48106677261E+02  0.47000000000E+01 0.  1.
        -11    1    4    4    0    0 -0.27890440354E+02  0.28327798884E+02  0.62778560594E+02  0.74306719232E+02  0.00000000000E+00 0. -1.
         11    1    4    4    0    0  0.54434010621E+02 -0.66328609154E+01  0.47108101253E+02  0.72292666017E+02  0.00000000000E+00 0.  1.
<mgrwt>
<rscale>  0 0.12056585E+03</rscale>
<asrwt>0</asrwt>
<pdfrwt beam="1">  1        2 0.35854766E-01 0.12961414E+03</pdfrwt>
<pdfrwt beam="2">  1       -2 0.89888194E-02 0.12961414E+03</pdfrwt>
<totfact> 0.10643910E+04</totfact>
</mgrwt>
</event>
<event>
 8    1  0.1550723E-005  0.1637144E+03  0.7546771E-02  0.1192994E+00
          1   -1    0    0  501    0  0.00000000000E+00  0.00000000000E+00  0.13128625644E+03  0.13128625644E+03  0.00000000000E+00 0. -1.
         -1   -1    0    0    0  501 -0.00000000000E+00 -0.00000000000E+00 -0.18258341225E+03  0.18258341225E+03  0.00000000000E+00 0.  1.
         23    2    1    2    0    0 -0.28286902510E+02 -0.10187003004E+03 -0.67454999818E+02  0.17706664674E+03  0.12499907404E+03 0.  0.
         23    2    1    2    0    0  0.28286902510E+02  0.10187003004E+03  0.16157844008E+02  0.13680302195E+03  0.85301459648E+02 0.  0.
          5    1    3    3  502    0  0.43620756940E+02 -0.27193797716E+02 -0.49943302323E+02  0.71824066420E+02  0.47000000000E+01 0.  1.
         -5    1    3    3    0  502 -0.71907659451E+02 -0.74676232327E+02 -0.17511697495E+02  0.10524258032E+03  0.47000000000E+01 0.  1.
        -11    1    4    4    0    0  0.55968578686E+02  0.43154131082E+02  0.12629143606E+02  0.71793147987E+02  0.00000000000E+00 0.  1.
         11    1    4    4    0    0 -0.27681676176E+02  0.58715898961E+02  0.35287004025E+01  0.65009873967E+02  0.00000000000E+00 0. -1.
<mgrwt>
<rscale>  0 0.15625234E+03</rscale>
<asrwt>0</asrwt>
<pdfrwt beam="1">  1        1 0.20197886E-01 0.16371445E+03</pdfrwt>
<pdfrwt beam="2">  1       -1 0.28089756E-01 0.16371445E+03</pdfrwt>
<totfact> 0.28126956E+03</totfact>
</mgrwt>
</event>
<event>
 8    1  0.1550723E-005  0.1353323E+03  0.7546771E-02  0.1228631E+00
          2   -1    0    0  501    0  0.00000000000E+00  0.00000000000E+00  0.49169705987E+03  0.49169705987E+03  0.00000000000E+00 0. -1.
         -2   -1    0    0    0  501 -0.00000000000E+00 -0.00000000000E+00 -0.34491648264E+02  0.34491648264E+02  0.00000000000E+00 0.  1.
         23    2    1    2    0    0 -0.46070437425E+02 -0.23858771430E+02  0.16696985849E+03  0.21492735164E+03  0.12499242642E+03 0.  0.
         23    2    1    2    0    0  0.46070437425E+02  0.23858771430E+02  0.29023555312E+03  0.31126135649E+03  0.99775896741E+02 0.  0.
          5    1    3    3  502    0  0.12506308548E+02  0.62898436822E+01  0.14436567989E+03  0.14511894920E+03  0.47000000000E+01 0.  1.
         -5    1    3    3    0  502 -0.58576745973E+02 -0.30148615112E+02  0.22604178600E+02  0.69808402447E+02  0.47000000000E+01 0.  1.
        -11    1    4    4    0    0  0.43558501823E+02 -0.17155572910E+02  0.53952879321E+02  0.71432275268E+02  0.00000000000E+00 0.  1.
         11    1    4    4    0    0  0.25119356023E+01  0.41014344341E+02  0.23628267380E+03  0.23982908122E+03  0.00000000000E+00 0. -1.
<mgrwt>
<rscale>  0 0.12921096E+03</rscale>
<asrwt>0</asrwt>
<pdfrwt beam="1">  1        2 0.75645696E-01 0.13533231E+03</pdfrwt>
<pdfrwt beam="2">  1       -2 0.53064078E-02 0.13533231E+03</pdfrwt>
<totfact> 0.10780634E+04</totfact>
</mgrwt>
</event>
<event>
 8    1  0.1550723E-005  0.1485770E+03  0.7546771E-02  0.1211231E+00
         -3   -1    0    0    0  501 -0.00000000000E+00  0.00000000000E+00  0.10010981843E+04  0.10010981843E+04  0.00000000000E+00 0.  1.
          3   -1    0    0  501    0  0.00000000000E+00 -0.00000000000E+00 -0.22544371629E+02  0.22544371629E+02  0.00000000000E+00 0. -1.
         23    2    1    2    0    0 -0.15356887997E+02  0.78810465478E+02  0.74764480685E+03  0.76226497669E+03  0.12501285532E+03 0.  0.
         23    2    1    2    0    0  0.15356887997E+02 -0.78810465478E+02  0.23090900579E+03  0.26137757921E+03  0.92478897498E+02 0.  0.
          5    1    3    3  502    0 -0.23274085720E+02  0.11177260583E+03  0.56414510582E+03  0.57560106750E+03  0.47000000000E+01 0. -1.
         -5    1    3    3    0  502  0.79171977234E+01 -0.32962140354E+02  0.18349970103E+03  0.18666390919E+03  0.47000000000E+01 0. -1.
        -11    1    4    4    0    0 -0.24560865718E+02 -0.68391721762E+02  0.96636475768E+02  0.12091018228E+03  0.00000000000E+00 0. -1.
         11    1    4    4    0    0  0.39917753714E+02 -0.10418743715E+02  0.13427253002E+03  0.14046739693E+03  0.00000000000E+00 0.  1.
<mgrwt>
<rscale>  0 0.14157043E+03</rscale>
<asrwt>0</asrwt>
<pdfrwt beam="2">  1        3 0.34683656E-02 0.14857704E+03</pdfrwt>
<pdfrwt beam="1">  1       -3 0.15401507E+00 0.14857704E+03</pdfrwt>
<totfact> 0.30739728E+02</totfact>
</mgrwt>
</event>
<event>
 8    1  0.1550723E-005  0.1360609E+03  0.7546771E-02  0.1229744E+00
          1   -1    0    0  501    0  0.00000000000E+00  0.00000000000E+00  0.77541445642E+02  0.77541445642E+02  0.00000000000E+00 0. -1.
         -1   -1    0    0    0  501 -0.00000000000E+00 -0.00000000000E+00 -0.19462299163E+03  0.19462299163E+03  0.00000000000E+00 0.  1.
         23    2    1    2    0    0 -0.52301447955E+02 -0.12341049184E+02 -0.80007865743E+02  0.15784117165E+03  0.12499933573E+03 0.  0.
         23    2    1    2    0    0  0.52301447955E+02  0.12341049184E+02 -0.37073680248E+02  0.11432326563E+03  0.93848859038E+02 0.  0.
          5    1    3    3  502    0 -0.17052669998E+02 -0.25655151127E+02  0.28901998168E+02  0.42501715630E+02  0.47000000000E+01 0.  1.
         -5    1    3    3    0  502 -0.35248777958E+02  0.13314101943E+02 -0.10890986391E+03  0.11533945602E+03  0.47000000000E+01 0.  1.
        -11    1    4    4    0    0  0.67371088481E+02  0.29564017122E+02 -0.34535336919E+01  0.73653388017E+02  0.00000000000E+00 0. -1.
         11    1    4    4    0    0 -0.15069640526E+02 -0.17222967937E+02 -0.33620146556E+02  0.40669877608E+02  0.00000000000E+00 0.  1.
<mgrwt>
<rscale>  0 0.12847000E+03</rscale>
<asrwt>0</asrwt>
<pdfrwt beam="1">  1        1 0.11929454E-01 0.13606093E+03</pdfrwt>
<pdfrwt beam="2">  1       -1 0.29941998E-01 0.13606093E+03</pdfrwt>
<totfact> 0.49481150E+03</totfact>
</mgrwt>
</event>
<event>
 8    1  0.1550723E-005  0.1515454E+03  0.7546771E-02  0.1208108E+00
         -2   -1    0    0    0  501 -0.00000000000E+00  0.00000000000E+00  0.32663232691E+02  0.32663232691E+02  0.00000000000E+00 0.  1.
          2   -1    0    0  501    0  0.00000000000E+00 -0.00000000000E+00 -0.62032306580E+03  0.62032306580E+03  0.00000000000E+00 0. -1.
         23    2    1    2    0    0 -0.11904105549E+02 -0.84848827009E+02 -0.23754808619E+03  0.28177137877E+03  0.12499994187E+03 0.  0.
         23    2    1    2    0    0  0.11904105549E+02  0.84848827009E+02 -0.35011174693E+03  0.37121491973E+03  0.88776405199E+02 0.  0.
          5    1    3    3  502    0 -0.49257649409E+01 -0.13574555824E+02 -0.20036929177E+03  0.20094395938E+03  0.47000000000E+01 0. -1.
         -5    1    3    3    0  502 -0.69783406084E+01 -0.71274271185E+02 -0.37178794415E+02  0.80827419387E+02  0.47000000000E+01 0. -1.
        -11    1    4    4    0    0  0.40524607301E+02  0.18613507079E+02 -0.19655982957E+03  0.20155513649E+03  0.00000000000E+00 0. -1.
         11    1    4    4    0    0 -0.28620501752E+02  0.66235319930E+02 -0.15355191735E+03  0.16965978324E+03  0.00000000000E+00 0.  1.
<mgrwt>
<rscale>  0 0.14395180E+03</rscale>
<asrwt>0</asrwt>
<pdfrwt beam="2">  1        2 0.95434324E-01 0.15154543E+03</pdfrwt>
<pdfrwt beam="1">  1       -2 0.50251124E-02 0.15154543E+03</pdfrwt>
<totfact> 0.90853496E+03</totfact>
</mgrwt>
</event>
<event>
 8    1  0.1550723E-005  0.1928671E+03  0.7546771E-02  0.1160545E+00
         -1   -1    0    0    0  501 -0.00000000000E+00  0.00000000000E+00  0.47095453443E+03  0.47095453443E+03  0.00000000000E+00 0.  1.
          1   -1    0    0  501    0  0.00000000000E+00 -0.00000000000E+00 -0.83298424541E+02  0.83298424541E+02  0.00000000000E+00 0. -1.
         23    2    1    2    0    0 -0.12728357772E+03  0.73274179272E+02  0.30881626394E+03  0.36409507277E+03  0.12501009014E+03 0.  0.
         23    2    1    2    0    0  0.12728357772E+03 -0.73274179272E+02  0.78839845955E+02  0.19015788621E+03  0.91510031532E+02 0.  0.
          5    1    3    3  502    0 -0.93449879873E+02  0.10004175061E+03  0.28083111666E+03  0.31245709785E+03  0.47000000000E+01 0.  1.
         -5    1    3    3    0  502 -0.33833697847E+02 -0.26767571337E+02  0.27985147275E+02  0.51637974915E+02  0.47000000000E+01 0.  1.
        -11    1    4    4    0    0  0.63380329734E+02 -0.10252253723E+02  0.77175819760E+02  0.10039064727E+03  0.00000000000E+00 0.  1.
         11    1    4    4    0    0  0.63903247986E+02 -0.63021925549E+02  0.16640261948E+01  0.89767238936E+02  0.00000000000E+00 0. -1.
<mgrwt>
<rscale>  0 0.18770808E+03</rscale>
<asrwt>0</asrwt>
<pdfrwt beam="2">  1        1 0.12815142E-01 0.19286715E+03</pdfrwt>
<pdfrwt beam="1">  1       -1 0.72454542E-01 0.19286715E+03</pdfrwt>
<totfact> 0.91434042E+02</totfact>
</mgrwt>
</event>
<event>
 8    1  0.1550723E-005  0.1434108E+03  0.7546771E-02  0.1219220E+00
          1   -1    0    0  501    0  0.00000000000E+00  0.00000000000E+00  0.11616017215E+03  0.11616017215E+03  0.00000000000E+00 0. -1.
         -1   -1    0    0    0  501 -0.00000000000E+00 -0.00000000000E+00 -0.14480074520E+03  0.14480074520E+03  0.00000000000E+00 0.  1.
         23    2    1    2    0    0  0.56261075070E+02  0.42185798099E+02 -0.46721212148E+01  0.14348689988E+03  0.12498684567E+03 0.  0.
         23    2    1    2    0    0 -0.56261075070E+02 -0.42185798099E+02 -0.23968451839E+02  0.11747401747E+03  0.90998395417E+02 0.  0.
          5    1    3    3  502    0  0.34798047477E+02  0.63768951717E+02  0.44605286998E+02  0.85376255126E+02  0.47000000000E+01 0. -1.
         -5    1    3    3    0  502  0.21463027594E+02 -0.21583153618E+02 -0.49277408212E+02  0.58110644754E+02  0.47000000000E+01 0. -1.
        -11    1    4    4    0    0 -0.62942593016E+02 -0.16901131977E+02 -0.48794487091E+02  0.81414496548E+02  0.00000000000E+00 0.  1.
         11    1    4    4    0    0  0.66815179459E+01 -0.25284666122E+02  0.24826035253E+02  0.36059520925E+02  0.00000000000E+00 0. -1.
<mgrwt>
<rscale>  0 0.13571054E+03</rscale>
<asrwt>0</asrwt>
<pdfrwt beam="1">  1        1 0.17870796E-01 0.14341081E+03</pdfrwt>
<pdfrwt beam="2">  1       -1 0.22277038E-01 0.14341081E+03</pdfrwt>
<totfact> 0.47873446E+03</totfact>
</mgrwt>
</event>
<event>
 8    1  0.1550723E-005  0.1603505E+03  0.7546771E-02  0.1196030E+00
          2   -1    0    0  501    0  0.00000000000E+00  0.00000000000E+00  0.13954216434E+03  0.13954216434E+03  0.00000000000E+00 0. -1.
         -2   -1    0    0    0  501 -0.00000000000E+00 -0.00000000000E+00 -0.36266634675E+03  0.36266634675E+03  0.00000000000E+00 0.  1.
         23    2    1    2    0    0 -0.89889733606E+02 -0.44804654735E+02 -0.30465011855E+03  0.34427311532E+03  0.12499864761E+03 0.  0.
         23    2    1    2    0    0  0.89889733606E+02  0.44804654735E+02  0.81525936139E+02  0.15793539577E+03  0.90606234223E+02 0.  0.
          5    1    3    3  502    0 -0.11088201957E+03 -0.65561846120E+02 -0.22664164775E+03  0.26073301369E+03  0.47000000000E+01 0. -1.
         -5    1    3    3    0  502  0.20992285964E+02  0.20757191386E+02 -0.78008470800E+02  0.83540101633E+02  0.47000000000E+01 0. -1.
        -11    1    4    4    0    0  0.62327796885E+02  0.32101351937E+02  0.10020740435E+03  0.12229789428E+03  0.00000000000E+00 0. -1.
         11    1    4    4    0    0  0.27561936721E+02  0.12703302798E+02 -0.18681468207E+02  0.35637501486E+02  0.00000000000E+00 0.  1.
<mgrwt>
<rscale>  0 0.15367406E+03</rscale>
<asrwt>0</asrwt>
<pdfrwt beam="1">  1        2 0.21468026E-01 0.16035050E+03</pdfrwt>
<pdfrwt beam="2">  1       -2 0.55794822E-01 0.16035050E+03</pdfrwt>
<totfact> 0.77977907E+02</totfact>
</mgrwt>
</event>
<event>
 8    1  0.1550723E-005  0.1499537E+03  0.7546771E-02  0.1210109E+00
         -2   -1    0    0    0  501 -0.00000000000E+00  0.00000000000E+00  0.45250480186E+03  0.45250480186E+03  0.00000000000E+00 0.  1.
          2   -1    0    0  501    0  0.00000000000E+00 -0.00000000000E+00 -0.46056499575E+02  0.46056499575E+02  0.00000000000E+00 0. -1.
         23    2    1    2    0    0  0.36997223303E+02 -0.74104465534E+02  0.30504321619E+03  0.33990803630E+03  0.12500337218E+03 0.  0.
         23    2    1    2    0    0 -0.36997223303E+02  0.74104465534E+02  0.10140508609E+03  0.15865326513E+03  0.89596878889E+02 0.  0.
          5    1    3    3  502    0  0.61748797013E+02  0.37285015749E+01  0.18081457620E+03  0.19116175512E+03  0.47000000000E+01 0.  1.
         -5    1    3    3    0  502 -0.24751573710E+02 -0.77832967109E+02  0.12422864000E+03  0.14874628118E+03  0.47000000000E+01 0.  1.
        -11    1    4    4    0    0 -0.62453959679E+02  0.63856784553E+02  0.55463584688E+02  0.10513988415E+03  0.00000000000E+00 0.  1.
         11    1    4    4    0    0  0.25456736375E+02  0.10247680981E+02  0.45941501406E+02  0.53513380979E+02  0.00000000000E+00 0. -1.
<mgrwt>
<rscale>  0 0.14242031E+03</rscale>
<asrwt>0</asrwt>
<pdfrwt beam="2">  1        2 0.70856156E-02 0.14995369E+03</pdfrwt>
<pdfrwt beam="1">  1       -2 0.69616120E-01 0.14995369E+03</pdfrwt>
<totfact> 0.18615720E+03</totfact>
</mgrwt>
</event>
<event>
 8    1  0.1550723E-005  0.1321143E+03  0.7546771E-02  0.1237990E+00
         -2   -1    0    0    0  501 -0.00000000000E+00  0.00000000000E+00  0.44604738077E+02  0.44604738077E+02  0.00000000000E+00 0.  1.
          2   -1    0    0  501    0  0.00000000000E+00 -0.00000000000E+00 -0.31340424776E+03  0.31340424776E+03  0.00000000000E+00 0. -1.
         23    2    1    2    0    0 -0.28639573870E+01  0.42668584877E+02 -0.11759311125E+03  0.17686812442E+03  0.12500153293E+03 0.  0.
         23    2    1    2    0    0  0.28639573870E+01 -0.42668584877E+02 -0.15120639843E+03  0.18114086142E+03  0.90110079122E+02 0.  0.
          5    1    3    3  502    0  0.43330717106E+02 -0.89313392618E+01 -0.93228410570E+02  0.10330027301E+03  0.47000000000E+01 0.  1.
         -5    1    3    3    0  502 -0.46194674493E+02  0.51599924139E+02 -0.24364700677E+02  0.73567851414E+02  0.47000000000E+01 0.  1.
        -11    1    4    4    0    0  0.24168926473E+02  0.83959314104E+01 -0.67658026534E+01  0.26465161187E+02  0.00000000000E+00 0.  1.
         11    1    4    4    0    0 -0.21304969086E+02 -0.51064516287E+02 -0.14444059578E+03  0.15467570023E+03  0.00000000000E+00 0. -1.
<mgrwt>
<rscale>  0 0.12314956E+03</rscale>
<asrwt>0</asrwt>
<pdfrwt beam="2">  1        2 0.48216038E-01 0.13211432E+03</pdfrwt>
<pdfrwt beam="1">  1       -2 0.68622675E-02 0.13211432E+03</pdfrwt>
<totfact> 0.11801351E+04</totfact>
</mgrwt>
</event>
<event>
 8    1  0.1550723E-005  0.2218287E+03  0.7546771E-02  0.1135761E+00
          2   -1    0    0  501    0  0.00000000000E+00  0.00000000000E+00  0.16571737293E+04  0.16571737293E+04  0.00000000000E+00 0. -1.
         -2   -1    0    0    0  501 -0.00000000000E+00 -0.00000000000E+00 -0.28241923795E+02  0.28241923795E+02  0.00000000000E+00 0.  1.
         23    2    1    2    0    0  0.13532779715E+03 -0.12356304814E+03  0.70788296659E+03  0.74182631624E+03  0.12500619795E+03 0.  0.
         23    2    1    2    0    0 -0.13532779715E+03  0.12356304814E+03  0.92104883892E+03  0.94358933686E+03  0.91915360077E+02 0.  0.
          5    1    3    3  502    0  0.98962684047E+02 -0.79165228151E+02  0.24989454342E+03  0.28023225905E+03  0.47000000000E+01 0. -1.
         -5    1    3    3    0  502  0.36365113098E+02 -0.44397819992E+02  0.45798842317E+03  0.46159405719E+03  0.47000000000E+01 0. -1.
        -11    1    4    4    0    0 -0.10237286645E+03  0.13555859565E+03  0.77252601385E+03  0.79098216080E+03  0.00000000000E+00 0.  1.
         11    1    4    4    0    0 -0.32954930693E+02 -0.11995547505E+02  0.14852282508E+03  0.15260717606E+03  0.00000000000E+00 0. -1.
<mgrwt>
<rscale>  0 0.21749943E+03</rscale>
<asrwt>0</asrwt>
<pdfrwt beam="1">  1        2 0.25494973E+00 0.22182874E+03</pdfrwt>
<pdfrwt beam="2">  1       -2 0.43449127E-02 0.22182874E+03</pdfrwt>
<totfact> 0.27292849E+03</totfact>
</mgrwt>
</event>
<event>
 8    1  0.1550723E-005  0.1501284E+03  0.7546771E-02  0.1209427E+00
         -1   -1    0    0    0  501 -0.00000000000E+00  0.00000000000E+00  0.10032068128E+03  0.10032068128E+03  0.00000000000E+00 0.  1.
          1   -1    0    0  501    0  0.00000000000E+00 -0.00000000000E+00 -0.19678483122E+03  0.19678483122E+03  0.00000000000E+00 0. -1.
         23    2    1    2    0    0  0.40241251023E+02  0.72768830434E+02 -0.18748412061E+02  0.15129453509E+03  0.12499548962E+03 0.  0.
         23    2    1    2    0    0 -0.40241251023E+02 -0.72768830434E+02 -0.77715737879E+02  0.14581097741E+03  0.91139696353E+02 0.  0.
          5    1    3    3  502    0  0.54955822462E+02  0.10253695903E+03 -0.11628094470E+02  0.11700971315E+03  0.47000000000E+01 0.  1.
         -5    1    3    3    0  502 -0.14714571439E+02 -0.29768128598E+02 -0.71203175904E+01  0.34284821940E+02  0.47000000000E+01 0.  1.
        -11    1    4    4    0    0 -0.67451967486E+02 -0.59917726734E+02 -0.71416116415E+02  0.11506590971E+03  0.00000000000E+00 0.  1.
         11    1    4    4    0    0  0.27210716463E+02 -0.12851103700E+02 -0.62996214638E+01  0.30745067691E+02  0.00000000000E+00 0. -1.
<mgrwt>
<rscale>  0 0.14293971E+03</rscale>
<asrwt>0</asrwt>
<pdfrwt beam="2">  1        1 0.30274589E-01 0.15012839E+03</pdfrwt>
<pdfrwt beam="1">  1       -1 0.15433951E-01 0.15012839E+03</pdfrwt>
<totfact> 0.44334731E+03</totfact>
</mgrwt>
</event>
<event>
 8    1  0.1550723E-005  0.1857858E+03  0.7546771E-02  0.1167851E+00
          2   -1    0    0  501    0  0.00000000000E+00  0.00000000000E+00  0.45325710421E+02  0.45325710421E+02  0.00000000000E+00 0. -1.
         -2   -1    0    0    0  501 -0.00000000000E+00 -0.00000000000E+00 -0.67546097887E+03  0.67546097887E+03  0.00000000000E+00 0.  1.
         23    2    1    2    0    0  0.76734415878E+02  0.11403240649E+03 -0.35679447508E+03  0.40226690302E+03  0.12499921403E+03 0.  0.
         23    2    1    2    0    0 -0.76734415878E+02 -0.11403240649E+03 -0.27334079337E+03  0.31851978627E+03  0.88589528805E+02 0.  0.
          5    1    3    3  502    0 -0.26581714190E+00  0.10155919039E+03 -0.15007850743E+03  0.18127324184E+03  0.47000000000E+01 0. -1.
         -5    1    3    3    0  502  0.77000233020E+02  0.12473216100E+02 -0.20671596764E+03  0.22099366118E+03  0.47000000000E+01 0. -1.
        -11    1    4    4    0    0 -0.29339079406E+02 -0.99141801245E+02 -0.23160786847E+03  0.25363770042E+03  0.00000000000E+00 0. -1.
         11    1    4    4    0    0 -0.47395336472E+02 -0.14890605248E+02 -0.41732924897E+02  0.64882085851E+02  0.00000000000E+00 0.  1.
<mgrwt>
<rscale>  0 0.17995084E+03</rscale>
<asrwt>0</asrwt>
<pdfrwt beam="1">  1        2 0.69731867E-02 0.18578580E+03</pdfrwt>
<pdfrwt beam="2">  1       -2 0.10391707E+00 0.18578580E+03</pdfrwt>
<totfact> 0.78578980E+02</totfact>
</mgrwt>
</event>
<event>
 8    1  0.1550723E-005  0.1397167E+03  0.7546771E-02  0.1224776E+00
          1   -1    0    0  501    0  0.00000000000E+00  0.00000000000E+00  0.44653147198E+02  0.44653147198E+02  0.00000000000E+00 0. -1.
         -1   -1    0    0    0  501 -0.00000000000E+00 -0.00000000000E+00 -0.47243205517E+03  0.47243205517E+03  0.00000000000E+00 0.  1.
         23    2    1    2    0    0  0.60949633771E+02 -0.13391198191E+02 -0.36265004750E+03  0.38863324868E+03  0.12500625176E+03 0.  0.
         23    2    1    2    0    0 -0.60949633771E+02  0.13391198191E+02 -0.65128860475E+02  0.12845195369E+03  0.91454654859E+02 0.  0.
          5    1    3    3  502    0  0.51120427855E+02 -0.56295214993E+00 -0.38814094179E+02  0.64360228139E+02  0.47000000000E+01 0.  1.
         -5    1    3    3    0  502  0.98292059156E+01 -0.12828246041E+02 -0.32383595332E+03  0.32427302054E+03  0.47000000000E+01 0.  1.
        -11    1    4    4    0    0 -0.50397835299E+01 -0.28598558533E+02 -0.48581395356E+02  0.56598842240E+02  0.00000000000E+00 0.  1.
         11    1    4    4    0    0 -0.55909850241E+02  0.41989756725E+02 -0.16547465120E+02  0.71853111454E+02  0.00000000000E+00 0. -1.
<mgrwt>
<rscale>  0 0.13182240E+03</rscale>
<asrwt>0</asrwt>
<pdfrwt beam="1">  1        1 0.68697147E-02 0.13971666E+03</pdfrwt>
<pdfrwt beam="2">  1       -1 0.72681858E-01 0.13971666E+03</pdfrwt>
<totfact> 0.20707055E+03</totfact>
</mgrwt>
</event>
<event>
 8    1  0.1937896E-005  0.1881081E+03  0.7546771E-02  0.1165577E+00
         -1   -1    0    0    0  501 -0.00000000000E+00  0.00000000000E+00  0.67904274976E+02  0.67904274976E+02  0.00000000000E+00 0.  1.
          1   -1    0    0  501    0  0.00000000000E+00 -0.00000000000E+00 -0.47562982980E+03  0.47562982980E+03  0.00000000000E+00 0. -1.
         23    2    1    2    0    0  0.13490734813E+03  0.39493245368E+02 -0.16972319339E+03  0.25335867476E+03  0.12499978677E+03 0.  0.
         23    2    1    2    0    0 -0.13490734813E+03 -0.39493245368E+02 -0.23800236143E+03  0.29017543001E+03  0.88300323484E+02 0.  0.
          5    1    3    3  502    0  0.10727917803E+03 -0.20047456028E+02 -0.14822623018E+03  0.18412992110E+03  0.47000000000E+01 0. -1.
         -5    1    3    3    0  502  0.27628170095E+02  0.59540701396E+02 -0.21496963211E+02  0.69228753657E+02  0.47000000000E+01 0. -1.
        -11    1    4    4    0    0 -0.96880821677E+02 -0.24994929181E+02 -0.83240969121E+02  0.13015259903E+03  0.00000000000E+00 0.  1.
         11    1    4    4    0    0 -0.38026526450E+02 -0.14498316187E+02 -0.15476139231E+03  0.16002283098E+03  0.00000000000E+00 0. -1.
<mgrwt>
<rscale>  0 0.18231984E+03</rscale>
<asrwt>0</asrwt>
<pdfrwt beam="2">  1        1 0.73173817E-01 0.18810810E+03</pdfrwt>
<pdfrwt beam="1">  1       -1 0.10446812E-01 0.18810810E+03</pdfrwt>
<totfact> 0.27115851E+03</totfact>
</mgrwt>
</event>
<event>
 7    1  0.1550723E-005  0.1380629E+03  0.7546771E-02  0.1249630E+00
          3   -1    0    0  501    0  0.00000000000E+00  0.00000000000E+00  0.16413125148E+03  0.16413125148E+03  0.00000000000E+00 0. -1.
         -3   -1    0    0    0  501 -0.00000000000E+00 -0.00000000000E+00 -0.73896893213E+02  0.73896893213E+02  0.00000000000E+00 0.  1.
         23    2    1    2    0    0  0.31764852520E+02  0.49269837505E+02  0.20003959378E+02  0.13950452914E+03  0.12499933006E+03 0.  0.
          5    1    3    3  502    0  0.60321731619E+02  0.18632244565E+02  0.55661816187E+02  0.84298277706E+02  0.47000000000E+01 0. -1.
         -5    1    3    3    0  502 -0.28556879099E+02  0.30637592940E+02 -0.35657856809E+02  0.55206251433E+02  0.47000000000E+01 0. -1.
        -11    1    1    2    0    0  0.21438417345E+01 -0.15391179818E+02  0.37191203990E+02  0.40307196973E+02  0.00000000000E+00 0. -1.
         11    1    1    2    0    0 -0.33908694254E+02 -0.33878657687E+02  0.33039194896E+02  0.58216418578E+02  0.00000000000E+00 0.  1.
<mgrwt>
<rscale>  0 0.11612473E+03</rscale>
<asrwt>0</asrwt>
<pdfrwt beam="1">  1        3 0.25250962E-01 0.13806287E+03</pdfrwt>
<pdfrwt beam="2">  1       -3 0.11368753E-01 0.13806287E+03</pdfrwt>
<totfact> 0.20187572E+03</totfact>
</mgrwt>
</event>
<event>
 8    1  0.1550723E-005  0.1513390E+03  0.7546771E-02  0.1207814E+00
         -4   -1    0    0    0  501 -0.00000000000E+00  0.00000000000E+00  0.21298749591E+03  0.21298749591E+03  0.00000000000E+00 0. -1.
          4   -1    0    0  501    0  0.00000000000E+00 -0.00000000000E+00 -0.94115620250E+02  0.94115620250E+02  0.00000000000E+00 0.  1.
         23    2    1    2    0    0  0.56879490980E+02  0.63583593463E+02  0.99046016721E+02  0.18086900544E+03  0.12500133539E+03 0.  0.
         23    2    1    2    0    0 -0.56879490980E+02 -0.63583593463E+02  0.19825858934E+02  0.12623411071E+03  0.90905644342E+02 0.  0.
          5    1    3    3  502    0  0.66165505306E+02  0.64197877684E+02  0.11869223478E+02  0.93070994717E+02  0.47000000000E+01 0. -1.
         -5    1    3    3    0  502 -0.92860143262E+01 -0.61428422112E+00  0.87176793244E+02  0.87798010726E+02  0.47000000000E+01 0. -1.
        -11    1    4    4    0    0 -0.56279059521E+01 -0.32567512981E+02 -0.32750367641E+02  0.46528516071E+02  0.00000000000E+00 0.  1.
         11    1    4    4    0    0 -0.51251585028E+02 -0.31016080482E+02  0.52576226575E+02  0.79705594642E+02  0.00000000000E+00 0. -1.
<mgrwt>
<rscale>  0 0.14417880E+03</rscale>
<asrwt>0</asrwt>
<pdfrwt beam="2">  1        4 0.14479326E-01 0.15133897E+03</pdfrwt>
<pdfrwt beam="1">  1       -4 0.32767307E-01 0.15133897E+03</pdfrwt>
<totfact> 0.60938408E+02</totfact>
</mgrwt>
</event>
<event>
 8    1  0.1550723E-005  0.1678183E+03  0.7546771E-02  0.1186532E+00
         -3   -1    0    0    0  501 -0.00000000000E+00  0.00000000000E+00  0.18491935848E+03  0.18491935848E+03  0.00000000000E+00 0.  1.
          3   -1    0    0  501    0  0.00000000000E+00 -0.00000000000E+00 -0.14424411055E+03  0.14424411055E+03  0.00000000000E+00 0. -1.
         23    2    1    2    0    0 -0.28767833176E+02 -0.10822115110E+03  0.68109252194E+02  0.18111282355E+03  0.12499431526E+03 0.  0.
         23    2    1    2    0    0  0.28767833176E+02  0.10822115110E+03 -0.27434004266E+02  0.14805064548E+03  0.92881447364E+02 0.  0.
          5    1    3    3  502    0  0.46448271370E+02 -0.21500731953E+02  0.32575734710E+02  0.60852213433E+02  0.47000000000E+01 0.  1.
         -5    1    3    3    0  502 -0.75216104546E+02 -0.86720419152E+02  0.35533517484E+02  0.12026061012E+03  0.47000000000E+01 0.  1.
        -11    1    4    4    0    0 -0.29341113178E+02  0.54315012555E+02 -0.30232665074E+02  0.68738894003E+02  0.00000000000E+00 0. -1.
         11    1    4    4    0    0  0.58108946354E+02  0.53906138550E+02  0.27986608076E+01  0.79311751475E+02  0.00000000000E+00 0.  1.
<mgrwt>
<rscale>  0 0.16193298E+03</rscale>
<asrwt>0</asrwt>
<pdfrwt beam="2">  1        3 0.22191401E-01 0.16781831E+03</pdfrwt>
<pdfrwt beam="1">  1       -3 0.28449132E-01 0.16781831E+03</pdfrwt>
<totfact> 0.52724754E+02</totfact>
</mgrwt>
</event>
<event>
 8    1  0.1550723E-005  0.1331444E+03  0.7546771E-02  0.1235199E+00
         -4   -1    0    0    0  501 -0.00000000000E+00  0.00000000000E+00  0.47831082354E+03  0.47831082354E+03  0.00000000000E+00 0.  1.
          4   -1    0    0  501    0  0.00000000000E+00 -0.00000000000E+00 -0.30082757109E+02  0.30082757109E+02  0.00000000000E+00 0. -1.
         23    2    1    2    0    0  0.21648953317E+02  0.40435365203E+02  0.29523918665E+03  0.32387283980E+03  0.12499497224E+03 0.  0.
         23    2    1    2    0    0 -0.21648953317E+02 -0.40435365203E+02  0.15298887978E+03  0.18452074085E+03  0.92404602314E+02 0.  0.
          5    1    3    3  502    0  0.69292994443E+02 -0.10888921979E+01  0.14333141025E+03  0.15927550951E+03  0.47000000000E+01 0. -1.
         -5    1    3    3    0  502 -0.47644041125E+02  0.41524257401E+02  0.15190777640E+03  0.16459733029E+03  0.47000000000E+01 0. -1.
        -11    1    4    4    0    0  0.23064962285E+02 -0.50002423001E+01  0.11151899002E+03  0.11398894703E+03  0.00000000000E+00 0.  1.
         11    1    4    4    0    0 -0.44713915603E+02 -0.35435122903E+02  0.41469889757E+02  0.70531793824E+02  0.00000000000E+00 0. -1.
<mgrwt>
<rscale>  0 0.12491705E+03</rscale>
<asrwt>0</asrwt>
<pdfrwt beam="2">  1        4 0.46281168E-02 0.13314443E+03</pdfrwt>
<pdfrwt beam="1">  1       -4 0.73586275E-01 0.13314443E+03</pdfrwt>
<totfact> 0.76317884E+02</totfact>
</mgrwt>
</event>
<event>
 8    1  0.1550723E-005  0.2118691E+03  0.7546771E-02  0.1141555E+00
         -1   -1    0    0    0  501 -0.00000000000E+00  0.00000000000E+00  0.88251923845E+02  0.88251923845E+02  0.00000000000E+00 0.  1.
          1   -1    0    0  501    0  0.00000000000E+00 -0.00000000000E+00 -0.52581242845E+03  0.52581242845E+03  0.00000000000E+00 0. -1.
         23    2    1    2    0    0 -0.10272389553E+03 -0.13680385767E+03 -0.14362131142E+03  0.25596013913E+03  0.12498406915E+03 0.  0.
         23    2    1    2    0    0  0.10272389553E+03  0.13680385767E+03 -0.29393919318E+03  0.35810421316E+03  0.11211995368E+03 0.  0.
          5    1    3    3  502    0 -0.75826965304E+01 -0.98547165033E+02 -0.10996654108E+03  0.14793164360E+03  0.47000000000E+01 0.  1.
         -5    1    3    3    0  502 -0.95141198999E+02 -0.38256692636E+02 -0.33654770343E+02  0.10802849552E+03  0.47000000000E+01 0.  1.
        -11    1    4    4    0    0 -0.70397695929E+01  0.55370723919E+02 -0.14792511343E+03  0.15810539082E+03  0.00000000000E+00 0. -1.
         11    1    4    4    0    0  0.10976366512E+03  0.81433133750E+02 -0.14601407975E+03  0.19999882234E+03  0.00000000000E+00 0.  1.
<mgrwt>
<rscale>  0 0.21001367E+03</rscale>
<asrwt>0</asrwt>
<pdfrwt beam="2">  1        1 0.80894218E-01 0.21186909E+03</pdfrwt>
<pdfrwt beam="1">  1       -1 0.13577219E-01 0.21186909E+03</pdfrwt>
<totfact> 0.15833406E+03</totfact>
</mgrwt>
</event>
<event>
 8    1  0.1550723E-005  0.1277932E+03  0.7546771E-02  0.1252315E+00
         -2   -1    0    0    0  501 -0.00000000000E+00  0.00000000000E+00  0.10772337104E+03  0.10772337104E+03  0.00000000000E+00 0.  1.
          2   -1    0    0  501    0  0.00000000000E+00 -0.00000000000E+00 -0.11643165468E+03  0.11643165468E+03  0.00000000000E+00 0. -1.
         23    2    1    2    0    0 -0.17679934322E+02 -0.19745298811E+02  0.32492948636E+02  0.13185939965E+03  0.12501460979E+03 0.  0.
         23    2    1    2    0    0  0.17679934322E+02  0.19745298811E+02 -0.41201232283E+02  0.92295626076E+02  0.78220739885E+02 0.  0.
          5    1    3    3  502    0 -0.57192881107E+02  0.12891597232E+02 -0.16204824490E+02  0.61007419756E+02  0.47000000000E+01 0. -1.
         -5    1    3    3    0  502  0.39512946784E+02 -0.32636896044E+02  0.48697773127E+02  0.70851979891E+02  0.47000000000E+01 0. -1.
        -11    1    4    4    0    0  0.70502573574E+01 -0.24971372425E+02 -0.38273209905E+02  0.46239746604E+02  0.00000000000E+00 0. -1.
         11    1    4    4    0    0  0.10629676965E+02  0.44716671236E+02 -0.29280223782E+01  0.46055879471E+02  0.00000000000E+00 0.  1.
<mgrwt>
<rscale>  0 0.11458069E+03</rscale>
<asrwt>0</asrwt>
<pdfrwt beam="2">  1        2 0.17912562E-01 0.12779323E+03</pdfrwt>
<pdfrwt beam="1">  1       -2 0.16572826E-01 0.12779323E+03</pdfrwt>
<totfact> 0.85832716E+03</totfact>
</mgrwt>
</event>
<event>
 8    1  0.1550723E-005  0.1184446E+03  0.7546771E-02  0.1257203E+00
          1   -1    0    0  501    0  0.00000000000E+00  0.00000000000E+00  0.54523006759E+03  0.54523006759E+03  0.00000000000E+00 0. -1.
         -1   -1    0    0    0  501 -0.00000000000E+00 -0.00000000000E+00 -0.20764288505E+02  0.20764288505E+02  0.00000000000E+00 0.  1.
         23    2    1    2    0    0  0.17161003290E+02  0.14806725209E+02  0.30460042586E+03  0.32681883837E+03  0.11625572904E+03 0.  0.
         23    2    1    2    0    0 -0.17161003290E+02 -0.14806725209E+02  0.21986535323E+03  0.23917551773E+03  0.91380608359E+02 0.  0.
          5    1    3    3  502    0 -0.40507116186E+02  0.38037541286E+02  0.15603893919E+03  0.16570431966E+03  0.47000000000E+01 0. -1.
         -5    1    3    3    0  502  0.57668119476E+02 -0.23230816077E+02  0.14856148667E+03  0.16111451871E+03  0.47000000000E+01 0.  1.
        -11    1    4    4    0    0 -0.50760048011E+02 -0.27796248994E+02  0.12682580592E+03  0.13940587857E+03  0.00000000000E+00 0. -1.
         11    1    4    4    0    0  0.33599044721E+02  0.12989523785E+02  0.93039547308E+02  0.99769639157E+02  0.00000000000E+00 0.  1.
<mgrwt>
<rscale>  0 0.11183847E+03</rscale>
<asrwt>0</asrwt>
<pdfrwt beam="1">  1        1 0.83881538E-01 0.11844464E+03</pdfrwt>
<pdfrwt beam="2">  1       -1 0.31945063E-02 0.11844464E+03</pdfrwt>
<totfact> 0.12962925E+04</totfact>
</mgrwt>
</event>
<event>
 7    1  0.1550723E-005  0.1558602E+03  0.7546771E-02  0.1213194E+00
          2   -1    0    0  501    0  0.00000000000E+00  0.00000000000E+00  0.59421908987E+03  0.59421908987E+03  0.00000000000E+00 0. -1.
         -2   -1    0    0    0  501 -0.00000000000E+00 -0.00000000000E+00 -0.47745892805E+02  0.47745892805E+02  0.00000000000E+00 0.  1.
         23    2    1    2    0    0 -0.46753240140E+02 -0.10553159932E+02  0.44382417008E+03  0.45533906500E+03  0.89758205853E+02 0.  0.
          5    1    1    2  502    0 -0.48376206457E+02 -0.22429433918E+02  0.48366098777E+02  0.72143650919E+02  0.47000000000E+01 0. -1.
         -5    1    1    2    0  502  0.95129446597E+02  0.32982593849E+02  0.54282928204E+02  0.11448226675E+03  0.47000000000E+01 0.  1.
        -11    1    3    3    0    0 -0.33245739639E+02 -0.46026717843E+02  0.34177442864E+03  0.34645850838E+03  0.00000000000E+00 0.  1.
         11    1    3    3    0    0 -0.13507500501E+02  0.35473557911E+02  0.10204974145E+03  0.10888055662E+03  0.00000000000E+00 0. -1.
<mgrwt>
<rscale>  0 0.14010021E+03</rscale>
<asrwt>0</asrwt>
<pdfrwt beam="1">  1        2 0.91418316E-01 0.15586023E+03</pdfrwt>
<pdfrwt beam="2">  1       -2 0.73455224E-02 0.15586023E+03</pdfrwt>
<totfact> 0.53629981E+03</totfact>
</mgrwt>
</event>
<event>
 8    1  0.3000981E-005  0.1944373E+03  0.7546771E-02  0.1159253E+00
          2   -1    0    0  501    0  0.00000000000E+00  0.00000000000E+00  0.12406613257E+04  0.12406613257E+04  0.00000000000E+00 0. -1.
         -2   -1    0    0    0  501 -0.00000000000E+00 -0.00000000000E+00 -0.31810941298E+02  0.31810941298E+02  0.00000000000E+00 0.  1.
         23    2    1    2    0    0  0.22265079320E+02 -0.14725897704E+03  0.39552496947E+03  0.44073332248E+03  0.12499967997E+03 0.  0.
         23    2    1    2    0    0 -0.22265079320E+02  0.14725897704E+03  0.81332541495E+03  0.83173894453E+03  0.90058321015E+02 0.  0.
          5    1    3    3  502    0  0.63779516030E+02 -0.13278121531E+03  0.26934406386E+03  0.30702930242E+03  0.47000000000E+01 0. -1.
         -5    1    3    3    0  502 -0.41514436710E+02 -0.14477761725E+02  0.12618090561E+03  0.13370402006E+03  0.47000000000E+01 0. -1.
        -11    1    4    4    0    0  0.21949920878E+02  0.12023083467E+03  0.56836845972E+03  0.58136043780E+03  0.00000000000E+00 0. -1.
         11    1    4    4    0    0 -0.44215000197E+02  0.27028142366E+02  0.24495695522E+03  0.25037850673E+03  0.00000000000E+00 0.  1.
<mgrwt>
<rscale>  0 0.18912531E+03</rscale>
<asrwt>0</asrwt>
<pdfrwt beam="1">  1        2 0.19087094E+00 0.19443729E+03</pdfrwt>
<pdfrwt beam="2">  1       -2 0.48939919E-02 0.19443729E+03</pdfrwt>
<totfact> 0.38088306E+03</totfact>
</mgrwt>
</event>
<event>
 8    1  0.1550723E-005  0.1735000E+03  0.7546771E-02  0.1180346E+00
          1   -1    0    0  501    0  0.00000000000E+00  0.00000000000E+00  0.11212350939E+03  0.11212350939E+03  0.00000000000E+00 0.  1.
         -1   -1    0    0    0  501 -0.00000000000E+00 -0.00000000000E+00 -0.26176273407E+03  0.26176273407E+03  0.00000000000E+00 0. -1.
         23    2    1    2    0    0  0.82705331149E+02 -0.87396062381E+02 -0.13904855616E+03  0.22234378069E+03  0.12499604922E+03 0.  0.
         23    2    1    2    0    0 -0.82705331149E+02  0.87396062381E+02 -0.10590668521E+02  0.15154246278E+03  0.91513453897E+02 0.  0.
          5    1    3    3  502    0  0.40750194289E+02  0.22363927622E+02 -0.75194664499E+02  0.88527121056E+02  0.47000000000E+01 0. -1.
         -5    1    3    3    0  502  0.41955136860E+02 -0.10975999000E+03 -0.63853891658E+02  0.13381665963E+03  0.47000000000E+01 0. -1.
        -11    1    4    4    0    0 -0.17990872940E+02 -0.85361165378E+01  0.23599158708E+02  0.30878100434E+02  0.00000000000E+00 0.  1.
         11    1    4    4    0    0 -0.64714458209E+02  0.95932178919E+02 -0.34189827229E+02  0.12066436234E+03  0.00000000000E+00 0. -1.
<mgrwt>
<rscale>  0 0.16762641E+03</rscale>
<asrwt>0</asrwt>
<pdfrwt beam="1">  1        1 0.17249771E-01 0.17350002E+03</pdfrwt>
<pdfrwt beam="2">  1       -1 0.40271189E-01 0.17350002E+03</pdfrwt>
<totfact> 0.18601287E+03</totfact>
</mgrwt>
</event>
<event>
 8    1  0.1550723E-005  0.1845629E+03  0.7546771E-02  0.1168896E+00
          2   -1    0    0  501    0  0.00000000000E+00  0.00000000000E+00  0.44681261882E+03  0.44681261882E+03  0.00000000000E+00 0. -1.
         -2   -1    0    0    0  501 -0.00000000000E+00 -0.00000000000E+00 -0.67531550912E+02  0.67531550912E+02  0.00000000000E+00 0.  1.
         23    2    1    2    0    0  0.61046030145E+02  0.12129598074E+03  0.20332962787E+03  0.27460225307E+03  0.12499650828E+03 0.  0.
         23    2    1    2    0    0 -0.61046030145E+02 -0.12129598074E+03  0.17595144003E+03  0.23974191666E+03  0.89877386561E+02 0.  0.
          5    1    3    3  502    0  0.88766244004E+02  0.11842700683E+03  0.19555194382E+03  0.24528973634E+03  0.47000000000E+01 0. -1.
         -5    1    3    3    0  502 -0.27720213859E+02  0.28689739008E+01  0.77776840489E+01  0.29312516726E+02  0.47000000000E+01 0. -1.
        -11    1    4    4    0    0 -0.31226783096E+02 -0.88648308565E+02  0.17115943808E+03  0.19526696556E+03  0.00000000000E+00 0. -1.
         11    1    4    4    0    0 -0.29819247049E+02 -0.32647672170E+02  0.47920019500E+01  0.44474951100E+02  0.00000000000E+00 0.  1.
<mgrwt>
<rscale>  0 0.17887490E+03</rscale>
<asrwt>0</asrwt>
<pdfrwt beam="1">  1        2 0.68740401E-01 0.18456289E+03</pdfrwt>
<pdfrwt beam="2">  1       -2 0.10389470E-01 0.18456289E+03</pdfrwt>
<totfact> 0.43183841E+03</totfact>
</mgrwt>
</event>
<event>
 8    1  0.1550723E-005  0.1304606E+03  0.7546771E-02  0.1238886E+00
          2   -1    0    0  501    0  0.00000000000E+00  0.00000000000E+00  0.36107556448E+02  0.36107556448E+02  0.00000000000E+00 0. -1.
         -2   -1    0    0    0  501 -0.00000000000E+00 -0.00000000000E+00 -0.37327001984E+03  0.37327001984E+03  0.00000000000E+00 0.  1.
         23    2    1    2    0    0 -0.42487218694E+02 -0.15931608726E+02 -0.18707869452E+03  0.22807545161E+03  0.12231514124E+03 0.  0.
         23    2    1    2    0    0  0.42487218694E+02  0.15931608726E+02 -0.15008376888E+03  0.18130212468E+03  0.91029351438E+02 0.  0.
          5    1    3    3  502    0 -0.81924689196E+02  0.10530656959E+02 -0.11944296019E+03  0.14529714441E+03  0.47000000000E+01 0. -1.
         -5    1    3    3    0  502  0.39437470503E+02 -0.26462265685E+02 -0.67635734332E+02  0.82778307204E+02  0.47000000000E+01 0.  1.
        -11    1    4    4    0    0  0.31747822119E+02  0.48434747186E+02 -0.12819937824E+03  0.14067313008E+03  0.00000000000E+00 0. -1.
         11    1    4    4    0    0  0.10739396575E+02 -0.32503138460E+02 -0.21884390631E+02  0.40628994595E+02  0.00000000000E+00 0.  1.
<mgrwt>
<rscale>  0 0.12258931E+03</rscale>
<asrwt>0</asrwt>
<pdfrwt beam="1">  1        2 0.55550088E-02 0.13046062E+03</pdfrwt>
<pdfrwt beam="2">  1       -2 0.57426156E-01 0.13046062E+03</pdfrwt>
<totfact> 0.37632213E+03</totfact>
</mgrwt>
</event>
<event>
 8    1  0.1550723E-005  0.1324329E+03  0.7546771E-02  0.1237044E+00
          1   -1    0    0  501    0  0.00000000000E+00  0.00000000000E+00  0.58493279862E+02  0.58493279862E+02  0.00000000000E+00 0. -1.
         -1   -1    0    0    0  501 -0.00000000000E+00 -0.00000000000E+00 -0.23496930549E+03  0.23496930549E+03  0.00000000000E+00 0.  1.
         23    2    1    2    0    0  0.13384212270E+02  0.41652683070E+02 -0.11400089569E+03  0.17474171986E+03  0.12499752517E+03 0.  0.
         23    2    1    2    0    0 -0.13384212270E+02 -0.41652683070E+02 -0.62475129939E+02  0.11872086549E+03  0.90980321484E+02 0.  0.
          5    1    3    3  502    0  0.53422610319E+02  0.63116716399E+02 -0.52217717995E+02  0.97910547209E+02  0.47000000000E+01 0. -1.
         -5    1    3    3    0  502 -0.40038398049E+02 -0.21464033329E+02 -0.61783177698E+02  0.76831172655E+02  0.47000000000E+01 0. -1.
        -11    1    4    4    0    0 -0.24859773244E+02  0.18777836345E+02 -0.45080067839E+02  0.54798065476E+02  0.00000000000E+00 0.  1.
         11    1    4    4    0    0  0.11475560974E+02 -0.60430519415E+02 -0.17395062101E+02  0.63922800016E+02  0.00000000000E+00 0. -1.
<mgrwt>
<rscale>  0 0.12374470E+03</rscale>
<asrwt>0</asrwt>
<pdfrwt beam="1">  1        1 0.89989660E-02 0.13243287E+03</pdfrwt>
<pdfrwt beam="2">  1       -1 0.36149124E-01 0.13243287E+03</pdfrwt>
<totfact> 0.52055633E+03</totfact>
</mgrwt>
</event>
<event>
 8    1  0.1550723E-005  0.1553040E+03  0.7546771E-02  0.1201990E+00
         -2   -1    0    0    0  501 -0.00000000000E+00  0.00000000000E+00  0.45349053515E+02  0.45349053515E+02  0.00000000000E+00 0.  1.
          2   -1    0    0  501    0  0.00000000000E+00 -0.00000000000E+00 -0.47076511528E+03  0.47076511528E+03  0.00000000000E+00 0. -1.
         23    2    1    2    0    0 -0.85179622893E+02  0.35198471917E+02 -0.17774633286E+03  0.23603621409E+03  0.12499933974E+03 0.  0.
         23    2    1    2    0    0  0.85179622893E+02 -0.35198471917E+02 -0.24766972891E+03  0.28007795471E+03  0.92783972301E+02 0.  0.
          5    1    3    3  502    0 -0.89499137328E+02 -0.23460839394E+02 -0.82815847121E+02  0.12426206622E+03  0.47000000000E+01 0.  1.
         -5    1    3    3    0  502  0.43195144351E+01  0.58659311311E+02 -0.94930485738E+02  0.11177414786E+03  0.47000000000E+01 0.  1.
        -11    1    4    4    0    0  0.45361186567E+02  0.29610108921E+02 -0.11579618950E+03  0.12784034301E+03  0.00000000000E+00 0.  1.
         11    1    4    4    0    0  0.39818436325E+02 -0.64808580837E+02 -0.13187353941E+03  0.15223761170E+03  0.00000000000E+00 0. -1.
<mgrwt>
<rscale>  0 0.14877234E+03</rscale>
<asrwt>0</asrwt>
<pdfrwt beam="2">  1        2 0.72425402E-01 0.15530401E+03</pdfrwt>
<pdfrwt beam="1">  1       -2 0.69767775E-02 0.15530401E+03</pdfrwt>
<totfact> 0.75254115E+03</totfact>
</mgrwt>
</event>
<event>
 8    1  0.1550723E-005  0.1697291E+03  0.7546771E-02  0.1184521E+00
          4   -1    0    0  501    0  0.00000000000E+00  0.00000000000E+00  0.10936221096E+03  0.10936221096E+03  0.00000000000E+00 0. -1.
         -4   -1    0    0    0  501 -0.00000000000E+00 -0.00000000000E+00 -0.24418560517E+03  0.24418560517E+03  0.00000000000E+00 0.  1.
         23    2    1    2    0    0  0.10939129883E+03 -0.34885159557E+02 -0.11531086740E+03  0.20519394649E+03  0.12499811566E+03 0.  0.
         23    2    1    2    0    0 -0.10939129883E+03  0.34885159557E+02 -0.19512526799E+02  0.14835386964E+03  0.91895056008E+02 0.  0.
          5    1    3    3  502    0  0.12301626182E+03  0.63900875784E+01 -0.10045596167E+03  0.15901988595E+03  0.47000000000E+01 0. -1.
         -5    1    3    3    0  502 -0.13624962997E+02 -0.41275247135E+02 -0.14854905735E+02  0.46174060544E+02  0.47000000000E+01 0. -1.
        -11    1    4    4    0    0 -0.25674859380E+02  0.24416850480E+00  0.34400333304E+02  0.42925993918E+02  0.00000000000E+00 0. -1.
         11    1    4    4    0    0 -0.83716439446E+02  0.34640991052E+02 -0.53912860103E+02  0.10542787572E+03  0.00000000000E+00 0.  1.
<mgrwt>
<rscale>  0 0.16375500E+03</rscale>
<asrwt>0</asrwt>
<pdfrwt beam="1">  1        4 0.16824956E-01 0.16972908E+03</pdfrwt>
<pdfrwt beam="2">  1       -4 0.37567016E-01 0.16972908E+03</pdfrwt>
<totfact> 0.36660304E+02</totfact>
</mgrwt>
</event>
<event>
 8    1  0.1550723E-005  0.1559178E+03  0.7546771E-02  0.1200908E+00
          2   -1    0    0  501    0  0.00000000000E+00  0.00000000000E+00  0.62025221923E+02  0.62025221923E+02  0.00000000000E+00 0. -1.
         -2   -1    0    0    0  501 -0.00000000000E+00 -0.00000000000E+00 -0.67131185249E+03  0.67131185249E+03  0.00000000000E+00 0.  1.
         23    2    1    2    0    0 -0.63501193856E+02  0.68209356898E+02 -0.57624803925E+03  0.59696915998E+03  0.12500182892E+03 0.  0.
         23    2    1    2    0    0  0.63501193856E+02 -0.68209356898E+02 -0.33038591315E+02  0.13636791443E+03  0.93913479233E+02 0.  0.
          5    1    3    3  502    0 -0.37910938642E+02 -0.11099901830E+01 -0.38857770921E+02  0.54502180763E+02  0.47000000000E+01 0. -1.
         -5    1    3    3    0  502 -0.25590255214E+02  0.69319347081E+02 -0.53739026833E+03  0.54246697922E+03  0.47000000000E+01 0. -1.
        -11    1    4    4    0    0  0.51315714385E+02 -0.64780523599E+01 -0.49218592584E+02  0.71398442288E+02  0.00000000000E+00 0.  1.
         11    1    4    4    0    0  0.12185479472E+02 -0.61731304538E+02  0.16180001270E+02  0.64969472147E+02  0.00000000000E+00 0. -1.
<mgrwt>
<rscale>  0 0.14964633E+03</rscale>
<asrwt>0</asrwt>
<pdfrwt beam="1">  1        2 0.95423424E-02 0.15591785E+03</pdfrwt>
<pdfrwt beam="2">  1       -2 0.10327874E+00 0.15591785E+03</pdfrwt>
<totfact> 0.53400914E+02</totfact>
</mgrwt>
</event>
<event>
 8    1  0.1550723E-005  0.1828946E+03  0.7546771E-02  0.1170821E+00
         -2   -1    0    0    0  501 -0.00000000000E+00  0.00000000000E+00  0.74041020056E+02  0.74041020056E+02  0.00000000000E+00 0.  1.
          2   -1    0    0  501    0  0.00000000000E+00 -0.00000000000E+00 -0.40083506558E+03  0.40083506558E+03  0.00000000000E+00 0. -1.
         23    2    1    2    0    0 -0.80096722716E+02  0.10681397621E+03 -0.15189177274E+03  0.23774260579E+03  0.12500290189E+03 0.  0.
         23    2    1    2    0    0  0.80096722716E+02 -0.10681397621E+03 -0.17490227279E+03  0.23713347984E+03  0.88412508920E+02 0.  0.
          5    1    3    3  502    0 -0.15683261561E+02  0.64889970889E+02 -0.14589338992E+03  0.16051057360E+03  0.47000000000E+01 0.  1.
         -5    1    3    3    0  502 -0.64413461155E+02  0.41924005316E+02 -0.59983828139E+01  0.77232032189E+02  0.47000000000E+01 0.  1.
        -11    1    4    4    0    0  0.90231828798E+02 -0.51710685739E+02 -0.11769016417E+03  0.15705652705E+03  0.00000000000E+00 0.  1.
         11    1    4    4    0    0 -0.10135106082E+02 -0.55103290467E+02 -0.57212108614E+02  0.80076952787E+02  0.00000000000E+00 0. -1.
<mgrwt>
<rscale>  0 0.17691659E+03</rscale>
<asrwt>0</asrwt>
<pdfrwt beam="2">  1        2 0.61666933E-01 0.18289460E+03</pdfrwt>
<pdfrwt beam="1">  1       -2 0.11390926E-01 0.18289460E+03</pdfrwt>
<totfact> 0.41943112E+03</totfact>
</mgrwt>
</event>
<event>
 8    1  0.1550723E-005  0.1467687E+03  0.7546771E-02  0.1214075E+00
          1   -1    0    0  501    0  0.00000000000E+00  0.00000000000E+00  0.20560386168E+02  0.20560386168E+02  0.00000000000E+00 0. -1.
         -1   -1    0    0    0  501 -0.00000000000E+00 -0.00000000000E+00 -0.98179371030E+03  0.98179371030E+03  0.00000000000E+00 0.  1.
         23    2    1    2    0    0  0.23744927768E+02 -0.73166468573E+02 -0.69741327352E+03  0.71268950013E+03  0.12499558308E+03 0.  0.
         23    2    1    2    0    0 -0.23744927768E+02  0.73166468573E+02 -0.26382005061E+03  0.28966459634E+03  0.91582779775E+02 0.  0.
          5    1    3    3  502    0 -0.75088230261E+01 -0.43773645777E+02 -0.63633643536E+03  0.63790176630E+03  0.47000000000E+01 0.  1.
         -5    1    3    3    0  502  0.31253750794E+02 -0.29392822796E+02 -0.61076838167E+02  0.74787733828E+02  0.47000000000E+01 0.  1.
        -11    1    4    4    0    0 -0.20451792001E+02  0.92154842743E+02 -0.24570979172E+03  0.26321871625E+03  0.00000000000E+00 0.  1.
         11    1    4    4    0    0 -0.32931357662E+01 -0.18988374170E+02 -0.18110258894E+02  0.26445880095E+02  0.00000000000E+00 0. -1.
<mgrwt>
<rscale>  0 0.13944707E+03</rscale>
<asrwt>0</asrwt>
<pdfrwt beam="1">  1        1 0.31631375E-02 0.14676869E+03</pdfrwt>
<pdfrwt beam="2">  1       -1 0.15104513E+00 0.14676869E+03</pdfrwt>
<totfact> 0.11530807E+03</totfact>
</mgrwt>
</event>
<event>
 8    1  0.1550723E-005  0.1366862E+03  0.7546771E-02  0.1229582E+00
          2   -1    0    0  501    0  0.00000000000E+00  0.00000000000E+00  0.33038450480E+02  0.33038450480E+02  0.00000000000E+00 0. -1.
         -2   -1    0    0    0  501 -0.00000000000E+00 -0.00000000000E+00 -0.45396742787E+03  0.45396742787E+03  0.00000000000E+00 0.  1.
         23    2    1    2    0    0  0.36193830334E+02  0.41831106477E+02 -0.25997572909E+03  0.29371839305E+03  0.12499311931E+03 0.  0.
         23    2    1    2    0    0 -0.36193830334E+02 -0.41831106477E+02 -0.16095324830E+03  0.19328748530E+03  0.91620243468E+02 0.  0.
          5    1    3    3  502    0  0.15639488115E+02  0.78715237454E+02 -0.22419707366E+03  0.23817451592E+03  0.47000000000E+01 0.  1.
         -5    1    3    3    0  502  0.20554342219E+02 -0.36884130977E+02 -0.35778655435E+02  0.55543877131E+02  0.47000000000E+01 0.  1.
        -11    1    4    4    0    0 -0.46623578628E+02  0.10239967340E+02 -0.10900555053E+03  0.11899926496E+03  0.00000000000E+00 0.  1.
         11    1    4    4    0    0  0.10429748294E+02 -0.52071073817E+02 -0.51947697773E+02  0.74288220343E+02  0.00000000000E+00 0. -1.
<mgrwt>
<rscale>  0 0.12857710E+03</rscale>
<asrwt>0</asrwt>
<pdfrwt beam="1">  1        2 0.50828391E-02 0.13668619E+03</pdfrwt>
<pdfrwt beam="2">  1       -2 0.69841135E-01 0.13668619E+03</pdfrwt>
<totfact> 0.28216443E+03</totfact>
</mgrwt>
</event>
<event>
 8    1  0.1550723E-005  0.2311773E+03  0.7546771E-02  0.1128850E+00
          2   -1    0    0  501    0  0.00000000000E+00  0.00000000000E+00  0.48855006809E+03  0.48855006809E+03  0.00000000000E+00 0. -1.
         -2   -1    0    0    0  501 -0.00000000000E+00 -0.00000000000E+00 -0.14190065501E+03  0.14190065501E+03  0.00000000000E+00 0.  1.
         23    2    1    2    0    0 -0.11053777232E+03 -0.16022413478E+03  0.10145218623E+02  0.23139982142E+03  0.12470998123E+03 0.  0.
         23    2    1    2    0    0  0.11053777232E+03  0.16022413478E+03  0.33650419446E+03  0.39905090168E+03  0.90089826089E+02 0.  0.
          5    1    3    3  502    0  0.20121921473E+02 -0.36954488301E+02 -0.23739124018E+02  0.48540312509E+02  0.47000000000E+01 0. -1.
         -5    1    3    3    0  502 -0.13065969379E+03 -0.12326964648E+03  0.33884342641E+02  0.18285950891E+03  0.47000000000E+01 0.  1.
        -11    1    4    4    0    0  0.26332469132E+02  0.68873625484E+02  0.20630555459E+03  0.21908664285E+03  0.00000000000E+00 0.  1.
         11    1    4    4    0    0  0.84205303183E+02  0.91350509294E+02  0.13019863987E+03  0.17996425883E+03  0.00000000000E+00 0. -1.
<mgrwt>
<rscale>  0 0.22688792E+03</rscale>
<asrwt>0</asrwt>
<pdfrwt beam="1">  1        2 0.75161548E-01 0.23117732E+03</pdfrwt>
<pdfrwt beam="2">  1       -2 0.21830870E-01 0.23117732E+03</pdfrwt>
<totfact> 0.11531984E+03</totfact>
</mgrwt>
</event>
<event>
 8    1  0.1550723E-005  0.1826807E+03  0.7546771E-02  0.1170473E+00
         -2   -1    0    0    0  501 -0.00000000000E+00  0.00000000000E+00  0.26959738553E+02  0.26959738553E+02  0.00000000000E+00 0.  1.
          2   -1    0    0  501    0  0.00000000000E+00 -0.00000000000E+00 -0.11227871567E+04  0.11227871567E+04  0.00000000000E+00 0. -1.
         23    2    1    2    0    0  0.38541752306E+01  0.13315683644E+03 -0.50123007935E+03  0.53348272011E+03  0.12500648964E+03 0.  0.
         23    2    1    2    0    0 -0.38541752306E+01 -0.13315683644E+03 -0.59459733879E+03  0.61626417514E+03  0.92140873143E+02 0.  0.
          5    1    3    3  502    0  0.13264830375E+02  0.24490972866E+02 -0.32466502524E+03  0.32589144219E+03  0.47000000000E+01 0.  1.
         -5    1    3    3    0  502 -0.94106551439E+01  0.10866586357E+03 -0.17656505410E+03  0.20759127791E+03  0.47000000000E+01 0.  1.
        -11    1    4    4    0    0 -0.43707372748E+02 -0.73137325137E+02 -0.24709770625E+03  0.26137459554E+03  0.00000000000E+00 0.  1.
         11    1    4    4    0    0  0.39853197518E+02 -0.60019511301E+02 -0.34749963254E+03  0.35488957959E+03  0.00000000000E+00 0. -1.
<mgrwt>
<rscale>  0 0.17726813E+03</rscale>
<asrwt>0</asrwt>
<pdfrwt beam="2">  1        2 0.17273649E+00 0.18268065E+03</pdfrwt>
<pdfrwt beam="1">  1       -2 0.41476519E-02 0.18268065E+03</pdfrwt>
<totfact> 0.56875197E+03</totfact>
</mgrwt>
</event>
<event>
 8    1  0.1550723E-005  0.2785837E+03  0.7546771E-02  0.1098394E+00
          2   -1    0    0  501    0  0.00000000000E+00  0.00000000000E+00  0.92555840947E+03  0.92555840947E+03  0.00000000000E+00 0. -1.
         -2   -1    0    0    0  501 -0.00000000000E+00 -0.00000000000E+00 -0.84864822896E+02  0.84864822896E+02  0.00000000000E+00 0.  1.
         23    2    1    2    0    0 -0.17294067763E+03 -0.17910929530E+03  0.30676345228E+03  0.41438232936E+03  0.12498112490E+03 0.  0.
         23    2    1    2    0    0  0.17294067763E+03  0.17910929530E+03  0.53393013429E+03  0.59604090301E+03  0.90524870143E+02 0.  0.
          5    1    3    3  502    0 -0.17100724896E+03 -0.15358439568E+03  0.20072101104E+03  0.30519282440E+03  0.47000000000E+01 0.  1.
         -5    1    3    3    0  502 -0.19334286699E+01 -0.25524899624E+02  0.10604244124E+03  0.10918950495E+03  0.47000000000E+01 0.  1.
        -11    1    4    4    0    0  0.20347625360E+02  0.74739743732E+02  0.19777915745E+03  0.21240680373E+03  0.00000000000E+00 0. -1.
         11    1    4    4    0    0  0.15259305227E+03  0.10436955157E+03  0.33615097685E+03  0.38363409928E+03  0.00000000000E+00 0.  1.
<mgrwt>
<rscale>  0 0.27510349E+03</rscale>
<asrwt>0</asrwt>
<pdfrwt beam="1">  1        2 0.14239360E+00 0.27858374E+03</pdfrwt>
<pdfrwt beam="2">  1       -2 0.13056127E-01 0.27858374E+03</pdfrwt>
<totfact> 0.12605649E+03</totfact>
</mgrwt>
</event>
<event>
 8    1  0.1550723E-005  0.1441664E+03  0.7546771E-02  0.1217944E+00
          1   -1    0    0  501    0  0.00000000000E+00  0.00000000000E+00  0.10918020345E+03  0.10918020345E+03  0.00000000000E+00 0. -1.
         -1   -1    0    0    0  501 -0.00000000000E+00 -0.00000000000E+00 -0.25472640402E+03  0.25472640402E+03  0.00000000000E+00 0.  1.
         23    2    1    2    0    0  0.61437919082E+02 -0.37220102159E+02 -0.19078605086E+03  0.23913023055E+03  0.12499598415E+03 0.  0.
         23    2    1    2    0    0 -0.61437919082E+02  0.37220102159E+02  0.45239850294E+02  0.12477637692E+03  0.91446958820E+02 0.  0.
          5    1    3    3  502    0 -0.22355074120E+02  0.26636746518E+02 -0.73238304720E+02  0.81210866774E+02  0.47000000000E+01 0. -1.
         -5    1    3    3    0  502  0.83792993203E+02 -0.63856848677E+02 -0.11754774614E+03  0.15791936378E+03  0.47000000000E+01 0. -1.
        -11    1    4    4    0    0 -0.35856216554E+02 -0.17211189709E+02 -0.12208783360E+02  0.41604659690E+02  0.00000000000E+00 0.  1.
         11    1    4    4    0    0 -0.25581702528E+02  0.54431291869E+02  0.57448633653E+02  0.83171717232E+02  0.00000000000E+00 0. -1.
<mgrwt>
<rscale>  0 0.13662499E+03</rscale>
<asrwt>0</asrwt>
<pdfrwt beam="1">  1        1 0.16796955E-01 0.14416640E+03</pdfrwt>
<pdfrwt beam="2">  1       -1 0.39188677E-01 0.14416640E+03</pdfrwt>
<totfact> 0.20059988E+03</totfact>
</mgrwt>
</event>
<event>
 8    1  0.1550723E-005  0.1864692E+03  0.7546771E-02  0.1166716E+00
          2   -1    0    0  501    0  0.00000000000E+00  0.00000000000E+00  0.16034884571E+03  0.16034884571E+03  0.00000000000E+00 0.  1.
         -2   -1    0    0    0  501 -0.00000000000E+00 -0.00000000000E+00 -0.36809726951E+03  0.36809726951E+03  0.00000000000E+00 0. -1.
         23    2    1    2    0    0  0.51197615627E+01 -0.13827353338E+03 -0.28875656948E+03  0.34373115857E+03  0.12499988386E+03 0.  0.
         23    2    1    2    0    0 -0.51197615627E+01  0.13827353338E+03  0.81008145678E+02  0.18471495664E+03  0.91714303962E+02 0.  0.
          5    1    3    3  502    0  0.25754229091E+02 -0.44002045479E+02 -0.21811287979E+03  0.22404191272E+03  0.47000000000E+01 0.  1.
         -5    1    3    3    0  502 -0.20634467528E+02 -0.94271487898E+02 -0.70643689687E+02  0.11968924585E+03  0.47000000000E+01 0.  1.
        -11    1    4    4    0    0  0.36262293456E+02  0.50445126596E+02  0.67670396858E+01  0.62493660080E+02  0.00000000000E+00 0.  1.
         11    1    4    4    0    0 -0.41382055019E+02  0.87828406780E+02  0.74241105992E+02  0.12222129657E+03  0.00000000000E+00 0. -1.
<mgrwt>
<rscale>  0 0.18112769E+03</rscale>
<asrwt>0</asrwt>
<pdfrwt beam="1">  1        2 0.24669053E-01 0.18646917E+03</pdfrwt>
<pdfrwt beam="2">  1       -2 0.56630349E-01 0.18646917E+03</pdfrwt>
<totfact> 0.64922524E+02</totfact>
</mgrwt>
</event>
<event>
 8    1  0.1550723E-005  0.2010129E+03  0.7546771E-02  0.1153529E+00
          2   -1    0    0  501    0  0.00000000000E+00  0.00000000000E+00  0.48960494233E+03  0.48960494233E+03  0.00000000000E+00 0. -1.
         -2   -1    0    0    0  501 -0.00000000000E+00 -0.00000000000E+00 -0.10646571480E+03  0.10646571480E+03  0.00000000000E+00 0.  1.
         23    2    1    2    0    0 -0.14914759136E+03 -0.50325603255E+02  0.34918175542E+02  0.20402324077E+03  0.12501413296E+03 0.  0.
         23    2    1    2    0    0  0.14914759136E+03  0.50325603255E+02  0.34822105199E+03  0.39204741636E+03  0.87553442382E+02 0.  0.
          5    1    3    3  502    0 -0.46320706256E+02 -0.80560445599E+02  0.24610672928E+02  0.96246394453E+02  0.47000000000E+01 0. -1.
         -5    1    3    3    0  502 -0.10282688510E+03  0.30234842345E+02  0.10307502613E+02  0.10777684631E+03  0.47000000000E+01 0. -1.
        -11    1    4    4    0    0  0.14659627005E+03  0.19497901694E+02  0.26846889232E+03  0.30650641218E+03  0.00000000000E+00 0.  1.
         11    1    4    4    0    0  0.25513213078E+01  0.30827701560E+02  0.79752159672E+02  0.85541004180E+02  0.00000000000E+00 0. -1.
<mgrwt>
<rscale>  0 0.19557287E+03</rscale>
<asrwt>0</asrwt>
<pdfrwt beam="1">  1        2 0.75323836E-01 0.20101294E+03</pdfrwt>
<pdfrwt beam="2">  1       -2 0.16379341E-01 0.20101294E+03</pdfrwt>
<totfact> 0.18693501E+03</totfact>
</mgrwt>
</event>
<event>
 8    1  0.1550723E-005  0.1603268E+03  0.7546771E-02  0.1195962E+00
          2   -1    0    0  501    0  0.00000000000E+00  0.00000000000E+00  0.25297705947E+03  0.25297705947E+03  0.00000000000E+00 0. -1.
         -2   -1    0    0    0  501 -0.00000000000E+00 -0.00000000000E+00 -0.87627386817E+02  0.87627386817E+02  0.00000000000E+00 0.  1.
         23    2    1    2    0    0  0.46283052898E+02  0.89084447241E+02  0.70261705018E+02  0.17504681294E+03  0.12500607906E+03 0.  0.
         23    2    1    2    0    0 -0.46283052898E+02 -0.89084447241E+02  0.95087967634E+02  0.16555763335E+03  0.91046409290E+02 0.  0.
          5    1    3    3  502    0 -0.36122998230E+02  0.15494156945E+02  0.48049908479E+02  0.62256112996E+02  0.47000000000E+01 0. -1.
         -5    1    3    3    0  502  0.82406051128E+02  0.73590290296E+02  0.22211796539E+02  0.11279069994E+03  0.47000000000E+01 0. -1.
        -11    1    4    4    0    0 -0.36790950065E+02 -0.58723026725E+02  0.11032766218E+03  0.13028492206E+03  0.00000000000E+00 0. -1.
         11    1    4    4    0    0 -0.94921028331E+01 -0.30361420516E+02 -0.15239694541E+02  0.35272711289E+02  0.00000000000E+00 0.  1.
<mgrwt>
<rscale>  0 0.15373089E+03</rscale>
<asrwt>0</asrwt>
<pdfrwt beam="1">  1        2 0.38919547E-01 0.16032679E+03</pdfrwt>
<pdfrwt beam="2">  1       -2 0.13481137E-01 0.16032679E+03</pdfrwt>
<totfact> 0.51984291E+03</totfact>
</mgrwt>
</event>
<event>
 7    1  0.1550723E-005  0.1989873E+03  0.7546771E-02  0.1153115E+00
          1   -1    0    0  501    0  0.00000000000E+00  0.00000000000E+00  0.76178124668E+03  0.76178124668E+03  0.00000000000E+00 0. -1.
         -1   -1    0    0    0  501 -0.00000000000E+00 -0.00000000000E+00 -0.63748436678E+02  0.63748436678E+02  0.00000000000E+00 0.  1.
         23    2    1    2    0    0  0.13235736483E+03  0.44842354889E+02  0.14269693326E+03  0.23561962559E+03  0.12499953753E+03 0.  0.
          5    1    3    3  502    0  0.32429868067E+02 -0.33341298023E+02  0.29982337673E+01  0.46844614444E+02  0.47000000000E+01 0.  1.
         -5    1    3    3    0  502  0.99927496761E+02  0.78183652912E+02  0.13969869949E+03  0.18877501114E+03  0.47000000000E+01 0.  1.
        -11    1    1    2    0    0 -0.12954779870E+03 -0.86986704072E+02  0.41553405418E+03  0.44386694968E+03  0.00000000000E+00 0.  1.
         11    1    1    2    0    0 -0.28095661272E+01  0.42144349183E+02  0.13980182256E+03  0.14604310809E+03  0.00000000000E+00 0. -1.
<mgrwt>
<rscale>  0 0.19604968E+03</rscale>
<asrwt>0</asrwt>
<pdfrwt beam="1">  1        1 0.11719711E+00 0.19898729E+03</pdfrwt>
<pdfrwt beam="2">  1       -1 0.98074524E-02 0.19898729E+03</pdfrwt>
<totfact> 0.15567062E+03</totfact>
</mgrwt>
</event>
<event>
 8    1  0.1550723E-005  0.1420824E+03  0.7546771E-02  0.1221614E+00
          1   -1    0    0  501    0  0.00000000000E+00  0.00000000000E+00  0.37310181620E+03  0.37310181620E+03  0.00000000000E+00 0. -1.
         -1   -1    0    0    0  501 -0.00000000000E+00 -0.00000000000E+00 -0.43619650673E+02  0.43619650673E+02  0.00000000000E+00 0.  1.
         23    2    1    2    0    0  0.61847769709E+02 -0.27154034153E+02  0.16968605081E+03  0.22131600581E+03  0.12499972161E+03 0.  0.
         23    2    1    2    0    0 -0.61847769709E+02  0.27154034153E+02  0.15979611471E+03  0.19540546106E+03  0.89922231646E+02 0.  0.
          5    1    3    3  502    0  0.55755614284E+02 -0.56221301650E+01  0.65842589248E+01  0.56619248824E+02  0.47000000000E+01 0. -1.
         -5    1    3    3    0  502  0.60921554252E+01 -0.21531903988E+02  0.16310179189E+03  0.16469675699E+03  0.47000000000E+01 0. -1.
        -11    1    4    4    0    0 -0.74133919266E+02 -0.93306113309E+00  0.75979764738E+02  0.10615852881E+03  0.00000000000E+00 0.  1.
         11    1    4    4    0    0  0.12286149557E+02  0.28087095286E+02  0.83816349976E+02  0.89246932249E+02  0.00000000000E+00 0. -1.
<mgrwt>
<rscale>  0 0.13401708E+03</rscale>
<asrwt>0</asrwt>
<pdfrwt beam="1">  1        1 0.57400277E-01 0.14208244E+03</pdfrwt>
<pdfrwt beam="2">  1       -1 0.67107158E-02 0.14208244E+03</pdfrwt>
<totfact> 0.71494498E+03</totfact>
</mgrwt>
</event>
<event>
 8    1  0.1550723E-005  0.1384204E+03  0.7546771E-02  0.1226964E+00
         -2   -1    0    0    0  501 -0.00000000000E+00  0.00000000000E+00  0.40592443855E+02  0.40592443855E+02  0.00000000000E+00 0.  1.
          2   -1    0    0  501    0  0.00000000000E+00 -0.00000000000E+00 -0.40094017190E+03  0.40094017190E+03  0.00000000000E+00 0. -1.
         23    2    1    2    0    0  0.51378303747E+02  0.29723833812E+02 -0.14618596769E+03  0.20132197388E+03  0.12504784534E+03 0.  0.
         23    2    1    2    0    0 -0.51378303747E+02 -0.29723833812E+02 -0.21416176036E+03  0.24021064188E+03  0.91173770800E+02 0.  0.
          5    1    3    3  502    0 -0.20262638708E+02  0.15888209781E+02 -0.12129249068E+03  0.12408451971E+03  0.47000000000E+01 0. -1.
         -5    1    3    3    0  502  0.71640942455E+02  0.13835624032E+02 -0.24893477014E+02  0.77237454166E+02  0.47000000000E+01 0. -1.
        -11    1    4    4    0    0 -0.34325773656E+02 -0.40318047715E+02 -0.21366556272E+03  0.22012899945E+03  0.00000000000E+00 0. -1.
         11    1    4    4    0    0 -0.17052530090E+02  0.10594213902E+02 -0.49619764277E+00  0.20081642433E+02  0.00000000000E+00 0.  1.
<mgrwt>
<rscale>  0 0.13033172E+03</rscale>
<asrwt>0</asrwt>
<pdfrwt beam="2">  1        2 0.61683102E-01 0.13842037E+03</pdfrwt>
<pdfrwt beam="1">  1       -2 0.62449915E-02 0.13842037E+03</pdfrwt>
<totfact> 0.10522473E+04</totfact>
</mgrwt>
</event>
<event>
 8    1  0.1550723E-005  0.1256056E+03  0.7546771E-02  0.1250144E+00
         -2   -1    0    0    0  501 -0.00000000000E+00  0.00000000000E+00  0.69878785660E+03  0.69878785660E+03  0.00000000000E+00 0.  1.
          2   -1    0    0  501    0  0.00000000000E+00 -0.00000000000E+00 -0.16771521714E+02  0.16771521714E+02  0.00000000000E+00 0. -1.
         23    2    1    2    0    0 -0.48124401942E+01 -0.11343761721E+02  0.40555084775E+03  0.42455653692E+03  0.12499968967E+03 0.  0.
         23    2    1    2    0    0  0.48124401942E+01  0.11343761721E+02  0.27646548714E+03  0.29100284140E+03  0.89986930232E+02 0.  0.
          5    1    3    3  502    0  0.33255867699E+02  0.25330032364E+02  0.51252834407E+02  0.66306155903E+02  0.47000000000E+01 0.  1.
         -5    1    3    3    0  502 -0.38068307893E+02 -0.36673794084E+02  0.35429801334E+03  0.35825038101E+03  0.47000000000E+01 0.  1.
        -11    1    4    4    0    0 -0.40372934024E+02  0.13792900621E+02  0.97893921861E+02  0.10678688050E+03  0.00000000000E+00 0. -1.
         11    1    4    4    0    0  0.45185374219E+02 -0.24491388999E+01  0.17857156528E+03  0.18421596090E+03  0.00000000000E+00 0.  1.
<mgrwt>
<rscale>  0 0.11582707E+03</rscale>
<asrwt>0</asrwt>
<pdfrwt beam="2">  1        2 0.25802347E-02 0.12560558E+03</pdfrwt>
<pdfrwt beam="1">  1       -2 0.10750580E+00 0.12560558E+03</pdfrwt>
<totfact> 0.26419939E+03</totfact>
</mgrwt>
</event>
<event>
 8    1  0.1550723E-005  0.1687562E+03  0.7546771E-02  0.1185877E+00
         -2   -1    0    0    0  501 -0.00000000000E+00  0.00000000000E+00  0.44189547892E+03  0.44189547892E+03  0.00000000000E+00 0.  1.
          2   -1    0    0  501    0  0.00000000000E+00 -0.00000000000E+00 -0.13082987828E+03  0.13082987828E+03  0.00000000000E+00 0. -1.
         23    2    1    2    0    0 -0.13173857749E+02 -0.11260288656E+03  0.37717685930E+03  0.41320823156E+03  0.12500279535E+03 0.  0.
         23    2    1    2    0    0  0.13173857749E+02  0.11260288656E+03 -0.66111258660E+02  0.15951712564E+03  0.90675543893E+02 0.  0.
          5    1    3    3  502    0 -0.37822084624E+02 -0.37137806606E+02  0.29147122714E+03  0.29628920503E+03  0.47000000000E+01 0.  1.
         -5    1    3    3    0  502  0.24648226875E+02 -0.75465079958E+02  0.85705632158E+02  0.11691902653E+03  0.47000000000E+01 0.  1.
        -11    1    4    4    0    0  0.12964773970E+02  0.88989463113E+02 -0.89076360716E+02  0.12657728053E+03  0.00000000000E+00 0. -1.
         11    1    4    4    0    0  0.20908377898E+00  0.23613423451E+02  0.22965102056E+02  0.32939845105E+02  0.00000000000E+00 0.  1.
<mgrwt>
<rscale>  0 0.16252337E+03</rscale>
<asrwt>0</asrwt>
<pdfrwt beam="2">  1        2 0.20127674E-01 0.16875621E+03</pdfrwt>
<pdfrwt beam="1">  1       -2 0.67983919E-01 0.16875621E+03</pdfrwt>
<totfact> 0.55742904E+02</totfact>
</mgrwt>
</event>
<event>
 8    1  0.1550723E-005  0.1717662E+03  0.7546771E-02  0.1182424E+00
          1   -1    0    0  501    0  0.00000000000E+00  0.00000000000E+00  0.35986364072E+03  0.35986364072E+03  0.00000000000E+00 0. -1.
         -1   -1    0    0    0  501 -0.00000000000E+00 -0.00000000000E+00 -0.72046160608E+02  0.72046160608E+02  0.00000000000E+00 0.  1.
         23    2    1    2    0    0  0.15412849594E+01 -0.11779627126E+03  0.13293835897E+03  0.21720089023E+03  0.12500112940E+03 0.  0.
         23    2    1    2    0    0 -0.15412849594E+01  0.11779627126E+03  0.15487912115E+03  0.21470891110E+03  0.90741596057E+02 0.  0.
          5    1    3    3  502    0 -0.92998928153E+01 -0.45565410570E+02  0.13613936129E+03  0.14393995393E+03  0.47000000000E+01 0.  1.
         -5    1    3    3    0  502  0.10841177775E+02 -0.72230860690E+02 -0.32010023210E+01  0.73260936299E+02  0.47000000000E+01 0.  1.
        -11    1    4    4    0    0 -0.12960896610E+02  0.12607382751E+03  0.15548162945E+03  0.20059195378E+03  0.00000000000E+00 0. -1.
         11    1    4    4    0    0  0.11419611650E+02 -0.82775562493E+01 -0.60250830312E+00  0.14116957320E+02  0.00000000000E+00 0.  1.
<mgrwt>
<rscale>  0 0.16568480E+03</rscale>
<asrwt>0</asrwt>
<pdfrwt beam="1">  1        1 0.55363636E-01 0.17176618E+03</pdfrwt>
<pdfrwt beam="2">  1       -1 0.11084025E-01 0.17176618E+03</pdfrwt>
<totfact> 0.35241712E+03</totfact>
</mgrwt>
</event>
<event>
 8    1  0.1550723E-005  0.1361262E+03  0.7546771E-02  0.1226478E+00
         -1   -1    0    0    0  501 -0.00000000000E+00  0.00000000000E+00  0.16280368540E+03  0.16280368540E+03  0.00000000000E+00 0.  1.
          1   -1    0    0  501    0  0.00000000000E+00 -0.00000000000E+00 -0.13121316218E+03  0.13121316218E+03  0.00000000000E+00 0. -1.
         23    2    1    2    0    0  0.20952476897E+02  0.66578276164E+02  0.91343962681E+02  0.16393306515E+03  0.11687025792E+03 0.  0.
         23    2    1    2    0    0 -0.20952476897E+02 -0.66578276164E+02 -0.59753439461E+02  0.13008378242E+03  0.92084981280E+02 0.  0.
          5    1    3    3  502    0 -0.35406011294E+02 -0.51489129633E+01  0.54667901537E+02  0.65503941858E+02  0.47000000000E+01 0. -1.
         -5    1    3    3    0  502  0.56358488191E+02  0.71727189127E+02  0.36676061144E+02  0.98429123293E+02  0.47000000000E+01 0.  1.
        -11    1    4    4    0    0  0.33577439721E+02 -0.36663629833E+02 -0.10658704476E+02  0.50845591666E+02  0.00000000000E+00 0.  1.
         11    1    4    4    0    0 -0.54529916618E+02 -0.29914646331E+02 -0.49094734985E+02  0.79238190759E+02  0.00000000000E+00 0. -1.
<mgrwt>
<rscale>  0 0.13066122E+03</rscale>
<asrwt>0</asrwt>
<pdfrwt beam="2">  1        1 0.20186640E-01 0.13612616E+03</pdfrwt>
<pdfrwt beam="1">  1       -1 0.25046721E-01 0.13612616E+03</pdfrwt>
<totfact> 0.33739751E+03</totfact>
</mgrwt>
</event>
<event>
 7    1  0.1550723E-005  0.1559778E+03  0.7546771E-02  0.1200989E+00
          3   -1    0    0  501    0  0.00000000000E+00  0.00000000000E+00  0.34876352194E+03  0.34876352194E+03  0.00000000000E+00 0. -1.
         -3   -1    0    0    0  501 -0.00000000000E+00 -0.00000000000E+00 -0.70422719428E+02  0.70422719428E+02  0.00000000000E+00 0.  1.
         23    2    1    2    0    0  0.35966936535E+02 -0.21989070955E+02  0.46736668126E+02  0.13995594052E+03  0.12500483740E+03 0.  0.
          5    1    3    3  502    0  0.18715439124E+02 -0.69180514331E+01 -0.42778645377E+02  0.47436585011E+02  0.47000000000E+01 0. -1.
         -5    1    3    3    0  502  0.17251497411E+02 -0.15071019522E+02  0.89515313503E+02  0.92519355509E+02  0.47000000000E+01 0. -1.
        -11    1    1    2    0    0 -0.85728388144E+01 -0.55676212104E+02  0.16161928092E+03  0.17115526906E+03  0.00000000000E+00 0.  1.
         11    1    1    2    0    0 -0.27394097721E+02  0.77665283058E+02  0.69984853464E+02  0.10807503179E+03  0.00000000000E+00 0. -1.
<mgrwt>
<rscale>  0 0.14958095E+03</rscale>
<asrwt>0</asrwt>
<pdfrwt beam="1">  1        3 0.53655925E-01 0.15597784E+03</pdfrwt>
<pdfrwt beam="2">  1       -3 0.10834265E-01 0.15597784E+03</pdfrwt>
<totfact> 0.52875018E+02</totfact>
</mgrwt>
</event>
<event>
 8    1  0.1550723E-005  0.1394616E+03  0.7546771E-02  0.1226166E+00
          2   -1    0    0  501    0  0.00000000000E+00  0.00000000000E+00  0.87846087797E+02  0.87846087797E+02  0.00000000000E+00 0. -1.
         -2   -1    0    0    0  501 -0.00000000000E+00 -0.00000000000E+00 -0.18261178521E+03  0.18261178521E+03  0.00000000000E+00 0.  1.
         23    2    1    2    0    0 -0.50470580084E+02 -0.35741118486E+02 -0.81407011018E+02  0.16148263599E+03  0.12499933311E+03 0.  0.
         23    2    1    2    0    0  0.50470580084E+02  0.35741118486E+02 -0.13358686391E+02  0.10897523702E+03  0.88726775982E+02 0.  0.
          5    1    3    3  502    0 -0.70257645450E+02  0.20132060060E+02 -0.19807023323E+02  0.75867283854E+02  0.47000000000E+01 0.  1.
         -5    1    3    3    0  502  0.19787065366E+02 -0.55873178546E+02 -0.61599987696E+02  0.85615352132E+02  0.47000000000E+01 0.  1.
        -11    1    4    4    0    0  0.29064951531E+02 -0.56347212289E+01 -0.44132684083E+02  0.53143346670E+02  0.00000000000E+00 0.  1.
         11    1    4    4    0    0  0.21405628553E+02  0.41375839715E+02  0.30773997692E+02  0.55831890348E+02  0.00000000000E+00 0. -1.
<mgrwt>
<rscale>  0 0.13087328E+03</rscale>
<asrwt>0</asrwt>
<pdfrwt beam="1">  1        2 0.13514783E-01 0.13946161E+03</pdfrwt>
<pdfrwt beam="2">  1       -2 0.28094121E-01 0.13946161E+03</pdfrwt>
<totfact> 0.48616290E+03</totfact>
</mgrwt>
</event>
<event>
 8    1  0.1550723E-005  0.1278111E+03  0.7546771E-02  0.1254151E+00
          2   -1    0    0  501    0  0.00000000000E+00  0.00000000000E+00  0.10002089926E+02  0.10002089926E+02  0.00000000000E+00 0. -1.
         -2   -1    0    0    0  501 -0.00000000000E+00 -0.00000000000E+00 -0.11542591623E+04  0.11542591623E+04  0.00000000000E+00 0.  1.
         23    2    1    2    0    0 -0.26380794979E+02  0.36145311890E+01 -0.84447334059E+03  0.85409068910E+03  0.12500668406E+03 0.  0.
         23    2    1    2    0    0  0.26380794979E+02 -0.36145311890E+01 -0.29978373183E+03  0.31017056317E+03  0.75009874073E+02 0.  0.
          5    1    3    3  502    0 -0.26246984139E+02 -0.44051593974E+02 -0.69985715851E+03  0.70174894330E+03  0.47000000000E+01 0. -1.
         -5    1    3    3    0  502 -0.13381083998E+00  0.47666125163E+02 -0.14461618208E+03  0.15234174580E+03  0.47000000000E+01 0. -1.
        -11    1    4    4    0    0  0.19222016472E+02 -0.36209836100E+02 -0.21832977951E+03  0.22214529202E+03  0.00000000000E+00 0.  1.
         11    1    4    4    0    0  0.71587785073E+01  0.32595304911E+02 -0.81453952322E+02  0.88025271149E+02  0.00000000000E+00 0. -1.
<mgrwt>
<rscale>  0 0.11354004E+03</rscale>
<asrwt>0</asrwt>
<pdfrwt beam="1">  1        2 0.15387831E-02 0.12781112E+03</pdfrwt>
<pdfrwt beam="2">  1       -2 0.17757833E+00 0.12781112E+03</pdfrwt>
<totfact> 0.15246908E+03</totfact>
</mgrwt>
</event>
<event>
 8    1  0.1550723E-005  0.2180569E+03  0.7546771E-02  0.1138728E+00
         -3   -1    0    0    0  501 -0.00000000000E+00  0.00000000000E+00  0.12773734013E+04  0.12773734013E+04  0.00000000000E+00 0.  1.
          3   -1    0    0  501    0  0.00000000000E+00 -0.00000000000E+00 -0.49506712290E+02  0.49506712290E+02  0.00000000000E+00 0. -1.
         23    2    1    2    0    0 -0.15450107871E+03  0.89735551314E+02  0.99834880366E+03  0.10218850924E+04  0.12500302354E+03 0.  0.
         23    2    1    2    0    0  0.15450107871E+03 -0.89735551314E+02  0.22951788532E+03  0.30499502111E+03  0.91763013957E+02 0.  0.
          5    1    3    3  502    0 -0.16151371703E+03  0.52457139719E+02  0.66518607878E+03  0.68653699223E+03  0.47000000000E+01 0. -1.
         -5    1    3    3    0  502  0.70126383160E+01  0.37278411596E+02  0.33316272487E+03  0.33534810021E+03  0.47000000000E+01 0. -1.
        -11    1    4    4    0    0  0.86198839549E+02 -0.79823161937E+02  0.85522521049E+02  0.14531372519E+03  0.00000000000E+00 0. -1.
         11    1    4    4    0    0  0.68302239165E+02 -0.99123893771E+01  0.14399536427E+03  0.15968129593E+03  0.00000000000E+00 0.  1.
<mgrwt>
<rscale>  0 0.21362352E+03</rscale>
<asrwt>0</asrwt>
<pdfrwt beam="2">  1        3 0.76164182E-02 0.21805689E+03</pdfrwt>
<pdfrwt beam="1">  1       -3 0.19651896E+00 0.21805689E+03</pdfrwt>
<totfact> 0.47730564E+01</totfact>
</mgrwt>
</event>
<event>
 8    1  0.1550723E-005  0.1931481E+03  0.7546771E-02  0.1160596E+00
         -2   -1    0    0    0  501 -0.00000000000E+00  0.00000000000E+00  0.11434769527E+03  0.11434769527E+03  0.00000000000E+00 0.  1.
          2   -1    0    0  501    0  0.00000000000E+00 -0.00000000000E+00 -0.37537936637E+03  0.37537936637E+03  0.00000000000E+00 0. -1.
         23    2    1    2    0    0 -0.14666794945E+03 -0.13064527042E+02 -0.20862806980E+02  0.19427158705E+03  0.12499609418E+03 0.  0.
         23    2    1    2    0    0  0.14666794945E+03  0.13064527042E+02 -0.24016886412E+03  0.29545547459E+03  0.89054392979E+02 0.  0.
          5    1    3    3  502    0 -0.10304726722E+03 -0.39679300762E+02 -0.63578228662E+02  0.12750477383E+03  0.47000000000E+01 0.  1.
         -5    1    3    3    0  502 -0.43620682225E+02  0.26614773720E+02  0.42715421682E+02  0.66766813219E+02  0.47000000000E+01 0.  1.
        -11    1    4    4    0    0  0.76512530528E+02 -0.26692733212E+02 -0.69740661100E+02  0.10691318508E+03  0.00000000000E+00 0. -1.
         11    1    4    4    0    0  0.70155418919E+02  0.39757260253E+02 -0.17042820302E+03  0.18854228950E+03  0.00000000000E+00 0.  1.
<mgrwt>
<rscale>  0 0.18765186E+03</rscale>
<asrwt>0</asrwt>
<pdfrwt beam="2">  1        2 0.57750672E-01 0.19314811E+03</pdfrwt>
<pdfrwt beam="1">  1       -2 0.17591953E-01 0.19314811E+03</pdfrwt>
<totfact> 0.22147335E+03</totfact>
</mgrwt>
</event>
<event>
 8    1  0.1550723E-005  0.1316408E+03  0.7546771E-02  0.1237411E+00
          1   -1    0    0  501    0  0.00000000000E+00  0.00000000000E+00  0.29973618047E+02  0.29973618047E+02  0.00000000000E+00 0. -1.
         -1   -1    0    0    0  501 -0.00000000000E+00 -0.00000000000E+00 -0.56759418194E+03  0.56759418194E+03  0.00000000000E+00 0.  1.
         23    2    1    2    0    0  0.21724063001E+02  0.35103002931E+02 -0.42814258254E+03  0.44792339209E+03  0.12500055388E+03 0.  0.
         23    2    1    2    0    0 -0.21724063001E+02 -0.35103002931E+02 -0.10947798136E+03  0.14964440790E+03  0.93294505121E+02 0.  0.
          5    1    3    3  502    0 -0.12239716441E+02 -0.41119547478E+02 -0.93164394314E+02  0.10267581123E+03  0.47000000000E+01 0.  1.
         -5    1    3    3    0  502  0.33963779442E+02  0.76222550409E+02 -0.33497818823E+03  0.34524758086E+03  0.47000000000E+01 0.  1.
        -11    1    4    4    0    0  0.26434768578E+02 -0.35803688601E+02 -0.84228037584E+02  0.95263127297E+02  0.00000000000E+00 0.  1.
         11    1    4    4    0    0 -0.48158831579E+02  0.70068566967E+00 -0.25249943771E+02  0.54381280602E+02  0.00000000000E+00 0. -1.
<mgrwt>
<rscale>  0 0.12351333E+03</rscale>
<asrwt>0</asrwt>
<pdfrwt beam="1">  1        1 0.46113258E-02 0.13164078E+03</pdfrwt>
<pdfrwt beam="2">  1       -1 0.87322183E-01 0.13164078E+03</pdfrwt>
<totfact> 0.24404294E+03</totfact>
</mgrwt>
</event>
<event>
 8    1  0.1550723E-005  0.1316926E+03  0.7546771E-02  0.1239335E+00
         -1   -1    0    0    0  501 -0.00000000000E+00  0.00000000000E+00  0.28819064843E+03  0.28819064843E+03  0.00000000000E+00 0.  1.
          1   -1    0    0  501    0  0.00000000000E+00 -0.00000000000E+00 -0.57972964657E+02  0.57972964657E+02  0.00000000000E+00 0. -1.
         23    2    1    2    0    0  0.34666494451E+02  0.22471004624E+02  0.20720589794E+03  0.24551418049E+03  0.12504485913E+03 0.  0.
         23    2    1    2    0    0 -0.34666494451E+02 -0.22471004624E+02  0.23011785836E+02  0.10064943260E+03  0.88848489626E+02 0.  0.
          5    1    3    3  502    0  0.51215785003E+02 -0.41041739505E+02  0.99024201591E+02  0.11889223488E+03  0.47000000000E+01 0. -1.
         -5    1    3    3    0  502 -0.16549290552E+02  0.63512744129E+02  0.10818169635E+03  0.12662194561E+03  0.47000000000E+01 0. -1.
        -11    1    4    4    0    0 -0.55151113906E+02 -0.65918734667E+01  0.41054471726E+02  0.69069297155E+02  0.00000000000E+00 0.  1.
         11    1    4    4    0    0  0.20484619455E+02 -0.15879131158E+02 -0.18042685890E+02  0.31580135444E+02  0.00000000000E+00 0. -1.
<mgrwt>
<rscale>  0 0.12230921E+03</rscale>
<asrwt>0</asrwt>
<pdfrwt beam="2">  1        1 0.89189178E-02 0.13169255E+03</pdfrwt>
<pdfrwt beam="1">  1       -1 0.44337022E-01 0.13169255E+03</pdfrwt>
<totfact> 0.36822228E+03</totfact>
</mgrwt>
</event>
<event>
 8    1  0.1550723E-005  0.1782108E+03  0.7546771E-02  0.1175255E+00
          3   -1    0    0  501    0  0.00000000000E+00  0.00000000000E+00  0.31315224363E+02  0.31315224363E+02  0.00000000000E+00 0. -1.
         -3   -1    0    0    0  501 -0.00000000000E+00 -0.00000000000E+00 -0.11506552160E+04  0.11506552160E+04  0.00000000000E+00 0.  1.
         23    2    1    2    0    0 -0.67658836711E+02  0.10761612055E+03 -0.86641906054E+03  0.88455699559E+03  0.12490052993E+03 0.  0.
         23    2    1    2    0    0  0.67658836711E+02 -0.10761612055E+03 -0.25292093105E+03  0.29741344474E+03  0.91251367973E+02 0.  0.
          5    1    3    3  502    0 -0.24956750878E+01  0.24235833251E+02 -0.55616691709E+03  0.55672015742E+03  0.47000000000E+01 0.  1.
         -5    1    3    3    0  502 -0.65163161623E+02  0.83380287303E+02 -0.31025214345E+03  0.32783683817E+03  0.47000000000E+01 0.  1.
        -11    1    4    4    0    0  0.52693657520E+02 -0.37777913130E+02 -0.48776842674E+02  0.81135520240E+02  0.00000000000E+00 0.  1.
         11    1    4    4    0    0  0.14965179191E+02 -0.69838207425E+02 -0.20414408838E+03  0.21627792450E+03  0.00000000000E+00 0. -1.
<mgrwt>
<rscale>  0 0.17251018E+03</rscale>
<asrwt>0</asrwt>
<pdfrwt beam="1">  1        3 0.48177261E-02 0.17821080E+03</pdfrwt>
<pdfrwt beam="2">  1       -3 0.17702391E+00 0.17821080E+03</pdfrwt>
<totfact> 0.13053575E+02</totfact>
</mgrwt>
</event>
<event>
 8    1  0.1550723E-005  0.1257276E+03  0.7546771E-02  0.1248456E+00
          2   -1    0    0  501    0  0.00000000000E+00  0.00000000000E+00  0.54984696373E+02  0.54984696373E+02  0.00000000000E+00 0. -1.
         -2   -1    0    0    0  501 -0.00000000000E+00 -0.00000000000E+00 -0.26544493517E+03  0.26544493517E+03  0.00000000000E+00 0.  1.
         23    2    1    2    0    0  0.53534838156E+01  0.12356943940E+02 -0.18442906120E+03  0.22320734521E+03  0.12500434589E+03 0.  0.
         23    2    1    2    0    0 -0.53534838156E+01 -0.12356943940E+02 -0.26031177598E+02  0.97222286326E+02  0.92699497835E+02 0.  0.
          5    1    3    3  502    0 -0.65594729394E+01 -0.41018104112E+01 -0.19807727230E+03  0.19828400676E+03  0.47000000000E+01 0.  1.
         -5    1    3    3    0  502  0.11912956755E+02  0.16458754351E+02  0.13648211105E+02  0.24923338456E+02  0.47000000000E+01 0.  1.
        -11    1    4    4    0    0  0.26374819962E+02 -0.25747847948E+02  0.18246844028E+02  0.41128215607E+02  0.00000000000E+00 0. -1.
         11    1    4    4    0    0 -0.31728303778E+02  0.13390904008E+02 -0.44278021626E+02  0.56094070719E+02  0.00000000000E+00 0.  1.
<mgrwt>
<rscale>  0 0.11680897E+03</rscale>
<asrwt>0</asrwt>
<pdfrwt beam="1">  1        2 0.84591842E-02 0.12572764E+03</pdfrwt>
<pdfrwt beam="2">  1       -2 0.40837682E-01 0.12572764E+03</pdfrwt>
<totfact> 0.42954342E+03</totfact>
</mgrwt>
</event>
<event>
 8    1  0.1550723E-005  0.1773647E+03  0.7546771E-02  0.1176545E+00
          4   -1    0    0  501    0  0.00000000000E+00  0.00000000000E+00  0.65724077506E+03  0.65724077506E+03  0.00000000000E+00 0. -1.
         -4   -1    0    0    0  501 -0.00000000000E+00 -0.00000000000E+00 -0.63702910113E+02  0.63702910113E+02  0.00000000000E+00 0.  1.
         23    2    1    2    0    0 -0.11935697133E+03  0.39807783810E+02  0.99405163715E+02  0.20332148577E+03  0.12500997459E+03 0.  0.
         23    2    1    2    0    0  0.11935697133E+03 -0.39807783810E+02  0.49413270123E+03  0.51762219940E+03  0.89077879573E+02 0.  0.
          5    1    3    3  502    0 -0.28770674772E+01 -0.20844571036E+02 -0.17243390366E+02  0.27607936726E+02  0.47000000000E+01 0. -1.
         -5    1    3    3    0  502 -0.11647990385E+03  0.60652354846E+02  0.11664855408E+03  0.17571354905E+03  0.47000000000E+01 0. -1.
        -11    1    4    4    0    0  0.76513699732E+02  0.16588376983E+02  0.19304678446E+03  0.20831846171E+03  0.00000000000E+00 0.  1.
         11    1    4    4    0    0  0.42843271596E+02 -0.56396160793E+02  0.30108591676E+03  0.30930373768E+03  0.00000000000E+00 0. -1.
<mgrwt>
<rscale>  0 0.17125531E+03</rscale>
<asrwt>0</asrwt>
<pdfrwt beam="1">  1        4 0.10111396E+00 0.17736471E+03</pdfrwt>
<pdfrwt beam="2">  1       -4 0.98004482E-02 0.17736471E+03</pdfrwt>
<totfact> 0.11437430E+02</totfact>
</mgrwt>
</event>
<event>
 8    1  0.1550723E-005  0.1927892E+03  0.7546771E-02  0.1159200E+00
          4   -1    0    0  501    0  0.00000000000E+00  0.00000000000E+00  0.33632527090E+03  0.33632527090E+03  0.00000000000E+00 0. -1.
         -4   -1    0    0    0  501 -0.00000000000E+00 -0.00000000000E+00 -0.12278305172E+03  0.12278305172E+03  0.00000000000E+00 0.  1.
         23    2    1    2    0    0 -0.93815249918E+02  0.11282474828E+03  0.17169369995E+02  0.19355220232E+03  0.12504776213E+03 0.  0.
         23    2    1    2    0    0  0.93815249918E+02 -0.11282474828E+03  0.19637284919E+03  0.26555612031E+03  0.10211284049E+03 0.  0.
          5    1    3    3  502    0 -0.79014652348E+02  0.23813747860E+02  0.50936952446E+02  0.97093115087E+02  0.47000000000E+01 0.  1.
         -5    1    3    3    0  502 -0.14800597570E+02  0.89011000421E+02 -0.33767582452E+02  0.96459087229E+02  0.47000000000E+01 0.  1.
        -11    1    4    4    0    0  0.53739782247E+01 -0.86076777488E+02  0.99778278798E+02  0.13188554198E+03  0.00000000000E+00 0.  1.
         11    1    4    4    0    0  0.88441271693E+02 -0.26747970794E+02  0.96594570391E+02  0.13367057832E+03  0.00000000000E+00 0. -1.
<mgrwt>
<rscale>  0 0.18918384E+03</rscale>
<asrwt>0</asrwt>
<pdfrwt beam="1">  1        4 0.51742349E-01 0.19278918E+03</pdfrwt>
<pdfrwt beam="2">  1       -4 0.18889700E-01 0.19278918E+03</pdfrwt>
<totfact> 0.15989780E+02</totfact>
</mgrwt>
</event>
<event>
 8    1  0.1550723E-005  0.1281755E+03  0.7546771E-02  0.1245891E+00
         -3   -1    0    0    0  501 -0.00000000000E+00  0.00000000000E+00  0.52185558030E+02  0.52185558030E+02  0.00000000000E+00 0.  1.
          3   -1    0    0  501    0  0.00000000000E+00 -0.00000000000E+00 -0.23495209591E+03  0.23495209591E+03  0.00000000000E+00 0. -1.
         23    2    1    2    0    0 -0.26511277590E+02 -0.10089606963E+02 -0.99727336115E+02  0.16240229936E+03  0.12499726901E+03 0.  0.
         23    2    1    2    0    0  0.26511277590E+02  0.10089606963E+02 -0.83039201764E+02  0.12473535458E+03  0.88649600367E+02 0.  0.
          5    1    3    3  502    0 -0.27093021779E+02  0.31099528159E+02  0.12014794799E+02  0.43216406317E+02  0.47000000000E+01 0. -1.
         -5    1    3    3    0  502  0.58174418945E+00 -0.41189135122E+02 -0.11174213091E+03  0.11918589304E+03  0.47000000000E+01 0. -1.
        -11    1    4    4    0    0 -0.63667911468E+01  0.37176136093E+02 -0.71116850469E+02  0.80499736304E+02  0.00000000000E+00 0. -1.
         11    1    4    4    0    0  0.32878068736E+02 -0.27086529130E+02 -0.11922351295E+02  0.44235618279E+02  0.00000000000E+00 0.  1.
<mgrwt>
<rscale>  0 0.11832183E+03</rscale>
<asrwt>0</asrwt>
<pdfrwt beam="2">  1        3 0.36146476E-01 0.12817553E+03</pdfrwt>
<pdfrwt beam="1">  1       -3 0.80285474E-02 0.12817553E+03</pdfrwt>
<totfact> 0.18195234E+03</totfact>
</mgrwt>
</event>
<event>
 8    1  0.1550723E-005  0.1351116E+03  0.7546771E-02  0.1231140E+00
          1   -1    0    0  501    0  0.00000000000E+00  0.00000000000E+00  0.13064769271E+03  0.13064769271E+03  0.00000000000E+00 0. -1.
         -1   -1    0    0    0  501 -0.00000000000E+00 -0.00000000000E+00 -0.12640098960E+03  0.12640098960E+03  0.00000000000E+00 0.  1.
         23    2    1    2    0    0 -0.24510515375E+01  0.51220237659E+02 -0.40106695130E+02  0.14093857408E+03  0.12500245706E+03 0.  0.
         23    2    1    2    0    0  0.24510515375E+01 -0.51220237659E+02  0.44353398235E+02  0.11611010823E+03  0.94259285473E+02 0.  0.
          5    1    3    3  502    0 -0.49726941145E+02 -0.18368801435E+01 -0.47981649124E+02  0.69285434667E+02  0.47000000000E+01 0.  1.
         -5    1    3    3    0  502  0.47275889608E+02  0.53057117802E+02  0.78749539940E+01  0.71653139416E+02  0.47000000000E+01 0.  1.
        -11    1    4    4    0    0  0.12656734797E+02  0.98096356397E+01 -0.20803939720E+02  0.26253110196E+02  0.00000000000E+00 0.  1.
         11    1    4    4    0    0 -0.10205683259E+02 -0.61029873299E+02  0.65157337955E+02  0.89856998030E+02  0.00000000000E+00 0. -1.
<mgrwt>
<rscale>  0 0.12754817E+03</rscale>
<asrwt>0</asrwt>
<pdfrwt beam="1">  1        1 0.20099645E-01 0.13511156E+03</pdfrwt>
<pdfrwt beam="2">  1       -1 0.19446306E-01 0.13511156E+03</pdfrwt>
<totfact> 0.51116126E+03</totfact>
</mgrwt>
</event>
<event>
 7    1  0.1550723E-005  0.3051756E+03  0.7546771E-02  0.1086602E+00
          1   -1    0    0  501    0  0.00000000000E+00  0.00000000000E+00  0.51110973430E+03  0.51110973430E+03  0.00000000000E+00 0. -1.
         -1   -1    0    0    0  501 -0.00000000000E+00 -0.00000000000E+00 -0.16890237975E+03  0.16890237975E+03  0.00000000000E+00 0.  1.
         23    2    1    2    0    0  0.24014896825E+03 -0.66324857930E+02  0.10790398645E+03  0.29526514498E+03  0.11605051409E+03 0.  0.
          5    1    3    3  502    0 -0.91983032177E+01 -0.91043624798E+01  0.20857109111E+02  0.24992142740E+02  0.47000000000E+01 0. -1.
         -5    1    3    3    0  502  0.24934727147E+03 -0.57220495450E+02  0.87046877342E+02  0.27027300224E+03  0.47000000000E+01 0.  1.
        -11    1    1    2    0    0  0.32328980412E+01  0.31089004582E+02  0.99521279119E+02  0.10431425038E+03  0.00000000000E+00 0.  1.
         11    1    1    2    0    0 -0.24338186629E+03  0.35235853348E+02  0.13478208897E+03  0.28043271868E+03  0.00000000000E+00 0. -1.
<mgrwt>
<rscale>  0 0.29729201E+03</rscale>
<asrwt>0</asrwt>
<pdfrwt beam="1">  1        1 0.78632266E-01 0.30517562E+03</pdfrwt>
<pdfrwt beam="2">  1       -1 0.25984982E-01 0.30517562E+03</pdfrwt>
<totfact> 0.57396038E+02</totfact>
</mgrwt>
</event>
<event>
 8    1  0.1550723E-005  0.1299900E+03  0.7546771E-02  0.1245642E+00
          2   -1    0    0  501    0  0.00000000000E+00  0.00000000000E+00  0.27336689714E+03  0.27336689714E+03  0.00000000000E+00 0. -1.
         -2   -1    0    0    0  501 -0.00000000000E+00 -0.00000000000E+00 -0.10332308507E+03  0.10332308507E+03  0.00000000000E+00 0.  1.
         23    2    1    2    0    0 -0.24134324334E+02 -0.26255768229E+02 -0.49842438298E+02  0.13921802466E+03  0.12500223501E+03 0.  0.
         23    2    1    2    0    0  0.24134324334E+02  0.26255768229E+02  0.21988625037E+03  0.23747195756E+03  0.82286916008E+02 0.  0.
          5    1    3    3  502    0 -0.23853512302E+02 -0.14271204047E+02  0.39735046304E+02  0.48719823674E+02  0.47000000000E+01 0. -1.
         -5    1    3    3    0  502 -0.28081203244E+00 -0.11984564182E+02 -0.89577484602E+02  0.90498200986E+02  0.47000000000E+01 0. -1.
        -11    1    4    4    0    0  0.33122456086E+02  0.30833151197E+02  0.22249765014E+03  0.22705282343E+03  0.00000000000E+00 0. -1.
         11    1    4    4    0    0 -0.89881317523E+01 -0.45773829687E+01 -0.26113997650E+01  0.10419134128E+02  0.00000000000E+00 0.  1.
<mgrwt>
<rscale>  0 0.11847028E+03</rscale>
<asrwt>0</asrwt>
<pdfrwt beam="1">  1        2 0.42056445E-01 0.12998996E+03</pdfrwt>
<pdfrwt beam="2">  1       -2 0.15895859E-01 0.12998996E+03</pdfrwt>
<totfact> 0.36168049E+03</totfact>
</mgrwt>
</event>
<event>
 8    1  0.1550723E-005  0.1660713E+03  0.7546771E-02  0.1189078E+00
          2   -1    0    0  501    0  0.00000000000E+00  0.00000000000E+00  0.27368595066E+02  0.27368595066E+02  0.00000000000E+00 0.  1.
         -2   -1    0    0    0  501 -0.00000000000E+00 -0.00000000000E+00 -0.11116216337E+04  0.11116216337E+04  0.00000000000E+00 0. -1.
         23    2    1    2    0    0 -0.13358398406E+02 -0.10852244603E+03 -0.84220349742E+03  0.85842087430E+03  0.12499639302E+03 0.  0.
         23    2    1    2    0    0  0.13358398406E+02  0.10852244603E+03 -0.24204954119E+03  0.28056935444E+03  0.90419102848E+02 0.  0.
          5    1    3    3  502    0  0.35816569454E+02 -0.60001166772E+02 -0.65655085029E+03  0.66027575730E+03  0.47000000000E+01 0.  1.
         -5    1    3    3    0  502 -0.49174967860E+02 -0.48521279261E+02 -0.18565264713E+03  0.19814511700E+03  0.47000000000E+01 0.  1.
        -11    1    4    4    0    0  0.28169795183E+02  0.39882598194E+01 -0.20243107703E+02  0.34917430984E+02  0.00000000000E+00 0.  1.
         11    1    4    4    0    0 -0.14811396777E+02  0.10453418621E+03 -0.22180643348E+03  0.24565192345E+03  0.00000000000E+00 0. -1.
<mgrwt>
<rscale>  0 0.15966309E+03</rscale>
<asrwt>0</asrwt>
<pdfrwt beam="1">  1        2 0.42105539E-02 0.16607127E+03</pdfrwt>
<pdfrwt beam="2">  1       -2 0.17101868E+00 0.16607127E+03</pdfrwt>
<totfact> 0.43750207E+02</totfact>
</mgrwt>
</event>
<event>
 8    1  0.1550723E-005  0.1472994E+03  0.7546771E-02  0.1211969E+00
         -2   -1    0    0    0  501 -0.00000000000E+00  0.00000000000E+00  0.22820350230E+03  0.22820350230E+03  0.00000000000E+00 0.  1.
          2   -1    0    0  501    0  0.00000000000E+00 -0.00000000000E+00 -0.86618864780E+02  0.86618864780E+02  0.00000000000E+00 0. -1.
         23    2    1    2    0    0 -0.41220858878E+02 -0.74044429057E+02  0.11830182698E+03  0.18892440895E+03  0.12047976324E+03 0.  0.
         23    2    1    2    0    0  0.41220858878E+02  0.74044429057E+02  0.23282810539E+02  0.12589795813E+03  0.90146935129E+02 0.  0.
          5    1    3    3  502    0 -0.27274748303E+02  0.38396116765E+01 -0.16570481023E+02  0.32485771565E+02  0.47000000000E+01 0. -1.
         -5    1    3    3    0  502 -0.13946110575E+02 -0.77884040734E+02  0.13487230800E+03  0.15643863738E+03  0.47000000000E+01 0.  1.
        -11    1    4    4    0    0 -0.23118295233E+02  0.32226663956E+00  0.15297978165E+02  0.27723411878E+02  0.00000000000E+00 0.  1.
         11    1    4    4    0    0  0.64339154111E+02  0.73722162418E+02  0.79848323744E+01  0.98174546249E+02  0.00000000000E+00 0. -1.
<mgrwt>
<rscale>  0 0.14101530E+03</rscale>
<asrwt>0</asrwt>
<pdfrwt beam="2">  1        2 0.13325979E-01 0.14729939E+03</pdfrwt>
<pdfrwt beam="1">  1       -2 0.35108231E-01 0.14729939E+03</pdfrwt>
<totfact> 0.33102685E+03</totfact>
</mgrwt>
</event>
<event>
 8    1  0.1550723E-005  0.1410312E+03  0.7546771E-02  0.1222808E+00
         -3   -1    0    0    0  501 -0.00000000000E+00  0.00000000000E+00  0.51512843055E+03  0.51512843055E+03  0.00000000000E+00 0.  1.
          3   -1    0    0  501    0  0.00000000000E+00 -0.00000000000E+00 -0.56898162627E+02  0.56898162627E+02  0.00000000000E+00 0. -1.
         23    2    1    2    0    0 -0.53907202538E+02 -0.36865019252E+02  0.43525885225E+03  0.45753695979E+03  0.12499913992E+03 0.  0.
         23    2    1    2    0    0  0.53907202538E+02  0.36865019252E+02  0.22971415675E+02  0.11448963339E+03  0.91187576378E+02 0.  0.
          5    1    3    3  502    0 -0.48801026071E+02  0.40341645633E+02  0.20005168789E+03  0.20988510272E+03  0.47000000000E+01 0.  1.
         -5    1    3    3    0  502 -0.51061764676E+01 -0.77206664884E+02  0.23520716436E+03  0.24765185707E+03  0.47000000000E+01 0.  1.
        -11    1    4    4    0    0  0.60825800764E+02 -0.27087853085E+01  0.37800795203E+02  0.71666000826E+02  0.00000000000E+00 0.  1.
         11    1    4    4    0    0 -0.69185982251E+01  0.39573804560E+02 -0.14829379529E+02  0.42823632564E+02  0.00000000000E+00 0. -1.
<mgrwt>
<rscale>  0 0.13318255E+03</rscale>
<asrwt>0</asrwt>
<pdfrwt beam="2">  1        3 0.87535638E-02 0.14103121E+03</pdfrwt>
<pdfrwt beam="1">  1       -3 0.79250525E-01 0.14103121E+03</pdfrwt>
<totfact> 0.32754986E+02</totfact>
</mgrwt>
</event>
<event>
 8    1  0.1550723E-005  0.1250422E+03  0.7546771E-02  0.1250128E+00
          2   -1    0    0  501    0  0.00000000000E+00  0.00000000000E+00  0.25252197161E+03  0.25252197161E+03  0.00000000000E+00 0. -1.
         -2   -1    0    0    0  501 -0.00000000000E+00 -0.00000000000E+00 -0.47869318446E+02  0.47869318446E+02  0.00000000000E+00 0.  1.
         23    2    1    2    0    0 -0.28958311468E+01  0.10988593308E+01  0.94013976251E+02  0.15644227213E+03  0.12500385374E+03 0.  0.
         23    2    1    2    0    0  0.28958311468E+01 -0.10988593308E+01  0.11063867691E+03  0.14394901792E+03  0.92037001267E+02 0.  0.
          5    1    3    3  502    0  0.24504050721E+02 -0.15465729517E+02 -0.21560794489E+02  0.36422453929E+02  0.47000000000E+01 0.  1.
         -5    1    3    3    0  502 -0.27399881868E+02  0.16564588848E+02  0.11557477074E+03  0.12001981820E+03  0.47000000000E+01 0.  1.
        -11    1    4    4    0    0  0.29908619024E+02  0.29882026299E+02  0.25410840656E+02  0.49327191391E+02  0.00000000000E+00 0.  1.
         11    1    4    4    0    0 -0.27012787877E+02 -0.30980885630E+02  0.85227836257E+02  0.94621826532E+02  0.00000000000E+00 0. -1.
<mgrwt>
<rscale>  0 0.11583627E+03</rscale>
<asrwt>0</asrwt>
<pdfrwt beam="1">  1        2 0.38849533E-01 0.12504222E+03</pdfrwt>
<pdfrwt beam="2">  1       -2 0.73645107E-02 0.12504222E+03</pdfrwt>
<totfact> 0.13253052E+04</totfact>
</mgrwt>
</event>
<event>
 8    1  0.1550723E-005  0.1251216E+03  0.7546771E-02  0.1250384E+00
          2   -1    0    0  501    0  0.00000000000E+00  0.00000000000E+00  0.27357511539E+03  0.27357511539E+03  0.00000000000E+00 0. -1.
         -2   -1    0    0    0  501 -0.00000000000E+00 -0.00000000000E+00 -0.82416521606E+02  0.82416521606E+02  0.00000000000E+00 0.  1.
         23    2    1    2    0    0 -0.31657756249E+01 -0.55141258601E+01 -0.19228149772E+02  0.12659039004E+03  0.12495990312E+03 0.  0.
         23    2    1    2    0    0  0.31657756249E+01  0.55141258601E+01  0.21038674356E+03  0.22940124696E+03  0.91224571920E+02 0.  0.
          5    1    3    3  502    0  0.54867763525E+02  0.97460653935E+01 -0.32876429624E+02  0.64872235122E+02  0.47000000000E+01 0.  1.
         -5    1    3    3    0  502 -0.58033539150E+02 -0.15260191254E+02  0.13648279852E+02  0.61718154917E+02  0.47000000000E+01 0.  1.
        -11    1    4    4    0    0 -0.31403236752E+02 -0.25021805813E+02  0.60778051903E+02  0.72843844200E+02  0.00000000000E+00 0. -1.
         11    1    4    4    0    0  0.34569012377E+02  0.30535931674E+02  0.14960869165E+03  0.15655740276E+03  0.00000000000E+00 0.  1.
<mgrwt>
<rscale>  0 0.11568849E+03</rscale>
<asrwt>0</asrwt>
<pdfrwt beam="1">  1        2 0.42088479E-01 0.12512156E+03</pdfrwt>
<pdfrwt beam="2">  1       -2 0.12679465E-01 0.12512156E+03</pdfrwt>
<totfact> 0.52033236E+03</totfact>
</mgrwt>
</event>
<event>
 8    1  0.1550723E-005  0.1448725E+03  0.7546771E-02  0.1216512E+00
          4   -1    0    0  501    0  0.00000000000E+00  0.00000000000E+00  0.32205506349E+02  0.32205506349E+02  0.00000000000E+00 0. -1.
         -4   -1    0    0    0  501 -0.00000000000E+00 -0.00000000000E+00 -0.71479711640E+03  0.71479711640E+03  0.00000000000E+00 0.  1.
         23    2    1    2    0    0  0.55892954262E+02  0.47323507488E+02 -0.55301210763E+03  0.57167336543E+03  0.12499803540E+03 0.  0.
         23    2    1    2    0    0 -0.55892954262E+02 -0.47323507488E+02 -0.12957950242E+03  0.17532925732E+03  0.92660478785E+02 0.  0.
          5    1    3    3  502    0 -0.36716825309E+02  0.13266121858E+02 -0.89591890272E+02  0.97841259459E+02  0.47000000000E+01 0. -1.
         -5    1    3    3    0  502  0.92609779571E+02  0.34057385630E+02 -0.46342021736E+03  0.47383210597E+03  0.47000000000E+01 0. -1.
        -11    1    4    4    0    0 -0.69836601094E+02 -0.75947350111E+01 -0.10572875024E+03  0.12693856577E+03  0.00000000000E+00 0.  1.
         11    1    4    4    0    0  0.13943646831E+02 -0.39728772477E+02 -0.23850752178E+02  0.48390691553E+02  0.00000000000E+00 0. -1.
<mgrwt>
<rscale>  0 0.13766050E+03</rscale>
<asrwt>0</asrwt>
<pdfrwt beam="1">  1        4 0.49546938E-02 0.14487251E+03</pdfrwt>
<pdfrwt beam="2">  1       -4 0.10996878E+00 0.14487251E+03</pdfrwt>
<totfact> 0.27978150E+02</totfact>
</mgrwt>
</event>
<event>
 8    1  0.1550723E-005  0.1503009E+03  0.7546771E-02  0.1207409E+00
          3   -1    0    0  501    0  0.00000000000E+00  0.00000000000E+00  0.22086839770E+03  0.22086839770E+03  0.00000000000E+00 0. -1.
         -3   -1    0    0    0  501 -0.00000000000E+00 -0.00000000000E+00 -0.10000200699E+03  0.10000200699E+03  0.00000000000E+00 0.  1.
         23    2    1    2    0    0 -0.70250109808E+02 -0.45083360914E+02  0.89664120445E+01  0.15056807189E+03  0.12499104116E+03 0.  0.
         23    2    1    2    0    0  0.70250109808E+02  0.45083360914E+02  0.11189997867E+03  0.17030233279E+03  0.97538156482E+02 0.  0.
          5    1    3    3  502    0  0.26029431300E+01 -0.40810802297E+02 -0.44014777592E+02  0.60263484330E+02  0.47000000000E+01 0. -1.
         -5    1    3    3    0  502 -0.72853052938E+02 -0.42725586164E+01  0.52981189637E+02  0.90304587563E+02  0.47000000000E+01 0. -1.
        -11    1    4    4    0    0  0.78003858672E+02  0.67143337154E+01  0.38795362315E+02  0.87377138784E+02  0.00000000000E+00 0.  1.
         11    1    4    4    0    0 -0.77537488637E+01  0.38369027198E+02  0.73104616350E+02  0.82925194008E+02  0.00000000000E+00 0. -1.
<mgrwt>
<rscale>  0 0.14449238E+03</rscale>
<asrwt>0</asrwt>
<pdfrwt beam="1">  1        3 0.33979754E-01 0.15030086E+03</pdfrwt>
<pdfrwt beam="2">  1       -3 0.15384924E-01 0.15030086E+03</pdfrwt>
<totfact> 0.70862322E+02</totfact>
</mgrwt>
</event>
<event>
 8    1  0.1550723E-005  0.1816299E+03  0.7546771E-02  0.1172190E+00
          2   -1    0    0  501    0  0.00000000000E+00  0.00000000000E+00  0.13101902993E+03  0.13101902993E+03  0.00000000000E+00 0. -1.
         -2   -1    0    0    0  501 -0.00000000000E+00 -0.00000000000E+00 -0.27691213060E+03  0.27691213060E+03  0.00000000000E+00 0.  1.
         23    2    1    2    0    0  0.13121720430E+03 -0.12173440777E+02 -0.16862330594E+03  0.24783709453E+03  0.12499303484E+03 0.  0.
         23    2    1    2    0    0 -0.13121720430E+03  0.12173440777E+02  0.22730205264E+02  0.16009406600E+03  0.88018750126E+02 0.  0.
          5    1    3    3  502    0  0.37743624158E+02  0.39236956348E+02 -0.11720887568E+03  0.12932180963E+03  0.47000000000E+01 0. -1.
         -5    1    3    3    0  502  0.93473580139E+02 -0.51410397125E+02 -0.51414430254E+02  0.11851528490E+03  0.47000000000E+01 0. -1.
        -11    1    4    4    0    0 -0.42282305575E+02  0.46361854895E+02  0.14905917757E+02  0.64493420891E+02  0.00000000000E+00 0.  1.
         11    1    4    4    0    0 -0.88934898722E+02 -0.34188414118E+02  0.78242875070E+01  0.95600645111E+02  0.00000000000E+00 0. -1.
<mgrwt>
<rscale>  0 0.17554107E+03</rscale>
<asrwt>0</asrwt>
<pdfrwt beam="1">  1        2 0.20156774E-01 0.18162986E+03</pdfrwt>
<pdfrwt beam="2">  1       -2 0.42601866E-01 0.18162986E+03</pdfrwt>
<totfact> 0.14322616E+03</totfact>
</mgrwt>
</event>
<event>
 8    1  0.1550723E-005  0.1638584E+03  0.7546771E-02  0.1190728E+00
          1   -1    0    0  501    0  0.00000000000E+00  0.00000000000E+00  0.29792527901E+03  0.29792527901E+03  0.00000000000E+00 0. -1.
         -1   -1    0    0    0  501 -0.00000000000E+00 -0.00000000000E+00 -0.87078022663E+02  0.87078022663E+02  0.00000000000E+00 0.  1.
         23    2    1    2    0    0 -0.67050454462E+02 -0.82029961089E+02  0.52576882694E+02  0.17208691436E+03  0.12499959816E+03 0.  0.
         23    2    1    2    0    0  0.67050454462E+02  0.82029961089E+02  0.15827037365E+03  0.21291638731E+03  0.95179823760E+02 0.  0.
          5    1    3    3  502    0  0.32855095205E+01 -0.84397286676E+02  0.56038100636E+02  0.10146947962E+03  0.47000000000E+01 0. -1.
         -5    1    3    3    0  502 -0.70335963982E+02  0.23673255866E+01 -0.34612179419E+01  0.70617434741E+02  0.47000000000E+01 0. -1.
        -11    1    4    4    0    0  0.66729316241E+02  0.68774881677E+01  0.69233510460E+02  0.96402180785E+02  0.00000000000E+00 0.  1.
         11    1    4    4    0    0  0.32113822088E+00  0.75152472922E+02  0.89036863192E+02  0.11651420653E+03  0.00000000000E+00 0. -1.
<mgrwt>
<rscale>  0 0.15821418E+03</rscale>
<asrwt>0</asrwt>
<pdfrwt beam="1">  1        1 0.45834658E-01 0.16385841E+03</pdfrwt>
<pdfrwt beam="2">  1       -1 0.13396619E-01 0.16385841E+03</pdfrwt>
<totfact> 0.33193880E+03</totfact>
</mgrwt>
</event>
<event>
 7    1  0.1550723E-005  0.3939529E+03  0.7546771E-02  0.1071867E+00
         -1   -1    0    0    0  501 -0.00000000000E+00  0.00000000000E+00  0.51537087081E+03  0.51537087081E+03  0.00000000000E+00 0.  1.
          1   -1    0    0  501    0  0.00000000000E+00 -0.00000000000E+00 -0.16689809393E+03  0.16689809393E+03  0.00000000000E+00 0. -1.
         23    2    1    2    0    0  0.16306910135E+03  0.38568780187E+02  0.84523914200E+02  0.20806657025E+03  0.89823844078E+02 0.  0.
          5    1    1    2  502    0 -0.19432273152E+02 -0.18293959864E+03  0.83582097313E+02  0.20212017955E+03  0.47000000000E+01 0. -1.
         -5    1    1    2    0  502 -0.14363682820E+03  0.14437081845E+03  0.18036676537E+03  0.27208221494E+03  0.47000000000E+01 0.  1.
        -11    1    3    3    0    0  0.14523462091E+03  0.62237686462E+02  0.58069529201E+02  0.16834100792E+03  0.00000000000E+00 0.  1.
         11    1    3    3    0    0  0.17834480444E+02 -0.23668906276E+02  0.26454384999E+02  0.39725562333E+02  0.00000000000E+00 0. -1.
<mgrwt>
<rscale>  0 0.32835444E+03</rscale>
<asrwt>0</asrwt>
<pdfrwt beam="2">  1        1 0.25676630E-01 0.39395293E+03</pdfrwt>
<pdfrwt beam="1">  1       -1 0.79287826E-01 0.39395293E+03</pdfrwt>
<totfact> 0.30676851E+02</totfact>
</mgrwt>
</event>
<event>
 8    1  0.1550723E-005  0.1270788E+03  0.7546771E-02  0.1239380E+00
          3   -1    0    0  501    0  0.00000000000E+00  0.00000000000E+00  0.94126498917E+02  0.94126498917E+02  0.00000000000E+00 0. -1.
         -3   -1    0    0    0  501 -0.00000000000E+00 -0.00000000000E+00 -0.15417839255E+03  0.15417839255E+03  0.00000000000E+00 0.  1.
         23    2    1    2    0    0 -0.50333685746E+02 -0.30078361925E+02 -0.57094119314E+02  0.13931530734E+03  0.11274231070E+03 0.  0.
         23    2    1    2    0    0  0.50333685746E+02  0.30078361925E+02 -0.29577743210E+01  0.10898958413E+03  0.91824796453E+02 0.  0.
          5    1    3    3  502    0  0.61004563219E+01  0.29785513105E+02  0.10735866601E+02  0.32584370332E+02  0.47000000000E+01 0. -1.
         -5    1    3    3    0  502 -0.56434142068E+02 -0.59863875029E+02 -0.67829985915E+02  0.10673093700E+03  0.47000000000E+01 0.  1.
        -11    1    4    4    0    0 -0.98678159363E+01  0.32906881781E+02  0.25063984995E+02  0.42525756944E+02  0.00000000000E+00 0.  1.
         11    1    4    4    0    0  0.60201501683E+02 -0.28285198560E+01 -0.28021759316E+02  0.66463827189E+02  0.00000000000E+00 0. -1.
<mgrwt>
<rscale>  0 0.12228158E+03</rscale>
<asrwt>0</asrwt>
<pdfrwt beam="1">  1        3 0.14481000E-01 0.12707878E+03</pdfrwt>
<pdfrwt beam="2">  1       -3 0.23719753E-01 0.12707878E+03</pdfrwt>
<totfact> 0.14813993E+03</totfact>
</mgrwt>
</event>
<event>
 8    1  0.1550723E-005  0.1252435E+03  0.7546771E-02  0.1249402E+00
          4   -1    0    0  501    0  0.00000000000E+00  0.00000000000E+00  0.94466351195E+02  0.94466351195E+02  0.00000000000E+00 0.  1.
         -4   -1    0    0    0  501 -0.00000000000E+00 -0.00000000000E+00 -0.23243097126E+03  0.23243097126E+03  0.00000000000E+00 0. -1.
         23    2    1    2    0    0  0.72438558559E+01  0.30423320395E+01 -0.18443981891E+03  0.22294387989E+03  0.12499679017E+03 0.  0.
         23    2    1    2    0    0 -0.72438558559E+01 -0.30423320395E+01  0.46475198841E+02  0.10395344256E+03  0.92653358715E+02 0.  0.
          5    1    3    3  502    0  0.12360101858E+02 -0.60083743633E+02 -0.84239129999E+02  0.10431274797E+03  0.47000000000E+01 0. -1.
         -5    1    3    3    0  502 -0.51162460019E+01  0.63126075673E+02 -0.10020068891E+03  0.11863113192E+03  0.47000000000E+01 0. -1.
        -11    1    4    4    0    0 -0.32947860707E+02  0.32393530277E+00  0.64466246574E+02  0.72398642297E+02  0.00000000000E+00 0.  1.
         11    1    4    4    0    0  0.25704004851E+02 -0.33662673423E+01 -0.17991047732E+02  0.31554800264E+02  0.00000000000E+00 0. -1.
<mgrwt>
<rscale>  0 0.11625739E+03</rscale>
<asrwt>0</asrwt>
<pdfrwt beam="1">  1        4 0.14533285E-01 0.12524347E+03</pdfrwt>
<pdfrwt beam="2">  1       -4 0.35758611E-01 0.12524347E+03</pdfrwt>
<totfact> 0.49314342E+02</totfact>
</mgrwt>
</event>
<event>
 8    1  0.1550723E-005  0.1628025E+03  0.7546771E-02  0.1192784E+00
          1   -1    0    0  501    0  0.00000000000E+00  0.00000000000E+00  0.10631994416E+03  0.10631994416E+03  0.00000000000E+00 0. -1.
         -1   -1    0    0    0  501 -0.00000000000E+00 -0.00000000000E+00 -0.22021596052E+03  0.22021596052E+03  0.00000000000E+00 0.  1.
         23    2    1    2    0    0 -0.99819413295E+02 -0.30281926659E+02 -0.88999618192E+02  0.18554131243E+03  0.12499494481E+03 0.  0.
         23    2    1    2    0    0  0.99819413295E+02  0.30281926659E+02 -0.24896398172E+02  0.14099459225E+03  0.91535425109E+02 0.  0.
          5    1    3    3  502    0 -0.21955516770E+02 -0.36112967771E+02  0.23449371338E+02  0.48560829626E+02  0.47000000000E+01 0. -1.
         -5    1    3    3    0  502 -0.77863896525E+02  0.58310411118E+01 -0.11244898953E+03  0.13698048280E+03  0.47000000000E+01 0. -1.
        -11    1    4    4    0    0  0.37039464586E+02 -0.33020673496E+02 -0.84509537668E+01  0.50335925883E+02  0.00000000000E+00 0.  1.
         11    1    4    4    0    0  0.62779948709E+02  0.63302600155E+02 -0.16445444406E+02  0.90658666370E+02  0.00000000000E+00 0. -1.
<mgrwt>
<rscale>  0 0.15643243E+03</rscale>
<asrwt>0</asrwt>
<pdfrwt beam="1">  1        1 0.16356915E-01 0.16280248E+03</pdfrwt>
<pdfrwt beam="2">  1       -1 0.33879378E-01 0.16280248E+03</pdfrwt>
<totfact> 0.26848066E+03</totfact>
</mgrwt>
</event>
<event>
 7    1  0.1550723E-005  0.1320151E+03  0.7546771E-02  0.1239807E+00
         -4   -1    0    0    0  501 -0.00000000000E+00  0.00000000000E+00  0.36248422960E+02  0.36248422960E+02  0.00000000000E+00 0.  1.
          4   -1    0    0  501    0  0.00000000000E+00 -0.00000000000E+00 -0.45449616829E+03  0.45449616829E+03  0.00000000000E+00 0. -1.
         23    2    1    2    0    0  0.93257518346E+01  0.23009519299E+02 -0.29427819351E+03  0.30964669998E+03  0.93086067744E+02 0.  0.
          5    1    1    2  502    0 -0.79906032708E+00 -0.22606861127E+02 -0.15079639519E+03  0.15255606009E+03  0.47000000000E+01 0. -1.
         -5    1    1    2    0  502 -0.85266915075E+01 -0.40265817173E+00  0.26826843372E+02  0.28541831178E+02  0.47000000000E+01 0.  1.
        -11    1    3    3    0    0  0.25368043850E+02  0.54704706583E+02 -0.20024055224E+03  0.20912298136E+03  0.00000000000E+00 0.  1.
         11    1    3    3    0    0 -0.16042292015E+02 -0.31695187284E+02 -0.94037641272E+02  0.10052371862E+03  0.00000000000E+00 0. -1.
<mgrwt>
<rscale>  0 0.12201680E+03</rscale>
<asrwt>0</asrwt>
<pdfrwt beam="2">  1        4 0.69922487E-01 0.13201514E+03</pdfrwt>
<pdfrwt beam="1">  1       -4 0.55766805E-02 0.13201514E+03</pdfrwt>
<totfact> 0.63049331E+02</totfact>
</mgrwt>
</event>
<event>
 8    1  0.1550723E-005  0.1662597E+03  0.7546771E-02  0.1188994E+00
         -1   -1    0    0    0  501 -0.00000000000E+00  0.00000000000E+00  0.52804869259E+02  0.52804869259E+02  0.00000000000E+00 0.  1.
          1   -1    0    0  501    0  0.00000000000E+00 -0.00000000000E+00 -0.47231848671E+03  0.47231848671E+03  0.00000000000E+00 0. -1.
         23    2    1    2    0    0  0.10451134567E+03  0.33085165094E+02 -0.16740060760E+03  0.23593483684E+03  0.12500013713E+03 0.  0.
         23    2    1    2    0    0 -0.10451134567E+03 -0.33085165094E+02 -0.25211300985E+03  0.28918851914E+03  0.89731713121E+02 0.  0.
          5    1    3    3  502    0  0.22707391779E+02 -0.45401825644E+02 -0.68693871477E+02  0.85544663140E+02  0.47000000000E+01 0. -1.
         -5    1    3    3    0  502  0.81803953894E+02  0.78486990738E+02 -0.98706736124E+02  0.15039017370E+03  0.47000000000E+01 0. -1.
        -11    1    4    4    0    0 -0.46566613814E+02 -0.32822497793E+02 -0.40798823295E+02  0.70073603202E+02  0.00000000000E+00 0.  1.
         11    1    4    4    0    0 -0.57944731859E+02 -0.26266730129E+00 -0.21131418656E+03  0.21911491593E+03  0.00000000000E+00 0. -1.
<mgrwt>
<rscale>  0 0.15973718E+03</rscale>
<asrwt>0</asrwt>
<pdfrwt beam="2">  1        1 0.72664381E-01 0.16625969E+03</pdfrwt>
<pdfrwt beam="1">  1       -1 0.81238262E-02 0.16625969E+03</pdfrwt>
<totfact> 0.40018692E+03</totfact>
</mgrwt>
</event>
<event>
 8    1  0.1550723E-005  0.1267810E+03  0.7546771E-02  0.1246881E+00
         -2   -1    0    0    0  501 -0.00000000000E+00  0.00000000000E+00  0.14932280969E+03  0.14932280969E+03  0.00000000000E+00 0.  1.
          2   -1    0    0  501    0  0.00000000000E+00 -0.00000000000E+00 -0.14981230979E+03  0.14981230979E+03  0.00000000000E+00 0. -1.
         23    2    1    2    0    0 -0.16483120334E+02  0.13244729901E+02  0.99898586265E+02  0.16140991729E+03  0.12500527083E+03 0.  0.
         23    2    1    2    0    0  0.16483120334E+02 -0.13244729901E+02 -0.10038808637E+03  0.13772520218E+03  0.91887688544E+02 0.  0.
          5    1    3    3  502    0  0.32447985958E+02  0.47984903588E+02  0.20183585838E+02  0.61521458877E+02  0.47000000000E+01 0.  1.
         -5    1    3    3    0  502 -0.48931106292E+02 -0.34740173687E+02  0.79715000427E+02  0.99888458412E+02  0.47000000000E+01 0.  1.
        -11    1    4    4    0    0  0.39131842059E+02 -0.31086225028E+02 -0.22758800525E+02  0.54914637855E+02  0.00000000000E+00 0.  1.
         11    1    4    4    0    0 -0.22648721725E+02  0.17841495128E+02 -0.77629285840E+02  0.82810564327E+02  0.00000000000E+00 0. -1.
<mgrwt>
<rscale>  0 0.11773519E+03</rscale>
<asrwt>0</asrwt>
<pdfrwt beam="2">  1        2 0.23048048E-01 0.12678105E+03</pdfrwt>
<pdfrwt beam="1">  1       -2 0.22972740E-01 0.12678105E+03</pdfrwt>
<totfact> 0.37252628E+03</totfact>
</mgrwt>
</event>
<event>
 8    1  0.1550723E-005  0.1253071E+03  0.7546771E-02  0.1248950E+00
          1   -1    0    0  501    0  0.00000000000E+00  0.00000000000E+00  0.15938001698E+03  0.15938001698E+03  0.00000000000E+00 0. -1.
         -1   -1    0    0    0  501 -0.00000000000E+00 -0.00000000000E+00 -0.10589644611E+03  0.10589644611E+03  0.00000000000E+00 0.  1.
         23    2    1    2    0    0  0.19384125224E+01  0.85691901156E+01 -0.41365041738E+02  0.13195806208E+03  0.12499870003E+03 0.  0.
         23    2    1    2    0    0 -0.19384125224E+01 -0.85691901156E+01  0.94848612608E+02  0.13331840100E+03  0.93275657435E+02 0.  0.
          5    1    3    3  502    0 -0.61640529924E+01 -0.57761326874E+02 -0.17596784535E+02  0.60877773099E+02  0.47000000000E+01 0. -1.
         -5    1    3    3    0  502  0.81024655148E+01  0.66330516990E+02 -0.23768257203E+02  0.71080288984E+02  0.47000000000E+01 0. -1.
        -11    1    4    4    0    0  0.21188127306E+02 -0.17915926149E+02 -0.68706599969E+01  0.28585365440E+02  0.00000000000E+00 0.  1.
         11    1    4    4    0    0 -0.23126539829E+02  0.93467360339E+01  0.10171927261E+03  0.10473303556E+03  0.00000000000E+00 0. -1.
<mgrwt>
<rscale>  0 0.11652075E+03</rscale>
<asrwt>0</asrwt>
<pdfrwt beam="1">  1        1 0.24520003E-01 0.12530708E+03</pdfrwt>
<pdfrwt beam="2">  1       -1 0.16291761E-01 0.12530708E+03</pdfrwt>
<totfact> 0.52422208E+03</totfact>
</mgrwt>
</event>
<event>
 8    1  0.1550723E-005  0.1411868E+03  0.7546771E-02  0.1222849E+00
         -2   -1    0    0    0  501 -0.00000000000E+00  0.00000000000E+00  0.52647244591E+03  0.52647244591E+03  0.00000000000E+00 0.  1.
          2   -1    0    0  501    0  0.00000000000E+00 -0.00000000000E+00 -0.30421051223E+02  0.30421051223E+02  0.00000000000E+00 0. -1.
         23    2    1    2    0    0 -0.65123838303E+02  0.82346785233E+01  0.28856399975E+03  0.32125205864E+03  0.12499911593E+03 0.  0.
         23    2    1    2    0    0  0.65123838303E+02 -0.82346785233E+01  0.20748739494E+03  0.23564143849E+03  0.90371147119E+02 0.  0.
          5    1    3    3  502    0 -0.98576296877E+02  0.14409890213E+02  0.25235365024E+03  0.27134735310E+03  0.47000000000E+01 0.  1.
         -5    1    3    3    0  502  0.33452458574E+02 -0.61752116900E+01  0.36210349511E+02  0.49904705547E+02  0.47000000000E+01 0.  1.
        -11    1    4    4    0    0  0.81312436815E+02 -0.76702317903E+01  0.11103337328E+03  0.13783669620E+03  0.00000000000E+00 0. -1.
         11    1    4    4    0    0 -0.16188598512E+02 -0.56444673308E+00  0.96454021655E+02  0.97804742295E+02  0.00000000000E+00 0.  1.
<mgrwt>
<rscale>  0 0.13315404E+03</rscale>
<asrwt>0</asrwt>
<pdfrwt beam="2">  1        2 0.46801621E-02 0.14118677E+03</pdfrwt>
<pdfrwt beam="1">  1       -2 0.80995754E-01 0.14118677E+03</pdfrwt>
<totfact> 0.22875693E+03</totfact>
</mgrwt>
</event>
<event>
 8    1  0.1550723E-005  0.1739830E+03  0.7546771E-02  0.1179651E+00
         -1   -1    0    0    0  501 -0.00000000000E+00  0.00000000000E+00  0.25763956207E+03  0.25763956207E+03  0.00000000000E+00 0.  1.
          1   -1    0    0  501    0  0.00000000000E+00 -0.00000000000E+00 -0.13227047589E+03  0.13227047589E+03  0.00000000000E+00 0. -1.
         23    2    1    2    0    0  0.10925599330E+03  0.52048580992E+02  0.15704111807E+03  0.23437576017E+03  0.12499662928E+03 0.  0.
         23    2    1    2    0    0 -0.10925599330E+03 -0.52048580992E+02 -0.31672031895E+02  0.15553427778E+03  0.92422221923E+02 0.  0.
          5    1    3    3  502    0  0.12393980203E+01 -0.11034913071E+02  0.92981032621E+02  0.93759627992E+02  0.47000000000E+01 0. -1.
         -5    1    3    3    0  502  0.10801659528E+03  0.63083494063E+02  0.64060085454E+02  0.14061613218E+03  0.47000000000E+01 0. -1.
        -11    1    4    4    0    0 -0.74193534735E+02 -0.72189275233E+02  0.10407711111E+01  0.10352321121E+03  0.00000000000E+00 0.  1.
         11    1    4    4    0    0 -0.35062458570E+02  0.20140694241E+02 -0.32712803006E+02  0.52011066572E+02  0.00000000000E+00 0. -1.
<mgrwt>
<rscale>  0 0.16828195E+03</rscale>
<asrwt>0</asrwt>
<pdfrwt beam="2">  1        1 0.20349304E-01 0.17398300E+03</pdfrwt>
<pdfrwt beam="1">  1       -1 0.39636856E-01 0.17398300E+03</pdfrwt>
<totfact> 0.15470065E+03</totfact>
</mgrwt>
</event>
<event>
 8    1  0.1550723E-005  0.1629212E+03  0.7546771E-02  0.1192648E+00
         -1   -1    0    0    0  501 -0.00000000000E+00  0.00000000000E+00  0.68748745583E+02  0.68748745583E+02  0.00000000000E+00 0.  1.
          1   -1    0    0  501    0  0.00000000000E+00 -0.00000000000E+00 -0.35282821573E+03  0.35282821573E+03  0.00000000000E+00 0. -1.
         23    2    1    2    0    0  0.42246791844E+02  0.95637087822E+02 -0.10067939971E+03  0.19151933979E+03  0.12494827730E+03 0.  0.
         23    2    1    2    0    0 -0.42246791844E+02 -0.95637087822E+02 -0.18340007043E+03  0.23005762152E+03  0.91431282370E+02 0.  0.
          5    1    3    3  502    0 -0.41284112402E+02  0.17050960337E+02 -0.46303338146E+02  0.64507381816E+02  0.47000000000E+01 0.  1.
         -5    1    3    3    0  502  0.83530904246E+02  0.78586127485E+02 -0.54376061564E+02  0.12701195797E+03  0.47000000000E+01 0.  1.
        -11    1    4    4    0    0 -0.41702828493E+02  0.61320138522E+00 -0.43691564513E+02  0.60402439767E+02  0.00000000000E+00 0. -1.
         11    1    4    4    0    0 -0.54396335041E+00 -0.96250289207E+02 -0.13970850592E+03  0.16965518175E+03  0.00000000000E+00 0.  1.
<mgrwt>
<rscale>  0 0.15654973E+03</rscale>
<asrwt>0</asrwt>
<pdfrwt beam="2">  1        1 0.54281264E-01 0.16292120E+03</pdfrwt>
<pdfrwt beam="1">  1       -1 0.10576730E-01 0.16292120E+03</pdfrwt>
<totfact> 0.38744433E+03</totfact>
</mgrwt>
</event>
<event>
 7    1  0.1550723E-005  0.2522285E+03  0.7546771E-02  0.1111904E+00
         -2   -1    0    0    0  501 -0.00000000000E+00  0.00000000000E+00  0.31813098856E+02  0.31813098856E+02  0.00000000000E+00 0.  1.
          2   -1    0    0  501    0  0.00000000000E+00 -0.00000000000E+00 -0.49994521120E+03  0.49994521120E+03  0.00000000000E+00 0. -1.
         23    2    1    2    0    0  0.11767321944E+02 -0.45908865969E+02 -0.18535688933E+03  0.21267708736E+03  0.92888498902E+02 0.  0.
          5    1    1    2  502    0  0.24060777799E+02 -0.41929586031E+02 -0.13442169391E+03  0.14292757959E+03  0.47000000000E+01 0. -1.
         -5    1    1    2    0  502 -0.35828099743E+02  0.87838452000E+02 -0.14835352911E+03  0.17615364311E+03  0.47000000000E+01 0.  1.
        -11    1    3    3    0    0 -0.23603237677E+01  0.21157020873E+02 -0.83551309719E+01  0.22869168635E+02  0.00000000000E+00 0.  1.
         11    1    3    3    0    0  0.14127645711E+02 -0.67065886842E+02 -0.17700175836E+03  0.18980791873E+03  0.00000000000E+00 0. -1.
<mgrwt>
<rscale>  0 0.25222852E+03</rscale>
<asrwt>0</asrwt>
<pdfrwt beam="2">  1        2 0.76914644E-01 0.25222852E+03</pdfrwt>
<pdfrwt beam="1">  1       -2 0.48943231E-02 0.25222852E+03</pdfrwt>
<totfact> 0.12456247E+04</totfact>
</mgrwt>
</event>
<event>
 8    1  0.1550723E-005  0.1368299E+03  0.7546771E-02  0.1230580E+00
          1   -1    0    0  501    0  0.00000000000E+00  0.00000000000E+00  0.62780513492E+02  0.62780513492E+02  0.00000000000E+00 0. -1.
         -1   -1    0    0    0  501 -0.00000000000E+00 -0.00000000000E+00 -0.23950668979E+03  0.23950668979E+03  0.00000000000E+00 0.  1.
         23    2    1    2    0    0  0.42508958272E+02  0.35914408030E+02 -0.12644940966E+03  0.18631119995E+03  0.12500221512E+03 0.  0.
         23    2    1    2    0    0 -0.42508958272E+02 -0.35914408030E+02 -0.50276766635E+02  0.11597600334E+03  0.88463686613E+02 0.  0.
          5    1    3    3  502    0  0.17937095759E+02 -0.42172458393E+02 -0.16034044210E+02  0.48779465197E+02  0.47000000000E+01 0. -1.
         -5    1    3    3    0  502  0.24571862513E+02  0.78086866423E+02 -0.11041536545E+03  0.13753173475E+03  0.47000000000E+01 0. -1.
        -11    1    4    4    0    0 -0.19744782812E+02  0.77411944682E+01  0.20673081817E+02  0.29616867692E+02  0.00000000000E+00 0. -1.
         11    1    4    4    0    0 -0.22764175460E+02 -0.43655602498E+02 -0.70949848452E+02  0.86359135644E+02  0.00000000000E+00 0.  1.
<mgrwt>
<rscale>  0 0.12791657E+03</rscale>
<asrwt>0</asrwt>
<pdfrwt beam="1">  1        1 0.96585405E-02 0.13682986E+03</pdfrwt>
<pdfrwt beam="2">  1       -1 0.36847183E-01 0.13682986E+03</pdfrwt>
<totfact> 0.45937880E+03</totfact>
</mgrwt>
</event>
<event>
 8    1  0.1550723E-005  0.1283178E+03  0.7546771E-02  0.1249704E+00
          2   -1    0    0  501    0  0.00000000000E+00  0.00000000000E+00  0.13894995651E+03  0.13894995651E+03  0.00000000000E+00 0. -1.
         -2   -1    0    0    0  501 -0.00000000000E+00 -0.00000000000E+00 -0.15632616702E+03  0.15632616702E+03  0.00000000000E+00 0.  1.
         23    2    1    2    0    0  0.24287012669E+02  0.16019606841E+02 -0.10993541529E+03  0.16897119614E+03  0.12497592889E+03 0.  0.
         23    2    1    2    0    0 -0.24287012669E+02 -0.16019606841E+02  0.92559204778E+02  0.12630492738E+03  0.80865576754E+02 0.  0.
          5    1    3    3  502    0  0.34375481652E+02 -0.47160927573E+02 -0.27974315257E+02  0.64888204957E+02  0.47000000000E+01 0. -1.
         -5    1    3    3    0  502 -0.10088468983E+02  0.63180534414E+02 -0.81961100032E+02  0.10408299118E+03  0.47000000000E+01 0. -1.
        -11    1    4    4    0    0  0.22429648670E+02  0.33530725590E+01  0.22388151651E+01  0.22789131805E+02  0.00000000000E+00 0.  1.
         11    1    4    4    0    0 -0.46716661339E+02 -0.19372679400E+02  0.90320389613E+02  0.10351579558E+03  0.00000000000E+00 0. -1.
<mgrwt>
<rscale>  0 0.11608189E+03</rscale>
<asrwt>0</asrwt>
<pdfrwt beam="1">  1        2 0.21376916E-01 0.12831785E+03</pdfrwt>
<pdfrwt beam="2">  1       -2 0.24050180E-01 0.12831785E+03</pdfrwt>
<totfact> 0.37456296E+03</totfact>
</mgrwt>
</event>
<event>
 8    1  0.1550723E-005  0.1354822E+03  0.7546771E-02  0.1226855E+00
          1   -1    0    0  501    0  0.00000000000E+00  0.00000000000E+00  0.50187681869E+03  0.50187681869E+03  0.00000000000E+00 0. -1.
         -1   -1    0    0    0  501 -0.00000000000E+00 -0.00000000000E+00 -0.33154304655E+02  0.33154304655E+02  0.00000000000E+00 0.  1.
         23    2    1    2    0    0 -0.17826739376E+02 -0.49122381979E+02  0.19316863828E+03  0.23594395787E+03  0.12499850956E+03 0.  0.
         23    2    1    2    0    0  0.17826739376E+02  0.49122381979E+02  0.27555387575E+03  0.29908716547E+03  0.10388644310E+03 0.  0.
          5    1    3    3  502    0 -0.50276447196E+02 -0.33281994142E+02  0.18999925710E+03  0.19939212616E+03  0.47000000000E+01 0.  1.
         -5    1    3    3    0  502  0.32449707820E+02 -0.15840387837E+02  0.31693811832E+01  0.36551831712E+02  0.47000000000E+01 0.  1.
        -11    1    4    4    0    0  0.21597056881E+02 -0.16034117093E+02  0.15662609156E+02  0.31126244593E+02  0.00000000000E+00 0.  1.
         11    1    4    4    0    0 -0.37703175050E+01  0.65156499071E+02  0.25989126659E+03  0.26796092088E+03  0.00000000000E+00 0. -1.
<mgrwt>
<rscale>  0 0.13040571E+03</rscale>
<asrwt>0</asrwt>
<pdfrwt beam="1">  1        1 0.77211813E-01 0.13548221E+03</pdfrwt>
<pdfrwt beam="2">  1       -1 0.51006626E-02 0.13548221E+03</pdfrwt>
<totfact> 0.73468982E+03</totfact>
</mgrwt>
</event>
<event>
 8    1  0.1550723E-005  0.1235597E+03  0.7546771E-02  0.1246697E+00
          1   -1    0    0  501    0  0.00000000000E+00  0.00000000000E+00  0.17078083469E+03  0.17078083469E+03  0.00000000000E+00 0. -1.
         -1   -1    0    0    0  501 -0.00000000000E+00 -0.00000000000E+00 -0.15268960878E+03  0.15268960878E+03  0.00000000000E+00 0.  1.
         23    2    1    2    0    0 -0.87403355770E+01 -0.72859636125E+01 -0.10592377002E+03  0.16274775705E+03  0.12303458310E+03 0.  0.
         23    2    1    2    0    0  0.87403355770E+01  0.72859636125E+01  0.12401499593E+03  0.16072268642E+03  0.10160011802E+03 0.  0.
          5    1    3    3  502    0 -0.16195840508E+02  0.22220117401E+02 -0.12396034385E+03  0.12706020508E+03  0.47000000000E+01 0.  1.
         -5    1    3    3    0  502  0.74555049309E+01 -0.29506081014E+02  0.18036573828E+02  0.35687551976E+02  0.47000000000E+01 0.  1.
        -11    1    4    4    0    0  0.41203123208E+02 -0.24567554986E+02  0.30810228953E+02  0.57013439891E+02  0.00000000000E+00 0.  1.
         11    1    4    4    0    0 -0.32462787631E+02  0.31853518599E+02  0.93204766976E+02  0.10370924653E+03  0.00000000000E+00 0. -1.
<mgrwt>
<rscale>  0 0.11784408E+03</rscale>
<asrwt>0</asrwt>
<pdfrwt beam="1">  1        1 0.26273974E-01 0.12355965E+03</pdfrwt>
<pdfrwt beam="2">  1       -1 0.23490709E-01 0.12355965E+03</pdfrwt>
<totfact> 0.26758550E+03</totfact>
</mgrwt>
</event>
<event>
 8    1  0.1550723E-005  0.1277682E+03  0.7546771E-02  0.1245931E+00
          2   -1    0    0  501    0  0.00000000000E+00  0.00000000000E+00  0.18918988569E+03  0.18918988569E+03  0.00000000000E+00 0. -1.
         -2   -1    0    0    0  501 -0.00000000000E+00 -0.00000000000E+00 -0.65793478538E+02  0.65793478538E+02  0.00000000000E+00 0.  1.
         23    2    1    2    0    0 -0.19505217927E+02 -0.17907780985E+02  0.56548375470E+02  0.13972268986E+03  0.12499427646E+03 0.  0.
         23    2    1    2    0    0  0.19505217927E+02  0.17907780985E+02  0.66848031682E+02  0.11526067436E+03  0.90084524581E+02 0.  0.
          5    1    3    3  502    0  0.49124871212E+02  0.12503816229E+02  0.11990640894E+02  0.52301662124E+02  0.47000000000E+01 0.  1.
         -5    1    3    3    0  502 -0.68630089139E+02 -0.30411597215E+02  0.44557734576E+02  0.87421027739E+02  0.47000000000E+01 0.  1.
        -11    1    4    4    0    0  0.31111961971E+02 -0.25964934449E+02  0.86089429008E+01  0.41427598247E+02  0.00000000000E+00 0.  1.
         11    1    4    4    0    0 -0.11606744044E+02  0.43872715434E+02  0.58239088782E+02  0.73833076118E+02  0.00000000000E+00 0. -1.
<mgrwt>
<rscale>  0 0.11829823E+03</rscale>
<asrwt>0</asrwt>
<pdfrwt beam="1">  1        2 0.29106136E-01 0.12776819E+03</pdfrwt>
<pdfrwt beam="2">  1       -2 0.10122074E-01 0.12776819E+03</pdfrwt>
<totfact> 0.11050012E+04</totfact>
</mgrwt>
</event>
<event>
 8    1  0.1550723E-005  0.1364128E+03  0.7546771E-02  0.1237352E+00
         -2   -1    0    0    0  501 -0.00000000000E+00  0.00000000000E+00  0.29692581482E+02  0.29692581482E+02  0.00000000000E+00 0.  1.
          2   -1    0    0  501    0  0.00000000000E+00 -0.00000000000E+00 -0.43876584444E+03  0.43876584444E+03  0.00000000000E+00 0. -1.
         23    2    1    2    0    0 -0.34185247189E+02  0.42591821088E+02 -0.25039202873E+03  0.28513966802E+03  0.12500307147E+03 0.  0.
         23    2    1    2    0    0  0.34185247189E+02 -0.42591821088E+02 -0.15868123423E+03  0.18331875790E+03  0.73778984501E+02 0.  0.
          5    1    3    3  502    0  0.35887473453E+00  0.79535456580E+02 -0.19122234660E+03  0.20715717097E+03  0.47000000000E+01 0.  1.
         -5    1    3    3    0  502 -0.34544121923E+02 -0.36943635491E+02 -0.59169682128E+02  0.77982497048E+02  0.47000000000E+01 0.  1.
        -11    1    4    4    0    0  0.12827361206E+02  0.19392240276E+02 -0.64523738664E+02  0.68585078768E+02  0.00000000000E+00 0.  1.
         11    1    4    4    0    0  0.21357885983E+02 -0.61984061365E+02 -0.94157495563E+02  0.11473367913E+03  0.00000000000E+00 0. -1.
<mgrwt>
<rscale>  0 0.12355045E+03</rscale>
<asrwt>0</asrwt>
<pdfrwt beam="2">  1        2 0.67502437E-01 0.13641284E+03</pdfrwt>
<pdfrwt beam="1">  1       -2 0.45680895E-02 0.13641284E+03</pdfrwt>
<totfact> 0.15285167E+04</totfact>
</mgrwt>
</event>
<event>
 8    1  0.1550723E-005  0.1957827E+03  0.7546771E-02  0.1158109E+00
          1   -1    0    0  501    0  0.00000000000E+00  0.00000000000E+00  0.85169490108E+03  0.85169490108E+03  0.00000000000E+00 0. -1.
         -1   -1    0    0    0  501 -0.00000000000E+00 -0.00000000000E+00 -0.43082901151E+02  0.43082901151E+02  0.00000000000E+00 0.  1.
         23    2    1    2    0    0 -0.13434771049E+03 -0.68168487466E+02  0.53745439036E+03  0.57200357914E+03  0.12503848541E+03 0.  0.
         23    2    1    2    0    0  0.13434771049E+03  0.68168487466E+02  0.27115760957E+03  0.32277422309E+03  0.89221633401E+02 0.  0.
          5    1    3    3  502    0 -0.16017066799E+02 -0.13110043299E+02  0.25389946564E+01  0.21376532881E+02  0.47000000000E+01 0. -1.
         -5    1    3    3    0  502 -0.11833064369E+03 -0.55058444167E+02  0.53491539570E+03  0.55062704626E+03  0.47000000000E+01 0. -1.
        -11    1    4    4    0    0  0.12747506593E+03  0.47798354772E+02  0.26858999852E+03  0.30112316825E+03  0.00000000000E+00 0. -1.
         11    1    4    4    0    0  0.68726445603E+01  0.20370132694E+02  0.25676110519E+01  0.21651054841E+02  0.00000000000E+00 0.  1.
<mgrwt>
<rscale>  0 0.19039105E+03</rscale>
<asrwt>0</asrwt>
<pdfrwt beam="1">  1        1 0.13102997E+00 0.19578272E+03</pdfrwt>
<pdfrwt beam="2">  1       -1 0.66281393E-02 0.19578272E+03</pdfrwt>
<totfact> 0.23827371E+03</totfact>
</mgrwt>
</event>
<event>
 8    1  0.1550723E-005  0.1351079E+03  0.7546771E-02  0.1230522E+00
          2   -1    0    0  501    0  0.00000000000E+00  0.00000000000E+00  0.10592313106E+03  0.10592313106E+03  0.00000000000E+00 0. -1.
         -2   -1    0    0    0  501 -0.00000000000E+00 -0.00000000000E+00 -0.14113136156E+03  0.14113136156E+03  0.00000000000E+00 0.  1.
         23    2    1    2    0    0 -0.53798131767E+01 -0.59089259491E+02 -0.29011602252E+02  0.13818757130E+03  0.12138224260E+03 0.  0.
         23    2    1    2    0    0  0.53798131767E+01  0.59089259491E+02 -0.61966282448E+01  0.10886692132E+03  0.91066598594E+02 0.  0.
          5    1    3    3  502    0  0.19278940282E+02  0.28468124818E+02  0.14048355270E+02  0.37437387126E+02  0.47000000000E+01 0. -1.
         -5    1    3    3    0  502 -0.24658753459E+02 -0.87557384309E+02 -0.43059957522E+02  0.10075018417E+03  0.47000000000E+01 0.  1.
        -11    1    4    4    0    0 -0.18437501646E+02  0.99114953517E+00 -0.35163802658E+02  0.39716707589E+02  0.00000000000E+00 0.  1.
         11    1    4    4    0    0  0.23817314823E+02  0.58098109956E+02  0.28967174413E+02  0.69150213733E+02  0.00000000000E+00 0. -1.
<mgrwt>
<rscale>  0 0.12795530E+03</rscale>
<asrwt>0</asrwt>
<pdfrwt beam="1">  1        2 0.16295866E-01 0.13510785E+03</pdfrwt>
<pdfrwt beam="2">  1       -2 0.21712517E-01 0.13510785E+03</pdfrwt>
<totfact> 0.61058333E+03</totfact>
</mgrwt>
</event>
<event>
 7    1  0.1550723E-005  0.2030086E+03  0.7546771E-02  0.1178093E+00
         -1   -1    0    0    0  501 -0.00000000000E+00  0.00000000000E+00  0.60804519795E+02  0.60804519795E+02  0.00000000000E+00 0.  1.
          1   -1    0    0  501    0  0.00000000000E+00 -0.00000000000E+00 -0.67561892114E+03  0.67561892114E+03  0.00000000000E+00 0. -1.
         23    2    1    2    0    0  0.38327661862E+02 -0.89384911368E+01 -0.48590793498E+03  0.49594605950E+03  0.91143109265E+02 0.  0.
          5    1    1    2  502    0 -0.10970322997E+03 -0.38080996352E+02 -0.86961164310E+02  0.14515266118E+03  0.47000000000E+01 0. -1.
         -5    1    1    2    0  502  0.71375568111E+02  0.47019487489E+02 -0.41945302048E+02  0.95324720250E+02  0.47000000000E+01 0.  1.
        -11    1    3    3    0    0  0.71874610096E+01 -0.47869182515E+02 -0.20402205886E+03  0.20968576188E+03  0.00000000000E+00 0. -1.
         11    1    3    3    0    0  0.31140200852E+02  0.38930691379E+02 -0.28188587612E+03  0.28626029762E+03  0.00000000000E+00 0.  1.
<mgrwt>
<rscale>  0 0.16976504E+03</rscale>
<asrwt>0</asrwt>
<pdfrwt beam="2">  1        1 0.10394136E+00 0.20300861E+03</pdfrwt>
<pdfrwt beam="1">  1       -1 0.93545422E-02 0.20300861E+03</pdfrwt>
<totfact> 0.19960967E+03</totfact>
</mgrwt>
</event>
<event>
 8    1  0.1550723E-005  0.1425945E+03  0.7546771E-02  0.1222632E+00
          3   -1    0    0  501    0  0.00000000000E+00  0.00000000000E+00  0.11689318187E+03  0.11689318187E+03  0.00000000000E+00 0. -1.
         -3   -1    0    0    0  501 -0.00000000000E+00 -0.00000000000E+00 -0.17548032186E+03  0.17548032186E+03  0.00000000000E+00 0.  1.
         23    2    1    2    0    0 -0.42941485753E+02  0.53568557707E+02 -0.10179698937E+03  0.17520224622E+03  0.12497855201E+03 0.  0.
         23    2    1    2    0    0  0.42941485753E+02 -0.53568557707E+02  0.43209849370E+02  0.11717125751E+03  0.84548512288E+02 0.  0.
          5    1    3    3  502    0  0.23104861420E+02  0.54816181927E+02 -0.77430357384E+01  0.60172194781E+02  0.47000000000E+01 0. -1.
         -5    1    3    3    0  502 -0.66046347173E+02 -0.12476242204E+01 -0.94053953629E+02  0.11503005144E+03  0.47000000000E+01 0. -1.
        -11    1    4    4    0    0  0.62369032962E+02 -0.38439870046E+02  0.53259135141E+02  0.90576240581E+02  0.00000000000E+00 0. -1.
         11    1    4    4    0    0 -0.19427547209E+02 -0.15128687661E+02 -0.10049285771E+02  0.26595016928E+02  0.00000000000E+00 0.  1.
<mgrwt>
<rscale>  0 0.13330516E+03</rscale>
<asrwt>0</asrwt>
<pdfrwt beam="1">  1        3 0.17983566E-01 0.14259453E+03</pdfrwt>
<pdfrwt beam="2">  1       -3 0.26996973E-01 0.14259453E+03</pdfrwt>
<totfact> 0.82228062E+02</totfact>
</mgrwt>
</event>
<event>
 8    1  0.1550723E-005  0.1459684E+03  0.7546771E-02  0.1216125E+00
         -1   -1    0    0    0  501 -0.00000000000E+00  0.00000000000E+00  0.99119919135E+02  0.99119919135E+02  0.00000000000E+00 0.  1.
          1   -1    0    0  501    0  0.00000000000E+00 -0.00000000000E+00 -0.22878170434E+03  0.22878170434E+03  0.00000000000E+00 0. -1.
         23    2    1    2    0    0  0.64385055524E+02  0.39201896908E+02  0.97274520860E+01  0.14629215266E+03  0.12499818602E+03 0.  0.
         23    2    1    2    0    0 -0.64385055524E+02 -0.39201896908E+02 -0.13938923729E+03  0.18160947081E+03  0.88715366885E+02 0.  0.
          5    1    3    3  502    0  0.44769475300E+02  0.35519271738E+02  0.65391582446E+02  0.86971682968E+02  0.47000000000E+01 0.  1.
         -5    1    3    3    0  502  0.19615580224E+02  0.36826251701E+01 -0.55664130360E+02  0.59320469691E+02  0.47000000000E+01 0.  1.
        -11    1    4    4    0    0  0.23906885994E+00  0.24895260174E+02 -0.23365973665E+02  0.34143811421E+02  0.00000000000E+00 0. -1.
         11    1    4    4    0    0 -0.64624124384E+02 -0.64097157082E+02 -0.11602326362E+03  0.14746565939E+03  0.00000000000E+00 0.  1.
<mgrwt>
<rscale>  0 0.13794218E+03</rscale>
<asrwt>0</asrwt>
<pdfrwt beam="2">  1        1 0.35197184E-01 0.14596839E+03</pdfrwt>
<pdfrwt beam="1">  1       -1 0.15249219E-01 0.14596839E+03</pdfrwt>
<totfact> 0.37406391E+03</totfact>
</mgrwt>
</event>
<event>
 8    1  0.1550723E-005  0.1430224E+03  0.7546771E-02  0.1220047E+00
          2   -1    0    0  501    0  0.00000000000E+00  0.00000000000E+00  0.28174642871E+03  0.28174642871E+03  0.00000000000E+00 0. -1.
         -2   -1    0    0    0  501 -0.00000000000E+00 -0.00000000000E+00 -0.67190137619E+02  0.67190137619E+02  0.00000000000E+00 0.  1.
         23    2    1    2    0    0 -0.11813736575E+02  0.68465241903E+02  0.55802318384E+02  0.15352295228E+03  0.12501337697E+03 0.  0.
         23    2    1    2    0    0  0.11813736575E+02 -0.68465241903E+02  0.15875397271E+03  0.19541361404E+03  0.90313913563E+02 0.  0.
          5    1    3    3  502    0 -0.16354879867E+02  0.79328127380E+02 -0.14213781153E+02  0.82368413022E+02  0.47000000000E+01 0. -1.
         -5    1    3    3    0  502  0.45411432920E+01 -0.10862885477E+02  0.70016099537E+02  0.71154539263E+02  0.47000000000E+01 0. -1.
        -11    1    4    4    0    0  0.48115947316E+02 -0.48047672442E+02  0.12290034186E+03  0.14045717228E+03  0.00000000000E+00 0.  1.
         11    1    4    4    0    0 -0.36302210741E+02 -0.20417569461E+02  0.35853630842E+02  0.54956441769E+02  0.00000000000E+00 0. -1.
<mgrwt>
<rscale>  0 0.13512248E+03</rscale>
<asrwt>0</asrwt>
<pdfrwt beam="1">  1        2 0.43345604E-01 0.14302237E+03</pdfrwt>
<pdfrwt beam="2">  1       -2 0.10336944E-01 0.14302237E+03</pdfrwt>
<totfact> 0.70370998E+03</totfact>
</mgrwt>
</event>
<event>
 8    1  0.1550723E-005  0.1362435E+03  0.7546771E-02  0.1220401E+00
         -1   -1    0    0    0  501 -0.00000000000E+00  0.00000000000E+00  0.75184380449E+02  0.75184380449E+02  0.00000000000E+00 0.  1.
          1   -1    0    0  501    0  0.00000000000E+00 -0.00000000000E+00 -0.24992087203E+03  0.24992087203E+03  0.00000000000E+00 0. -1.
         23    2    1    2    0    0 -0.55700221394E+01  0.53911503395E+02 -0.52371879197E+02  0.14596270737E+03  0.12499929147E+03 0.  0.
         23    2    1    2    0    0  0.55700221394E+01 -0.53911503395E+02 -0.12236461238E+03  0.17914254511E+03  0.11908600992E+03 0.  0.
          5    1    3    3  502    0  0.33629908462E+02  0.69677038746E+02 -0.65489035668E+02  0.10147297307E+03  0.47000000000E+01 0. -1.
         -5    1    3    3    0  502 -0.39199930602E+02 -0.15765535350E+02  0.13117156471E+02  0.44489734299E+02  0.47000000000E+01 0. -1.
        -11    1    4    4    0    0  0.37470044698E+02 -0.79938821945E+02 -0.70859534088E+02  0.11320465129E+03  0.00000000000E+00 0.  1.
         11    1    4    4    0    0 -0.31900022558E+02  0.26027318550E+02 -0.51505078295E+02  0.65937893811E+02  0.00000000000E+00 0. -1.
<mgrwt>
<rscale>  0 0.13487192E+03</rscale>
<asrwt>0</asrwt>
<pdfrwt beam="2">  1        1 0.38449365E-01 0.13624353E+03</pdfrwt>
<pdfrwt beam="1">  1       -1 0.11566828E-01 0.13624353E+03</pdfrwt>
<totfact> 0.51337837E+03</totfact>
</mgrwt>
</event>
<event>
 8    1  0.1550723E-005  0.1767199E+03  0.7546771E-02  0.1174056E+00
         -1   -1    0    0    0  501 -0.00000000000E+00  0.00000000000E+00  0.52407874709E+02  0.52407874709E+02  0.00000000000E+00 0.  1.
          1   -1    0    0  501    0  0.00000000000E+00 -0.00000000000E+00 -0.57856311182E+03  0.57856311182E+03  0.00000000000E+00 0. -1.
         23    2    1    2    0    0  0.13639904231E+03  0.10101402209E+02 -0.21055136958E+03  0.27488504896E+03  0.11190698744E+03 0.  0.
         23    2    1    2    0    0 -0.13639904231E+03 -0.10101402209E+02 -0.31560386753E+03  0.35608593757E+03  0.92112196079E+02 0.  0.
          5    1    3    3  502    0  0.23340702829E+02 -0.14037988269E+01 -0.13784457842E+03  0.13989273341E+03  0.47000000000E+01 0. -1.
         -5    1    3    3    0  502  0.11305833948E+03  0.11505201036E+02 -0.72706791162E+02  0.13499231555E+03  0.47000000000E+01 0.  1.
        -11    1    4    4    0    0 -0.87551985148E+02  0.24791241912E+02 -0.25515300550E+03  0.27089298993E+03  0.00000000000E+00 0. -1.
         11    1    4    4    0    0 -0.48847057163E+02 -0.34892644121E+02 -0.60450862027E+02  0.85192947637E+02  0.00000000000E+00 0.  1.
<mgrwt>
<rscale>  0 0.17368726E+03</rscale>
<asrwt>0</asrwt>
<pdfrwt beam="2">  1        1 0.89009704E-01 0.17671987E+03</pdfrwt>
<pdfrwt beam="1">  1       -1 0.80627504E-02 0.17671987E+03</pdfrwt>
<totfact> 0.30989107E+03</totfact>
</mgrwt>
</event>
<event>
 8    1  0.1550723E-005  0.1348182E+03  0.7546771E-02  0.1234482E+00
         -3   -1    0    0    0  501 -0.00000000000E+00  0.00000000000E+00  0.29051172009E+03  0.29051172009E+03  0.00000000000E+00 0.  1.
          3   -1    0    0  501    0  0.00000000000E+00 -0.00000000000E+00 -0.63455833984E+02  0.63455833984E+02  0.00000000000E+00 0. -1.
         23    2    1    2    0    0 -0.11781481927E+02 -0.49119756492E+02  0.21310493685E+03  0.25216988463E+03  0.12499753123E+03 0.  0.
         23    2    1    2    0    0  0.11781481927E+02  0.49119756492E+02  0.13950949261E+02  0.10179766944E+03  0.87273035493E+02 0.  0.
          5    1    3    3  502    0  0.10194125389E+02 -0.46920275847E+02  0.22253159438E+03  0.22770119230E+03  0.47000000000E+01 0.  1.
         -5    1    3    3    0  502 -0.21975607317E+02 -0.21994806455E+01 -0.94266575364E+01  0.24468692330E+02  0.47000000000E+01 0.  1.
        -11    1    4    4    0    0 -0.18317867442E+02  0.26804392946E+02 -0.29887694311E+02  0.44128154506E+02  0.00000000000E+00 0. -1.
         11    1    4    4    0    0  0.30099349370E+02  0.22315363546E+02  0.43838643572E+02  0.57669514935E+02  0.00000000000E+00 0.  1.
<mgrwt>
<rscale>  0 0.12537659E+03</rscale>
<asrwt>0</asrwt>
<pdfrwt beam="2">  1        3 0.97624362E-02 0.13481816E+03</pdfrwt>
<pdfrwt beam="1">  1       -3 0.44694110E-01 0.13481816E+03</pdfrwt>
<totfact> 0.88489196E+02</totfact>
</mgrwt>
</event>
<event>
 8    1  0.1550723E-005  0.1306781E+03  0.7546771E-02  0.1241858E+00
          1   -1    0    0  501    0  0.00000000000E+00  0.00000000000E+00  0.17211810784E+03  0.17211810784E+03  0.00000000000E+00 0. -1.
         -1   -1    0    0    0  501 -0.00000000000E+00 -0.00000000000E+00 -0.99024901311E+02  0.99024901311E+02  0.00000000000E+00 0.  1.
         23    2    1    2    0    0  0.37036179975E+02 -0.89735831925E+01 -0.26473311742E+02  0.13333271415E+03  0.12499829041E+03 0.  0.
         23    2    1    2    0    0 -0.37036179975E+02  0.89735831925E+01  0.99566518273E+02  0.13781029500E+03  0.87326868857E+02 0.  0.
          5    1    3    3  502    0  0.23669194554E+02  0.57456145222E+02 -0.72336153285E+01  0.62736389642E+02  0.47000000000E+01 0. -1.
         -5    1    3    3    0  502  0.13366985421E+02 -0.66429728414E+02 -0.19239696413E+02  0.70596324511E+02  0.47000000000E+01 0. -1.
        -11    1    4    4    0    0  0.69376459412E+01  0.40551182821E+02  0.42561517097E+02  0.59194696528E+02  0.00000000000E+00 0. -1.
         11    1    4    4    0    0 -0.43973825916E+02 -0.31577599629E+02  0.57005001176E+02  0.78615598472E+02  0.00000000000E+00 0.  1.
<mgrwt>
<rscale>  0 0.12075416E+03</rscale>
<asrwt>0</asrwt>
<pdfrwt beam="1">  1        1 0.26479709E-01 0.13067814E+03</pdfrwt>
<pdfrwt beam="2">  1       -1 0.15234600E-01 0.13067814E+03</pdfrwt>
<totfact> 0.53047803E+03</totfact>
</mgrwt>
</event>
<event>
 8    1  0.1550723E-005  0.1312339E+03  0.7546771E-02  0.1239043E+00
          2   -1    0    0  501    0  0.00000000000E+00  0.00000000000E+00  0.39540345747E+03  0.39540345747E+03  0.00000000000E+00 0. -1.
         -2   -1    0    0    0  501 -0.00000000000E+00 -0.00000000000E+00 -0.34969727790E+02  0.34969727790E+02  0.00000000000E+00 0.  1.
         23    2    1    2    0    0  0.31433679880E+02  0.24671597501E+02  0.16323810921E+03  0.20944928979E+03  0.12500224294E+03 0.  0.
         23    2    1    2    0    0 -0.31433679880E+02 -0.24671597501E+02  0.19719562048E+03  0.22092389547E+03  0.91238648075E+02 0.  0.
          5    1    3    3  502    0 -0.13235607282E+02  0.22843566982E+02  0.16228552703E+03  0.16448614573E+03  0.47000000000E+01 0. -1.
         -5    1    3    3    0  502  0.44669287162E+02  0.18280305195E+01  0.95258217772E+00  0.44963144062E+02  0.47000000000E+01 0. -1.
        -11    1    4    4    0    0 -0.63966975226E+02 -0.16343915718E+02  0.13124816121E+03  0.14691826749E+03  0.00000000000E+00 0. -1.
         11    1    4    4    0    0  0.32533295347E+02 -0.83276817833E+01  0.65947459263E+02  0.74005627983E+02  0.00000000000E+00 0.  1.
<mgrwt>
<rscale>  0 0.12249130E+03</rscale>
<asrwt>0</asrwt>
<pdfrwt beam="1">  1        2 0.60831298E-01 0.13123385E+03</pdfrwt>
<pdfrwt beam="2">  1       -2 0.53799584E-02 0.13123385E+03</pdfrwt>
<totfact> 0.13328800E+04</totfact>
</mgrwt>
</event>
<event>
 8    1  0.1550723E-005  0.1385448E+03  0.7546771E-02  0.1226450E+00
          2   -1    0    0  501    0  0.00000000000E+00  0.00000000000E+00  0.12696992954E+03  0.12696992954E+03  0.00000000000E+00 0. -1.
         -2   -1    0    0    0  501 -0.00000000000E+00 -0.00000000000E+00 -0.12795454600E+03  0.12795454600E+03  0.00000000000E+00 0.  1.
         23    2    1    2    0    0 -0.98622376440E+01 -0.58928301870E+02 -0.29418879627E+02  0.14163378828E+03  0.12499940405E+03 0.  0.
         23    2    1    2    0    0  0.98622376440E+01  0.58928301870E+02  0.28434263166E+02  0.11329068727E+03  0.91959034394E+02 0.  0.
          5    1    3    3  502    0 -0.35168290790E+02 -0.84694116193E+02  0.44036416004E+01  0.91931409509E+02  0.47000000000E+01 0. -1.
         -5    1    3    3    0  502  0.25306053146E+02  0.25765814324E+02 -0.33822521228E+02  0.49702378774E+02  0.47000000000E+01 0. -1.
        -11    1    4    4    0    0  0.39708774151E+02  0.26686750102E+02 -0.16343871032E+02  0.50557803511E+02  0.00000000000E+00 0.  1.
         11    1    4    4    0    0 -0.29846536507E+02  0.32241551768E+02  0.44778134198E+02  0.62732883755E+02  0.00000000000E+00 0. -1.
<mgrwt>
<rscale>  0 0.13067997E+03</rscale>
<asrwt>0</asrwt>
<pdfrwt beam="1">  1        2 0.19533835E-01 0.13854479E+03</pdfrwt>
<pdfrwt beam="2">  1       -2 0.19685315E-01 0.13854479E+03</pdfrwt>
<totfact> 0.58693923E+03</totfact>
</mgrwt>
</event>
<event>
 8    1  0.1550723E-005  0.1592789E+03  0.7546771E-02  0.1198830E+00
         -1   -1    0    0    0  501 -0.00000000000E+00  0.00000000000E+00  0.24067625591E+02  0.24067625591E+02  0.00000000000E+00 0.  1.
          1   -1    0    0  501    0  0.00000000000E+00 -0.00000000000E+00 -0.86920262422E+03  0.86920262422E+03  0.00000000000E+00 0. -1.
         23    2    1    2    0    0 -0.97989170614E+02 -0.12283820049E+02 -0.48021370293E+03  0.50593969235E+03  0.12496800400E+03 0.  0.
         23    2    1    2    0    0  0.97989170614E+02  0.12283820049E+02 -0.36492129571E+03  0.38733055747E+03  0.84289020015E+02 0.  0.
          5    1    3    3  502    0 -0.12206611684E+03 -0.15184804897E+02 -0.45189591766E+03  0.46836174649E+03  0.47000000000E+01 0.  1.
         -5    1    3    3    0  502  0.24076946222E+02  0.29009848484E+01 -0.28317785271E+02  0.37577945861E+02  0.47000000000E+01 0.  1.
        -11    1    4    4    0    0  0.67088906009E+02 -0.24072933039E+02 -0.13661007575E+03  0.15408679441E+03  0.00000000000E+00 0.  1.
         11    1    4    4    0    0  0.30900264605E+02  0.36356753088E+02 -0.22831121996E+03  0.23324376306E+03  0.00000000000E+00 0. -1.
<mgrwt>
<rscale>  0 0.15134482E+03</rscale>
<asrwt>0</asrwt>
<pdfrwt beam="2">  1        1 0.13372350E+00 0.15927891E+03</pdfrwt>
<pdfrwt beam="1">  1       -1 0.37027110E-02 0.15927891E+03</pdfrwt>
<totfact> 0.54585105E+03</totfact>
</mgrwt>
</event>
<event>
 8    1  0.1550723E-005  0.1384038E+03  0.7546771E-02  0.1226669E+00
          1   -1    0    0  501    0  0.00000000000E+00  0.00000000000E+00  0.63509696742E+02  0.63509696742E+02  0.00000000000E+00 0. -1.
         -1   -1    0    0    0  501 -0.00000000000E+00 -0.00000000000E+00 -0.24406221859E+03  0.24406221859E+03  0.00000000000E+00 0.  1.
         23    2    1    2    0    0  0.39161635426E+02 -0.44723875142E+02 -0.11501699032E+03  0.17995702392E+03  0.12498705413E+03 0.  0.
         23    2    1    2    0    0 -0.39161635426E+02  0.44723875142E+02 -0.65535531529E+02  0.12761489141E+03  0.91960839061E+02 0.  0.
          5    1    3    3  502    0  0.29634164104E+02 -0.57974413709E+02 -0.16236368919E+01  0.65298870769E+02  0.47000000000E+01 0.  1.
         -5    1    3    3    0  502  0.95274713227E+01  0.13250538567E+02 -0.11339335343E+03  0.11465815315E+03  0.47000000000E+01 0.  1.
        -11    1    4    4    0    0  0.16762051251E+02  0.35936816992E+02 -0.58352840434E+02  0.70551223691E+02  0.00000000000E+00 0.  1.
         11    1    4    4    0    0 -0.55923686678E+02  0.87870581504E+01 -0.71826910950E+01  0.57063667722E+02  0.00000000000E+00 0. -1.
<mgrwt>
<rscale>  0 0.13053184E+03</rscale>
<asrwt>0</asrwt>
<pdfrwt beam="1">  1        1 0.97707225E-02 0.13840384E+03</pdfrwt>
<pdfrwt beam="2">  1       -1 0.37548034E-01 0.13840384E+03</pdfrwt>
<totfact> 0.43816690E+03</totfact>
</mgrwt>
</event>
<event>
 8    1  0.1550723E-005  0.1317419E+03  0.7546771E-02  0.1231296E+00
          1   -1    0    0  501    0  0.00000000000E+00  0.00000000000E+00  0.25869987101E+03  0.25869987101E+03  0.00000000000E+00 0. -1.
         -1   -1    0    0    0  501 -0.00000000000E+00 -0.00000000000E+00 -0.62433739480E+02  0.62433739480E+02  0.00000000000E+00 0.  1.
         23    2    1    2    0    0  0.27834155145E+02  0.30914829735E+02  0.66778046741E+02  0.14769982708E+03  0.12500185799E+03 0.  0.
         23    2    1    2    0    0 -0.27834155145E+02 -0.30914829735E+02  0.12948808479E+03  0.17343378341E+03  0.10761805720E+03 0.  0.
          5    1    3    3  502    0 -0.49586784675E+02  0.18590774405E+02  0.25173116984E+02  0.58823821077E+02  0.47000000000E+01 0. -1.
         -5    1    3    3    0  502  0.77420939820E+02  0.12324055329E+02  0.41604929758E+02  0.88876006000E+02  0.47000000000E+01 0. -1.
        -11    1    4    4    0    0  0.19619380169E+02  0.12102940818E+02 -0.57820577756E+01  0.23766224916E+02  0.00000000000E+00 0.  1.
         11    1    4    4    0    0 -0.47453535314E+02 -0.43017770552E+02  0.13527014256E+03  0.14966755850E+03  0.00000000000E+00 0. -1.
<mgrwt>
<rscale>  0 0.12744531E+03</rscale>
<asrwt>0</asrwt>
<pdfrwt beam="1">  1        1 0.39799980E-01 0.13174191E+03</pdfrwt>
<pdfrwt beam="2">  1       -1 0.96051908E-02 0.13174191E+03</pdfrwt>
<totfact> 0.65240469E+03</totfact>
</mgrwt>
</event>
<event>
 8    1  0.1550723E-005  0.1150380E+03  0.7546771E-02  0.1262658E+00
         -1   -1    0    0    0  501 -0.00000000000E+00  0.00000000000E+00  0.73683883707E+02  0.73683883707E+02  0.00000000000E+00 0.  1.
          1   -1    0    0  501    0  0.00000000000E+00 -0.00000000000E+00 -0.15302289086E+03  0.15302289086E+03  0.00000000000E+00 0. -1.
         23    2    1    2    0    0 -0.14097728006E+02 -0.15446748406E+02 -0.19458467372E+02  0.11667207862E+03  0.11312114748E+03 0.  0.
         23    2    1    2    0    0  0.14097728006E+02  0.15446748406E+02 -0.59880539781E+02  0.11003469595E+03  0.89914444314E+02 0.  0.
          5    1    3    3  502    0 -0.17447195534E+02 -0.50713173337E+02 -0.47070389063E+02  0.71511831948E+02  0.47000000000E+01 0. -1.
         -5    1    3    3    0  502  0.33494675282E+01  0.35266424931E+02  0.27611921691E+02  0.45160246674E+02  0.47000000000E+01 0.  1.
        -11    1    4    4    0    0  0.18966189075E+02 -0.34456093568E+02 -0.39999484436E+02  0.56097214433E+02  0.00000000000E+00 0. -1.
         11    1    4    4    0    0 -0.48684610690E+01  0.49902841975E+02 -0.19881055345E+02  0.53937481513E+02  0.00000000000E+00 0.  1.
<mgrwt>
<rscale>  0 0.10888007E+03</rscale>
<asrwt>0</asrwt>
<pdfrwt beam="2">  1        1 0.23541983E-01 0.11503800E+03</pdfrwt>
<pdfrwt beam="1">  1       -1 0.11335982E-01 0.11503800E+03</pdfrwt>
<totfact> 0.96222100E+03</totfact>
</mgrwt>
</event>
<event>
 8    1  0.1550723E-005  0.1308793E+03  0.7546771E-02  0.1245719E+00
         -2   -1    0    0    0  501 -0.00000000000E+00  0.00000000000E+00  0.15818267963E+03  0.15818267963E+03  0.00000000000E+00 0.  1.
          2   -1    0    0  501    0  0.00000000000E+00 -0.00000000000E+00 -0.76348507597E+02  0.76348507597E+02  0.00000000000E+00 0. -1.
         23    2    1    2    0    0 -0.31199462360E+02  0.23039118059E+02  0.60809392031E+02  0.14431620441E+03  0.12500070913E+03 0.  0.
         23    2    1    2    0    0  0.31199462360E+02 -0.23039118059E+02  0.21024780002E+02  0.90214982816E+02  0.78692403304E+02 0.  0.
          5    1    3    3  502    0  0.34827629707E+02  0.43842457251E+02  0.47693335117E+02  0.73701214803E+02  0.47000000000E+01 0.  1.
         -5    1    3    3    0  502 -0.66027092068E+02 -0.20803339192E+02  0.13116056914E+02  0.70614989609E+02  0.47000000000E+01 0.  1.
        -11    1    4    4    0    0 -0.19217598921E+02 -0.13153048025E+02 -0.14789316937E+02  0.27587001941E+02  0.00000000000E+00 0. -1.
         11    1    4    4    0    0  0.50417061281E+02 -0.98860700342E+01  0.35814096939E+02  0.62627980875E+02  0.00000000000E+00 0.  1.
<mgrwt>
<rscale>  0 0.11842441E+03</rscale>
<asrwt>0</asrwt>
<pdfrwt beam="2">  1        2 0.11745924E-01 0.13087928E+03</pdfrwt>
<pdfrwt beam="1">  1       -2 0.24335797E-01 0.13087928E+03</pdfrwt>
<totfact> 0.73669407E+03</totfact>
</mgrwt>
</event>
<event>
 8    1  0.1550723E-005  0.1748094E+03  0.7546771E-02  0.1179015E+00
          2   -1    0    0  501    0  0.00000000000E+00  0.00000000000E+00  0.18621874431E+03  0.18621874431E+03  0.00000000000E+00 0.  1.
         -2   -1    0    0    0  501 -0.00000000000E+00 -0.00000000000E+00 -0.16239915647E+03  0.16239915647E+03  0.00000000000E+00 0. -1.
         23    2    1    2    0    0  0.86551095516E+02 -0.86270920093E+02 -0.46479380099E+02  0.18088303756E+03  0.12499830684E+03 0.  0.
         23    2    1    2    0    0 -0.86551095516E+02  0.86270920093E+02  0.70298967934E+02  0.16773486322E+03  0.90880557104E+02 0.  0.
          5    1    3    3  502    0  0.35257899758E+02 -0.97883963729E+02 -0.67438534753E+02  0.12407431572E+03  0.47000000000E+01 0.  1.
         -5    1    3    3    0  502  0.51293195758E+02  0.11613043635E+02  0.20959154655E+02  0.56808721842E+02  0.47000000000E+01 0.  1.
        -11    1    4    4    0    0 -0.35082045601E+02  0.71184966743E+02  0.80608693047E+02  0.11311856969E+03  0.00000000000E+00 0.  1.
         11    1    4    4    0    0 -0.51469049915E+02  0.15085953350E+02 -0.10309725112E+02  0.54616293535E+02  0.00000000000E+00 0. -1.
<mgrwt>
<rscale>  0 0.16888589E+03</rscale>
<asrwt>0</asrwt>
<pdfrwt beam="1">  1        2 0.28649038E-01 0.17480944E+03</pdfrwt>
<pdfrwt beam="2">  1       -2 0.24984486E-01 0.17480944E+03</pdfrwt>
<totfact> 0.25732247E+03</totfact>
</mgrwt>
</event>
<event>
 8    1  0.1550723E-005  0.1450398E+03  0.7546771E-02  0.1216993E+00
          2   -1    0    0  501    0  0.00000000000E+00  0.00000000000E+00  0.37636506132E+02  0.37636506132E+02  0.00000000000E+00 0. -1.
         -2   -1    0    0    0  501 -0.00000000000E+00 -0.00000000000E+00 -0.46617506565E+03  0.46617506565E+03  0.00000000000E+00 0.  1.
         23    2    1    2    0    0 -0.33933771698E+02  0.65273644393E+02 -0.27685247071E+03  0.31254411914E+03  0.12499754540E+03 0.  0.
         23    2    1    2    0    0  0.33933771698E+02 -0.65273644393E+02 -0.15168608881E+03  0.19126745265E+03  0.90346108879E+02 0.  0.
          5    1    3    3  502    0  0.22787237209E+02  0.32639504101E+02 -0.22602433288E+03  0.22955104979E+03  0.47000000000E+01 0. -1.
         -5    1    3    3    0  502 -0.56721008907E+02  0.32634140292E+02 -0.50828137832E+02  0.82993069346E+02  0.47000000000E+01 0. -1.
        -11    1    4    4    0    0  0.34173771423E+02  0.89846471186E+01 -0.21415512435E+02  0.41318212812E+02  0.00000000000E+00 0. -1.
         11    1    4    4    0    0 -0.23999972520E+00 -0.74258291512E+02 -0.13027057637E+03  0.14994923983E+03  0.00000000000E+00 0.  1.
<mgrwt>
<rscale>  0 0.13731124E+03</rscale>
<asrwt>0</asrwt>
<pdfrwt beam="1">  1        2 0.57902323E-02 0.14503977E+03</pdfrwt>
<pdfrwt beam="2">  1       -2 0.71719233E-01 0.14503977E+03</pdfrwt>
<totfact> 0.22597539E+03</totfact>
</mgrwt>
</event>
<event>
 8    1  0.1550723E-005  0.1322471E+03  0.7546771E-02  0.1237204E+00
          3   -1    0    0  501    0  0.00000000000E+00  0.00000000000E+00  0.20235980462E+03  0.20235980462E+03  0.00000000000E+00 0. -1.
         -3   -1    0    0    0  501 -0.00000000000E+00 -0.00000000000E+00 -0.68626524865E+02  0.68626524865E+02  0.00000000000E+00 0.  1.
         23    2    1    2    0    0 -0.37207631479E+02  0.21921633414E+02  0.56544652318E+02  0.14382830673E+03  0.12499727301E+03 0.  0.
         23    2    1    2    0    0  0.37207631479E+02 -0.21921633414E+02  0.77188627435E+02  0.12715802275E+03  0.91357061541E+02 0.  0.
          5    1    3    3  502    0 -0.43938582745E+02 -0.18482215684E+01 -0.30171741097E+02  0.53539134634E+02  0.47000000000E+01 0. -1.
         -5    1    3    3    0  502  0.67309512655E+01  0.23769854983E+02  0.86716393415E+02  0.90289172096E+02  0.47000000000E+01 0. -1.
        -11    1    4    4    0    0  0.15595378909E+02  0.25747299918E+02 -0.41989526165E+01  0.30393593066E+02  0.00000000000E+00 0.  1.
         11    1    4    4    0    0  0.21612252570E+02 -0.47668933332E+02  0.81387580051E+02  0.96764429687E+02  0.00000000000E+00 0. -1.
<mgrwt>
<rscale>  0 0.12364412E+03</rscale>
<asrwt>0</asrwt>
<pdfrwt beam="1">  1        3 0.31132277E-01 0.13224706E+03</pdfrwt>
<pdfrwt beam="2">  1       -3 0.10557927E-01 0.13224706E+03</pdfrwt>
<totfact> 0.15444540E+03</totfact>
</mgrwt>
</event>
<event>
 8    1  0.1550723E-005  0.1632841E+03  0.7546771E-02  0.1192014E+00
         -1   -1    0    0    0  501 -0.00000000000E+00  0.00000000000E+00  0.43669288431E+03  0.43669288431E+03  0.00000000000E+00 0.  1.
          1   -1    0    0  501    0  0.00000000000E+00 -0.00000000000E+00 -0.73385530640E+02  0.73385530640E+02  0.00000000000E+00 0. -1.
         23    2    1    2    0    0  0.18504770867E+02 -0.10340395004E+03  0.32705904626E+03  0.36555344004E+03  0.12500757720E+03 0.  0.
         23    2    1    2    0    0 -0.18504770867E+02  0.10340395004E+03  0.36248307407E+02  0.14452497491E+03  0.92405222548E+02 0.  0.
          5    1    3    3  502    0  0.53426834896E+02 -0.65648205121E+02  0.28960603403E+03  0.30175794682E+03  0.47000000000E+01 0.  1.
         -5    1    3    3    0  502 -0.34922064029E+02 -0.37755744914E+02  0.37453012229E+02  0.63795493219E+02  0.47000000000E+01 0.  1.
        -11    1    4    4    0    0 -0.35612129958E+02  0.75678978768E+02  0.61075283803E+02  0.10356506129E+03  0.00000000000E+00 0.  1.
         11    1    4    4    0    0  0.17107359091E+02  0.27724971267E+02 -0.24826976397E+02  0.40959913621E+02  0.00000000000E+00 0. -1.
<mgrwt>
<rscale>  0 0.15709652E+03</rscale>
<asrwt>0</asrwt>
<pdfrwt beam="2">  1        1 0.11290082E-01 0.16328410E+03</pdfrwt>
<pdfrwt beam="1">  1       -1 0.67183519E-01 0.16328410E+03</pdfrwt>
<totfact> 0.12512665E+03</totfact>
</mgrwt>
</event>
<event>
 8    1  0.1550723E-005  0.1264918E+03  0.7546771E-02  0.1253361E+00
         -2   -1    0    0    0  501 -0.00000000000E+00  0.00000000000E+00  0.22425477212E+03  0.22425477212E+03  0.00000000000E+00 0. -1.
          2   -1    0    0  501    0  0.00000000000E+00 -0.00000000000E+00 -0.52477149510E+02  0.52477149510E+02  0.00000000000E+00 0.  1.
         23    2    1    2    0    0  0.74635837838E+01  0.17853543468E+02  0.13670377095E+03  0.18624737542E+03  0.12500283901E+03 0.  0.
         23    2    1    2    0    0 -0.74635837838E+01 -0.17853543468E+02  0.35073851659E+02  0.90484546211E+02  0.81134603811E+02 0.  0.
          5    1    3    3  502    0  0.42405146699E+02 -0.32393355509E+02  0.10330288706E+03  0.11636624262E+03  0.47000000000E+01 0. -1.
         -5    1    3    3    0  502 -0.34941562915E+02  0.50246898977E+02  0.33400883891E+02  0.69881132793E+02  0.47000000000E+01 0. -1.
        -11    1    4    4    0    0 -0.35144730633E+02 -0.28278962001E+02  0.67150662228E+00  0.45114329257E+02  0.00000000000E+00 0.  1.
         11    1    4    4    0    0  0.27681146850E+02  0.10425418533E+02  0.34402345037E+02  0.45370216955E+02  0.00000000000E+00 0. -1.
<mgrwt>
<rscale>  0 0.11398602E+03</rscale>
<asrwt>0</asrwt>
<pdfrwt beam="2">  1        2 0.80734077E-02 0.12649175E+03</pdfrwt>
<pdfrwt beam="1">  1       -2 0.34500734E-01 0.12649175E+03</pdfrwt>
<totfact> 0.62411965E+03</totfact>
</mgrwt>
</event>
<event>
 8    1  0.1550723E-005  0.1408987E+03  0.7546771E-02  0.1223153E+00
          1   -1    0    0  501    0  0.00000000000E+00  0.00000000000E+00  0.24300849786E+02  0.24300849786E+02  0.00000000000E+00 0. -1.
         -1   -1    0    0    0  501 -0.00000000000E+00 -0.00000000000E+00 -0.68925237348E+03  0.68925237348E+03  0.00000000000E+00 0.  1.
         23    2    1    2    0    0 -0.64268118332E+02 -0.98335947020E+01 -0.44665602566E+03  0.46835249078E+03  0.12500143897E+03 0.  0.
         23    2    1    2    0    0  0.64268118332E+02  0.98335947020E+01 -0.21829549804E+03  0.24520073249E+03  0.90793084153E+02 0.  0.
          5    1    3    3  502    0  0.51742933137E+01  0.47496361380E+02 -0.11410624731E+03  0.12379419748E+03  0.47000000000E+01 0.  1.
         -5    1    3    3    0  502 -0.69442411645E+02 -0.57329956082E+02 -0.33254977835E+03  0.34455829330E+03  0.47000000000E+01 0.  1.
        -11    1    4    4    0    0  0.69876016786E+02 -0.39573084511E+01 -0.21938024334E+03  0.23027377006E+03  0.00000000000E+00 0.  1.
         11    1    4    4    0    0 -0.56078984543E+01  0.13790903153E+02  0.10847452999E+01  0.14926962424E+02  0.00000000000E+00 0. -1.
<mgrwt>
<rscale>  0 0.13294306E+03</rscale>
<asrwt>0</asrwt>
<pdfrwt beam="1">  1        1 0.37385924E-02 0.14089872E+03</pdfrwt>
<pdfrwt beam="2">  1       -1 0.10603882E+00 0.14089872E+03</pdfrwt>
<totfact> 0.21433291E+03</totfact>
</mgrwt>
</event>
<event>
 8    1  0.1550723E-005  0.1437066E+03  0.7546771E-02  0.1222085E+00
         -1   -1    0    0    0  501 -0.00000000000E+00  0.00000000000E+00  0.37588647983E+02  0.37588647983E+02  0.00000000000E+00 0.  1.
          1   -1    0    0  501    0  0.00000000000E+00 -0.00000000000E+00 -0.42491357430E+03  0.42491357430E+03  0.00000000000E+00 0. -1.
         23    2    1    2    0    0  0.11508704442E+02 -0.69956443771E+02 -0.19688110990E+03  0.24374937702E+03  0.12500093222E+03 0.  0.
         23    2    1    2    0    0 -0.11508704442E+02  0.69956443771E+02 -0.19044381641E+03  0.21875284526E+03  0.80979045431E+02 0.  0.
          5    1    3    3  502    0 -0.39839763833E+02 -0.86890659519E+01 -0.12785095009E+02  0.42991339870E+02  0.47000000000E+01 0.  1.
         -5    1    3    3    0  502  0.51348468275E+02 -0.61267377819E+02 -0.18409601489E+03  0.20075803715E+03  0.47000000000E+01 0.  1.
        -11    1    4    4    0    0  0.60895357382E+01  0.18756153623E+02  0.10547796568E+01  0.19748121540E+02  0.00000000000E+00 0.  1.
         11    1    4    4    0    0 -0.17598240180E+02  0.51200290148E+02 -0.19149859607E+03  0.19900472372E+03  0.00000000000E+00 0. -1.
<mgrwt>
<rscale>  0 0.13368715E+03</rscale>
<asrwt>0</asrwt>
<pdfrwt beam="2">  1        1 0.65371314E-01 0.14370660E+03</pdfrwt>
<pdfrwt beam="1">  1       -1 0.57828694E-02 0.14370660E+03</pdfrwt>
<totfact> 0.75826883E+03</totfact>
</mgrwt>
</event>
<event>
 8    1  0.1550723E-005  0.1541468E+03  0.7546771E-02  0.1204065E+00
         -1   -1    0    0    0  501 -0.00000000000E+00  0.00000000000E+00  0.22509991781E+03  0.22509991781E+03  0.00000000000E+00 0.  1.
          1   -1    0    0  501    0  0.00000000000E+00 -0.00000000000E+00 -0.89014135314E+02  0.89014135314E+02  0.00000000000E+00 0. -1.
         23    2    1    2    0    0 -0.47785308299E+02 -0.76518679966E+02  0.87951509933E+02  0.17747306553E+03  0.12499070692E+03 0.  0.
         23    2    1    2    0    0  0.47785308299E+02  0.76518679966E+02  0.48134272565E+02  0.13664098760E+03  0.90638331972E+02 0.  0.
          5    1    3    3  502    0 -0.50873308450E+02 -0.10855932073E+03  0.79276943417E+02  0.14380592265E+03  0.47000000000E+01 0. -1.
         -5    1    3    3    0  502  0.30880001504E+01  0.32040640767E+02  0.86745665161E+01  0.33667142884E+02  0.47000000000E+01 0. -1.
        -11    1    4    4    0    0  0.14081020920E+02  0.26367640683E+02 -0.26960832400E+02  0.40254367577E+02  0.00000000000E+00 0. -1.
         11    1    4    4    0    0  0.33704287379E+02  0.50151039283E+02  0.75095104965E+02  0.96386620019E+02  0.00000000000E+00 0.  1.
<mgrwt>
<rscale>  0 0.14711376E+03</rscale>
<asrwt>0</asrwt>
<pdfrwt beam="2">  1        1 0.13694482E-01 0.15414675E+03</pdfrwt>
<pdfrwt beam="1">  1       -1 0.34630756E-01 0.15414675E+03</pdfrwt>
<totfact> 0.32489700E+03</totfact>
</mgrwt>
</event>
<event>
 8    1  0.1550723E-005  0.1330509E+03  0.7546771E-02  0.1238860E+00
          3   -1    0    0  501    0  0.00000000000E+00  0.00000000000E+00  0.50653938024E+02  0.50653938024E+02  0.00000000000E+00 0. -1.
         -3   -1    0    0    0  501 -0.00000000000E+00 -0.00000000000E+00 -0.26362706843E+03  0.26362706843E+03  0.00000000000E+00 0.  1.
         23    2    1    2    0    0  0.17284471896E+01 -0.45587586125E+02 -0.14443645764E+03  0.19637825972E+03  0.12498525936E+03 0.  0.
         23    2    1    2    0    0 -0.17284471896E+01  0.45587586125E+02 -0.68536672770E+02  0.11790274673E+03  0.84395299839E+02 0.  0.
          5    1    3    3  502    0  0.22954472764E+02  0.19304268633E+02 -0.11988771454E+03  0.12367181047E+03  0.47000000000E+01 0. -1.
         -5    1    3    3    0  502 -0.21226025574E+02 -0.64891854758E+02 -0.24548743103E+02  0.72706449256E+02  0.47000000000E+01 0. -1.
        -11    1    4    4    0    0  0.24768119392E+02  0.43029294325E+02 -0.75523525159E+02  0.90381318649E+02  0.00000000000E+00 0.  1.
         11    1    4    4    0    0 -0.26496566581E+02  0.25582918001E+01  0.69868523896E+01  0.27521428085E+02  0.00000000000E+00 0. -1.
<mgrwt>
<rscale>  0 0.12260524E+03</rscale>
<asrwt>0</asrwt>
<pdfrwt beam="1">  1        3 0.77929138E-02 0.13305086E+03</pdfrwt>
<pdfrwt beam="2">  1       -3 0.40558009E-01 0.13305086E+03</pdfrwt>
<totfact> 0.15419363E+03</totfact>
</mgrwt>
</event>
<event>
 7    1  0.1550723E-005  0.1694691E+03  0.7546771E-02  0.1206245E+00
         -2   -1    0    0    0  501 -0.00000000000E+00  0.00000000000E+00  0.60362989994E+03  0.60362989994E+03  0.00000000000E+00 0.  1.
          2   -1    0    0  501    0  0.00000000000E+00 -0.00000000000E+00 -0.32385490509E+02  0.32385490509E+02  0.00000000000E+00 0. -1.
         23    2    1    2    0    0  0.35949957456E+01 -0.77993878148E+01  0.10269667794E+03  0.13776169913E+03  0.91421680373E+02 0.  0.
          5    1    1    2  502    0  0.52330157542E+01 -0.36410498030E+02  0.11303259200E+02  0.38768060169E+02  0.47000000000E+01 0. -1.
         -5    1    1    2    0  502 -0.88280114998E+01  0.44209885845E+02  0.45724447229E+03  0.45948563115E+03  0.47000000000E+01 0.  1.
        -11    1    3    3    0    0 -0.42664509037E+02 -0.88793835835E+01  0.35677294696E+02  0.56320272914E+02  0.00000000000E+00 0. -1.
         11    1    3    3    0    0  0.46259504783E+02  0.10799957687E+01  0.67019383241E+02  0.81441426213E+02  0.00000000000E+00 0.  1.
<mgrwt>
<rscale>  0 0.14539755E+03</rscale>
<asrwt>0</asrwt>
<pdfrwt beam="2">  1        2 0.49823836E-02 0.16946907E+03</pdfrwt>
<pdfrwt beam="1">  1       -2 0.92866130E-01 0.16946907E+03</pdfrwt>
<totfact> 0.15694490E+03</totfact>
</mgrwt>
</event>
<event>
 8    1  0.1550723E-005  0.2082275E+03  0.7546771E-02  0.1147023E+00
          1   -1    0    0  501    0  0.00000000000E+00  0.00000000000E+00  0.29366853974E+02  0.29366853974E+02  0.00000000000E+00 0. -1.
         -1   -1    0    0    0  501 -0.00000000000E+00 -0.00000000000E+00 -0.13819249257E+04  0.13819249257E+04  0.00000000000E+00 0.  1.
         23    2    1    2    0    0  0.16162600818E+03 -0.40073298319E+02 -0.82561794053E+03  0.85147147638E+03  0.12501942092E+03 0.  0.
         23    2    1    2    0    0 -0.16162600818E+03  0.40073298319E+02 -0.52694013117E+03  0.55982030327E+03  0.89465268982E+02 0.  0.
          5    1    3    3  502    0  0.17399757550E+03 -0.57345468070E+02 -0.77502294279E+03  0.79639582548E+03  0.47000000000E+01 0. -1.
         -5    1    3    3    0  502 -0.12371567325E+02  0.17272169751E+02 -0.50594997742E+02  0.55075650904E+02  0.47000000000E+01 0. -1.
        -11    1    4    4    0    0 -0.26456760235E+02  0.22052913590E+02 -0.34119519799E+02  0.48481262270E+02  0.00000000000E+00 0.  1.
         11    1    4    4    0    0 -0.13516924794E+03  0.18020384728E+02 -0.49282061137E+03  0.51133904100E+03  0.00000000000E+00 0. -1.
<mgrwt>
<rscale>  0 0.20325304E+03</rscale>
<asrwt>0</asrwt>
<pdfrwt beam="1">  1        1 0.45179782E-02 0.20822750E+03</pdfrwt>
<pdfrwt beam="2">  1       -1 0.21260380E+00 0.20822750E+03</pdfrwt>
<totfact> 0.26492585E+02</totfact>
</mgrwt>
</event>
<event>
 7    1  0.1550723E-005  0.1652263E+03  0.7546771E-02  0.1200877E+00
         -1   -1    0    0    0  501 -0.00000000000E+00  0.00000000000E+00  0.46384891355E+02  0.46384891355E+02  0.00000000000E+00 0.  1.
          1   -1    0    0  501    0  0.00000000000E+00 -0.00000000000E+00 -0.41325715728E+03  0.41325715728E+03  0.00000000000E+00 0. -1.
         23    2    1    2    0    0 -0.79382436020E+02 -0.73308260739E+02 -0.20670541015E+03  0.26462585875E+03  0.12499618511E+03 0.  0.
          5    1    3    3  502    0 -0.34186897142E+02 -0.63560931518E+02 -0.24152913507E+02  0.76250830701E+02  0.47000000000E+01 0.  1.
         -5    1    3    3    0  502 -0.45195538878E+02 -0.97473292208E+01 -0.18255249665E+03  0.18837502805E+03  0.47000000000E+01 0.  1.
        -11    1    1    2    0    0  0.24254854127E+02  0.18493066080E+02 -0.26591447459E+02  0.40464756514E+02  0.00000000000E+00 0.  1.
         11    1    1    2    0    0  0.55127581893E+02  0.54815194659E+02 -0.13357540832E+03  0.15455143337E+03  0.00000000000E+00 0. -1.
<mgrwt>
<rscale>  0 0.14967186E+03</rscale>
<asrwt>0</asrwt>
<pdfrwt beam="2">  1        1 0.63578025E-01 0.16522626E+03</pdfrwt>
<pdfrwt beam="1">  1       -1 0.71361370E-02 0.16522626E+03</pdfrwt>
<totfact> 0.57796487E+03</totfact>
</mgrwt>
</event>
<event>
 8    1  0.1550723E-005  0.1409896E+03  0.7546771E-02  0.1223623E+00
         -2   -1    0    0    0  501 -0.00000000000E+00  0.00000000000E+00  0.91843287152E+02  0.91843287152E+02  0.00000000000E+00 0.  1.
          2   -1    0    0  501    0  0.00000000000E+00 -0.00000000000E+00 -0.19264901123E+03  0.19264901123E+03  0.00000000000E+00 0. -1.
         23    2    1    2    0    0 -0.46249157642E+02 -0.45974437697E+02 -0.96010232825E+01  0.14131609813E+03  0.12500170574E+03 0.  0.
         23    2    1    2    0    0  0.46249157642E+02  0.45974437697E+02 -0.91204700793E+02  0.14317620025E+03  0.89042087615E+02 0.  0.
          5    1    3    3  502    0 -0.67073080859E+02 -0.21360496961E+02  0.40653348470E+02  0.81423913859E+02  0.47000000000E+01 0.  1.
         -5    1    3    3    0  502  0.20823923216E+02 -0.24613940736E+02 -0.50254371753E+02  0.59892184273E+02  0.47000000000E+01 0.  1.
        -11    1    4    4    0    0  0.68245337609E+02  0.53077966162E+02 -0.78617942894E+02  0.11685665382E+03  0.00000000000E+00 0. -1.
         11    1    4    4    0    0 -0.21996179966E+02 -0.71035284657E+01 -0.12586757899E+02  0.26319546428E+02  0.00000000000E+00 0.  1.
<mgrwt>
<rscale>  0 0.13261761E+03</rscale>
<asrwt>0</asrwt>
<pdfrwt beam="2">  1        2 0.29638309E-01 0.14098957E+03</pdfrwt>
<pdfrwt beam="1">  1       -2 0.14129737E-01 0.14098957E+03</pdfrwt>
<totfact> 0.64080390E+03</totfact>
</mgrwt>
</event>
<event>
 8    1  0.1550723E-005  0.1532823E+03  0.7546771E-02  0.1205236E+00
          2   -1    0    0  501    0  0.00000000000E+00  0.00000000000E+00  0.26266265617E+03  0.26266265617E+03  0.00000000000E+00 0. -1.
         -2   -1    0    0    0  501 -0.00000000000E+00 -0.00000000000E+00 -0.74897295344E+02  0.74897295344E+02  0.00000000000E+00 0.  1.
         23    2    1    2    0    0 -0.68522079445E+02  0.56370553164E+02  0.93558069267E+02  0.17957888150E+03  0.12499019050E+03 0.  0.
         23    2    1    2    0    0  0.68522079445E+02 -0.56370553164E+02  0.94207291559E+02  0.15798107001E+03  0.90609547314E+02 0.  0.
          5    1    3    3  502    0 -0.36376473866E+02 -0.26831660544E+02  0.75997976936E+02  0.88549242554E+02  0.47000000000E+01 0.  1.
         -5    1    3    3    0  502 -0.32145605579E+02  0.83202213709E+02  0.17560092331E+02  0.91029638947E+02  0.47000000000E+01 0.  1.
        -11    1    4    4    0    0  0.72458934058E+02 -0.20114643809E+02  0.95422042381E+02  0.12149181945E+03  0.00000000000E+00 0. -1.
         11    1    4    4    0    0 -0.39368546127E+01 -0.36255909356E+02 -0.12147508213E+01  0.36489250568E+02  0.00000000000E+00 0.  1.
<mgrwt>
<rscale>  0 0.14618907E+03</rscale>
<asrwt>0</asrwt>
<pdfrwt beam="1">  1        2 0.40409639E-01 0.15328230E+03</pdfrwt>
<pdfrwt beam="2">  1       -2 0.11522661E-01 0.15328230E+03</pdfrwt>
<totfact> 0.64106700E+03</totfact>
</mgrwt>
</event>
<event>
 8    1  0.1550723E-005  0.1739186E+03  0.7546771E-02  0.1180547E+00
          1   -1    0    0  501    0  0.00000000000E+00  0.00000000000E+00  0.84395511878E+03  0.84395511878E+03  0.00000000000E+00 0. -1.
         -1   -1    0    0    0  501 -0.00000000000E+00 -0.00000000000E+00 -0.31108364572E+02  0.31108364572E+02  0.00000000000E+00 0.  1.
         23    2    1    2    0    0 -0.49563219928E+02  0.11030253189E+03  0.40767805706E+03  0.44322575393E+03  0.12499803769E+03 0.  0.
         23    2    1    2    0    0  0.49563219928E+02 -0.11030253189E+03  0.40516869714E+03  0.43183772942E+03  0.87743889214E+02 0.  0.
          5    1    3    3  502    0 -0.36323814501E+02  0.10879711718E+03  0.41259340212E+03  0.42826584930E+03  0.47000000000E+01 0. -1.
         -5    1    3    3    0  502 -0.13239405427E+02  0.15054147105E+01 -0.49153450554E+01  0.14959904629E+02  0.47000000000E+01 0. -1.
        -11    1    4    4    0    0  0.53712979193E+02 -0.35694831541E+02  0.26785234850E+03  0.27550696131E+03  0.00000000000E+00 0. -1.
         11    1    4    4    0    0 -0.41497592653E+01 -0.74607700349E+02  0.13731634864E+03  0.15633076811E+03  0.00000000000E+00 0.  1.
<mgrwt>
<rscale>  0 0.16743702E+03</rscale>
<asrwt>0</asrwt>
<pdfrwt beam="1">  1        1 0.12983923E+00 0.17391858E+03</pdfrwt>
<pdfrwt beam="2">  1       -1 0.47859029E-02 0.17391858E+03</pdfrwt>
<totfact> 0.39243431E+03</totfact>
</mgrwt>
</event>
<event>
 8    1  0.1550723E-005  0.1379410E+03  0.7546771E-02  0.1226942E+00
          2   -1    0    0  501    0  0.00000000000E+00  0.00000000000E+00  0.49168193205E+03  0.49168193205E+03  0.00000000000E+00 0. -1.
         -2   -1    0    0    0  501 -0.00000000000E+00 -0.00000000000E+00 -0.59297470375E+02  0.59297470375E+02  0.00000000000E+00 0.  1.
         23    2    1    2    0    0  0.50933079940E+02 -0.28438083856E+02  0.40220212620E+02  0.14368506298E+03  0.12499931430E+03 0.  0.
         23    2    1    2    0    0 -0.50933079940E+02  0.28438083856E+02  0.39216424906E+03  0.40729433944E+03  0.93236138153E+02 0.  0.
          5    1    3    3  502    0  0.27414253130E+02 -0.33283588006E+02  0.83427990503E+02  0.94030091485E+02  0.47000000000E+01 0. -1.
         -5    1    3    3    0  502  0.23518826810E+02  0.48455041507E+01 -0.43207777884E+02  0.49654971500E+02  0.47000000000E+01 0. -1.
        -11    1    4    4    0    0 -0.18390927592E+02 -0.31470372564E+02  0.82170500868E+02  0.89892167512E+02  0.00000000000E+00 0. -1.
         11    1    4    4    0    0 -0.32542152348E+02  0.59908456420E+02  0.30999374819E+03  0.31740217193E+03  0.00000000000E+00 0.  1.
<mgrwt>
<rscale>  0 0.13034663E+03</rscale>
<asrwt>0</asrwt>
<pdfrwt beam="1">  1        2 0.75643372E-01 0.13794104E+03</pdfrwt>
<pdfrwt beam="2">  1       -2 0.91226881E-02 0.13794104E+03</pdfrwt>
<totfact> 0.47081910E+03</totfact>
</mgrwt>
</event>
<event>
 8    1  0.1550723E-005  0.2103091E+03  0.7546771E-02  0.1145282E+00
         -3   -1    0    0    0  501 -0.00000000000E+00  0.00000000000E+00  0.11059670671E+03  0.11059670671E+03  0.00000000000E+00 0.  1.
          3   -1    0    0  501    0  0.00000000000E+00 -0.00000000000E+00 -0.36822401793E+03  0.36822401793E+03  0.00000000000E+00 0. -1.
         23    2    1    2    0    0 -0.14303933836E+03  0.90243019716E+02 -0.11083207018E+03  0.23772599986E+03  0.12500339315E+03 0.  0.
         23    2    1    2    0    0  0.14303933836E+03 -0.90243019716E+02 -0.14679524105E+03  0.24109472479E+03  0.89295960707E+02 0.  0.
          5    1    3    3  502    0 -0.31696656941E+02  0.86829295084E+02 -0.79245568113E+02  0.12184397651E+03  0.47000000000E+01 0.  1.
         -5    1    3    3    0  502 -0.11134268142E+03  0.34137246316E+01 -0.31586502068E+02  0.11588202335E+03  0.47000000000E+01 0.  1.
        -11    1    4    4    0    0  0.11866508888E+02 -0.46414919336E+02 -0.63859740845E+02  0.79832482555E+02  0.00000000000E+00 0. -1.
         11    1    4    4    0    0  0.13117282947E+03 -0.43828100380E+02 -0.82935500203E+02  0.16126224223E+03  0.00000000000E+00 0.  1.
<mgrwt>
<rscale>  0 0.20537413E+03</rscale>
<asrwt>0</asrwt>
<pdfrwt beam="2">  1        3 0.56649849E-01 0.21030907E+03</pdfrwt>
<pdfrwt beam="1">  1       -3 0.17014878E-01 0.21030907E+03</pdfrwt>
<totfact> 0.22709479E+02</totfact>
</mgrwt>
</event>
<event>
 8    1  0.1550723E-005  0.1262441E+03  0.7546771E-02  0.1248998E+00
         -1   -1    0    0    0  501 -0.00000000000E+00  0.00000000000E+00  0.18758720829E+03  0.18758720829E+03  0.00000000000E+00 0.  1.
          1   -1    0    0  501    0  0.00000000000E+00 -0.00000000000E+00 -0.11615640698E+03  0.11615640698E+03  0.00000000000E+00 0. -1.
         23    2    1    2    0    0  0.14197818538E+02 -0.10415498655E+02  0.14064341930E+03  0.18899243647E+03  0.12501003553E+03 0.  0.
         23    2    1    2    0    0 -0.14197818538E+02  0.10415498655E+02 -0.69212618001E+02  0.11475117881E+03  0.89818627710E+02 0.  0.
          5    1    3    3  502    0  0.10800070505E+02 -0.46157550574E+02  0.41947119355E+01  0.47820984998E+02  0.47000000000E+01 0.  1.
         -5    1    3    3    0  502  0.33977480330E+01  0.35742051919E+02  0.13644870737E+03  0.14117145147E+03  0.47000000000E+01 0.  1.
        -11    1    4    4    0    0 -0.11221048740E+02 -0.27347150622E+02  0.63422172715E+01  0.30232470986E+02  0.00000000000E+00 0.  1.
         11    1    4    4    0    0 -0.29767697982E+01  0.37762649277E+02 -0.75554835272E+02  0.84518707822E+02  0.00000000000E+00 0. -1.
<mgrwt>
<rscale>  0 0.11649231E+03</rscale>
<asrwt>0</asrwt>
<pdfrwt beam="2">  1        1 0.17870216E-01 0.12624409E+03</pdfrwt>
<pdfrwt beam="1">  1       -1 0.28859571E-01 0.12624409E+03</pdfrwt>
<totfact> 0.31043886E+03</totfact>
</mgrwt>
</event>
<event>
 8    1  0.1550723E-005  0.1734468E+03  0.7546771E-02  0.1180460E+00
         -3   -1    0    0    0  501 -0.00000000000E+00  0.00000000000E+00  0.13793855678E+03  0.13793855678E+03  0.00000000000E+00 0.  1.
          3   -1    0    0  501    0  0.00000000000E+00 -0.00000000000E+00 -0.20110262638E+03  0.20110262638E+03  0.00000000000E+00 0. -1.
         23    2    1    2    0    0 -0.46379464537E+02  0.11092482854E+03  0.48161639392E+01  0.17351362651E+03  0.12501364258E+03 0.  0.
         23    2    1    2    0    0  0.46379464537E+02 -0.11092482854E+03 -0.67980233534E+02  0.16552755666E+03  0.91228764886E+02 0.  0.
          5    1    3    3  502    0 -0.73863432501E+02  0.82253942070E+02 -0.36009573212E+02  0.11636278189E+03  0.47000000000E+01 0. -1.
         -5    1    3    3    0  502  0.27483967963E+02  0.28670886475E+02  0.40825737152E+02  0.57150844615E+02  0.47000000000E+01 0. -1.
        -11    1    4    4    0    0  0.68387533507E+02 -0.92905431735E+02 -0.32107058724E+02  0.11974613649E+03  0.00000000000E+00 0.  1.
         11    1    4    4    0    0 -0.22008068969E+02 -0.18019396809E+02 -0.35873174811E+02  0.45781420163E+02  0.00000000000E+00 0. -1.
<mgrwt>
<rscale>  0 0.16751907E+03</rscale>
<asrwt>0</asrwt>
<pdfrwt beam="2">  1        3 0.30938865E-01 0.17344677E+03</pdfrwt>
<pdfrwt beam="1">  1       -3 0.21221317E-01 0.17344677E+03</pdfrwt>
<totfact> 0.49086029E+02</totfact>
</mgrwt>
</event>
<event>
 8    1  0.1550723E-005  0.1280260E+03  0.7546771E-02  0.1245633E+00
         -2   -1    0    0    0  501 -0.00000000000E+00  0.00000000000E+00  0.69820094460E+02  0.69820094460E+02  0.00000000000E+00 0.  1.
          2   -1    0    0  501    0  0.00000000000E+00 -0.00000000000E+00 -0.22205860047E+03  0.22205860047E+03  0.00000000000E+00 0. -1.
         23    2    1    2    0    0  0.46960300175E+01  0.27307452441E+02 -0.19819833472E+02  0.12955112439E+03  0.12499167322E+03 0.  0.
         23    2    1    2    0    0 -0.46960300175E+01 -0.27307452441E+02 -0.13241867253E+03  0.16232757054E+03  0.89709451360E+02 0.  0.
          5    1    3    3  502    0  0.20516674063E+02 -0.20290563695E+02  0.41139019280E+02  0.50469295587E+02  0.47000000000E+01 0.  1.
         -5    1    3    3    0  502 -0.15820644046E+02  0.47598016136E+02 -0.60958852752E+02  0.79081828804E+02  0.47000000000E+01 0.  1.
        -11    1    4    4    0    0  0.17297676034E+02  0.23966184367E+02 -0.16913175698E+02  0.34053532878E+02  0.00000000000E+00 0.  1.
         11    1    4    4    0    0 -0.21993706051E+02 -0.51273636808E+02 -0.11550549684E+03  0.12827403766E+03  0.00000000000E+00 0. -1.
<mgrwt>
<rscale>  0 0.11847585E+03</rscale>
<asrwt>0</asrwt>
<pdfrwt beam="2">  1        2 0.34162862E-01 0.12802604E+03</pdfrwt>
<pdfrwt beam="1">  1       -2 0.10741553E-01 0.12802604E+03</pdfrwt>
<totfact> 0.84702037E+03</totfact>
</mgrwt>
</event>
<event>
 8    1  0.1550723E-005  0.1392316E+03  0.7546771E-02  0.1226120E+00
         -3   -1    0    0    0  501 -0.00000000000E+00  0.00000000000E+00  0.32139001292E+02  0.32139001292E+02  0.00000000000E+00 0.  1.
          3   -1    0    0  501    0  0.00000000000E+00 -0.00000000000E+00 -0.48254172485E+03  0.48254172485E+03  0.00000000000E+00 0. -1.
         23    2    1    2    0    0  0.35138332679E+02 -0.50244909480E+02 -0.27593927121E+03  0.30907592922E+03  0.12500478100E+03 0.  0.
         23    2    1    2    0    0 -0.35138332679E+02  0.50244909480E+02 -0.17446345234E+03  0.20560479692E+03  0.89869811181E+02 0.  0.
          5    1    3    3  502    0 -0.29143411745E+02  0.25677957246E+02 -0.66315024638E+02  0.76996548164E+02  0.47000000000E+01 0.  1.
         -5    1    3    3    0  502  0.64281744424E+02 -0.75922866725E+02 -0.20962424658E+03  0.23207938105E+03  0.47000000000E+01 0.  1.
        -11    1    4    4    0    0 -0.53415114187E+02  0.11007878301E+02 -0.14009056125E+03  0.15033200976E+03  0.00000000000E+00 0. -1.
         11    1    4    4    0    0  0.18276781508E+02  0.39237031179E+02 -0.34372891091E+02  0.55272787156E+02  0.00000000000E+00 0.  1.
<mgrwt>
<rscale>  0 0.13090412E+03</rscale>
<asrwt>0</asrwt>
<pdfrwt beam="2">  1        3 0.74237184E-01 0.13923164E+03</pdfrwt>
<pdfrwt beam="1">  1       -3 0.49444620E-02 0.13923164E+03</pdfrwt>
<totfact> 0.94435446E+02</totfact>
</mgrwt>
</event>
<event>
 8    1  0.1550723E-005  0.1660481E+03  0.7546771E-02  0.1188063E+00
          3   -1    0    0  501    0  0.00000000000E+00  0.00000000000E+00  0.11379932863E+03  0.11379932863E+03  0.00000000000E+00 0. -1.
         -3   -1    0    0    0  501 -0.00000000000E+00 -0.00000000000E+00 -0.35063250930E+03  0.35063250930E+03  0.00000000000E+00 0.  1.
         23    2    1    2    0    0  0.31055028721E+02 -0.10484883235E+03 -0.26864129060E+03  0.31581655811E+03  0.12495704424E+03 0.  0.
         23    2    1    2    0    0 -0.31055028721E+02  0.10484883235E+03  0.31808109933E+02  0.14861527982E+03  0.95483260752E+02 0.  0.
          5    1    3    3  502    0  0.78259004855E+02 -0.74670716559E+02 -0.19650545788E+03  0.22435835783E+03  0.47000000000E+01 0. -1.
         -5    1    3    3    0  502 -0.47203976134E+02 -0.30178115791E+02 -0.72135832722E+02  0.91458200278E+02  0.47000000000E+01 0. -1.
        -11    1    4    4    0    0 -0.57395770581E+01  0.88796062054E+02 -0.17713988359E+02  0.90727442181E+02  0.00000000000E+00 0.  1.
         11    1    4    4    0    0 -0.25315451663E+02  0.16052770296E+02  0.49522098292E+02  0.57887837637E+02  0.00000000000E+00 0. -1.
<mgrwt>
<rscale>  0 0.16056306E+03</rscale>
<asrwt>0</asrwt>
<pdfrwt beam="1">  1        3 0.17507590E-01 0.16604805E+03</pdfrwt>
<pdfrwt beam="2">  1       -3 0.53943461E-01 0.16604805E+03</pdfrwt>
<totfact> 0.23254659E+02</totfact>
</mgrwt>
</event>
<event>
 7    1  0.1550723E-005  0.1445515E+03  0.7546771E-02  0.1229106E+00
          2   -1    0    0  501    0  0.00000000000E+00  0.00000000000E+00  0.27927027136E+03  0.27927027136E+03  0.00000000000E+00 0. -1.
         -2   -1    0    0    0  501 -0.00000000000E+00 -0.00000000000E+00 -0.10589101769E+03  0.10589101769E+03  0.00000000000E+00 0.  1.
         23    2    1    2    0    0  0.43580118564E+01 -0.51771215147E+01  0.21593541345E+03  0.23447567559E+03  0.91131469902E+02 0.  0.
          5    1    1    2  502    0  0.58397154885E+01 -0.16545463676E+02  0.50920576973E+02  0.54063386913E+02  0.47000000000E+01 0. -1.
         -5    1    1    2    0  502 -0.10197727345E+02  0.21722585190E+02 -0.93476736752E+02  0.96622226553E+02  0.47000000000E+01 0.  1.
        -11    1    3    3    0    0  0.43043183649E+02 -0.22696469214E+02  0.10653952959E+03  0.11712607199E+03  0.00000000000E+00 0. -1.
         11    1    3    3    0    0 -0.38685171793E+02  0.17519347699E+02  0.10939588386E+03  0.11734960360E+03  0.00000000000E+00 0.  1.
<mgrwt>
<rscale>  0 0.12889394E+03</rscale>
<asrwt>0</asrwt>
<pdfrwt beam="1">  1        2 0.42964657E-01 0.14455147E+03</pdfrwt>
<pdfrwt beam="2">  1       -2 0.16290926E-01 0.14455147E+03</pdfrwt>
<totfact> 0.34134462E+03</totfact>
</mgrwt>
</event>
<event>
 8    1  0.1550723E-005  0.2058290E+03  0.7546771E-02  0.1148074E+00
         -1   -1    0    0    0  501 -0.00000000000E+00  0.00000000000E+00  0.27299857088E+02  0.27299857088E+02  0.00000000000E+00 0.  1.
          1   -1    0    0  501    0  0.00000000000E+00 -0.00000000000E+00 -0.15590134870E+04  0.15590134870E+04  0.00000000000E+00 0. -1.
         23    2    1    2    0    0  0.72482565959E+02 -0.15141322010E+03 -0.10104233085E+04  0.10311744984E+04  0.11910456857E+03 0.  0.
         23    2    1    2    0    0 -0.72482565959E+02  0.15141322010E+03 -0.52129032140E+03  0.55513884565E+03  0.90861725595E+02 0.  0.
          5    1    3    3  502    0  0.10271755253E+03 -0.99476948504E+02 -0.63290238030E+03  0.64887138315E+03  0.47000000000E+01 0. -1.
         -5    1    3    3    0  502 -0.30234986573E+02 -0.51936271593E+02 -0.37752092822E+03  0.38230311530E+03  0.47000000000E+01 0.  1.
        -11    1    4    4    0    0 -0.92654895068E+02  0.13768134902E+03 -0.46718201558E+03  0.49578233040E+03  0.00000000000E+00 0.  1.
         11    1    4    4    0    0  0.20172329109E+02  0.13731871075E+02 -0.54108305815E+02  0.59356515254E+02  0.00000000000E+00 0. -1.
<mgrwt>
<rscale>  0 0.20198569E+03</rscale>
<asrwt>0</asrwt>
<pdfrwt beam="2">  1        1 0.23984818E+00 0.20582902E+03</pdfrwt>
<pdfrwt beam="1">  1       -1 0.41999789E-02 0.20582902E+03</pdfrwt>
<totfact> 0.14990172E+03</totfact>
</mgrwt>
</event>
<event>
 8    1  0.1550723E-005  0.1269645E+03  0.7546771E-02  0.1246271E+00
         -2   -1    0    0    0  501 -0.00000000000E+00  0.00000000000E+00  0.25952662401E+02  0.25952662401E+02  0.00000000000E+00 0. -1.
          2   -1    0    0  501    0  0.00000000000E+00 -0.00000000000E+00 -0.47475830454E+03  0.47475830454E+03  0.00000000000E+00 0.  1.
         23    2    1    2    0    0  0.20865756100E+02  0.80995526360E+01 -0.25686889044E+03  0.28653378474E+03  0.12497599926E+03 0.  0.
         23    2    1    2    0    0 -0.20865756100E+02 -0.80995526360E+01 -0.19193675170E+03  0.21417718220E+03  0.92364312326E+02 0.  0.
          5    1    3    3  502    0  0.33052626120E+02  0.52506447423E+02 -0.21600770812E+03  0.22479062053E+03  0.47000000000E+01 0. -1.
         -5    1    3    3    0  502 -0.12186870020E+02 -0.44406894787E+02 -0.40861182325E+02  0.61743164209E+02  0.47000000000E+01 0. -1.
        -11    1    4    4    0    0 -0.17766078746E+02  0.32761342892E+02 -0.32149982088E+02  0.49219513309E+02  0.00000000000E+00 0. -1.
         11    1    4    4    0    0 -0.30996773542E+01 -0.40860895528E+02 -0.15978676961E+03  0.16495766889E+03  0.00000000000E+00 0.  1.
<mgrwt>
<rscale>  0 0.11809611E+03</rscale>
<asrwt>0</asrwt>
<pdfrwt beam="2">  1        2 0.73039741E-01 0.12696449E+03</pdfrwt>
<pdfrwt beam="1">  1       -2 0.39927172E-02 0.12696449E+03</pdfrwt>
<totfact> 0.17048059E+04</totfact>
</mgrwt>
</event>
<event>
 8    1  0.1550723E-005  0.1320427E+03  0.7546771E-02  0.1237359E+00
         -2   -1    0    0    0  501 -0.00000000000E+00  0.00000000000E+00  0.45940929740E+02  0.45940929740E+02  0.00000000000E+00 0.  1.
          2   -1    0    0  501    0  0.00000000000E+00 -0.00000000000E+00 -0.29641024804E+03  0.29641024804E+03  0.00000000000E+00 0. -1.
         23    2    1    2    0    0  0.39666735114E+02 -0.15405025424E+02 -0.14777409358E+03  0.19817279645E+03  0.12499803933E+03 0.  0.
         23    2    1    2    0    0 -0.39666735114E+02  0.15405025424E+02 -0.10269522473E+03  0.14417838133E+03  0.91816838214E+02 0.  0.
          5    1    3    3  502    0 -0.11224638542E+02  0.47324104525E+02 -0.73991297315E+02  0.88669980590E+02  0.47000000000E+01 0. -1.
         -5    1    3    3    0  502  0.50891373656E+02 -0.62729129949E+02 -0.73782796261E+02  0.10950281586E+03  0.47000000000E+01 0. -1.
        -11    1    4    4    0    0 -0.33781215490E+01 -0.33524191071E+02 -0.13793469091E+02  0.36408005737E+02  0.00000000000E+00 0.  1.
         11    1    4    4    0    0 -0.36288613565E+02  0.48929216496E+02 -0.88901755634E+02  0.10777037560E+03  0.00000000000E+00 0. -1.
<mgrwt>
<rscale>  0 0.12354612E+03</rscale>
<asrwt>0</asrwt>
<pdfrwt beam="2">  1        2 0.45601577E-01 0.13204270E+03</pdfrwt>
<pdfrwt beam="1">  1       -2 0.70678353E-02 0.13204270E+03</pdfrwt>
<totfact> 0.11965719E+04</totfact>
</mgrwt>
</event>
<event>
 8    1  0.1550723E-005  0.3390407E+03  0.7546771E-02  0.1068411E+00
          2   -1    0    0  501    0  0.00000000000E+00  0.00000000000E+00  0.27677255085E+03  0.27677255085E+03  0.00000000000E+00 0. -1.
         -2   -1    0    0    0  501 -0.00000000000E+00 -0.00000000000E+00 -0.44388180914E+03  0.44388180914E+03  0.00000000000E+00 0.  1.
         23    2    1    2    0    0  0.27449225639E+03 -0.15484403320E+03 -0.19567830029E+03  0.39145700266E+03  0.12500365711E+03 0.  0.
         23    2    1    2    0    0 -0.27449225639E+03  0.15484403320E+03  0.28569042008E+02  0.32919735733E+03  0.90730570777E+02 0.  0.
          5    1    3    3  502    0  0.19794581833E+03 -0.43823801350E+02 -0.10047772613E+03  0.22632042773E+03  0.47000000000E+01 0. -1.
         -5    1    3    3    0  502  0.76546438060E+02 -0.11102023185E+03 -0.95200574162E+02  0.16513657493E+03  0.47000000000E+01 0. -1.
        -11    1    4    4    0    0 -0.16101852382E+03  0.72026151643E+02  0.57964104562E+02  0.18567328550E+03  0.00000000000E+00 0. -1.
         11    1    4    4    0    0 -0.11347373258E+03  0.82817881552E+02 -0.29395062554E+02  0.14352407182E+03  0.00000000000E+00 0.  1.
<mgrwt>
<rscale>  0 0.33623471E+03</rscale>
<asrwt>0</asrwt>
<pdfrwt beam="1">  1        2 0.42580392E-01 0.33904069E+03</pdfrwt>
<pdfrwt beam="2">  1       -2 0.68289509E-01 0.33904069E+03</pdfrwt>
<totfact> 0.24095850E+02</totfact>
</mgrwt>
</event>
<event>
 8    1  0.1550723E-005  0.1377033E+03  0.7546771E-02  0.1229280E+00
         -2   -1    0    0    0  501 -0.00000000000E+00  0.00000000000E+00  0.21095948056E+02  0.21095948056E+02  0.00000000000E+00 0. -1.
          2   -1    0    0  501    0  0.00000000000E+00 -0.00000000000E+00 -0.73069588956E+03  0.73069588956E+03  0.00000000000E+00 0.  1.
         23    2    1    2    0    0 -0.56680872067E+02  0.11218652306E+02 -0.32361044481E+03  0.35169009902E+03  0.12499450525E+03 0.  0.
         23    2    1    2    0    0  0.56680872067E+02 -0.11218652306E+02 -0.38598949669E+03  0.40010173859E+03  0.88062081800E+02 0.  0.
          5    1    3    3  502    0  0.21160553811E+02  0.46622098227E+02 -0.10530522649E+03  0.11718647450E+03  0.47000000000E+01 0.  1.
         -5    1    3    3    0  502 -0.77841425878E+02 -0.35403445921E+02 -0.21830521832E+03  0.23450362452E+03  0.47000000000E+01 0.  1.
        -11    1    4    4    0    0  0.78952024323E+02 -0.99334240060E+01 -0.25191884362E+03  0.26418780976E+03  0.00000000000E+00 0. -1.
         11    1    4    4    0    0 -0.22271152256E+02 -0.12852283000E+01 -0.13407065307E+03  0.13591392883E+03  0.00000000000E+00 0.  1.
<mgrwt>
<rscale>  0 0.12877808E+03</rscale>
<asrwt>0</asrwt>
<pdfrwt beam="2">  1        2 0.11241476E+00 0.13770333E+03</pdfrwt>
<pdfrwt beam="1">  1       -2 0.32455303E-02 0.13770333E+03</pdfrwt>
<totfact> 0.14278467E+04</totfact>
</mgrwt>
</event>
<event>
 8    1  0.1550723E-005  0.1887230E+03  0.7546771E-02  0.1164492E+00
          2   -1    0    0  501    0  0.00000000000E+00  0.00000000000E+00  0.14554555395E+03  0.14554555395E+03  0.00000000000E+00 0. -1.
         -2   -1    0    0    0  501 -0.00000000000E+00 -0.00000000000E+00 -0.23294737306E+03  0.23294737306E+03  0.00000000000E+00 0.  1.
         23    2    1    2    0    0 -0.12786935928E+03  0.60335296525E+02 -0.91840643982E+02  0.20988350992E+03  0.12500185118E+03 0.  0.
         23    2    1    2    0    0  0.12786935928E+03 -0.60335296525E+02  0.44388248728E+01  0.16860941709E+03  0.91752445822E+02 0.  0.
          5    1    3    3  502    0 -0.19928932892E+02 -0.70840089446E+01 -0.78963341113E+02  0.81881895366E+02  0.47000000000E+01 0. -1.
         -5    1    3    3    0  502 -0.10794042639E+03  0.67419305470E+02 -0.12877302869E+02  0.12800161455E+03  0.47000000000E+01 0. -1.
        -11    1    4    4    0    0  0.62572131200E+02  0.34359076263E+01  0.35713204974E+02  0.72128427639E+02  0.00000000000E+00 0. -1.
         11    1    4    4    0    0  0.65297228079E+02 -0.63771204151E+02 -0.31274380102E+02  0.96480989446E+02  0.00000000000E+00 0.  1.
<mgrwt>
<rscale>  0 0.18346427E+03</rscale>
<asrwt>0</asrwt>
<pdfrwt beam="1">  1        2 0.22391624E-01 0.18872303E+03</pdfrwt>
<pdfrwt beam="2">  1       -2 0.35838057E-01 0.18872303E+03</pdfrwt>
<totfact> 0.17669021E+03</totfact>
</mgrwt>
</event>
<event>
 8    1  0.1550723E-005  0.1334153E+03  0.7546771E-02  0.1235851E+00
          2   -1    0    0  501    0  0.00000000000E+00  0.00000000000E+00  0.93976565731E+02  0.93976565731E+02  0.00000000000E+00 0. -1.
         -2   -1    0    0    0  501 -0.00000000000E+00 -0.00000000000E+00 -0.15012369954E+03  0.15012369954E+03  0.00000000000E+00 0.  1.
         23    2    1    2    0    0 -0.35110186496E+02  0.30687783093E+02 -0.50875519277E+02  0.14278639356E+03  0.12500068199E+03 0.  0.
         23    2    1    2    0    0  0.35110186496E+02 -0.30687783093E+02 -0.52716145274E+01  0.10131387171E+03  0.89790007536E+02 0.  0.
          5    1    3    3  502    0 -0.72399945206E+02  0.51723631229E+02 -0.43254989713E+02  0.99046303456E+02  0.47000000000E+01 0.  1.
         -5    1    3    3    0  502  0.37289758710E+02 -0.21035848136E+02 -0.76205295642E+01  0.43740090104E+02  0.47000000000E+01 0.  1.
        -11    1    4    4    0    0 -0.17583730178E+01 -0.29728498350E+02 -0.40527326824E+02  0.50292541290E+02  0.00000000000E+00 0.  1.
         11    1    4    4    0    0  0.36868559514E+02 -0.95928474201E+00  0.35255712297E+02  0.51021330416E+02  0.00000000000E+00 0. -1.
<mgrwt>
<rscale>  0 0.12450140E+03</rscale>
<asrwt>0</asrwt>
<pdfrwt beam="1">  1        2 0.14457933E-01 0.13341528E+03</pdfrwt>
<pdfrwt beam="2">  1       -2 0.23095954E-01 0.13341528E+03</pdfrwt>
<totfact> 0.63085004E+03</totfact>
</mgrwt>
</event>
<event>
 8    1  0.1550723E-005  0.2029760E+03  0.7546771E-02  0.1150632E+00
         -2   -1    0    0    0  501 -0.00000000000E+00  0.00000000000E+00  0.33711906474E+03  0.33711906474E+03  0.00000000000E+00 0.  1.
          2   -1    0    0  501    0  0.00000000000E+00 -0.00000000000E+00 -0.82643413667E+03  0.82643413667E+03  0.00000000000E+00 0. -1.
         23    2    1    2    0    0 -0.16430878833E+03 -0.66483194752E+01  0.29449527950E+03  0.35766844752E+03  0.11898601023E+03 0.  0.
         23    2    1    2    0    0  0.16430878833E+03  0.66483194752E+01 -0.78381035143E+03  0.80588475390E+03  0.89721744803E+02 0.  0.
          5    1    3    3  502    0 -0.10722742871E+03 -0.55842831630E+02  0.13548525521E+03  0.18164384849E+03  0.47000000000E+01 0. -1.
         -5    1    3    3    0  502 -0.57081359615E+02  0.49194512155E+02  0.15901002428E+03  0.17602459903E+03  0.47000000000E+01 0.  1.
        -11    1    4    4    0    0  0.44116746302E+02  0.16654648962E+02 -0.89359792738E+02  0.10103879054E+03  0.00000000000E+00 0.  1.
         11    1    4    4    0    0  0.12019204202E+03 -0.10006329487E+02 -0.69445055869E+03  0.70484596336E+03  0.00000000000E+00 0. -1.
<mgrwt>
<rscale>  0 0.19894537E+03</rscale>
<asrwt>0</asrwt>
<pdfrwt beam="2">  1        2 0.12714371E+00 0.20297598E+03</pdfrwt>
<pdfrwt beam="1">  1       -2 0.51864472E-01 0.20297598E+03</pdfrwt>
<totfact> 0.12438741E+02</totfact>
</mgrwt>
</event>
<event>
 8    1  0.1550723E-005  0.2158881E+03  0.7546771E-02  0.1140724E+00
         -2   -1    0    0    0  501 -0.00000000000E+00  0.00000000000E+00  0.41435656509E+02  0.41435656509E+02  0.00000000000E+00 0.  1.
          2   -1    0    0  501    0  0.00000000000E+00 -0.00000000000E+00 -0.11444144194E+04  0.11444144194E+04  0.00000000000E+00 0. -1.
         23    2    1    2    0    0  0.16774011594E+03 -0.53349727562E+02 -0.38638918864E+03  0.44261077392E+03  0.12499900865E+03 0.  0.
         23    2    1    2    0    0 -0.16774011594E+03  0.53349727562E+02 -0.71658957426E+03  0.74323930200E+03  0.89000574012E+02 0.  0.
          5    1    3    3  502    0  0.64917179301E+02 -0.47534269422E+02 -0.29170244349E+03  0.30263204139E+03  0.47000000000E+01 0. -1.
         -5    1    3    3    0  502  0.10282293664E+03 -0.58154581392E+01 -0.94686745151E+02  0.13997873253E+03  0.47000000000E+01 0. -1.
        -11    1    4    4    0    0 -0.85388741724E+02 -0.47065669973E+01 -0.21033965168E+03  0.22705981162E+03  0.00000000000E+00 0.  1.
         11    1    4    4    0    0 -0.82351374218E+02  0.58056294559E+02 -0.50624992258E+03  0.51617949038E+03  0.00000000000E+00 0. -1.
<mgrwt>
<rscale>  0 0.21106729E+03</rscale>
<asrwt>0</asrwt>
<pdfrwt beam="2">  1        2 0.17606376E+00 0.21588815E+03</pdfrwt>
<pdfrwt beam="1">  1       -2 0.63747161E-02 0.21588815E+03</pdfrwt>
<totfact> 0.28889551E+03</totfact>
</mgrwt>
</event>
<event>
 8    1  0.1550723E-005  0.1902052E+03  0.7546771E-02  0.1163770E+00
          1   -1    0    0  501    0  0.00000000000E+00  0.00000000000E+00  0.55158318055E+03  0.55158318055E+03  0.00000000000E+00 0. -1.
         -1   -1    0    0    0  501 -0.00000000000E+00 -0.00000000000E+00 -0.58036537388E+02  0.58036537388E+02  0.00000000000E+00 0.  1.
         23    2    1    2    0    0 -0.85610245112E+02  0.11499910565E+03  0.27322473046E+03  0.33291103682E+03  0.12499638687E+03 0.  0.
         23    2    1    2    0    0  0.85610245112E+02 -0.11499910565E+03  0.22032191269E+03  0.27670868112E+03  0.86440966129E+02 0.  0.
          5    1    3    3  502    0 -0.20947934315E+02 -0.24343099705E+02  0.77763721374E+02  0.84265585011E+02  0.47000000000E+01 0. -1.
         -5    1    3    3    0  502 -0.64662310797E+02  0.13934220535E+03  0.19546100909E+03  0.24864545181E+03  0.47000000000E+01 0. -1.
        -11    1    4    4    0    0  0.20869579336E+02 -0.92690040258E+02  0.15660969178E+03  0.18317635891E+03  0.00000000000E+00 0. -1.
         11    1    4    4    0    0  0.64740665776E+02 -0.22309065387E+02  0.63712220919E+02  0.93532322209E+02  0.00000000000E+00 0.  1.
<mgrwt>
<rscale>  0 0.18423060E+03</rscale>
<asrwt>0</asrwt>
<pdfrwt beam="1">  1        1 0.84858948E-01 0.19020517E+03</pdfrwt>
<pdfrwt beam="2">  1       -1 0.89286984E-02 0.19020517E+03</pdfrwt>
<totfact> 0.28365373E+03</totfact>
</mgrwt>
</event>
<event>
 7    1  0.1550723E-005  0.1521392E+03  0.7546771E-02  0.1210292E+00
          2   -1    0    0  501    0  0.00000000000E+00  0.00000000000E+00  0.47388157451E+03  0.47388157451E+03  0.00000000000E+00 0. -1.
         -2   -1    0    0    0  501 -0.00000000000E+00 -0.00000000000E+00 -0.53703276425E+02  0.53703276425E+02  0.00000000000E+00 0.  1.
         23    2    1    2    0    0 -0.24515743627E+02 -0.67190462481E+02  0.33184797574E+03  0.35166276651E+03  0.91804370353E+02 0.  0.
          5    1    1    2  502    0  0.37565124032E+02  0.39508057975E+02  0.11984278883E+03  0.13174372555E+03  0.47000000000E+01 0. -1.
         -5    1    1    2    0  502 -0.13049380405E+02  0.27682404506E+02 -0.31512466484E+02  0.44178358866E+02  0.47000000000E+01 0.  1.
        -11    1    3    3    0    0  0.39754797217E+01 -0.81479997498E+02  0.27043520509E+03  0.28247122788E+03  0.00000000000E+00 0. -1.
         11    1    3    3    0    0 -0.28491223349E+02  0.14289535017E+02  0.61412770651E+02  0.69191538630E+02  0.00000000000E+00 0.  1.
<mgrwt>
<rscale>  0 0.14228125E+03</rscale>
<asrwt>0</asrwt>
<pdfrwt beam="1">  1        2 0.72904855E-01 0.15213919E+03</pdfrwt>
<pdfrwt beam="2">  1       -2 0.82620428E-02 0.15213919E+03</pdfrwt>
<totfact> 0.57483097E+03</totfact>
</mgrwt>
</event>
<event>
 8    1  0.1550723E-005  0.1368482E+03  0.7546771E-02  0.1232068E+00
          1   -1    0    0  501    0  0.00000000000E+00  0.00000000000E+00  0.21339501192E+03  0.21339501192E+03  0.00000000000E+00 0. -1.
         -1   -1    0    0    0  501 -0.00000000000E+00 -0.00000000000E+00 -0.66639767529E+02  0.66639767529E+02  0.00000000000E+00 0.  1.
         23    2    1    2    0    0 -0.13846880942E+02  0.53952134014E+02  0.76947130290E+02  0.15699777242E+03  0.12499948323E+03 0.  0.
         23    2    1    2    0    0  0.13846880942E+02 -0.53952134014E+02  0.69808114103E+02  0.12303700703E+03  0.84630747532E+02 0.  0.
          5    1    3    3  502    0  0.16823092915E+02  0.35694958543E+02 -0.26299928406E+02  0.47654199760E+02  0.47000000000E+01 0.  1.
         -5    1    3    3    0  502 -0.30669973857E+02  0.18257175472E+02  0.10324705870E+03  0.10934357266E+03  0.47000000000E+01 0.  1.
        -11    1    4    4    0    0 -0.27366657190E+02 -0.32927021136E+02  0.45700979903E+01  0.43058198317E+02  0.00000000000E+00 0.  1.
         11    1    4    4    0    0  0.41213538132E+02 -0.21025112879E+02  0.65238016113E+02  0.79978808714E+02  0.00000000000E+00 0. -1.
<mgrwt>
<rscale>  0 0.12694012E+03</rscale>
<asrwt>0</asrwt>
<pdfrwt beam="1">  1        1 0.32830002E-01 0.13684824E+03</pdfrwt>
<pdfrwt beam="2">  1       -1 0.10252272E-01 0.13684824E+03</pdfrwt>
<totfact> 0.75146330E+03</totfact>
</mgrwt>
</event>
<event>
 8    1  0.1550723E-005  0.1380926E+03  0.7546771E-02  0.1223046E+00
          1   -1    0    0  501    0  0.00000000000E+00  0.00000000000E+00  0.11766202034E+03  0.11766202034E+03  0.00000000000E+00 0. -1.
         -1   -1    0    0    0  501 -0.00000000000E+00 -0.00000000000E+00 -0.14354709175E+03  0.14354709175E+03  0.00000000000E+00 0.  1.
         23    2    1    2    0    0  0.11195890710E+02 -0.65104633820E+02 -0.33450404415E+02  0.14208620065E+03  0.12126663823E+03 0.  0.
         23    2    1    2    0    0 -0.11195890710E+02  0.65104633820E+02  0.75653330047E+01  0.11912291144E+03  0.98838618229E+02 0.  0.
          5    1    3    3  502    0  0.48809489431E+02 -0.51425910990E+02  0.21229739286E+02  0.74160517864E+02  0.47000000000E+01 0. -1.
         -5    1    3    3    0  502 -0.37613598721E+02 -0.13678722830E+02 -0.54680143701E+02  0.67925682788E+02  0.47000000000E+01 0.  1.
        -11    1    4    4    0    0 -0.30308211633E+02  0.60291750239E+02  0.41973485779E+02  0.79469845524E+02  0.00000000000E+00 0.  1.
         11    1    4    4    0    0  0.19112320922E+02  0.48128835811E+01 -0.34408152774E+02  0.39653065918E+02  0.00000000000E+00 0. -1.
<mgrwt>
<rscale>  0 0.13301701E+03</rscale>
<asrwt>0</asrwt>
<pdfrwt beam="1">  1        1 0.18101849E-01 0.13809257E+03</pdfrwt>
<pdfrwt beam="2">  1       -1 0.22084168E-01 0.13809257E+03</pdfrwt>
<totfact> 0.47652764E+03</totfact>
</mgrwt>
</event>
<event>
 8    1  0.1550723E-005  0.1340290E+03  0.7546771E-02  0.1233816E+00
          3   -1    0    0  501    0  0.00000000000E+00  0.00000000000E+00  0.21029914148E+02  0.21029914148E+02  0.00000000000E+00 0. -1.
         -3   -1    0    0    0  501 -0.00000000000E+00 -0.00000000000E+00 -0.71096762805E+03  0.71096762805E+03  0.00000000000E+00 0.  1.
         23    2    1    2    0    0  0.12668801407E+02 -0.46669265189E+02 -0.46924085561E+03  0.48800690587E+03  0.12500096302E+03 0.  0.
         23    2    1    2    0    0 -0.12668801407E+02  0.46669265189E+02 -0.22069685829E+03  0.24399063633E+03  0.92118448291E+02 0.  0.
          5    1    3    3  502    0  0.18682482809E+02 -0.94279943885E+01 -0.47558735603E+01  0.21968854668E+02  0.47000000000E+01 0.  1.
         -5    1    3    3    0  502 -0.60136814017E+01 -0.37241270801E+02 -0.46448498205E+03  0.46603805120E+03  0.47000000000E+01 0.  1.
        -11    1    4    4    0    0 -0.32479976210E+02 -0.16545911491E+02 -0.60443344973E+02  0.70584091643E+02  0.00000000000E+00 0. -1.
         11    1    4    4    0    0  0.19811174802E+02  0.63215176680E+02 -0.16025351332E+03  0.17340654469E+03  0.00000000000E+00 0.  1.
<mgrwt>
<rscale>  0 0.12580534E+03</rscale>
<asrwt>0</asrwt>
<pdfrwt beam="1">  1        3 0.32353713E-02 0.13402895E+03</pdfrwt>
<pdfrwt beam="2">  1       -3 0.10937964E+00 0.13402895E+03</pdfrwt>
<totfact> 0.76925812E+02</totfact>
</mgrwt>
</event>
<event>
 8    1  0.1550723E-005  0.1401609E+03  0.7546771E-02  0.1224984E+00
         -1   -1    0    0    0  501 -0.00000000000E+00  0.00000000000E+00  0.47956502814E+03  0.47956502814E+03  0.00000000000E+00 0. -1.
          1   -1    0    0  501    0  0.00000000000E+00 -0.00000000000E+00 -0.36249015984E+02  0.36249015984E+02  0.00000000000E+00 0.  1.
         23    2    1    2    0    0 -0.62674396211E+02 -0.93831810934E+01  0.32958498697E+03  0.35814990336E+03  0.12501586146E+03 0.  0.
         23    2    1    2    0    0  0.62674396211E+02  0.93831810934E+01  0.11373102519E+03  0.15766414076E+03  0.88921938598E+02 0.  0.
          5    1    3    3  502    0 -0.37550511692E+02  0.45213188275E+02  0.69361353523E+02  0.91034942109E+02  0.47000000000E+01 0. -1.
         -5    1    3    3    0  502 -0.25123884519E+02 -0.54596369368E+02  0.26022363344E+03  0.26711496125E+03  0.47000000000E+01 0. -1.
        -11    1    4    4    0    0 -0.14100246354E+02 -0.13867781150E+01  0.64019772409E+02  0.65568829181E+02  0.00000000000E+00 0. -1.
         11    1    4    4    0    0  0.76774642565E+02  0.10769959208E+02  0.49711252778E+02  0.92095311580E+02  0.00000000000E+00 0.  1.
<mgrwt>
<rscale>  0 0.13167991E+03</rscale>
<asrwt>0</asrwt>
<pdfrwt beam="2">  1        1 0.55767720E-02 0.14016094E+03</pdfrwt>
<pdfrwt beam="1">  1       -1 0.73779231E-01 0.14016094E+03</pdfrwt>
<totfact> 0.26674133E+03</totfact>
</mgrwt>
</event>
<event>
 8    1  0.1550723E-005  0.1439429E+03  0.7546771E-02  0.1218560E+00
          2   -1    0    0  501    0  0.00000000000E+00  0.00000000000E+00  0.46003085426E+03  0.46003085426E+03  0.00000000000E+00 0. -1.
         -2   -1    0    0    0  501 -0.00000000000E+00 -0.00000000000E+00 -0.37635911738E+02  0.37635911738E+02  0.00000000000E+00 0.  1.
         23    2    1    2    0    0 -0.43998329054E+02  0.56212416326E+02  0.19140987874E+03  0.23949384659E+03  0.12499548857E+03 0.  0.
         23    2    1    2    0    0  0.43998329054E+02 -0.56212416326E+02  0.23098506378E+03  0.25817291941E+03  0.90572997743E+02 0.  0.
          5    1    3    3  502    0 -0.41251195751E+02 -0.33319422861E+02  0.57926521030E+02  0.78672847471E+02  0.47000000000E+01 0.  1.
         -5    1    3    3    0  502 -0.27471333033E+01  0.89531839188E+02  0.13348335771E+03  0.16082099911E+03  0.47000000000E+01 0.  1.
        -11    1    4    4    0    0  0.25082487333E+02  0.78115531294E+01  0.11353307225E+02  0.28619034191E+02  0.00000000000E+00 0.  1.
         11    1    4    4    0    0  0.18915841721E+02 -0.64023969456E+02  0.21963175655E+03  0.22955388522E+03  0.00000000000E+00 0. -1.
<mgrwt>
<rscale>  0 0.13618232E+03</rscale>
<asrwt>0</asrwt>
<pdfrwt beam="1">  1        2 0.70773974E-01 0.14394291E+03</pdfrwt>
<pdfrwt beam="2">  1       -2 0.57901406E-02 0.14394291E+03</pdfrwt>
<totfact> 0.10204894E+04</totfact>
</mgrwt>
</event>
<event>
 8    1  0.1550723E-005  0.1677732E+03  0.7546771E-02  0.1186252E+00
          2   -1    0    0  501    0  0.00000000000E+00  0.00000000000E+00  0.48716128784E+02  0.48716128784E+02  0.00000000000E+00 0.  1.
         -2   -1    0    0    0  501 -0.00000000000E+00 -0.00000000000E+00 -0.52526331111E+03  0.52526331111E+03  0.00000000000E+00 0. -1.
         23    2    1    2    0    0  0.46417809789E+00  0.11190886021E+03 -0.20027807355E+03  0.26126453180E+03  0.12499616146E+03 0.  0.
         23    2    1    2    0    0 -0.46417809789E+00 -0.11190886021E+03 -0.27626910878E+03  0.31271490809E+03  0.94563126130E+02 0.  0.
          5    1    3    3  502    0 -0.44337443831E+02  0.14739896122E+02 -0.11545914018E+03  0.12464339739E+03  0.47000000000E+01 0.  1.
         -5    1    3    3    0  502  0.44801621929E+02  0.97168964088E+02 -0.84818933372E+02  0.13662113441E+03  0.47000000000E+01 0.  1.
        -11    1    4    4    0    0 -0.51794061846E+01 -0.53065790159E+02 -0.23428635017E+03  0.24027671175E+03  0.00000000000E+00 0. -1.
         11    1    4    4    0    0  0.47152280867E+01 -0.58843070051E+02 -0.41982758607E+02  0.72438196341E+02  0.00000000000E+00 0.  1.
<mgrwt>
<rscale>  0 0.16218505E+03</rscale>
<asrwt>0</asrwt>
<pdfrwt beam="1">  1        2 0.74947893E-02 0.16777321E+03</pdfrwt>
<pdfrwt beam="2">  1       -2 0.80809737E-01 0.16777321E+03</pdfrwt>
<totfact> 0.12622777E+03</totfact>
</mgrwt>
</event>
<event>
 8    1  0.1550723E-005  0.1363552E+03  0.7546771E-02  0.1230526E+00
         -1   -1    0    0    0  501 -0.00000000000E+00  0.00000000000E+00  0.74140151448E+02  0.74140151448E+02  0.00000000000E+00 0.  1.
          1   -1    0    0  501    0  0.00000000000E+00 -0.00000000000E+00 -0.19922235933E+03  0.19922235933E+03  0.00000000000E+00 0. -1.
         23    2    1    2    0    0 -0.75602285670E+01  0.53989102501E+02 -0.82595039391E+02  0.15941978541E+03  0.12498298766E+03 0.  0.
         23    2    1    2    0    0  0.75602285670E+01 -0.53989102501E+02 -0.42487168489E+02  0.11394272536E+03  0.90585898085E+02 0.  0.
          5    1    3    3  502    0 -0.60202350607E+02  0.42771723887E+00 -0.44959010021E+02  0.75285513498E+02  0.47000000000E+01 0.  1.
         -5    1    3    3    0  502  0.52642122040E+02  0.53561385262E+02 -0.37636029370E+02  0.84134271916E+02  0.47000000000E+01 0.  1.
        -11    1    4    4    0    0 -0.78330650207E+01 -0.77338883993E+02 -0.32295805454E+02  0.84176474948E+02  0.00000000000E+00 0.  1.
         11    1    4    4    0    0  0.15393293588E+02  0.23349781492E+02 -0.10191363035E+02  0.29766250414E+02  0.00000000000E+00 0. -1.
<mgrwt>
<rscale>  0 0.12795231E+03</rscale>
<asrwt>0</asrwt>
<pdfrwt beam="2">  1        1 0.30649593E-01 0.13635515E+03</pdfrwt>
<pdfrwt beam="1">  1       -1 0.11406177E-01 0.13635515E+03</pdfrwt>
<totfact> 0.69476191E+03</totfact>
</mgrwt>
</event>
<event>
 8    1  0.1550723E-005  0.2961805E+03  0.7546771E-02  0.1088640E+00
          2   -1    0    0  501    0  0.00000000000E+00  0.00000000000E+00  0.39454881402E+03  0.39454881402E+03  0.00000000000E+00 0.  1.
         -2   -1    0    0    0  501 -0.00000000000E+00 -0.00000000000E+00 -0.29137679401E+03  0.29137679401E+03  0.00000000000E+00 0. -1.
         23    2    1    2    0    0  0.22182467766E+03 -0.15130072114E+03 -0.12451304985E+03  0.32128866473E+03  0.12499924265E+03 0.  0.
         23    2    1    2    0    0 -0.22182467766E+03  0.15130072114E+03  0.22768506987E+03  0.36463694330E+03  0.94981648446E+02 0.  0.
          5    1    3    3  502    0  0.12101495442E+02 -0.38831536706E+02 -0.63523509744E+02  0.75575529936E+02  0.47000000000E+01 0.  1.
         -5    1    3    3    0  502  0.20972318222E+03 -0.11246918443E+03 -0.60989540107E+02  0.24571313479E+03  0.47000000000E+01 0.  1.
        -11    1    4    4    0    0 -0.17662480953E+03  0.84196683274E+02  0.11853542423E+03  0.22877074029E+03  0.00000000000E+00 0. -1.
         11    1    4    4    0    0 -0.45199868132E+02  0.67104037865E+02  0.10914964564E+03  0.13586620301E+03  0.00000000000E+00 0.  1.
<mgrwt>
<rscale>  0 0.29329733E+03</rscale>
<asrwt>0</asrwt>
<pdfrwt beam="1">  1        2 0.60699817E-01 0.29618053E+03</pdfrwt>
<pdfrwt beam="2">  1       -2 0.44827199E-01 0.29618053E+03</pdfrwt>
<totfact> 0.38879881E+02</totfact>
</mgrwt>
</event>
<event>
 7    1  0.1550723E-005  0.2107384E+03  0.7546771E-02  0.1177652E+00
         -2   -1    0    0    0  501 -0.00000000000E+00  0.00000000000E+00  0.49517306857E+03  0.49517306857E+03  0.00000000000E+00 0.  1.
          2   -1    0    0  501    0  0.00000000000E+00 -0.00000000000E+00 -0.49111427122E+02  0.49111427122E+02  0.00000000000E+00 0. -1.
         23    2    1    2    0    0  0.20095359263E+01  0.69483934054E+01  0.72115962751E+02  0.11504557513E+03  0.89344579400E+02 0.  0.
          5    1    1    2  502    0  0.32992584854E+02 -0.39655372481E+02 -0.41055154198E+00  0.51800750714E+02  0.47000000000E+01 0. -1.
         -5    1    1    2    0  502 -0.35002120780E+02  0.32706979075E+02  0.37435623024E+03  0.37743816985E+03  0.47000000000E+01 0.  1.
        -11    1    3    3    0    0 -0.20916600787E+02  0.42425107290E+02  0.40748257924E+02  0.62432479054E+02  0.00000000000E+00 0.  1.
         11    1    3    3    0    0  0.22926136713E+02 -0.35476713884E+02  0.31367704826E+02  0.52613096076E+02  0.00000000000E+00 0. -1.
<mgrwt>
<rscale>  0 0.17018821E+03</rscale>
<asrwt>0</asrwt>
<pdfrwt beam="2">  1        2 0.75556045E-02 0.21073842E+03</pdfrwt>
<pdfrwt beam="1">  1       -2 0.76180469E-01 0.21073842E+03</pdfrwt>
<totfact> 0.14353016E+03</totfact>
</mgrwt>
</event>
<event>
 8    1  0.1550723E-005  0.1264634E+03  0.7546771E-02  0.1248845E+00
         -3   -1    0    0    0  501 -0.00000000000E+00  0.00000000000E+00  0.80320414438E+02  0.80320414438E+02  0.00000000000E+00 0.  1.
          3   -1    0    0  501    0  0.00000000000E+00 -0.00000000000E+00 -0.17599407508E+03  0.17599407508E+03  0.00000000000E+00 0. -1.
         23    2    1    2    0    0  0.18794649380E+02 -0.38995271693E+01 -0.34374709348E+01  0.12651011527E+03  0.12499819159E+03 0.  0.
         23    2    1    2    0    0 -0.18794649380E+02  0.38995271693E+01 -0.92236189705E+02  0.12980437425E+03  0.89292864919E+02 0.  0.
          5    1    3    3  502    0  0.16695279280E+02 -0.54368671128E+02 -0.34824645869E+02  0.66854548913E+02  0.47000000000E+01 0. -1.
         -5    1    3    3    0  502  0.20993701002E+01  0.50469143958E+02  0.31387174934E+02  0.59655566355E+02  0.47000000000E+01 0. -1.
        -11    1    4    4    0    0  0.54793141938E+01 -0.28869633942E+02 -0.47433915274E+00  0.29388835390E+02  0.00000000000E+00 0.  1.
         11    1    4    4    0    0 -0.24273963574E+02  0.32769161111E+02 -0.91761850552E+02  0.10041553886E+03  0.00000000000E+00 0. -1.
<mgrwt>
<rscale>  0 0.11658166E+03</rscale>
<asrwt>0</asrwt>
<pdfrwt beam="2">  1        3 0.27076011E-01 0.12646341E+03</pdfrwt>
<pdfrwt beam="1">  1       -3 0.12356987E-01 0.12646341E+03</pdfrwt>
<totfact> 0.15237634E+03</totfact>
</mgrwt>
</event>
<event>
 8    1  0.1550723E-005  0.2093456E+03  0.7546771E-02  0.1145987E+00
          1   -1    0    0  501    0  0.00000000000E+00  0.00000000000E+00  0.57746900198E+03  0.57746900198E+03  0.00000000000E+00 0. -1.
         -1   -1    0    0    0  501 -0.00000000000E+00 -0.00000000000E+00 -0.69324444118E+02  0.69324444118E+02  0.00000000000E+00 0.  1.
         23    2    1    2    0    0 -0.67320078046E+02 -0.15387772486E+03  0.25721373384E+03  0.33163906997E+03  0.12496087684E+03 0.  0.
         23    2    1    2    0    0  0.67320078046E+02  0.15387772486E+03  0.25093082402E+03  0.31515437613E+03  0.90253283783E+02 0.  0.
          5    1    3    3  502    0 -0.60247072328E+02 -0.13167091697E+03  0.10840711364E+03  0.18094510877E+03  0.47000000000E+01 0.  1.
         -5    1    3    3    0  502 -0.70730057175E+01 -0.22206807883E+02  0.14880662020E+03  0.15069396120E+03  0.47000000000E+01 0.  1.
        -11    1    4    4    0    0  0.48287173315E+02  0.14076486021E+03  0.14882168443E+03  0.21046208859E+03  0.00000000000E+00 0.  1.
         11    1    4    4    0    0  0.19032904731E+02  0.13112864642E+02  0.10210913959E+03  0.10469228753E+03  0.00000000000E+00 0. -1.
<mgrwt>
<rscale>  0 0.20451250E+03</rscale>
<asrwt>0</asrwt>
<pdfrwt beam="1">  1        1 0.88841382E-01 0.20934557E+03</pdfrwt>
<pdfrwt beam="2">  1       -1 0.10665299E-01 0.20934557E+03</pdfrwt>
<totfact> 0.20322692E+03</totfact>
</mgrwt>
</event>
<event>
 8    1  0.1550723E-005  0.1451416E+03  0.7546771E-02  0.1216871E+00
          2   -1    0    0  501    0  0.00000000000E+00  0.00000000000E+00  0.17037032668E+03  0.17037032668E+03  0.00000000000E+00 0. -1.
         -2   -1    0    0    0  501 -0.00000000000E+00 -0.00000000000E+00 -0.10399591693E+03  0.10399591693E+03  0.00000000000E+00 0.  1.
         23    2    1    2    0    0  0.72754500963E+02 -0.12106943687E+02  0.11690894044E+02  0.14561169532E+03  0.12500517315E+03 0.  0.
         23    2    1    2    0    0 -0.72754500963E+02  0.12106943687E+02  0.54683515706E+02  0.12875454828E+03  0.90264341344E+02 0.  0.
          5    1    3    3  502    0  0.98520981719E+02  0.22784083780E+02  0.39864814190E+01  0.10130883647E+03  0.47000000000E+01 0.  1.
         -5    1    3    3    0  502 -0.25766480756E+02 -0.34891027466E+02  0.77044126249E+01  0.44302858848E+02  0.47000000000E+01 0.  1.
        -11    1    4    4    0    0 -0.61695466269E+02  0.34922116220E+02  0.27317708627E+01  0.70946087499E+02  0.00000000000E+00 0.  1.
         11    1    4    4    0    0 -0.11059034694E+02 -0.22815172533E+02  0.51951744844E+02  0.57808460785E+02  0.00000000000E+00 0. -1.
<mgrwt>
<rscale>  0 0.13739983E+03</rscale>
<asrwt>0</asrwt>
<pdfrwt beam="1">  1        2 0.26210819E-01 0.14514162E+03</pdfrwt>
<pdfrwt beam="2">  1       -2 0.15999372E-01 0.14514162E+03</pdfrwt>
<totfact> 0.59914212E+03</totfact>
</mgrwt>
</event>
<event>
 8    1  0.1550723E-005  0.1345523E+03  0.7546771E-02  0.1233060E+00
         -2   -1    0    0    0  501 -0.00000000000E+00  0.00000000000E+00  0.38274804138E+02  0.38274804138E+02  0.00000000000E+00 0.  1.
          2   -1    0    0  501    0  0.00000000000E+00 -0.00000000000E+00 -0.43070849747E+03  0.43070849747E+03  0.00000000000E+00 0. -1.
         23    2    1    2    0    0 -0.46171783815E+02  0.18613691742E+02 -0.13244498326E+03  0.18880148565E+03  0.12500409694E+03 0.  0.
         23    2    1    2    0    0  0.46171783815E+02 -0.18613691742E+02 -0.25998871007E+03  0.28018181596E+03  0.91811859190E+02 0.  0.
          5    1    3    3  502    0  0.26932249520E+01  0.55779107976E+02 -0.10965706556E+03  0.12314757154E+03  0.47000000000E+01 0. -1.
         -5    1    3    3    0  502 -0.48865008767E+02 -0.37165416234E+02 -0.22787917699E+02  0.65653914116E+02  0.47000000000E+01 0. -1.
        -11    1    4    4    0    0  0.25516039366E+01  0.34419418143E+02 -0.67505056264E+02  0.75816486658E+02  0.00000000000E+00 0.  1.
         11    1    4    4    0    0  0.43620179878E+02 -0.53033109885E+02 -0.19248365381E+03  0.20436532930E+03  0.00000000000E+00 0. -1.
<mgrwt>
<rscale>  0 0.12629471E+03</rscale>
<asrwt>0</asrwt>
<pdfrwt beam="2">  1        2 0.66262844E-01 0.13455232E+03</pdfrwt>
<pdfrwt beam="1">  1       -2 0.58884316E-02 0.13455232E+03</pdfrwt>
<totfact> 0.10632028E+04</totfact>
</mgrwt>
</event>
<event>
 8    1  0.1550723E-005  0.1312421E+03  0.7546771E-02  0.1239886E+00
         -2   -1    0    0    0  501 -0.00000000000E+00  0.00000000000E+00  0.32373303906E+02  0.32373303906E+02  0.00000000000E+00 0.  1.
          2   -1    0    0  501    0  0.00000000000E+00 -0.00000000000E+00 -0.42329514212E+03  0.42329514212E+03  0.00000000000E+00 0. -1.
         23    2    1    2    0    0  0.95898809483E+01  0.38822301942E+02 -0.17640923671E+03  0.21987430098E+03  0.12500140996E+03 0.  0.
         23    2    1    2    0    0 -0.95898809483E+01 -0.38822301942E+02 -0.21451260151E+03  0.23579414504E+03  0.89353711091E+02 0.  0.
          5    1    3    3  502    0  0.54183674645E+02 -0.37005451187E+01 -0.13471644554E+03  0.14532782022E+03  0.47000000000E+01 0.  1.
         -5    1    3    3    0  502 -0.44593793697E+02  0.42522847061E+02 -0.41692791169E+02  0.74546480761E+02  0.47000000000E+01 0.  1.
        -11    1    4    4    0    0  0.15819989047E+02 -0.12394503705E+02 -0.20611106789E+01  0.20202572924E+02  0.00000000000E+00 0.  1.
         11    1    4    4    0    0 -0.25409869995E+02 -0.26427798237E+02 -0.21245149083E+03  0.21559157212E+03  0.00000000000E+00 0. -1.
<mgrwt>
<rscale>  0 0.12196742E+03</rscale>
<asrwt>0</asrwt>
<pdfrwt beam="2">  1        2 0.65122325E-01 0.13124210E+03</pdfrwt>
<pdfrwt beam="1">  1       -2 0.49805086E-02 0.13124210E+03</pdfrwt>
<totfact> 0.13914970E+04</totfact>
</mgrwt>
</event>
<event>
 8    1  0.1550723E-005  0.1326318E+03  0.7546771E-02  0.1236720E+00
          1   -1    0    0  501    0  0.00000000000E+00  0.00000000000E+00  0.35858352293E+03  0.35858352293E+03  0.00000000000E+00 0. -1.
         -1   -1    0    0    0  501 -0.00000000000E+00 -0.00000000000E+00 -0.42234710010E+02  0.42234710010E+02  0.00000000000E+00 0.  1.
         23    2    1    2    0    0 -0.43185237180E+02 -0.99384010307E+01  0.11526149233E+03  0.17571681499E+03  0.12500980334E+03 0.  0.
         23    2    1    2    0    0  0.43185237180E+02  0.99384010307E+01  0.20108732059E+03  0.22510141795E+03  0.90943946113E+02 0.  0.
          5    1    3    3  502    0  0.10793118846E+02  0.50259706684E+02  0.43357579626E+02  0.67412901149E+02  0.47000000000E+01 0. -1.
         -5    1    3    3    0  502 -0.53978356027E+02 -0.60198107714E+02  0.71903912707E+02  0.10830391385E+03  0.47000000000E+01 0. -1.
        -11    1    4    4    0    0  0.30913872529E+02 -0.25597041690E+02  0.17449785498E+03  0.17905411877E+03  0.00000000000E+00 0. -1.
         11    1    4    4    0    0  0.12271364651E+02  0.35535442720E+02  0.26589465614E+02  0.46047299176E+02  0.00000000000E+00 0.  1.
<mgrwt>
<rscale>  0 0.12394934E+03</rscale>
<asrwt>0</asrwt>
<pdfrwt beam="1">  1        1 0.55166694E-01 0.13263177E+03</pdfrwt>
<pdfrwt beam="2">  1       -1 0.64976479E-02 0.13263177E+03</pdfrwt>
<totfact> 0.78501692E+03</totfact>
</mgrwt>
</event>
<event>
 8    1  0.1550723E-005  0.1312452E+03  0.7546771E-02  0.1238612E+00
         -2   -1    0    0    0  501 -0.00000000000E+00  0.00000000000E+00  0.22426300058E+03  0.22426300058E+03  0.00000000000E+00 0.  1.
          2   -1    0    0  501    0  0.00000000000E+00 -0.00000000000E+00 -0.60261611121E+02  0.60261611121E+02  0.00000000000E+00 0. -1.
         23    2    1    2    0    0  0.39900897841E+02 -0.10053590294E+01  0.10451462547E+03  0.16777545951E+03  0.12502881860E+03 0.  0.
         23    2    1    2    0    0 -0.39900897841E+02  0.10053590294E+01  0.59486763986E+02  0.11674915220E+03  0.92187835713E+02 0.  0.
          5    1    3    3  502    0 -0.32143743081E+02 -0.11492014285E+02  0.85795667673E+02  0.92456872125E+02  0.47000000000E+01 0. -1.
         -5    1    3    3    0  502  0.72044640923E+02  0.10486655255E+02  0.18718957801E+02  0.75318587382E+02  0.47000000000E+01 0. -1.
        -11    1    4    4    0    0  0.12722733197E+02 -0.27633397450E+02 -0.25214966704E+01  0.30525899497E+02  0.00000000000E+00 0.  1.
         11    1    4    4    0    0 -0.52623631038E+02  0.28638756479E+02  0.62008260656E+02  0.86223252699E+02  0.00000000000E+00 0. -1.
<mgrwt>
<rscale>  0 0.12276032E+03</rscale>
<asrwt>0</asrwt>
<pdfrwt beam="2">  1        2 0.92710172E-02 0.13124518E+03</pdfrwt>
<pdfrwt beam="1">  1       -2 0.34502000E-01 0.13124518E+03</pdfrwt>
<totfact> 0.52695795E+03</totfact>
</mgrwt>
</event>
<event>
 8    1  0.1550723E-005  0.1311386E+03  0.7546771E-02  0.1238816E+00
         -1   -1    0    0    0  501 -0.00000000000E+00  0.00000000000E+00  0.16268398212E+02  0.16268398212E+02  0.00000000000E+00 0.  1.
          1   -1    0    0  501    0  0.00000000000E+00 -0.00000000000E+00 -0.82844069760E+03  0.82844069760E+03  0.00000000000E+00 0. -1.
         23    2    1    2    0    0  0.39146269293E+01  0.39451162029E+02 -0.42602243329E+03  0.44574929683E+03  0.12500241385E+03 0.  0.
         23    2    1    2    0    0 -0.39146269293E+01 -0.39451162029E+02 -0.38614986611E+03  0.39895979899E+03  0.92116684847E+02 0.  0.
          5    1    3    3  502    0  0.11346108214E+02 -0.14498318357E+02 -0.30312900653E+01  0.19240949203E+02  0.47000000000E+01 0. -1.
         -5    1    3    3    0  502 -0.74314812843E+01  0.53949480386E+02 -0.42299114322E+03  0.42650834762E+03  0.47000000000E+01 0. -1.
        -11    1    4    4    0    0  0.39477571392E+02 -0.40186340135E+02 -0.23860469923E+03  0.24516448167E+03  0.00000000000E+00 0.  1.
         11    1    4    4    0    0 -0.43392198322E+02  0.73517810568E+00 -0.14754516688E+03  0.15379531732E+03  0.00000000000E+00 0. -1.
<mgrwt>
<rscale>  0 0.12263303E+03</rscale>
<asrwt>0</asrwt>
<pdfrwt beam="2">  1        1 0.12745242E+00 0.13113856E+03</pdfrwt>
<pdfrwt beam="1">  1       -1 0.25028304E-02 0.13113856E+03</pdfrwt>
<totfact> 0.10308750E+04</totfact>
</mgrwt>
</event>
<event>
 8    1  0.1550723E-005  0.1360418E+03  0.7546771E-02  0.1231310E+00
          2   -1    0    0  501    0  0.00000000000E+00  0.00000000000E+00  0.40213163522E+03  0.40213163522E+03  0.00000000000E+00 0. -1.
         -2   -1    0    0    0  501 -0.00000000000E+00 -0.00000000000E+00 -0.36089019950E+02  0.36089019950E+02  0.00000000000E+00 0.  1.
         23    2    1    2    0    0  0.39954231814E+02  0.35922081222E+02  0.19925335131E+03  0.24126597431E+03  0.12498254194E+03 0.  0.
         23    2    1    2    0    0 -0.39954231814E+02 -0.35922081222E+02  0.16678926396E+03  0.19695468087E+03  0.89920805064E+02 0.  0.
          5    1    3    3  502    0  0.73501683369E+02 -0.21753247913E+01  0.67244930208E+02  0.99755702267E+02  0.47000000000E+01 0. -1.
         -5    1    3    3    0  502 -0.33547451554E+02  0.38097406014E+02  0.13200842110E+03  0.14151027204E+03  0.47000000000E+01 0. -1.
        -11    1    4    4    0    0 -0.47664403517E+02  0.13635253523E+02  0.52837951914E+02  0.72454569654E+02  0.00000000000E+00 0. -1.
         11    1    4    4    0    0  0.77101717022E+01 -0.49557334746E+02  0.11395131205E+03  0.12450011121E+03  0.00000000000E+00 0.  1.
<mgrwt>
<rscale>  0 0.12743609E+03</rscale>
<asrwt>0</asrwt>
<pdfrwt beam="1">  1        2 0.61866402E-01 0.13604180E+03</pdfrwt>
<pdfrwt beam="2">  1       -2 0.55521572E-02 0.13604180E+03</pdfrwt>
<totfact> 0.12518555E+04</totfact>
</mgrwt>
</event>
<event>
 8    1  0.1550723E-005  0.1305594E+03  0.7546771E-02  0.1241900E+00
          2   -1    0    0  501    0  0.00000000000E+00  0.00000000000E+00  0.21416012401E+03  0.21416012401E+03  0.00000000000E+00 0. -1.
         -2   -1    0    0    0  501 -0.00000000000E+00 -0.00000000000E+00 -0.63620962086E+02  0.63620962086E+02  0.00000000000E+00 0.  1.
         23    2    1    2    0    0  0.23331896993E+02 -0.29517613959E+02  0.51849098394E+02  0.14047809370E+03  0.12502039375E+03 0.  0.
         23    2    1    2    0    0 -0.23331896993E+02  0.29517613959E+02  0.98690063525E+02  0.13730299239E+03  0.87730930297E+02 0.  0.
          5    1    3    3  502    0  0.67408863139E+02  0.10146774788E+02  0.41944371899E+02  0.80176880722E+02  0.47000000000E+01 0. -1.
         -5    1    3    3    0  502 -0.44076966146E+02 -0.39664388747E+02  0.99047264940E+01  0.60301212975E+02  0.47000000000E+01 0. -1.
        -11    1    4    4    0    0  0.30178023108E+02 -0.39842156776E+01  0.45539609129E+02  0.54776300102E+02  0.00000000000E+00 0. -1.
         11    1    4    4    0    0 -0.53509920101E+02  0.33501829637E+02  0.53150454396E+02  0.82526692293E+02  0.00000000000E+00 0.  1.
<mgrwt>
<rscale>  0 0.12072861E+03</rscale>
<asrwt>0</asrwt>
<pdfrwt beam="1">  1        2 0.32947711E-01 0.13055943E+03</pdfrwt>
<pdfrwt beam="2">  1       -2 0.97878404E-02 0.13055943E+03</pdfrwt>
<totfact> 0.10207755E+04</totfact>
</mgrwt>
</event>
<event>
 7    1  0.1550723E-005  0.4322027E+03  0.7546771E-02  0.1069837E+00
         -2   -1    0    0    0  501 -0.00000000000E+00  0.00000000000E+00  0.33848647627E+03  0.33848647627E+03  0.00000000000E+00 0.  1.
          2   -1    0    0  501    0  0.00000000000E+00 -0.00000000000E+00 -0.35267915770E+03  0.35267915770E+03  0.00000000000E+00 0. -1.
         23    2    1    2    0    0  0.11843293567E+02 -0.12259660807E+03 -0.17324968012E+03  0.23062430899E+03  0.89453498109E+02 0.  0.
          5    1    1    2  502    0  0.12231642598E+03 -0.22949155700E+02 -0.81606625019E+02  0.14889493967E+03  0.47000000000E+01 0. -1.
         -5    1    1    2    0  502 -0.13415971954E+03  0.14554576377E+03  0.24066362371E+03  0.31164638531E+03  0.47000000000E+01 0.  1.
        -11    1    3    3    0    0  0.31249632214E+02 -0.10446578506E+03 -0.84392327792E+02  0.13788293859E+03  0.00000000000E+00 0. -1.
         11    1    3    3    0    0 -0.19406338647E+02 -0.18130823007E+02 -0.88857352326E+02  0.92741370407E+02  0.00000000000E+00 0.  1.
<mgrwt>
<rscale>  0 0.33295561E+03</rscale>
<asrwt>0</asrwt>
<pdfrwt beam="2">  1        2 0.54258332E-01 0.43220271E+03</pdfrwt>
<pdfrwt beam="1">  1       -2 0.52074842E-01 0.43220271E+03</pdfrwt>
<totfact> 0.32443322E+02</totfact>
</mgrwt>
</event>
<event>
 8    1  0.1550723E-005  0.1850586E+03  0.7546771E-02  0.1168372E+00
          1   -1    0    0  501    0  0.00000000000E+00  0.00000000000E+00  0.72238791314E+03  0.72238791314E+03  0.00000000000E+00 0. -1.
         -1   -1    0    0    0  501 -0.00000000000E+00 -0.00000000000E+00 -0.49735837988E+02  0.49735837988E+02  0.00000000000E+00 0.  1.
         23    2    1    2    0    0  0.61645258990E+02 -0.12180535625E+03  0.20233738657E+03  0.27420268645E+03  0.12494003556E+03 0.  0.
         23    2    1    2    0    0 -0.61645258990E+02  0.12180535625E+03  0.47031468858E+03  0.49792106467E+03  0.89959977680E+02 0.  0.
          5    1    3    3  502    0  0.15055866447E+02 -0.12159305447E+03  0.88807335098E+02  0.15139479112E+03  0.47000000000E+01 0. -1.
         -5    1    3    3    0  502  0.46589392544E+02 -0.21230177979E+00  0.11353005147E+03  0.12280789533E+03  0.47000000000E+01 0. -1.
        -11    1    4    4    0    0 -0.47784413794E+02  0.79348896419E+01  0.12532521360E+03  0.13436041768E+03  0.00000000000E+00 0.  1.
         11    1    4    4    0    0 -0.13860845196E+02  0.11387046661E+03  0.34498947498E+03  0.36356064699E+03  0.00000000000E+00 0. -1.
<mgrwt>
<rscale>  0 0.17941379E+03</rscale>
<asrwt>0</asrwt>
<pdfrwt beam="1">  1        1 0.11113659E+00 0.18505863E+03</pdfrwt>
<pdfrwt beam="2">  1       -1 0.76516679E-02 0.18505863E+03</pdfrwt>
<totfact> 0.24574836E+03</totfact>
</mgrwt>
</event>
<event>
 8    1  0.1550723E-005  0.1314283E+03  0.7546771E-02  0.1240111E+00
          1   -1    0    0  501    0  0.00000000000E+00  0.00000000000E+00  0.26961971936E+03  0.26961971936E+03  0.00000000000E+00 0. -1.
         -1   -1    0    0    0  501 -0.00000000000E+00 -0.00000000000E+00 -0.49911565805E+02  0.49911565805E+02  0.00000000000E+00 0.  1.
         23    2    1    2    0    0  0.38628709588E+02 -0.12514223191E+02  0.98367526594E+02  0.16416322341E+03  0.12499844257E+03 0.  0.
         23    2    1    2    0    0 -0.38628709588E+02  0.12514223191E+02  0.12134062696E+03  0.15536806176E+03  0.88130039578E+02 0.  0.
          5    1    3    3  502    0  0.80811456530E+02  0.51471804271E+01  0.82068427432E+02  0.11538761525E+03  0.47000000000E+01 0. -1.
         -5    1    3    3    0  502 -0.42182746943E+02 -0.17661403618E+02  0.16299099162E+02  0.48775608155E+02  0.47000000000E+01 0. -1.
        -11    1    4    4    0    0  0.24565795031E+02  0.20981088084E+02  0.30840063855E+02  0.44663115445E+02  0.00000000000E+00 0.  1.
         11    1    4    4    0    0 -0.63194504619E+02 -0.84668648931E+01  0.90500563108E+02  0.11070494631E+03  0.00000000000E+00 0. -1.
<mgrwt>
<rscale>  0 0.12182828E+03</rscale>
<asrwt>0</asrwt>
<pdfrwt beam="1">  1        1 0.41479956E-01 0.13142828E+03</pdfrwt>
<pdfrwt beam="2">  1       -1 0.76787026E-02 0.13142828E+03</pdfrwt>
<totfact> 0.86966244E+03</totfact>
</mgrwt>
</event>
<event>
 8    1  0.1550723E-005  0.1273276E+03  0.7546771E-02  0.1246243E+00
         -4   -1    0    0    0  501 -0.00000000000E+00  0.00000000000E+00  0.10779337152E+03  0.10779337152E+03  0.00000000000E+00 0.  1.
          4   -1    0    0  501    0  0.00000000000E+00 -0.00000000000E+00 -0.17089867139E+03  0.17089867139E+03  0.00000000000E+00 0. -1.
         23    2    1    2    0    0  0.10453910386E+02  0.21945456685E+02  0.45188443565E+02  0.13510851170E+03  0.12498570794E+03 0.  0.
         23    2    1    2    0    0 -0.10453910386E+02 -0.21945456685E+02 -0.10829374343E+03  0.14358353121E+03  0.91092306245E+02 0.  0.
          5    1    3    3  502    0  0.60347190855E+02 -0.17731414002E+02  0.27339059311E+02  0.68743731719E+02  0.47000000000E+01 0.  1.
         -5    1    3    3    0  502 -0.49893280469E+02  0.39676870687E+02  0.17849384254E+02  0.66364779980E+02  0.47000000000E+01 0.  1.
        -11    1    4    4    0    0  0.29786065733E+02  0.14727609626E+02 -0.68541837133E+02  0.76171488332E+02  0.00000000000E+00 0.  1.
         11    1    4    4    0    0 -0.40239976119E+02 -0.36673066311E+02 -0.39751906298E+02  0.67412042878E+02  0.00000000000E+00 0. -1.
<mgrwt>
<rscale>  0 0.11811271E+03</rscale>
<asrwt>0</asrwt>
<pdfrwt beam="2">  1        4 0.26292103E-01 0.12732759E+03</pdfrwt>
<pdfrwt beam="1">  1       -4 0.16583596E-01 0.12732759E+03</pdfrwt>
<totfact> 0.70309457E+02</totfact>
</mgrwt>
</event>
<event>
 8    1  0.1550723E-005  0.1347374E+03  0.7546771E-02  0.1233502E+00
          2   -1    0    0  501    0  0.00000000000E+00  0.00000000000E+00  0.21958737525E+03  0.21958737525E+03  0.00000000000E+00 0. -1.
         -2   -1    0    0    0  501 -0.00000000000E+00 -0.00000000000E+00 -0.76200547876E+02  0.76200547876E+02  0.00000000000E+00 0.  1.
         23    2    1    2    0    0 -0.46985963101E+02  0.17925599467E+02  0.21960081886E+02  0.13651519877E+03  0.12500058581E+03 0.  0.
         23    2    1    2    0    0  0.46985963101E+02 -0.17925599467E+02  0.12142674548E+03  0.15927272435E+03  0.89968540939E+02 0.  0.
          5    1    3    3  502    0  0.17183002421E+02  0.52067174986E+02  0.30929940716E+02  0.63126836733E+02  0.47000000000E+01 0. -1.
         -5    1    3    3    0  502 -0.64168965522E+02 -0.34141575519E+02 -0.89698588300E+01  0.73388362037E+02  0.47000000000E+01 0. -1.
        -11    1    4    4    0    0  0.14981659766E+02 -0.20135110407E+02  0.12453805051E+03  0.12704172081E+03  0.00000000000E+00 0. -1.
         11    1    4    4    0    0  0.32004303335E+02  0.22095109399E+01 -0.31113050266E+01  0.32231003545E+02  0.00000000000E+00 0.  1.
<mgrwt>
<rscale>  0 0.12600816E+03</rscale>
<asrwt>0</asrwt>
<pdfrwt beam="1">  1        2 0.33782673E-01 0.13473735E+03</pdfrwt>
<pdfrwt beam="2">  1       -2 0.11723161E-01 0.13473735E+03</pdfrwt>
<totfact> 0.74903400E+03</totfact>
</mgrwt>
</event>
<event>
 8    1  0.1550723E-005  0.1299482E+03  0.7546771E-02  0.1242402E+00
          2   -1    0    0  501    0  0.00000000000E+00  0.00000000000E+00  0.82023926085E+02  0.82023926085E+02  0.00000000000E+00 0. -1.
         -2   -1    0    0    0  501 -0.00000000000E+00 -0.00000000000E+00 -0.17145083982E+03  0.17145083982E+03  0.00000000000E+00 0.  1.
         23    2    1    2    0    0  0.20811925168E+02  0.28766670926E+02 -0.89243427663E+02  0.15764175208E+03  0.12500350008E+03 0.  0.
         23    2    1    2    0    0 -0.20811925168E+02 -0.28766670926E+02 -0.18348607361E+00  0.95833013830E+02  0.89012781594E+02 0.  0.
          5    1    3    3  502    0 -0.38817307746E+02 -0.25771632779E+02 -0.19253129580E+02  0.50633323369E+02  0.47000000000E+01 0. -1.
         -5    1    3    3    0  502  0.59629232914E+02  0.54538303705E+02 -0.69990298084E+02  0.10700842871E+03  0.47000000000E+01 0. -1.
        -11    1    4    4    0    0 -0.46860512852E+02 -0.44489758678E+02 -0.58623621721E+01  0.64881534987E+02  0.00000000000E+00 0. -1.
         11    1    4    4    0    0  0.26048587684E+02  0.15723087752E+02  0.56788760985E+01  0.30951478842E+02  0.00000000000E+00 0.  1.
<mgrwt>
<rscale>  0 0.12042212E+03</rscale>
<asrwt>0</asrwt>
<pdfrwt beam="1">  1        2 0.12619066E-01 0.12994819E+03</pdfrwt>
<pdfrwt beam="2">  1       -2 0.26377052E-01 0.12994819E+03</pdfrwt>
<totfact> 0.58690202E+03</totfact>
</mgrwt>
</event>
<event>
 8    1  0.1550723E-005  0.2250298E+03  0.7546771E-02  0.1133217E+00
         -1   -1    0    0    0  501 -0.00000000000E+00  0.00000000000E+00  0.14521323880E+03  0.14521323880E+03  0.00000000000E+00 0.  1.
          1   -1    0    0  501    0  0.00000000000E+00 -0.00000000000E+00 -0.34738220277E+03  0.34738220277E+03  0.00000000000E+00 0. -1.
         23    2    1    2    0    0 -0.12949907525E+03 -0.13508454407E+03 -0.41042955485E+02  0.22874209963E+03  0.12498231638E+03 0.  0.
         23    2    1    2    0    0  0.12949907525E+03  0.13508454407E+03 -0.16112600848E+03  0.26385334194E+03  0.92947032787E+02 0.  0.
          5    1    3    3  502    0 -0.12675719744E+03 -0.12058179377E+03  0.10100940653E+02  0.17530395059E+03  0.47000000000E+01 0. -1.
         -5    1    3    3    0  502 -0.27418778169E+01 -0.14502750299E+02 -0.51143896138E+02  0.53438149036E+02  0.47000000000E+01 0. -1.
        -11    1    4    4    0    0  0.67503612360E+02  0.13016912316E+03 -0.10899221259E+03  0.18270205448E+03  0.00000000000E+00 0. -1.
         11    1    4    4    0    0  0.61995462894E+02  0.49154209115E+01 -0.52133795890E+02  0.81151287458E+02  0.00000000000E+00 0.  1.
<mgrwt>
<rscale>  0 0.22089546E+03</rscale>
<asrwt>0</asrwt>
<pdfrwt beam="2">  1        1 0.53443415E-01 0.22502983E+03</pdfrwt>
<pdfrwt beam="1">  1       -1 0.22340498E-01 0.22502983E+03</pdfrwt>
<totfact> 0.12185128E+03</totfact>
</mgrwt>
</event>
<event>
 8    1  0.1550723E-005  0.1289160E+03  0.7546771E-02  0.1243052E+00
         -1   -1    0    0    0  501 -0.00000000000E+00  0.00000000000E+00  0.16712903698E+02  0.16712903698E+02  0.00000000000E+00 0.  1.
          1   -1    0    0  501    0  0.00000000000E+00 -0.00000000000E+00 -0.78260253964E+03  0.78260253964E+03  0.00000000000E+00 0. -1.
         23    2    1    2    0    0 -0.31567556944E+02 -0.77153867259E+00 -0.37263053357E+03  0.39430046950E+03  0.12498895862E+03 0.  0.
         23    2    1    2    0    0  0.31567556944E+02  0.77153867259E+00 -0.39325910237E+03  0.40501497384E+03  0.91582211761E+02 0.  0.
          5    1    3    3  502    0 -0.39390397160E+02 -0.31909311297E+02 -0.54729081516E+02  0.74747373863E+02  0.47000000000E+01 0.  1.
         -5    1    3    3    0  502  0.78228402157E+01  0.31137772624E+02 -0.31790145206E+03  0.31955309564E+03  0.47000000000E+01 0.  1.
        -11    1    4    4    0    0  0.52771272057E+02  0.25138757169E+02 -0.31456049299E+03  0.31994541412E+03  0.00000000000E+00 0. -1.
         11    1    4    4    0    0 -0.21203715113E+02 -0.24367218496E+02 -0.78698609381E+02  0.85069559717E+02  0.00000000000E+00 0.  1.
<mgrwt>
<rscale>  0 0.12002759E+03</rscale>
<asrwt>0</asrwt>
<pdfrwt beam="2">  1        1 0.12040040E+00 0.12891604E+03</pdfrwt>
<pdfrwt beam="1">  1       -1 0.25712157E-02 0.12891604E+03</pdfrwt>
<totfact> 0.10790995E+04</totfact>
</mgrwt>
</event>
<event>
 7    1  0.1550723E-005  0.1653266E+03  0.7546771E-02  0.1199629E+00
          1   -1    0    0  501    0  0.00000000000E+00  0.00000000000E+00  0.27662783012E+03  0.27662783012E+03  0.00000000000E+00 0. -1.
         -1   -1    0    0    0  501 -0.00000000000E+00 -0.00000000000E+00 -0.10588666353E+03  0.10588666353E+03  0.00000000000E+00 0.  1.
         23    2    1    2    0    0 -0.18230010173E+02 -0.67842358934E+02  0.18416125698E+03  0.21664411921E+03  0.89913218598E+02 0.  0.
          5    1    1    2  502    0  0.70697625344E+02  0.18690037194E+02  0.32787472638E+02  0.80278141991E+02  0.47000000000E+01 0. -1.
         -5    1    1    2    0  502 -0.52467615171E+02  0.49152321740E+02 -0.46207563033E+02  0.85592232449E+02  0.47000000000E+01 0.  1.
        -11    1    3    3    0    0  0.79674040486E+01 -0.36196437619E+02  0.16874037655E+03  0.17276277464E+03  0.00000000000E+00 0. -1.
         11    1    3    3    0    0 -0.26197414222E+02 -0.31645921315E+02  0.15420880431E+02  0.43881344568E+02  0.00000000000E+00 0.  1.
<mgrwt>
<rscale>  0 0.15068864E+03</rscale>
<asrwt>0</asrwt>
<pdfrwt beam="1">  1        1 0.42558127E-01 0.16532659E+03</pdfrwt>
<pdfrwt beam="2">  1       -1 0.16290256E-01 0.16532659E+03</pdfrwt>
<totfact> 0.26772099E+03</totfact>
</mgrwt>
</event>
<event>
 8    1  0.1550723E-005  0.1323874E+03  0.7546771E-02  0.1236587E+00
          2   -1    0    0  501    0  0.00000000000E+00  0.00000000000E+00  0.34928888359E+03  0.34928888359E+03  0.00000000000E+00 0. -1.
         -2   -1    0    0    0  501 -0.00000000000E+00 -0.00000000000E+00 -0.41347829785E+02  0.41347829785E+02  0.00000000000E+00 0.  1.
         23    2    1    2    0    0 -0.43609501490E+02  0.58773700368E+00  0.13006811784E+03  0.18559133116E+03  0.12499717145E+03 0.  0.
         23    2    1    2    0    0  0.43609501490E+02 -0.58773700368E+00  0.17787293597E+03  0.20504538222E+03  0.92210050225E+02 0.  0.
          5    1    3    3  502    0 -0.72853577965E+02 -0.38925082174E+02  0.87134323939E+02  0.12015525895E+03  0.47000000000E+01 0. -1.
         -5    1    3    3    0  502  0.29244076475E+02  0.39512819178E+02  0.42933793898E+02  0.65436072214E+02  0.47000000000E+01 0. -1.
        -11    1    4    4    0    0  0.72744569288E+02  0.10059196061E+01  0.13042798525E+03  0.14934605309E+03  0.00000000000E+00 0. -1.
         11    1    4    4    0    0 -0.29135067798E+02 -0.15936566098E+01  0.47444950719E+02  0.55699329132E+02  0.00000000000E+00 0.  1.
<mgrwt>
<rscale>  0 0.12403361E+03</rscale>
<asrwt>0</asrwt>
<pdfrwt beam="1">  1        2 0.53736749E-01 0.13238741E+03</pdfrwt>
<pdfrwt beam="2">  1       -2 0.63612048E-02 0.13238741E+03</pdfrwt>
<totfact> 0.11811239E+04</totfact>
</mgrwt>
</event>
<event>
 8    1  0.1550723E-005  0.2055478E+03  0.7546771E-02  0.1149179E+00
          2   -1    0    0  501    0  0.00000000000E+00  0.00000000000E+00  0.82182206158E+03  0.82182206158E+03  0.00000000000E+00 0. -1.
         -2   -1    0    0    0  501 -0.00000000000E+00 -0.00000000000E+00 -0.51774993043E+02  0.51774993043E+02  0.00000000000E+00 0.  1.
         23    2    1    2    0    0 -0.16304436465E+03 -0.65345889117E+01  0.26654721805E+03  0.33659665141E+03  0.12499488228E+03 0.  0.
         23    2    1    2    0    0  0.16304436465E+03  0.65345889117E+01  0.50349985049E+03  0.53700040321E+03  0.90725784151E+02 0.  0.
          5    1    3    3  502    0  0.20210318783E+02  0.49424271493E+01  0.20787658033E+02  0.29784245801E+02  0.47000000000E+01 0.  1.
         -5    1    3    3    0  502 -0.18325468343E+03 -0.11477016061E+02  0.24575956002E+03  0.30681240561E+03  0.47000000000E+01 0.  1.
        -11    1    4    4    0    0  0.70163372383E+02  0.34979047164E+02  0.13700293775E+03  0.15784878054E+03  0.00000000000E+00 0.  1.
         11    1    4    4    0    0  0.92880992268E+02 -0.28444458252E+02  0.36649691274E+03  0.37915162267E+03  0.00000000000E+00 0. -1.
<mgrwt>
<rscale>  0 0.20066487E+03</rscale>
<asrwt>0</asrwt>
<pdfrwt beam="1">  1        2 0.12643415E+00 0.20554777E+03</pdfrwt>
<pdfrwt beam="2">  1       -2 0.79653842E-02 0.20554777E+03</pdfrwt>
<totfact> 0.32339302E+03</totfact>
</mgrwt>
</event>
<event>
 8    1  0.1550723E-005  0.1352795E+03  0.7546771E-02  0.1232453E+00
          2   -1    0    0  501    0  0.00000000000E+00  0.00000000000E+00  0.28431594193E+03  0.28431594193E+03  0.00000000000E+00 0. -1.
         -2   -1    0    0    0  501 -0.00000000000E+00 -0.00000000000E+00 -0.50376959073E+02  0.50376959073E+02  0.00000000000E+00 0.  1.
         23    2    1    2    0    0 -0.51400498617E+02  0.58305596660E+01  0.13459545987E+03  0.19083099610E+03  0.12499809827E+03 0.  0.
         23    2    1    2    0    0  0.51400498617E+02 -0.58305596660E+01  0.99343522988E+02  0.14386190490E+03  0.90283472674E+02 0.  0.
          5    1    3    3  502    0 -0.91118522041E+02 -0.10259644708E+02  0.97902359148E+02  0.13421925084E+03  0.47000000000E+01 0.  1.
         -5    1    3    3    0  502  0.39718023424E+02  0.16090204374E+02  0.36693100723E+02  0.56611745267E+02  0.47000000000E+01 0.  1.
        -11    1    4    4    0    0  0.37660512345E+02  0.36160854496E+02  0.80230489330E+02  0.95722792511E+02  0.00000000000E+00 0. -1.
         11    1    4    4    0    0  0.13739986272E+02 -0.41991414162E+02  0.19113033658E+02  0.48139112390E+02  0.00000000000E+00 0.  1.
<mgrwt>
<rscale>  0 0.12668873E+03</rscale>
<asrwt>0</asrwt>
<pdfrwt beam="1">  1        2 0.43740913E-01 0.13527946E+03</pdfrwt>
<pdfrwt beam="2">  1       -2 0.77503016E-02 0.13527946E+03</pdfrwt>
<totfact> 0.10875320E+04</totfact>
</mgrwt>
</event>
<event>
 7    1  0.1550723E-005  0.1937324E+03  0.7546771E-02  0.1160507E+00
         -2   -1    0    0    0  501 -0.00000000000E+00  0.00000000000E+00  0.89251745328E+02  0.89251745328E+02  0.00000000000E+00 0.  1.
          2   -1    0    0  501    0  0.00000000000E+00 -0.00000000000E+00 -0.40037089155E+03  0.40037089155E+03  0.00000000000E+00 0. -1.
         23    2    1    2    0    0 -0.35600482278E+02  0.11095015462E+03 -0.81896089680E+02  0.18949693516E+03  0.12499915112E+03 0.  0.
          5    1    3    3  502    0 -0.71388971307E+02  0.26543350067E+02 -0.20355636452E+02  0.78977063711E+02  0.47000000000E+01 0. -1.
         -5    1    3    3    0  502  0.35788489029E+02  0.84406804553E+02 -0.61540453229E+02  0.11051987145E+03  0.47000000000E+01 0. -1.
        -11    1    1    2    0    0 -0.55421974966E+02 -0.44593016486E+02 -0.44934801456E+02  0.84138390823E+02  0.00000000000E+00 0.  1.
         11    1    1    2    0    0  0.91022457244E+02 -0.66357138135E+02 -0.18428825508E+03  0.21598731089E+03  0.00000000000E+00 0. -1.
<mgrwt>
<rscale>  0 0.18774934E+03</rscale>
<asrwt>0</asrwt>
<pdfrwt beam="2">  1        2 0.61595521E-01 0.19373236E+03</pdfrwt>
<pdfrwt beam="1">  1       -2 0.13731038E-01 0.19373236E+03</pdfrwt>
<totfact> 0.31126810E+03</totfact>
</mgrwt>
</event>
<event>
 7    1  0.1550723E-005  0.1874779E+03  0.7546771E-02  0.1176072E+00
         -2   -1    0    0    0  501 -0.00000000000E+00  0.00000000000E+00  0.45083835568E+02  0.45083835568E+02  0.00000000000E+00 0.  1.
          2   -1    0    0  501    0  0.00000000000E+00 -0.00000000000E+00 -0.69398473359E+03  0.69398473359E+03  0.00000000000E+00 0. -1.
         23    2    1    2    0    0 -0.86501043272E+02 -0.40070606110E+02 -0.43532927351E+03  0.45488409224E+03  0.91213359975E+02 0.  0.
          5    1    1    2  502    0  0.16905455460E+02 -0.56891355459E+02 -0.11428228367E+03  0.12886019987E+03  0.47000000000E+01 0. -1.
         -5    1    1    2    0  502  0.69595587811E+02  0.96961961569E+02 -0.99289340839E+02  0.15532427704E+03  0.47000000000E+01 0.  1.
        -11    1    3    3    0    0 -0.56166887353E+01 -0.44485773360E+02 -0.22647262917E+03  0.23086875707E+03  0.00000000000E+00 0. -1.
         11    1    3    3    0    0 -0.80884354536E+02  0.44151672500E+01 -0.20885664434E+03  0.22401533518E+03  0.00000000000E+00 0.  1.
<mgrwt>
<rscale>  0 0.17171416E+03</rscale>
<asrwt>0</asrwt>
<pdfrwt beam="2">  1        2 0.10676688E+00 0.18747794E+03</pdfrwt>
<pdfrwt beam="1">  1       -2 0.69359748E-02 0.18747794E+03</pdfrwt>
<totfact> 0.49257767E+03</totfact>
</mgrwt>
</event>
<event>
 8    1  0.1550723E-005  0.1590830E+03  0.7546771E-02  0.1197374E+00
         -2   -1    0    0    0  501 -0.00000000000E+00  0.00000000000E+00  0.52241225536E+02  0.52241225536E+02  0.00000000000E+00 0.  1.
          2   -1    0    0  501    0  0.00000000000E+00 -0.00000000000E+00 -0.47134332957E+03  0.47134332957E+03  0.00000000000E+00 0. -1.
         23    2    1    2    0    0 -0.89592526620E+02  0.40672735501E+02 -0.13269403814E+03  0.20715961122E+03  0.12500521798E+03 0.  0.
         23    2    1    2    0    0  0.89592526620E+02 -0.40672735501E+02 -0.28640806590E+03  0.31642494389E+03  0.91728254452E+02 0.  0.
          5    1    3    3  502    0 -0.96649166961E+02  0.74790509949E+02 -0.11469011550E+03  0.16766214375E+03  0.47000000000E+01 0.  1.
         -5    1    3    3    0  502  0.70566403410E+01 -0.34117774447E+02 -0.18003922633E+02  0.39497467467E+02  0.47000000000E+01 0.  1.
        -11    1    4    4    0    0  0.10019029535E+03 -0.23421917691E+02 -0.17349150615E+03  0.20170767020E+03  0.00000000000E+00 0.  1.
         11    1    4    4    0    0 -0.10597768735E+02 -0.17250817811E+02 -0.11291655975E+03  0.11471727369E+03  0.00000000000E+00 0. -1.
<mgrwt>
<rscale>  0 0.15255032E+03</rscale>
<asrwt>0</asrwt>
<pdfrwt beam="2">  1        2 0.72514357E-01 0.15908299E+03</pdfrwt>
<pdfrwt beam="1">  1       -2 0.80371118E-02 0.15908299E+03</pdfrwt>
<totfact> 0.60498439E+03</totfact>
</mgrwt>
</event>
<event>
 8    1  0.1550723E-005  0.1861644E+03  0.7546771E-02  0.1167117E+00
         -2   -1    0    0    0  501 -0.00000000000E+00  0.00000000000E+00  0.47507262240E+03  0.47507262240E+03  0.00000000000E+00 0.  1.
          2   -1    0    0  501    0  0.00000000000E+00 -0.00000000000E+00 -0.66229198106E+02  0.66229198106E+02  0.00000000000E+00 0. -1.
         23    2    1    2    0    0 -0.28517855229E+02 -0.13497948739E+03  0.25314050636E+03  0.31422492544E+03  0.12499783087E+03 0.  0.
         23    2    1    2    0    0  0.28517855229E+02  0.13497948739E+03  0.15570291793E+03  0.22707689507E+03  0.91037286524E+02 0.  0.
          5    1    3    3  502    0 -0.37298368607E+02 -0.11579396571E+03  0.94493580393E+02  0.15411209404E+03  0.47000000000E+01 0. -1.
         -5    1    3    3    0  502  0.87805133785E+01 -0.19185521682E+02  0.15864692597E+03  0.16011283139E+03  0.47000000000E+01 0. -1.
        -11    1    4    4    0    0  0.32206790323E+02  0.11599347829E+03  0.70075419636E+02  0.13929224238E+03  0.00000000000E+00 0. -1.
         11    1    4    4    0    0 -0.36889350946E+01  0.18986009098E+02  0.85627498294E+02  0.87784652688E+02  0.00000000000E+00 0.  1.
<mgrwt>
<rscale>  0 0.18071059E+03</rscale>
<asrwt>0</asrwt>
<pdfrwt beam="2">  1        2 0.10189108E-01 0.18616441E+03</pdfrwt>
<pdfrwt beam="1">  1       -2 0.73088094E-01 0.18616441E+03</pdfrwt>
<totfact> 0.10733975E+03</totfact>
</mgrwt>
</event>
<event>
 8    1  0.1550723E-005  0.1499030E+03  0.7546771E-02  0.1209527E+00
          1   -1    0    0  501    0  0.00000000000E+00  0.00000000000E+00  0.94294093733E+03  0.94294093733E+03  0.00000000000E+00 0. -1.
         -1   -1    0    0    0  501 -0.00000000000E+00 -0.00000000000E+00 -0.20898482328E+02  0.20898482328E+02  0.00000000000E+00 0.  1.
         23    2    1    2    0    0  0.81491078400E+02 -0.14327955353E+02  0.39514333293E+03  0.42262178710E+03  0.12499934086E+03 0.  0.
         23    2    1    2    0    0 -0.81491078400E+02  0.14327955353E+02  0.52689912208E+03  0.54121763255E+03  0.91911668347E+02 0.  0.
          5    1    3    3  502    0  0.60054427496E+02 -0.32074782448E+02  0.38738621590E+03  0.39335161904E+03  0.47000000000E+01 0. -1.
         -5    1    3    3    0  502  0.21436650904E+02  0.17746827095E+02  0.77571170232E+01  0.29270168063E+02  0.47000000000E+01 0. -1.
        -11    1    4    4    0    0 -0.97075352433E+02  0.16528538532E+02  0.50335908638E+03  0.51290075695E+03  0.00000000000E+00 0.  1.
         11    1    4    4    0    0  0.15584274034E+02 -0.22005831797E+01  0.23540035697E+02  0.28316875606E+02  0.00000000000E+00 0. -1.
<mgrwt>
<rscale>  0 0.14286387E+03</rscale>
<asrwt>0</asrwt>
<pdfrwt beam="1">  1        1 0.14506780E+00 0.14990304E+03</pdfrwt>
<pdfrwt beam="2">  1       -1 0.32151519E-02 0.14990304E+03</pdfrwt>
<totfact> 0.58763072E+03</totfact>
</mgrwt>
</event>
<event>
 8    1  0.1550723E-005  0.1394636E+03  0.7546771E-02  0.1229439E+00
          2   -1    0    0  501    0  0.00000000000E+00  0.00000000000E+00  0.49490586817E+03  0.49490586817E+03  0.00000000000E+00 0. -1.
         -2   -1    0    0    0  501 -0.00000000000E+00 -0.00000000000E+00 -0.35386389131E+02  0.35386389131E+02  0.00000000000E+00 0.  1.
         23    2    1    2    0    0 -0.51555154164E+02 -0.34155968332E+02  0.15056985859E+03  0.20523492218E+03  0.12500210747E+03 0.  0.
         23    2    1    2    0    0  0.51555154164E+02  0.34155968332E+02  0.30894962044E+03  0.32505733512E+03  0.79923957914E+02 0.  0.
          5    1    3    3  502    0 -0.36188517861E+02 -0.74218166357E+02  0.52170867903E+02  0.97784633251E+02  0.47000000000E+01 0.  1.
         -5    1    3    3    0  502 -0.15366636304E+02  0.40062198025E+02  0.98398990689E+02  0.10745028893E+03  0.47000000000E+01 0.  1.
        -11    1    4    4    0    0  0.13256575680E+02 -0.17894217599E+02  0.23465686777E+02  0.32350862093E+02  0.00000000000E+00 0.  1.
         11    1    4    4    0    0  0.38298578484E+02  0.52050185931E+02  0.28548393367E+03  0.29270647303E+03  0.00000000000E+00 0. -1.
<mgrwt>
<rscale>  0 0.12867276E+03</rscale>
<asrwt>0</asrwt>
<pdfrwt beam="1">  1        2 0.76139359E-01 0.13946358E+03</pdfrwt>
<pdfrwt beam="2">  1       -2 0.54440602E-02 0.13946358E+03</pdfrwt>
<totfact> 0.10320083E+04</totfact>
</mgrwt>
</event>
<event>
 7    1  0.1550723E-005  0.1868115E+03  0.7546771E-02  0.1172217E+00
          2   -1    0    0  501    0  0.00000000000E+00  0.00000000000E+00  0.73159980315E+03  0.73159980315E+03  0.00000000000E+00 0. -1.
         -2   -1    0    0    0  501 -0.00000000000E+00 -0.00000000000E+00 -0.50033074047E+02  0.50033074047E+02  0.00000000000E+00 0.  1.
         23    2    1    2    0    0 -0.84249460744E+02 -0.11034559849E+03  0.18017818943E+03  0.25954330213E+03  0.12499769194E+03 0.  0.
          5    1    3    3  502    0 -0.67255431817E+02 -0.90714547679E+02  0.19779929836E+03  0.22781368418E+03  0.47000000000E+01 0.  1.
         -5    1    3    3    0  502 -0.16994028926E+02 -0.19631050814E+02 -0.17621108926E+02  0.31729617946E+02  0.47000000000E+01 0.  1.
        -11    1    1    2    0    0  0.83329268846E+02  0.83202941312E+02  0.38685194994E+03  0.40437720963E+03  0.00000000000E+00 0.  1.
         11    1    1    2    0    0  0.92019189754E+00  0.27142657181E+02  0.11453658973E+03  0.11771236545E+03  0.00000000000E+00 0. -1.
<mgrwt>
<rscale>  0 0.17551392E+03</rscale>
<asrwt>0</asrwt>
<pdfrwt beam="1">  1        2 0.11255381E+00 0.18681152E+03</pdfrwt>
<pdfrwt beam="2">  1       -2 0.76973966E-02 0.18681152E+03</pdfrwt>
<totfact> 0.39329420E+03</totfact>
</mgrwt>
</event>
<event>
 8    1  0.1550723E-005  0.1319575E+03  0.7546771E-02  0.1234202E+00
         -2   -1    0    0    0  501 -0.00000000000E+00  0.00000000000E+00  0.16751263208E+03  0.16751263208E+03  0.00000000000E+00 0.  1.
          2   -1    0    0  501    0  0.00000000000E+00 -0.00000000000E+00 -0.12039698289E+03  0.12039698289E+03  0.00000000000E+00 0. -1.
         23    2    1    2    0    0  0.24511864881E+01  0.46682029444E+02  0.10184887706E+03  0.16669125141E+03  0.12339999737E+03 0.  0.
         23    2    1    2    0    0 -0.24511864881E+01 -0.46682029444E+02 -0.54733227874E+02  0.12121836356E+03  0.97534328527E+02 0.  0.
          5    1    3    3  502    0 -0.29321193015E+02  0.64209017412E+02  0.14813499435E+02  0.72277659359E+02  0.47000000000E+01 0. -1.
         -5    1    3    3    0  502  0.31772379503E+02 -0.17526987969E+02  0.87035377624E+02  0.94413592055E+02  0.47000000000E+01 0.  1.
        -11    1    4    4    0    0  0.13431850156E+02  0.19449629024E+01  0.23856170485E+02  0.27446572637E+02  0.00000000000E+00 0.  1.
         11    1    4    4    0    0 -0.15883036644E+02 -0.48626992346E+02 -0.78589398359E+02  0.93771790918E+02  0.00000000000E+00 0. -1.
<mgrwt>
<rscale>  0 0.12555681E+03</rscale>
<asrwt>0</asrwt>
<pdfrwt beam="2">  1        2 0.18522613E-01 0.13195749E+03</pdfrwt>
<pdfrwt beam="1">  1       -2 0.25771174E-01 0.13195749E+03</pdfrwt>
<totfact> 0.39107363E+03</totfact>
</mgrwt>
</event>
<event>
 8    1  0.1550723E-005  0.1282035E+03  0.7546771E-02  0.1245032E+00
         -2   -1    0    0    0  501 -0.00000000000E+00  0.00000000000E+00  0.18274604056E+02  0.18274604056E+02  0.00000000000E+00 0.  1.
          2   -1    0    0  501    0  0.00000000000E+00 -0.00000000000E+00 -0.69751748907E+03  0.69751748907E+03  0.00000000000E+00 0. -1.
         23    2    1    2    0    0  0.28443024041E+02 -0.13654579848E+01 -0.33230763069E+03  0.35618041886E+03  0.12500103708E+03 0.  0.
         23    2    1    2    0    0 -0.28443024041E+02  0.13654579848E+01 -0.34693525432E+03  0.35961167426E+03  0.90253063574E+02 0.  0.
          5    1    3    3  502    0 -0.30321478030E+02  0.10503099251E+02 -0.26053303455E+03  0.26254382342E+03  0.47000000000E+01 0.  1.
         -5    1    3    3    0  502  0.58764502071E+02 -0.11868557235E+02 -0.71774596143E+02  0.93636595442E+02  0.47000000000E+01 0.  1.
        -11    1    4    4    0    0  0.25628063407E+02 -0.57782036727E+01 -0.39917004362E+02  0.47786530622E+02  0.00000000000E+00 0.  1.
         11    1    4    4    0    0 -0.54071087448E+02  0.71436616576E+01 -0.30701824996E+03  0.31182514364E+03  0.00000000000E+00 0. -1.
<mgrwt>
<rscale>  0 0.11883436E+03</rscale>
<asrwt>0</asrwt>
<pdfrwt beam="2">  1        2 0.10731037E+00 0.12820347E+03</pdfrwt>
<pdfrwt beam="1">  1       -2 0.28114779E-02 0.12820347E+03</pdfrwt>
<totfact> 0.18536581E+04</totfact>
</mgrwt>
</event>
<event>
 8    1  0.1550723E-005  0.2073831E+03  0.7546771E-02  0.1148298E+00
         -2   -1    0    0    0  501 -0.00000000000E+00  0.00000000000E+00  0.41692139778E+02  0.41692139778E+02  0.00000000000E+00 0.  1.
          2   -1    0    0  501    0  0.00000000000E+00 -0.00000000000E+00 -0.93562094815E+03  0.93562094815E+03  0.00000000000E+00 0. -1.
         23    2    1    2    0    0 -0.16187202790E+03 -0.34381713848E+02 -0.52038435242E+03  0.56018535250E+03  0.12499239673E+03 0.  0.
         23    2    1    2    0    0  0.16187202790E+03  0.34381713848E+02 -0.37354445595E+03  0.41712773543E+03  0.84115583770E+02 0.  0.
          5    1    3    3  502    0 -0.67250501544E+02  0.30376277512E+02 -0.99681652467E+02  0.12411232828E+03  0.47000000000E+01 0.  1.
         -5    1    3    3    0  502 -0.94621526358E+02 -0.64757991360E+02 -0.42070269996E+03  0.43607302421E+03  0.47000000000E+01 0.  1.
        -11    1    4    4    0    0  0.10987849641E+03 -0.11471488582E+02 -0.27746196164E+03  0.29864698086E+03  0.00000000000E+00 0. -1.
         11    1    4    4    0    0  0.51993531494E+02  0.45853202430E+02 -0.96082494315E+02  0.11848075457E+03  0.00000000000E+00 0.  1.
<mgrwt>
<rscale>  0 0.20171797E+03</rscale>
<asrwt>0</asrwt>
<pdfrwt beam="2">  1        2 0.14394168E+00 0.20738311E+03</pdfrwt>
<pdfrwt beam="1">  1       -2 0.64141757E-02 0.20738311E+03</pdfrwt>
<totfact> 0.38140346E+03</totfact>
</mgrwt>
</event>
<event>
 8    1  0.1550723E-005  0.1762842E+03  0.7546771E-02  0.1179290E+00
          2   -1    0    0  501    0  0.00000000000E+00  0.00000000000E+00  0.24909056245E+02  0.24909056245E+02  0.00000000000E+00 0. -1.
         -2   -1    0    0    0  501 -0.00000000000E+00 -0.00000000000E+00 -0.10728784331E+04  0.10728784331E+04  0.00000000000E+00 0.  1.
         23    2    1    2    0    0  0.12178395979E+03  0.12259103282E+01 -0.64444200111E+03  0.66811796569E+03  0.12744915679E+03 0.  0.
         23    2    1    2    0    0 -0.12178395979E+03 -0.12259103282E+01 -0.40352737578E+03  0.42966952369E+03  0.83358987919E+02 0.  0.
          5    1    3    3  502    0  0.10869097798E+02 -0.45074311156E+02 -0.96961252278E+02  0.10757976230E+03  0.47000000000E+01 0. -1.
         -5    1    3    3    0  502  0.11091486199E+03  0.46300221484E+02 -0.54748074883E+03  0.56053820339E+03  0.47000000000E+01 0.  1.
        -11    1    4    4    0    0 -0.40776423820E+02 -0.40392329002E+02 -0.14607993051E+03  0.15695095756E+03  0.00000000000E+00 0.  1.
         11    1    4    4    0    0 -0.81007535966E+02  0.39166418674E+02 -0.25744744527E+03  0.27271856613E+03  0.00000000000E+00 0. -1.
<mgrwt>
<rscale>  0 0.16862470E+03</rscale>
<asrwt>0</asrwt>
<pdfrwt beam="1">  1        2 0.38321635E-02 0.17628421E+03</pdfrwt>
<pdfrwt beam="2">  1       -2 0.16505818E+00 0.17628421E+03</pdfrwt>
<totfact> 0.54624927E+02</totfact>
</mgrwt>
</event>
<event>
 6    1  0.1550723E-005  0.1593818E+03  0.7546771E-02  0.1220710E+00
          2   -1    0    0  501    0  0.00000000000E+00  0.00000000000E+00  0.12983927489E+03  0.12983927489E+03  0.00000000000E+00 0. -1.
         -2   -1    0    0    0  501 -0.00000000000E+00 -0.00000000000E+00 -0.17000479922E+03  0.17000479922E+03  0.00000000000E+00 0.  1.
          5    1    1    2  502    0 -0.72947118797E+02 -0.12605900827E+02 -0.55666265956E+02  0.92741652141E+02  0.47000000000E+01 0. -1.
         -5    1    1    2    0  502  0.68003476944E+02 -0.50796590260E+02 -0.53585664622E+02  0.10049019809E+03  0.47000000000E+01 0.  1.
        -11    1    1    2    0    0 -0.59666125385E+01  0.66959526001E+02  0.67070194365E+02  0.94960989673E+02  0.00000000000E+00 0. -1.
         11    1    1    2    0    0  0.10910254391E+02 -0.35570349142E+01  0.20162118798E+01  0.11651234210E+02  0.00000000000E+00 0.  1.
<mgrwt>
<rscale>  0 0.13465311E+03</rscale>
<asrwt>0</asrwt>
<pdfrwt beam="1">  1        2 0.19975273E-01 0.15938182E+03</pdfrwt>
<pdfrwt beam="2">  1       -2 0.26154584E-01 0.15938182E+03</pdfrwt>
<totfact> 0.35342247E+03</totfact>
</mgrwt>
</event>
<event>
 8    1  0.1550723E-005  0.1152046E+03  0.7546771E-02  0.1260328E+00
          1   -1    0    0  501    0  0.00000000000E+00  0.00000000000E+00  0.51743331359E+03  0.51743331359E+03  0.00000000000E+00 0. -1.
         -1   -1    0    0    0  501 -0.00000000000E+00 -0.00000000000E+00 -0.14682385999E+03  0.14682385999E+03  0.00000000000E+00 0.  1.
         23    2    1    2    0    0 -0.12177164454E+02  0.19075380750E+02 -0.11879699484E+03  0.16548362338E+03  0.11295994927E+03 0.  0.
         23    2    1    2    0    0  0.12177164454E+02 -0.19075380750E+02  0.48940644844E+03  0.49877355020E+03  0.93510582930E+02 0.  0.
          5    1    3    3  502    0  0.47700377977E+02 -0.26794138546E+01 -0.31922333516E+02  0.57650938369E+02  0.47000000000E+01 0. -1.
         -5    1    3    3    0  502 -0.59877542431E+02  0.21754794604E+02 -0.86874661322E+02  0.10783268501E+03  0.47000000000E+01 0.  1.
        -11    1    4    4    0    0  0.20299762797E+02 -0.54534932905E+02  0.34391298777E+03  0.34880120761E+03  0.00000000000E+00 0. -1.
         11    1    4    4    0    0 -0.81225983428E+01  0.35459552155E+02  0.14549346067E+03  0.14997234258E+03  0.00000000000E+00 0.  1.
<mgrwt>
<rscale>  0 0.11013049E+03</rscale>
<asrwt>0</asrwt>
<pdfrwt beam="1">  1        1 0.79605124E-01 0.11520462E+03</pdfrwt>
<pdfrwt beam="2">  1       -1 0.22588286E-01 0.11520462E+03</pdfrwt>
<totfact> 0.71453762E+02</totfact>
</mgrwt>
</event>
<event>
 8    1  0.1550723E-005  0.1826529E+03  0.7546771E-02  0.1170580E+00
          1   -1    0    0  501    0  0.00000000000E+00  0.00000000000E+00  0.80230975135E+03  0.80230975135E+03  0.00000000000E+00 0. -1.
         -1   -1    0    0    0  501 -0.00000000000E+00 -0.00000000000E+00 -0.36949219356E+02  0.36949219356E+02  0.00000000000E+00 0.  1.
         23    2    1    2    0    0 -0.12429171904E+03  0.47848589779E+02  0.41290858850E+03  0.45150367509E+03  0.12499658875E+03 0.  0.
         23    2    1    2    0    0  0.12429171904E+03 -0.47848589779E+02  0.35245194349E+03  0.38775529561E+03  0.91618108686E+02 0.  0.
          5    1    3    3  502    0 -0.63084573037E+02  0.80390313421E+02  0.16584210110E+03  0.19485368445E+03  0.47000000000E+01 0. -1.
         -5    1    3    3    0  502 -0.61207145999E+02 -0.32541723642E+02  0.24706648740E+03  0.25664999064E+03  0.47000000000E+01 0. -1.
        -11    1    4    4    0    0  0.17524415789E+02  0.80164223398E+00  0.13806224547E+01  0.17596985463E+02  0.00000000000E+00 0.  1.
         11    1    4    4    0    0  0.10676730325E+03 -0.48650232013E+02  0.35107132104E+03  0.37015831015E+03  0.00000000000E+00 0. -1.
<mgrwt>
<rscale>  0 0.17716014E+03</rscale>
<asrwt>0</asrwt>
<pdfrwt beam="1">  1        1 0.12343226E+00 0.18265286E+03</pdfrwt>
<pdfrwt beam="2">  1       -1 0.56844959E-02 0.18265286E+03</pdfrwt>
<totfact> 0.32870991E+03</totfact>
</mgrwt>
</event>
<event>
 8    1  0.1550723E-005  0.1560746E+03  0.7546771E-02  0.1201429E+00
          1   -1    0    0  501    0  0.00000000000E+00  0.00000000000E+00  0.35170251184E+03  0.35170251184E+03  0.00000000000E+00 0. -1.
         -1   -1    0    0    0  501 -0.00000000000E+00 -0.00000000000E+00 -0.61117683553E+02  0.61117683553E+02  0.00000000000E+00 0.  1.
         23    2    1    2    0    0 -0.34885841631E+02  0.86704484361E+02  0.11392553606E+03  0.19323121721E+03  0.12499834392E+03 0.  0.
         23    2    1    2    0    0  0.34885841631E+02 -0.86704484361E+02  0.17665929223E+03  0.21958897819E+03  0.90973206254E+02 0.  0.
          5    1    3    3  502    0  0.18157184540E+02 -0.11903955485E+02 -0.11514808230E+02  0.25021357181E+02  0.47000000000E+01 0. -1.
         -5    1    3    3    0  502 -0.53043026172E+02  0.98608439846E+02  0.12544034429E+03  0.16820986003E+03  0.47000000000E+01 0. -1.
        -11    1    4    4    0    0  0.16496501032E+02 -0.82946192801E+02  0.65803707781E+02  0.10715565036E+03  0.00000000000E+00 0.  1.
         11    1    4    4    0    0  0.18389340599E+02 -0.37582915604E+01  0.11085558445E+03  0.11243332783E+03  0.00000000000E+00 0. -1.
<mgrwt>
<rscale>  0 0.14922438E+03</rscale>
<asrwt>0</asrwt>
<pdfrwt beam="1">  1        1 0.54108078E-01 0.15607458E+03</pdfrwt>
<pdfrwt beam="2">  1       -1 0.94027207E-02 0.15607458E+03</pdfrwt>
<totfact> 0.46487966E+03</totfact>
</mgrwt>
</event>
<event>
 8    1  0.1550723E-005  0.1992036E+03  0.7546771E-02  0.1154429E+00
          2   -1    0    0  501    0  0.00000000000E+00  0.00000000000E+00  0.74690789660E+02  0.74690789660E+02  0.00000000000E+00 0. -1.
         -2   -1    0    0    0  501 -0.00000000000E+00 -0.00000000000E+00 -0.74441914608E+03  0.74441914608E+03  0.00000000000E+00 0.  1.
         23    2    1    2    0    0  0.70292249686E+02 -0.13826544678E+03 -0.58708295965E+03  0.61995844616E+03  0.12499495715E+03 0.  0.
         23    2    1    2    0    0 -0.70292249686E+02  0.13826544678E+03 -0.82645396772E+02  0.19915148958E+03  0.93662799754E+02 0.  0.
          5    1    3    3  502    0 -0.34463120470E+02 -0.16472878079E+02 -0.11204812467E+03  0.11847334986E+03  0.47000000000E+01 0.  1.
         -5    1    3    3    0  502  0.10475537016E+03 -0.12179256870E+03 -0.47503483498E+03  0.50148509630E+03  0.47000000000E+01 0.  1.
        -11    1    4    4    0    0 -0.25281537658E+02  0.83799046999E+02 -0.93030329590E+02  0.12773440667E+03  0.00000000000E+00 0.  1.
         11    1    4    4    0    0 -0.45010712028E+02  0.54466399776E+02  0.10384932818E+02  0.71417082911E+02  0.00000000000E+00 0. -1.
<mgrwt>
<rscale>  0 0.19453981E+03</rscale>
<asrwt>0</asrwt>
<pdfrwt beam="1">  1        2 0.11490890E-01 0.19920360E+03</pdfrwt>
<pdfrwt beam="2">  1       -2 0.11452603E+00 0.19920360E+03</pdfrwt>
<totfact> 0.33452577E+02</totfact>
</mgrwt>
</event>
<event>
 7    1  0.1550723E-005  0.3712616E+03  0.7546771E-02  0.1101338E+00
          2   -1    0    0  501    0  0.00000000000E+00  0.00000000000E+00  0.69782772450E+03  0.69782772450E+03  0.00000000000E+00 0. -1.
         -2   -1    0    0    0  501 -0.00000000000E+00 -0.00000000000E+00 -0.80903231901E+02  0.80903231901E+02  0.00000000000E+00 0.  1.
         23    2    1    2    0    0 -0.47574597488E+02  0.67476228719E+01  0.14538907879E+03  0.17858026023E+03  0.91891525035E+02 0.  0.
          5    1    1    2  502    0  0.16250290182E+03  0.77757912187E+02  0.40375041085E+03  0.44214247734E+03  0.47000000000E+01 0. -1.
         -5    1    1    2    0  502 -0.11492830433E+03 -0.84505535059E+02  0.67785002966E+02  0.15800821883E+03  0.47000000000E+01 0.  1.
        -11    1    3    3    0    0 -0.39407615132E+02 -0.23172304668E+02  0.13977578174E+03  0.14706184072E+03  0.00000000000E+00 0.  1.
         11    1    3    3    0    0 -0.81669823560E+01  0.29919927540E+02  0.56132970436E+01  0.31518419511E+02  0.00000000000E+00 0. -1.
<mgrwt>
<rscale>  0 0.26989876E+03</rscale>
<asrwt>0</asrwt>
<pdfrwt beam="1">  1        2 0.10735811E+00 0.37126165E+03</pdfrwt>
<pdfrwt beam="2">  1       -2 0.12446652E-01 0.37126165E+03</pdfrwt>
<totfact> 0.19653231E+03</totfact>
</mgrwt>
</event>
<event>
 8    1  0.1550723E-005  0.1471114E+03  0.7546771E-02  0.1213450E+00
         -2   -1    0    0    0  501 -0.00000000000E+00  0.00000000000E+00  0.18101118213E+03  0.18101118213E+03  0.00000000000E+00 0.  1.
          2   -1    0    0  501    0  0.00000000000E+00 -0.00000000000E+00 -0.10109050399E+03  0.10109050399E+03  0.00000000000E+00 0. -1.
         23    2    1    2    0    0  0.55565953970E+02  0.54116613077E+02  0.64983282868E+02  0.16082467957E+03  0.12500226980E+03 0.  0.
         23    2    1    2    0    0 -0.55565953970E+02 -0.54116613077E+02  0.14937395277E+02  0.12127700655E+03  0.92026102211E+02 0.  0.
          5    1    3    3  502    0 -0.45756359069E+01 -0.13398727007E+02 -0.27572042098E+02  0.31349160034E+02  0.47000000000E+01 0. -1.
         -5    1    3    3    0  502  0.60141589877E+02  0.67515340083E+02  0.92555324966E+02  0.12947551954E+03  0.47000000000E+01 0. -1.
        -11    1    4    4    0    0 -0.13228909686E+02 -0.16731985676E+02  0.50302698351E+02  0.54638126410E+02  0.00000000000E+00 0.  1.
         11    1    4    4    0    0 -0.42337044284E+02 -0.37384627401E+02 -0.35365303074E+02  0.66638880139E+02  0.00000000000E+00 0. -1.
<mgrwt>
<rscale>  0 0.13991021E+03</rscale>
<asrwt>0</asrwt>
<pdfrwt beam="2">  1        2 0.15552385E-01 0.14711135E+03</pdfrwt>
<pdfrwt beam="1">  1       -2 0.27847874E-01 0.14711135E+03</pdfrwt>
<totfact> 0.42000270E+03</totfact>
</mgrwt>
</event>
<event>
 8    1  0.1550723E-005  0.2333312E+03  0.7546771E-02  0.1127414E+00
         -2   -1    0    0    0  501 -0.00000000000E+00  0.00000000000E+00  0.24485760050E+03  0.24485760050E+03  0.00000000000E+00 0.  1.
          2   -1    0    0  501    0  0.00000000000E+00 -0.00000000000E+00 -0.20640542256E+03  0.20640542256E+03  0.00000000000E+00 0. -1.
         23    2    1    2    0    0 -0.13160461147E+03  0.14662176179E+03  0.13713669380E+02  0.23373382843E+03  0.12500289210E+03 0.  0.
         23    2    1    2    0    0  0.13160461147E+03 -0.14662176179E+03  0.24738508565E+02  0.21752919463E+03  0.88821404613E+02 0.  0.
          5    1    3    3  502    0 -0.33160023189E+02  0.73233087539E+02  0.62079073200E+02  0.10167877644E+03  0.47000000000E+01 0.  1.
         -5    1    3    3    0  502 -0.98444588283E+02  0.73388674252E+02 -0.48365403821E+02  0.13205505200E+03  0.47000000000E+01 0.  1.
        -11    1    4    4    0    0  0.44464942007E+02 -0.82301435666E+02 -0.27190520421E+02  0.97416537514E+02  0.00000000000E+00 0. -1.
         11    1    4    4    0    0  0.87139669466E+02 -0.64320326125E+02  0.51929028986E+02  0.12011265711E+03  0.00000000000E+00 0.  1.
<mgrwt>
<rscale>  0 0.22890342E+03</rscale>
<asrwt>0</asrwt>
<pdfrwt beam="2">  1        2 0.31754680E-01 0.23333118E+03</pdfrwt>
<pdfrwt beam="1">  1       -2 0.37670400E-01 0.23333118E+03</pdfrwt>
<totfact> 0.10979879E+03</totfact>
</mgrwt>
</event>
<event>
 8    1  0.1550723E-005  0.2063879E+03  0.7546771E-02  0.1148098E+00
          2   -1    0    0  501    0  0.00000000000E+00  0.00000000000E+00  0.94187182339E+03  0.94187182339E+03  0.00000000000E+00 0. -1.
         -2   -1    0    0    0  501 -0.00000000000E+00 -0.00000000000E+00 -0.43748918097E+02  0.43748918097E+02  0.00000000000E+00 0.  1.
         23    2    1    2    0    0  0.12538856494E+03 -0.10606485603E+03  0.57810858538E+03  0.61384485998E+03  0.12499571884E+03 0.  0.
         23    2    1    2    0    0 -0.12538856494E+03  0.10606485603E+03  0.32001431991E+03  0.37177588150E+03  0.94000506486E+02 0.  0.
          5    1    3    3  502    0 -0.15298500571E+02 -0.16205689264E+02  0.18960674759E+03  0.19096983326E+03  0.47000000000E+01 0.  1.
         -5    1    3    3    0  502  0.14068706551E+03 -0.89859166763E+02  0.38850183779E+03  0.42287502672E+03  0.47000000000E+01 0.  1.
        -11    1    4    4    0    0 -0.30078544487E+02  0.71291601974E+02  0.80489088695E+02  0.11164992051E+03  0.00000000000E+00 0.  1.
         11    1    4    4    0    0 -0.95310020456E+02  0.34773254053E+02  0.23952523121E+03  0.26012596100E+03  0.00000000000E+00 0. -1.
<mgrwt>
<rscale>  0 0.20195794E+03</rscale>
<asrwt>0</asrwt>
<pdfrwt beam="1">  1        2 0.14490334E+00 0.20638793E+03</pdfrwt>
<pdfrwt beam="2">  1       -2 0.67306035E-02 0.20638793E+03</pdfrwt>
<totfact> 0.35091612E+03</totfact>
</mgrwt>
</event>
<event>
 8    1  0.1550723E-005  0.1451816E+03  0.7546771E-02  0.1216873E+00
         -1   -1    0    0    0  501 -0.00000000000E+00  0.00000000000E+00  0.11998863170E+03  0.11998863170E+03  0.00000000000E+00 0.  1.
          1   -1    0    0  501    0  0.00000000000E+00 -0.00000000000E+00 -0.14278721692E+03  0.14278721692E+03  0.00000000000E+00 0. -1.
         23    2    1    2    0    0 -0.71381788734E+02  0.18911199454E+02 -0.16917347256E+02  0.14616387959E+03  0.12499875931E+03 0.  0.
         23    2    1    2    0    0  0.71381788734E+02 -0.18911199454E+02 -0.58812379607E+01  0.11661196904E+03  0.90059808655E+02 0.  0.
          5    1    3    3  502    0  0.22496738136E+02 -0.25542187326E+02  0.14864608589E+02  0.37437322937E+02  0.47000000000E+01 0. -1.
         -5    1    3    3    0  502 -0.93878526870E+02  0.44453386780E+02 -0.31781955845E+02  0.10872655665E+03  0.47000000000E+01 0. -1.
        -11    1    4    4    0    0  0.12470522121E+02 -0.43258379470E+02  0.18077550841E+02  0.48513906880E+02  0.00000000000E+00 0.  1.
         11    1    4    4    0    0  0.58911266613E+02  0.24347180016E+02 -0.23958788801E+02  0.68098062157E+02  0.00000000000E+00 0. -1.
<mgrwt>
<rscale>  0 0.13739822E+03</rscale>
<asrwt>0</asrwt>
<pdfrwt beam="2">  1        1 0.21967264E-01 0.14518155E+03</pdfrwt>
<pdfrwt beam="1">  1       -1 0.18459790E-01 0.14518155E+03</pdfrwt>
<totfact> 0.49850036E+03</totfact>
</mgrwt>
</event>
<event>
 8    1  0.1550723E-005  0.1393501E+03  0.7546771E-02  0.1226605E+00
         -2   -1    0    0    0  501 -0.00000000000E+00  0.00000000000E+00  0.24375280807E+03  0.24375280807E+03  0.00000000000E+00 0. -1.
          2   -1    0    0  501    0  0.00000000000E+00 -0.00000000000E+00 -0.14792516258E+03  0.14792516258E+03  0.00000000000E+00 0.  1.
         23    2    1    2    0    0  0.57209959954E+02  0.22810753664E+02  0.19886178464E+03  0.24282600095E+03  0.12500058939E+03 0.  0.
         23    2    1    2    0    0 -0.57209959954E+02 -0.22810753664E+02 -0.10303413914E+03  0.14885196970E+03  0.88020253657E+02 0.  0.
          5    1    3    3  502    0  0.10919669399E+02 -0.17623991579E+02 -0.11114171964E+02  0.23988728133E+02  0.47000000000E+01 0. -1.
         -5    1    3    3    0  502  0.46290290555E+02  0.40434745243E+02  0.20997595660E+03  0.21883727282E+03  0.47000000000E+01 0. -1.
        -11    1    4    4    0    0 -0.17463747318E+01 -0.15540175198E+02 -0.90088149817E+02  0.91435341129E+02  0.00000000000E+00 0.  1.
         11    1    4    4    0    0 -0.55463585222E+02 -0.72705784663E+01 -0.12945989328E+02  0.57416628572E+02  0.00000000000E+00 0. -1.
<mgrwt>
<rscale>  0 0.13057510E+03</rscale>
<asrwt>0</asrwt>
<pdfrwt beam="2">  1        2 0.22757717E-01 0.13935013E+03</pdfrwt>
<pdfrwt beam="1">  1       -2 0.37500432E-01 0.13935013E+03</pdfrwt>
<totfact> 0.15767217E+03</totfact>
</mgrwt>
</event>
<event>
 8    1  0.1550723E-005  0.2288394E+03  0.7546771E-02  0.1130525E+00
         -2   -1    0    0    0  501 -0.00000000000E+00  0.00000000000E+00  0.15783371012E+03  0.15783371012E+03  0.00000000000E+00 0.  1.
          2   -1    0    0  501    0  0.00000000000E+00 -0.00000000000E+00 -0.34612433178E+03  0.34612433178E+03  0.00000000000E+00 0. -1.
         23    2    1    2    0    0  0.19142989598E+03 -0.97926502260E+01 -0.13865016516E+02  0.22925899724E+03  0.12500459215E+03 0.  0.
         23    2    1    2    0    0 -0.19142989598E+03  0.97926502260E+01 -0.17442560514E+03  0.27469904466E+03  0.91071248661E+02 0.  0.
          5    1    3    3  502    0  0.39784138534E+02 -0.34458475124E+02 -0.48465941694E+02  0.71702173545E+02  0.47000000000E+01 0. -1.
         -5    1    3    3    0  502  0.15164575745E+03  0.24665824898E+02  0.34600925177E+02  0.15755682370E+03  0.47000000000E+01 0. -1.
        -11    1    4    4    0    0 -0.94317407304E+02 -0.32150034795E+02 -0.11921253267E+03  0.15537382664E+03  0.00000000000E+00 0. -1.
         11    1    4    4    0    0 -0.97112488679E+02  0.41942685021E+02 -0.55213072468E+02  0.11932521802E+03  0.00000000000E+00 0.  1.
<mgrwt>
<rscale>  0 0.22456503E+03</rscale>
<asrwt>0</asrwt>
<pdfrwt beam="2">  1        2 0.53249898E-01 0.22883935E+03</pdfrwt>
<pdfrwt beam="1">  1       -2 0.24282109E-01 0.22883935E+03</pdfrwt>
<totfact> 0.13958391E+03</totfact>
</mgrwt>
</event>
<event>
 8    1  0.1550723E-005  0.1556856E+03  0.7546771E-02  0.1198615E+00
          2   -1    0    0  501    0  0.00000000000E+00  0.00000000000E+00  0.17499873121E+03  0.17499873121E+03  0.00000000000E+00 0. -1.
         -2   -1    0    0    0  501 -0.00000000000E+00 -0.00000000000E+00 -0.12574007576E+03  0.12574007576E+03  0.00000000000E+00 0.  1.
         23    2    1    2    0    0  0.16659617513E+02  0.91298688084E+02  0.40018456745E+02  0.16074662176E+03  0.12500002490E+03 0.  0.
         23    2    1    2    0    0 -0.16659617513E+02 -0.91298688084E+02  0.92401987038E+01  0.13999218521E+03  0.10440037043E+03 0.  0.
          5    1    3    3  502    0 -0.11388802795E+02 -0.28442810537E+02 -0.10170534551E+01  0.31013266485E+02  0.47000000000E+01 0. -1.
         -5    1    3    3    0  502  0.28048420309E+02  0.11974149862E+03  0.41035510201E+02  0.12973335528E+03  0.47000000000E+01 0. -1.
        -11    1    4    4    0    0 -0.13463680510E+02 -0.11395185249E+03  0.16646551231E+02  0.11594569007E+03  0.00000000000E+00 0.  1.
         11    1    4    4    0    0 -0.31959370034E+01  0.22653164402E+02 -0.74063525270E+01  0.24046495140E+02  0.00000000000E+00 0. -1.
<mgrwt>
<rscale>  0 0.15152183E+03</rscale>
<asrwt>0</asrwt>
<pdfrwt beam="1">  1        2 0.26922882E-01 0.15568558E+03</pdfrwt>
<pdfrwt beam="2">  1       -2 0.19344627E-01 0.15568558E+03</pdfrwt>
<totfact> 0.42559817E+03</totfact>
</mgrwt>
</event>
<event>
 8    1  0.1550723E-005  0.1361378E+03  0.7546771E-02  0.1231719E+00
          3   -1    0    0  501    0  0.00000000000E+00  0.00000000000E+00  0.49431045620E+02  0.49431045620E+02  0.00000000000E+00 0. -1.
         -3   -1    0    0    0  501 -0.00000000000E+00 -0.00000000000E+00 -0.29158724361E+03  0.29158724361E+03  0.00000000000E+00 0.  1.
         23    2    1    2    0    0  0.60761709005E+01 -0.53605207848E+02 -0.14617761292E+03  0.19975336189E+03  0.12499229139E+03 0.  0.
         23    2    1    2    0    0 -0.60761709005E+01  0.53605207848E+02 -0.95978585073E+02  0.14126492734E+03  0.88506794898E+02 0.  0.
          5    1    3    3  502    0  0.39937064136E+02 -0.71501826702E+02 -0.49869644918E+02  0.96002873904E+02  0.47000000000E+01 0. -1.
         -5    1    3    3    0  502 -0.33860893235E+02  0.17896618854E+02 -0.96307968003E+02  0.10375048799E+03  0.47000000000E+01 0. -1.
        -11    1    4    4    0    0 -0.32970803462E+02  0.58670167074E+02 -0.91420101805E+02  0.11352047128E+03  0.00000000000E+00 0.  1.
         11    1    4    4    0    0  0.26894632561E+02 -0.50649592252E+01 -0.45584832684E+01  0.27744456063E+02  0.00000000000E+00 0. -1.
<mgrwt>
<rscale>  0 0.12716844E+03</rscale>
<asrwt>0</asrwt>
<pdfrwt beam="1">  1        3 0.76047761E-02 0.13613784E+03</pdfrwt>
<pdfrwt beam="2">  1       -3 0.44859577E-01 0.13613784E+03</pdfrwt>
<totfact> 0.13235621E+03</totfact>
</mgrwt>
</event>
<event>
 8    1  0.1550723E-005  0.1324409E+03  0.7546771E-02  0.1236684E+00
         -1   -1    0    0    0  501 -0.00000000000E+00  0.00000000000E+00  0.36266408465E+03  0.36266408465E+03  0.00000000000E+00 0.  1.
          1   -1    0    0  501    0  0.00000000000E+00 -0.00000000000E+00 -0.37949091934E+02  0.37949091934E+02  0.00000000000E+00 0. -1.
         23    2    1    2    0    0  0.42836868784E+02 -0.83587686806E+01  0.19667548494E+03  0.23711146830E+03  0.12504293534E+03 0.  0.
         23    2    1    2    0    0 -0.42836868784E+02  0.83587686806E+01  0.12803950777E+03  0.16350170829E+03  0.91835868379E+02 0.  0.
          5    1    3    3  502    0  0.81274493656E+02 -0.28227102225E+02  0.10657667105E+03  0.13705104681E+03  0.47000000000E+01 0.  1.
         -5    1    3    3    0  502 -0.38437624872E+02  0.19868333545E+02  0.90098813890E+02  0.10006042149E+03  0.47000000000E+01 0.  1.
        -11    1    4    4    0    0 -0.45869641166E+02  0.43944426484E+02  0.98237889966E+02  0.11698640786E+03  0.00000000000E+00 0.  1.
         11    1    4    4    0    0  0.30327723818E+01 -0.35585657803E+02  0.29801617808E+02  0.46515300425E+02  0.00000000000E+00 0. -1.
<mgrwt>
<rscale>  0 0.12397237E+03</rscale>
<asrwt>0</asrwt>
<pdfrwt beam="2">  1        1 0.58383221E-02 0.13244094E+03</pdfrwt>
<pdfrwt beam="1">  1       -1 0.55794472E-01 0.13244094E+03</pdfrwt>
<totfact> 0.42854247E+03</totfact>
</mgrwt>
</event>
<event>
 8    1  0.1550723E-005  0.2097661E+03  0.7546771E-02  0.1145520E+00
          1   -1    0    0  501    0  0.00000000000E+00  0.00000000000E+00  0.55235620920E+03  0.55235620920E+03  0.00000000000E+00 0. -1.
         -1   -1    0    0    0  501 -0.00000000000E+00 -0.00000000000E+00 -0.10033050878E+03  0.10033050878E+03  0.00000000000E+00 0.  1.
         23    2    1    2    0    0 -0.15741963648E+03  0.59963518303E+02  0.63011560873E+02  0.21902571965E+03  0.12500097436E+03 0.  0.
         23    2    1    2    0    0  0.15741963648E+03 -0.59963518303E+02  0.38901413954E+03  0.43366099832E+03  0.91396363314E+02 0.  0.
          5    1    3    3  502    0 -0.14348010670E+03  0.43416048850E+01  0.15588778426E+02  0.14446622638E+03  0.47000000000E+01 0. -1.
         -5    1    3    3    0  502 -0.13939529780E+02  0.55621913418E+02  0.47422782447E+02  0.74559493278E+02  0.47000000000E+01 0. -1.
        -11    1    4    4    0    0  0.11007271751E+03 -0.47908665965E+02  0.35331056843E+03  0.37314822950E+03  0.00000000000E+00 0. -1.
         11    1    4    4    0    0  0.47346918965E+02 -0.12054852338E+02  0.35703571111E+02  0.60512768822E+02  0.00000000000E+00 0.  1.
<mgrwt>
<rscale>  0 0.20508262E+03</rscale>
<asrwt>0</asrwt>
<pdfrwt beam="1">  1        1 0.84977876E-01 0.20976608E+03</pdfrwt>
<pdfrwt beam="2">  1       -1 0.15435463E-01 0.20976608E+03</pdfrwt>
<totfact> 0.12098280E+03</totfact>
</mgrwt>
</event>
<event>
 8    1  0.1550723E-005  0.1715516E+03  0.7546771E-02  0.1182809E+00
          1   -1    0    0  501    0  0.00000000000E+00  0.00000000000E+00  0.12568779761E+03  0.12568779761E+03  0.00000000000E+00 0. -1.
         -1   -1    0    0    0  501 -0.00000000000E+00 -0.00000000000E+00 -0.21195964700E+03  0.21195964700E+03  0.00000000000E+00 0.  1.
         23    2    1    2    0    0  0.46251628218E+02  0.10800928802E+03 -0.80636783962E+02  0.18955802213E+03  0.12499893365E+03 0.  0.
         23    2    1    2    0    0 -0.46251628218E+02 -0.10800928802E+03 -0.56350654324E+01  0.14808942249E+03  0.89963902088E+02 0.  0.
          5    1    3    3  502    0  0.42367401158E+02  0.13037614542E+02  0.21897837485E+02  0.49664689271E+02  0.47000000000E+01 0. -1.
         -5    1    3    3    0  502  0.38842270595E+01  0.94971673476E+02 -0.10253462145E+03  0.13989333286E+03  0.47000000000E+01 0. -1.
        -11    1    4    4    0    0 -0.66573990033E+02 -0.41528816194E+02 -0.29635130541E+01  0.78520832478E+02  0.00000000000E+00 0. -1.
         11    1    4    4    0    0  0.20322361815E+02 -0.66480471824E+02 -0.26715523783E+01  0.69568590009E+02  0.00000000000E+00 0.  1.
<mgrwt>
<rscale>  0 0.16532877E+03</rscale>
<asrwt>0</asrwt>
<pdfrwt beam="1">  1        1 0.19336584E-01 0.17155160E+03</pdfrwt>
<pdfrwt beam="2">  1       -1 0.32609176E-01 0.17155160E+03</pdfrwt>
<totfact> 0.23153284E+03</totfact>
</mgrwt>
</event>
<event>
 8    1  0.1550723E-005  0.1911972E+03  0.7546771E-02  0.1162228E+00
         -2   -1    0    0    0  501 -0.00000000000E+00  0.00000000000E+00  0.23072079948E+02  0.23072079948E+02  0.00000000000E+00 0.  1.
          2   -1    0    0  501    0  0.00000000000E+00 -0.00000000000E+00 -0.14209748506E+04  0.14209748506E+04  0.00000000000E+00 0. -1.
         23    2    1    2    0    0  0.14188191651E+03 -0.28266736191E+02 -0.71943505780E+03  0.74440793788E+03  0.12500755570E+03 0.  0.
         23    2    1    2    0    0 -0.14188191651E+03  0.28266736191E+02 -0.67846771281E+03  0.69963899262E+03  0.90811871842E+02 0.  0.
          5    1    3    3  502    0  0.84486699811E+02 -0.13343036466E+02 -0.63708214707E+03  0.64281551878E+03  0.47000000000E+01 0. -1.
         -5    1    3    3    0  502  0.57395216701E+02 -0.14923699725E+02 -0.82352910732E+02  0.10159241911E+03  0.47000000000E+01 0. -1.
        -11    1    4    4    0    0 -0.91973957723E+02  0.52812941345E+02 -0.54188488265E+03  0.55216631708E+03  0.00000000000E+00 0. -1.
         11    1    4    4    0    0 -0.49907958789E+02 -0.24546205153E+02 -0.13658283016E+03  0.14747267554E+03  0.00000000000E+00 0.  1.
<mgrwt>
<rscale>  0 0.18588311E+03</rscale>
<asrwt>0</asrwt>
<pdfrwt beam="2">  1        2 0.21861157E+00 0.19119722E+03</pdfrwt>
<pdfrwt beam="1">  1       -2 0.35495499E-02 0.19119722E+03</pdfrwt>
<totfact> 0.49202193E+03</totfact>
</mgrwt>
</event>
<event>
 8    1  0.1550723E-005  0.1327029E+03  0.7546771E-02  0.1230684E+00
          1   -1    0    0  501    0  0.00000000000E+00  0.00000000000E+00  0.52464259890E+03  0.52464259890E+03  0.00000000000E+00 0. -1.
         -1   -1    0    0    0  501 -0.00000000000E+00 -0.00000000000E+00 -0.29817910697E+02  0.29817910697E+02  0.00000000000E+00 0.  1.
         23    2    1    2    0    0  0.96472022261E+01  0.43499656803E+02  0.22180750633E+03  0.25847363657E+03  0.12499904912E+03 0.  0.
         23    2    1    2    0    0 -0.96472022261E+01 -0.43499656803E+02  0.27301718187E+03  0.29598687303E+03  0.10528323113E+03 0.  0.
          5    1    3    3  502    0  0.63932854612E+02  0.26249648667E+02  0.81437699585E+02  0.10691418460E+03  0.47000000000E+01 0. -1.
         -5    1    3    3    0  502 -0.54285652385E+02  0.17250008136E+02  0.14036980675E+03  0.15155945197E+03  0.47000000000E+01 0. -1.
        -11    1    4    4    0    0 -0.47198890186E+02 -0.70485820917E+01  0.20322461779E+03  0.20875263596E+03  0.00000000000E+00 0. -1.
         11    1    4    4    0    0  0.37551687960E+02 -0.36451074711E+02  0.69792564081E+02  0.87234237070E+02  0.00000000000E+00 0.  1.
<mgrwt>
<rscale>  0 0.12784803E+03</rscale>
<asrwt>0</asrwt>
<pdfrwt beam="1">  1        1 0.80714239E-01 0.13270287E+03</pdfrwt>
<pdfrwt beam="2">  1       -1 0.45873713E-02 0.13270287E+03</pdfrwt>
<totfact> 0.80973339E+03</totfact>
</mgrwt>
</event>
<event>
 8    1  0.1550723E-005  0.2276366E+03  0.7546771E-02  0.1131386E+00
         -2   -1    0    0    0  501 -0.00000000000E+00  0.00000000000E+00  0.34315586152E+03  0.34315586152E+03  0.00000000000E+00 0.  1.
          2   -1    0    0  501    0  0.00000000000E+00 -0.00000000000E+00 -0.18166987464E+03  0.18166987464E+03  0.00000000000E+00 0. -1.
         23    2    1    2    0    0 -0.11437145538E+03  0.15202809350E+03  0.20835142502E+03  0.30859152852E+03  0.12500017660E+03 0.  0.
         23    2    1    2    0    0  0.11437145538E+03 -0.15202809350E+03 -0.46865438134E+02  0.21623420764E+03  0.91473997643E+02 0.  0.
          5    1    3    3  502    0 -0.75073249612E+02  0.13746692503E+03  0.85084806785E+02  0.17831057913E+03  0.47000000000E+01 0. -1.
         -5    1    3    3    0  502 -0.39298205764E+02  0.14561168472E+02  0.12326661823E+03  0.13028094939E+03  0.47000000000E+01 0. -1.
        -11    1    4    4    0    0  0.26847334412E+02 -0.92799900439E+02  0.84095765527E+01  0.96970726842E+02  0.00000000000E+00 0.  1.
         11    1    4    4    0    0  0.87524120964E+02 -0.59228193061E+02 -0.55275014687E+02  0.11926348080E+03  0.00000000000E+00 0. -1.
<mgrwt>
<rscale>  0 0.22338332E+03</rscale>
<asrwt>0</asrwt>
<pdfrwt beam="2">  1        2 0.27949212E-01 0.22763659E+03</pdfrwt>
<pdfrwt beam="1">  1       -2 0.52793209E-01 0.22763659E+03</pdfrwt>
<totfact> 0.65339411E+02</totfact>
</mgrwt>
</event>
<event>
 8    1  0.1550723E-005  0.1514956E+03  0.7546771E-02  0.1209239E+00
          2   -1    0    0  501    0  0.00000000000E+00  0.00000000000E+00  0.84794478271E+02  0.84794478271E+02  0.00000000000E+00 0.  1.
         -2   -1    0    0    0  501 -0.00000000000E+00 -0.00000000000E+00 -0.21859391079E+03  0.21859391079E+03  0.00000000000E+00 0. -1.
         23    2    1    2    0    0  0.84611889138E+02 -0.12936417486E+02 -0.80909100791E+02  0.17174746065E+03  0.12499753985E+03 0.  0.
         23    2    1    2    0    0 -0.84611889138E+02  0.12936417486E+02 -0.52890331731E+02  0.13164092841E+03  0.84884769899E+02 0.  0.
          5    1    3    3  502    0  0.53595967732E+02 -0.59264377731E+02 -0.88692590676E+01  0.80532899993E+02  0.47000000000E+01 0. -1.
         -5    1    3    3    0  502  0.31015921406E+02  0.46327960245E+02 -0.72039841723E+02  0.91214560662E+02  0.47000000000E+01 0. -1.
        -11    1    4    4    0    0 -0.12752143427E+02  0.21652832700E+02 -0.53657695035E+02  0.59250405588E+02  0.00000000000E+00 0. -1.
         11    1    4    4    0    0 -0.71859745711E+02 -0.87164152147E+01  0.76736330327E+00  0.72390522821E+02  0.00000000000E+00 0.  1.
<mgrwt>
<rscale>  0 0.14308379E+03</rscale>
<asrwt>0</asrwt>
<pdfrwt beam="1">  1        2 0.13045305E-01 0.15149557E+03</pdfrwt>
<pdfrwt beam="2">  1       -2 0.33629832E-01 0.15149557E+03</pdfrwt>
<totfact> 0.36816950E+03</totfact>
</mgrwt>
</event>
<event>
 8    1  0.1550723E-005  0.1356657E+03  0.7546771E-02  0.1231120E+00
          1   -1    0    0  501    0  0.00000000000E+00  0.00000000000E+00  0.16835127637E+03  0.16835127637E+03  0.00000000000E+00 0. -1.
         -1   -1    0    0    0  501 -0.00000000000E+00 -0.00000000000E+00 -0.87331711121E+02  0.87331711121E+02  0.00000000000E+00 0.  1.
         23    2    1    2    0    0 -0.93882729176E+01 -0.51885006282E+02  0.35124233497E+02  0.14013883592E+03  0.12499995204E+03 0.  0.
         23    2    1    2    0    0  0.93882729176E+01  0.51885006282E+02  0.45895331748E+02  0.11554415157E+03  0.91999325757E+02 0.  0.
          5    1    3    3  502    0  0.57678021546E+02 -0.20499294081E+02  0.18255904577E+02  0.64049537697E+02  0.47000000000E+01 0. -1.
         -5    1    3    3    0  502 -0.67066294464E+02 -0.31385712201E+02  0.16868328920E+02  0.76089298222E+02  0.47000000000E+01 0. -1.
        -11    1    4    4    0    0  0.77495857415E+01  0.13816946403E+02 -0.28132147223E+02  0.32285938029E+02  0.00000000000E+00 0.  1.
         11    1    4    4    0    0  0.16386871761E+01  0.38068059879E+02  0.74027478971E+02  0.83258213537E+02  0.00000000000E+00 0. -1.
<mgrwt>
<rscale>  0 0.12756102E+03</rscale>
<asrwt>0</asrwt>
<pdfrwt beam="1">  1        1 0.25900196E-01 0.13566570E+03</pdfrwt>
<pdfrwt beam="2">  1       -1 0.13435648E-01 0.13566570E+03</pdfrwt>
<totfact> 0.66518860E+03</totfact>
</mgrwt>
</event>
<event>
 8    1  0.1550723E-005  0.1307377E+03  0.7546771E-02  0.1239966E+00
          2   -1    0    0  501    0  0.00000000000E+00  0.00000000000E+00  0.58560597055E+02  0.58560597055E+02  0.00000000000E+00 0. -1.
         -2   -1    0    0    0  501 -0.00000000000E+00 -0.00000000000E+00 -0.44161160227E+03  0.44161160227E+03  0.00000000000E+00 0.  1.
         23    2    1    2    0    0  0.60094314442E+01 -0.37833626294E+02 -0.37933394831E+03  0.40123133192E+03  0.12499936330E+03 0.  0.
         23    2    1    2    0    0 -0.60094314442E+01  0.37833626294E+02 -0.37170568991E+01  0.98940867403E+02  0.91148133199E+02 0.  0.
          5    1    3    3  502    0  0.65172852001E+02 -0.24900489276E+02 -0.20949221184E+03  0.22085427736E+03  0.47000000000E+01 0. -1.
         -5    1    3    3    0  502 -0.59163420557E+02 -0.12933137019E+02 -0.16984173647E+03  0.18037705456E+03  0.47000000000E+01 0. -1.
        -11    1    4    4    0    0 -0.13621170178E+02  0.44825979010E+02  0.35247702866E+02  0.58628535958E+02  0.00000000000E+00 0. -1.
         11    1    4    4    0    0  0.76117387340E+01 -0.69923527155E+01 -0.38964759765E+02  0.40312331446E+02  0.00000000000E+00 0.  1.
<mgrwt>
<rscale>  0 0.12191799E+03</rscale>
<asrwt>0</asrwt>
<pdfrwt beam="1">  1        2 0.90093223E-02 0.13073767E+03</pdfrwt>
<pdfrwt beam="2">  1       -2 0.67940249E-01 0.13073767E+03</pdfrwt>
<totfact> 0.14395622E+03</totfact>
</mgrwt>
</event>
<event>
 8    1  0.1550723E-005  0.1255212E+03  0.7546771E-02  0.1250098E+00
          3   -1    0    0  501    0  0.00000000000E+00  0.00000000000E+00  0.11277414579E+03  0.11277414579E+03  0.00000000000E+00 0. -1.
         -3   -1    0    0    0  501 -0.00000000000E+00 -0.00000000000E+00 -0.11512570651E+03  0.11512570651E+03  0.00000000000E+00 0.  1.
         23    2    1    2    0    0  0.11029799016E+02 -0.29562220216E+01 -0.36331990387E+02  0.13067358162E+03  0.12500070277E+03 0.  0.
         23    2    1    2    0    0 -0.11029799016E+02  0.29562220216E+01  0.33980429669E+02  0.97226270682E+02  0.90376337585E+02 0.  0.
          5    1    3    3  502    0  0.10409537205E+02  0.59795420703E+02 -0.28632756329E+02  0.67273884508E+02  0.47000000000E+01 0. -1.
         -5    1    3    3    0  502  0.62026181119E+00 -0.62751642724E+02 -0.76992340575E+01  0.63399697116E+02  0.47000000000E+01 0. -1.
        -11    1    4    4    0    0 -0.51396212781E+01  0.29080150880E+02  0.55502702655E+02  0.62869872627E+02  0.00000000000E+00 0. -1.
         11    1    4    4    0    0 -0.58901777378E+01 -0.26123928858E+02 -0.21522272987E+02  0.34356398055E+02  0.00000000000E+00 0.  1.
<mgrwt>
<rscale>  0 0.11585407E+03</rscale>
<asrwt>0</asrwt>
<pdfrwt beam="1">  1        3 0.17349869E-01 0.12552120E+03</pdfrwt>
<pdfrwt beam="2">  1       -3 0.17711647E-01 0.12552120E+03</pdfrwt>
<totfact> 0.18140518E+03</totfact>
</mgrwt>
</event>
<event>
 8    1  0.1550723E-005  0.1680706E+03  0.7546771E-02  0.1186640E+00
         -1   -1    0    0    0  501 -0.00000000000E+00  0.00000000000E+00  0.46534683604E+02  0.46534683604E+02  0.00000000000E+00 0.  1.
          1   -1    0    0  501    0  0.00000000000E+00 -0.00000000000E+00 -0.63903708282E+03  0.63903708282E+03  0.00000000000E+00 0. -1.
         23    2    1    2    0    0 -0.51146101399E+02 -0.10003187180E+03 -0.17003701178E+03  0.23908225852E+03  0.12500176758E+03 0.  0.
         23    2    1    2    0    0  0.51146101399E+02  0.10003187180E+03 -0.42246538743E+03  0.44648950790E+03  0.90849204857E+02 0.  0.
          5    1    3    3  502    0 -0.84548682925E+02 -0.84356428112E+02 -0.86208082845E+02  0.14737167399E+03  0.47000000000E+01 0.  1.
         -5    1    3    3    0  502  0.33402581526E+02 -0.15675443692E+02 -0.83828928940E+02  0.91710584529E+02  0.47000000000E+01 0.  1.
        -11    1    4    4    0    0  0.62913905410E+02  0.40726315186E+02 -0.30856773323E+03  0.31753871926E+03  0.00000000000E+00 0. -1.
         11    1    4    4    0    0 -0.11767804011E+02  0.59305556618E+02 -0.11389765420E+03  0.12895078864E+03  0.00000000000E+00 0.  1.
<mgrwt>
<rscale>  0 0.16183576E+03</rscale>
<asrwt>0</asrwt>
<pdfrwt beam="2">  1        1 0.98313395E-01 0.16807064E+03</pdfrwt>
<pdfrwt beam="1">  1       -1 0.71591823E-02 0.16807064E+03</pdfrwt>
<totfact> 0.32294143E+03</totfact>
</mgrwt>
</event>
<event>
 8    1  0.1550723E-005  0.1256073E+03  0.7546771E-02  0.1247597E+00
          2   -1    0    0  501    0  0.00000000000E+00  0.00000000000E+00  0.49611467811E+03  0.49611467811E+03  0.00000000000E+00 0. -1.
         -2   -1    0    0    0  501 -0.00000000000E+00 -0.00000000000E+00 -0.25970625902E+02  0.25970625902E+02  0.00000000000E+00 0.  1.
         23    2    1    2    0    0 -0.20334005007E+01 -0.12224112407E+02  0.20707221194E+03  0.24219021513E+03  0.12499454270E+03 0.  0.
         23    2    1    2    0    0  0.20334005007E+01  0.12224112407E+02  0.26307184027E+03  0.27989508888E+03  0.94767631593E+02 0.  0.
          5    1    3    3  502    0  0.20746042622E+02 -0.36001859430E+02  0.20460740858E+03  0.20883681144E+03  0.47000000000E+01 0. -1.
         -5    1    3    3    0  502 -0.22779443123E+02  0.23777747023E+02  0.24648033694E+01  0.33353403696E+02  0.47000000000E+01 0. -1.
        -11    1    4    4    0    0 -0.35447954381E+02  0.29887145882E+02  0.82558893640E+02  0.94687749355E+02  0.00000000000E+00 0.  1.
         11    1    4    4    0    0  0.37481354882E+02 -0.17663033474E+02  0.18051294663E+03  0.18520733953E+03  0.00000000000E+00 0. -1.
<mgrwt>
<rscale>  0 0.11731313E+03</rscale>
<asrwt>0</asrwt>
<pdfrwt beam="1">  1        2 0.76325328E-01 0.12560732E+03</pdfrwt>
<pdfrwt beam="2">  1       -2 0.39954813E-02 0.12560732E+03</pdfrwt>
<totfact> 0.16218198E+04</totfact>
</mgrwt>
</event>
<event>
 8    1  0.1550723E-005  0.2107629E+03  0.7546771E-02  0.1144618E+00
          1   -1    0    0  501    0  0.00000000000E+00  0.00000000000E+00  0.48478706891E+03  0.48478706891E+03  0.00000000000E+00 0.  1.
         -1   -1    0    0    0  501 -0.00000000000E+00 -0.00000000000E+00 -0.85237836397E+02  0.85237836397E+02  0.00000000000E+00 0. -1.
         23    2    1    2    0    0 -0.12712897190E+02  0.16921837233E+03  0.17547610808E+03  0.27424963050E+03  0.12499808013E+03 0.  0.
         23    2    1    2    0    0  0.12712897190E+02 -0.16921837233E+03  0.22407312443E+03  0.29577527481E+03  0.92074821785E+02 0.  0.
          5    1    3    3  502    0  0.51511404936E+02  0.89473582036E+02  0.58644270878E+02  0.11882839403E+03  0.47000000000E+01 0. -1.
         -5    1    3    3    0  502 -0.64224302126E+02  0.79744790290E+02  0.11683183721E+03  0.15542123647E+03  0.47000000000E+01 0. -1.
        -11    1    4    4    0    0  0.19555914327E+02  0.37457523708E+01  0.21026660070E+02  0.28958330057E+02  0.00000000000E+00 0.  1.
         11    1    4    4    0    0 -0.68430171378E+01 -0.17296412470E+03  0.20304646436E+03  0.26681694475E+03  0.00000000000E+00 0. -1.
<mgrwt>
<rscale>  0 0.20619196E+03</rscale>
<asrwt>0</asrwt>
<pdfrwt beam="1">  1        1 0.74582624E-01 0.21076289E+03</pdfrwt>
<pdfrwt beam="2">  1       -1 0.13113514E-01 0.21076289E+03</pdfrwt>
<totfact> 0.18623133E+03</totfact>
</mgrwt>
</event>
<event>
 8    1  0.1550723E-005  0.1552041E+03  0.7546771E-02  0.1202401E+00
         -1   -1    0    0    0  501 -0.00000000000E+00  0.00000000000E+00  0.79921084954E+02  0.79921084954E+02  0.00000000000E+00 0.  1.
          1   -1    0    0  501    0  0.00000000000E+00 -0.00000000000E+00 -0.27002810355E+03  0.27002810355E+03  0.00000000000E+00 0. -1.
         23    2    1    2    0    0 -0.72154888619E+02 -0.57067677437E+02 -0.60817529665E+02  0.16669456676E+03  0.12500103565E+03 0.  0.
         23    2    1    2    0    0  0.72154888619E+02  0.57067677437E+02 -0.12928948893E+03  0.18325462175E+03  0.91670260626E+02 0.  0.
          5    1    3    3  502    0 -0.37045844249E+00  0.17180523271E+02 -0.60754006420E+02  0.63312296715E+02  0.47000000000E+01 0.  1.
         -5    1    3    3    0  502 -0.71784430176E+02 -0.74248200708E+02 -0.63523245601E-01  0.10338227004E+03  0.47000000000E+01 0.  1.
        -11    1    4    4    0    0 -0.61089645073E+01  0.46096025157E+02 -0.71741700505E+02  0.85492891950E+02  0.00000000000E+00 0.  1.
         11    1    4    4    0    0  0.78263853126E+02  0.10971652280E+02 -0.57547788428E+02  0.97761729797E+02  0.00000000000E+00 0. -1.
<mgrwt>
<rscale>  0 0.14844153E+03</rscale>
<asrwt>0</asrwt>
<pdfrwt beam="2">  1        1 0.41542785E-01 0.15520408E+03</pdfrwt>
<pdfrwt beam="1">  1       -1 0.12295552E-01 0.15520408E+03</pdfrwt>
<totfact> 0.42751811E+03</totfact>
</mgrwt>
</event>
<event>
 7    1  0.1550723E-005  0.7799168E+03  0.7546771E-02  0.9781937E-01
          1   -1    0    0  501    0  0.00000000000E+00  0.00000000000E+00  0.85550710452E+03  0.85550710452E+03  0.00000000000E+00 0. -1.
         -1   -1    0    0    0  501 -0.00000000000E+00 -0.00000000000E+00 -0.59961154325E+03  0.59961154325E+03  0.00000000000E+00 0.  1.
         23    2    1    2    0    0  0.25361474411E+03 -0.30695310890E+03  0.49284121565E+03  0.64000306957E+03  0.90392564612E+02 0.  0.
          5    1    1    2  502    0 -0.27628981521E+03  0.13125824140E+03  0.18497096112E+03  0.35749284522E+03  0.47000000000E+01 0. -1.
         -5    1    1    2    0  502  0.22675071102E+02  0.17569486750E+03 -0.42191661550E+03  0.45762273299E+03  0.47000000000E+01 0.  1.
        -11    1    3    3    0    0  0.23211490129E+03 -0.22392102698E+03  0.39150010752E+03  0.50723790070E+03  0.00000000000E+00 0.  1.
         11    1    3    3    0    0  0.21499842817E+02 -0.83032081920E+02  0.10134110813E+03  0.13276516887E+03  0.00000000000E+00 0. -1.
<mgrwt>
<rscale>  0 0.66340979E+03</rscale>
<asrwt>0</asrwt>
<pdfrwt beam="1">  1        1 0.13161648E+00 0.77991677E+03</pdfrwt>
<pdfrwt beam="2">  1       -1 0.92247930E-01 0.77991677E+03</pdfrwt>
<totfact> 0.23199005E+01</totfact>
</mgrwt>
</event>
<event>
 7    1  0.1550723E-005  0.2415773E+03  0.7546771E-02  0.1150404E+00
          2   -1    0    0  501    0  0.00000000000E+00  0.00000000000E+00  0.11923316242E+04  0.11923316242E+04  0.00000000000E+00 0. -1.
         -2   -1    0    0    0  501 -0.00000000000E+00 -0.00000000000E+00 -0.27718383595E+02  0.27718383595E+02  0.00000000000E+00 0.  1.
         23    2    1    2    0    0 -0.44208121085E+02 -0.48486790936E+02  0.51486699786E+03  0.52684747641E+03  0.90415214702E+02 0.  0.
          5    1    1    2  502    0 -0.35618814831E+02  0.90779627288E+02  0.54978573840E+03  0.55838704216E+03  0.47000000000E+01 0. -1.
         -5    1    1    2    0  502  0.79826935915E+02 -0.42292836352E+02  0.99960504311E+02  0.13481548919E+03  0.47000000000E+01 0.  1.
        -11    1    3    3    0    0  0.17083713539E+02 -0.45835169373E+02  0.27120094309E+03  0.27557697210E+03  0.00000000000E+00 0.  1.
         11    1    3    3    0    0 -0.61291834624E+02 -0.26516215632E+01  0.24366605477E+03  0.25127050431E+03  0.00000000000E+00 0. -1.
<mgrwt>
<rscale>  0 0.19921401E+03</rscale>
<asrwt>0</asrwt>
<pdfrwt beam="1">  1        2 0.18343559E+00 0.24157725E+03</pdfrwt>
<pdfrwt beam="2">  1       -2 0.42643676E-02 0.24157725E+03</pdfrwt>
<totfact> 0.50154575E+03</totfact>
</mgrwt>
</event>
<event>
 8    1  0.1550723E-005  0.1589730E+03  0.7546771E-02  0.1198089E+00
          2   -1    0    0  501    0  0.00000000000E+00  0.00000000000E+00  0.67842516135E+03  0.67842516135E+03  0.00000000000E+00 0. -1.
         -2   -1    0    0    0  501 -0.00000000000E+00 -0.00000000000E+00 -0.32480666195E+02  0.32480666195E+02  0.00000000000E+00 0.  1.
         23    2    1    2    0    0  0.51011432854E+02 -0.83938052428E+02  0.28503827991E+03  0.32637283697E+03  0.12499857907E+03 0.  0.
         23    2    1    2    0    0 -0.51011432854E+02  0.83938052428E+02  0.36090621524E+03  0.38453299057E+03  0.89244393166E+02 0.  0.
          5    1    3    3  502    0  0.24599103751E+02 -0.11507473114E+03  0.21639608347E+03  0.24636693080E+03  0.47000000000E+01 0. -1.
         -5    1    3    3    0  502  0.26412329103E+02  0.31136678709E+02  0.68642196442E+02  0.80005906170E+02  0.47000000000E+01 0. -1.
        -11    1    4    4    0    0 -0.50430788680E+02  0.40194785854E+01  0.10723162818E+03  0.11856661729E+03  0.00000000000E+00 0.  1.
         11    1    4    4    0    0 -0.58064417354E+00  0.79918573843E+02  0.25367458707E+03  0.26596637328E+03  0.00000000000E+00 0. -1.
<mgrwt>
<rscale>  0 0.15195660E+03</rscale>
<asrwt>0</asrwt>
<pdfrwt beam="1">  1        2 0.10437309E+00 0.15897298E+03</pdfrwt>
<pdfrwt beam="2">  1       -2 0.49970261E-02 0.15897298E+03</pdfrwt>
<totfact> 0.82761945E+03</totfact>
</mgrwt>
</event>
<event>
 8    1  0.1550723E-005  0.2055169E+03  0.7546771E-02  0.1148948E+00
          1   -1    0    0  501    0  0.00000000000E+00  0.00000000000E+00  0.75132387866E+03  0.75132387866E+03  0.00000000000E+00 0. -1.
         -1   -1    0    0    0  501 -0.00000000000E+00 -0.00000000000E+00 -0.67297148309E+02  0.67297148309E+02  0.00000000000E+00 0.  1.
         23    2    1    2    0    0 -0.15518074209E+03  0.50296333984E+02  0.15550061749E+03  0.25771623436E+03  0.12500572581E+03 0.  0.
         23    2    1    2    0    0  0.15518074209E+03 -0.50296333984E+02  0.52852611286E+03  0.56090479260E+03  0.93078195416E+02 0.  0.
          5    1    3    3  502    0 -0.81355936678E+02 -0.11371375658E+02  0.95210373402E+01  0.82830168230E+02  0.47000000000E+01 0.  1.
         -5    1    3    3    0  502 -0.73824805414E+02  0.61667709642E+02  0.14597958015E+03  0.17488606613E+03  0.47000000000E+01 0.  1.
        -11    1    4    4    0    0  0.75931753474E+02 -0.11192385855E+02  0.11651498047E+03  0.13952290622E+03  0.00000000000E+00 0.  1.
         11    1    4    4    0    0  0.79248988617E+02 -0.39103948129E+02  0.41201113239E+03  0.42138188638E+03  0.00000000000E+00 0. -1.
<mgrwt>
<rscale>  0 0.20094078E+03</rscale>
<asrwt>0</asrwt>
<pdfrwt beam="1">  1        1 0.11558828E+00 0.20551695E+03</pdfrwt>
<pdfrwt beam="2">  1       -1 0.10353408E-01 0.20551695E+03</pdfrwt>
<totfact> 0.14622112E+03</totfact>
</mgrwt>
</event>
<event>
 8    1  0.1550723E-005  0.1799176E+03  0.7546771E-02  0.1173290E+00
         -1   -1    0    0    0  501 -0.00000000000E+00  0.00000000000E+00  0.88588814005E+02  0.88588814005E+02  0.00000000000E+00 0.  1.
          1   -1    0    0  501    0  0.00000000000E+00 -0.00000000000E+00 -0.32438577617E+03  0.32438577617E+03  0.00000000000E+00 0. -1.
         23    2    1    2    0    0  0.25347958771E+02  0.12690112329E+03 -0.13054998618E+03  0.22229182445E+03  0.12499576881E+03 0.  0.
         23    2    1    2    0    0 -0.25347958771E+02 -0.12690112329E+03 -0.10524697599E+03  0.19068276572E+03  0.92393598704E+02 0.  0.
          5    1    3    3  502    0  0.23900589235E+02  0.14764758666E+03 -0.13378359136E+03  0.20072664828E+03  0.47000000000E+01 0. -1.
         -5    1    3    3    0  502  0.14473695366E+01 -0.20746463369E+02  0.32336051792E+01  0.21565176173E+02  0.47000000000E+01 0. -1.
        -11    1    4    4    0    0 -0.40944547707E+02 -0.22233967586E+02 -0.86221175038E+01  0.47382973860E+02  0.00000000000E+00 0. -1.
         11    1    4    4    0    0  0.15596588936E+02 -0.10466715571E+03 -0.96624858486E+02  0.14329979186E+03  0.00000000000E+00 0.  1.
<mgrwt>
<rscale>  0 0.17444513E+03</rscale>
<asrwt>0</asrwt>
<pdfrwt beam="2">  1        1 0.49905503E-01 0.17991764E+03</pdfrwt>
<pdfrwt beam="1">  1       -1 0.13629049E-01 0.17991764E+03</pdfrwt>
<totfact> 0.29163890E+03</totfact>
</mgrwt>
</event>
<event>
 8    1  0.1550723E-005  0.1565932E+03  0.7546771E-02  0.1200735E+00
          3   -1    0    0  501    0  0.00000000000E+00  0.00000000000E+00  0.45072427447E+02  0.45072427447E+02  0.00000000000E+00 0. -1.
         -3   -1    0    0    0  501 -0.00000000000E+00 -0.00000000000E+00 -0.46021433065E+03  0.46021433065E+03  0.00000000000E+00 0.  1.
         23    2    1    2    0    0 -0.78231089703E+02 -0.52684589657E+02 -0.21330326938E+03  0.26461235993E+03  0.12500258763E+03 0.  0.
         23    2    1    2    0    0  0.78231089703E+02  0.52684589657E+02 -0.20183863382E+03  0.24067439817E+03  0.91047034263E+02 0.  0.
          5    1    3    3  502    0 -0.14903957624E+02 -0.48321861755E+02 -0.10241496409E+02  0.51808382767E+02  0.47000000000E+01 0.  1.
         -5    1    3    3    0  502 -0.63327132078E+02 -0.43627279020E+01 -0.20306177297E+03  0.21280397716E+03  0.47000000000E+01 0.  1.
        -11    1    4    4    0    0  0.82690206140E+02  0.41486003512E+02 -0.20762516009E+03  0.22730368625E+03  0.00000000000E+00 0.  1.
         11    1    4    4    0    0 -0.44591164378E+01  0.11198586144E+02  0.57865262691E+01  0.13370711922E+02  0.00000000000E+00 0. -1.
<mgrwt>
<rscale>  0 0.14978707E+03</rscale>
<asrwt>0</asrwt>
<pdfrwt beam="1">  1        3 0.69342196E-02 0.15659316E+03</pdfrwt>
<pdfrwt beam="2">  1       -3 0.70802205E-01 0.15659316E+03</pdfrwt>
<totfact> 0.61843369E+02</totfact>
</mgrwt>
</event>
