<event>
 8    1  0.6840032E-009  0.9767491E+02  0.7561462E-02  0.1285263E+00
         -2   -1    0    0    0  501 -0.00000000000E+00  0.00000000000E+00  0.43527602062E+03  0.43527602062E+03  0.00000000000E+00 0.  1.
          2   -1    0    0  501    0  0.00000000000E+00 -0.00000000000E+00 -0.30184813235E+02  0.30184813235E+02  0.00000000000E+00 0. -1.
         25    2    1    2    0    0  0.10817981181E+02  0.22707615182E+02  0.17725920855E+03  0.21840466301E+03  0.12508838997E+03 0.  0.
         23    2    1    2    0    0 -0.10817981181E+02 -0.22707615182E+02  0.22783199884E+03  0.24705617084E+03  0.92177368990E+02 0.  0.
          5    1    3    3  502    0  0.28681401508E+02  0.70357762472E+02  0.11482678393E+03  0.13775158888E+03  0.41800000000E+01 0.  1.
         -5    1    3    3    0  502 -0.17863420327E+02 -0.47650147290E+02  0.62432424621E+02  0.80653074130E+02  0.41800000000E+01 0.  1.
        -11    1    4    4    0    0 -0.34381415860E+02  0.14992485801E+01  0.20097290003E+03  0.20389810212E+03  0.00000000000E+00 0.  1.
         11    1    4    4    0    0  0.23563434679E+02 -0.24206863762E+02  0.26859098808E+02  0.43158068722E+02  0.00000000000E+00 0. -1.
</event>
<event>
 8    1  0.6840032E-009  0.9760644E+02  0.7561462E-02  0.1285411E+00
         -1   -1    0    0    0  501 -0.00000000000E+00  0.00000000000E+00  0.69710471104E+02  0.69710471104E+02  0.00000000000E+00 0.  1.
          1   -1    0    0  501    0  0.00000000000E+00 -0.00000000000E+00 -0.20935219952E+03  0.20935219952E+03  0.00000000000E+00 0. -1.
         25    2    1    2    0    0  0.33106690911E+02 -0.22647882249E+02 -0.32797077824E+02  0.13539385753E+03  0.12508744457E+03 0.  0.
         23    2    1    2    0    0 -0.33106690911E+02  0.22647882249E+02 -0.10684465059E+03  0.14366881309E+03  0.87269518973E+02 0.  0.
          5    1    3    3  502    0 -0.37392814627E+02  0.15971770692E+02  0.12863809683E+02  0.42851721603E+02  0.41800000000E+01 0.  1.
         -5    1    3    3    0  502  0.70499505538E+02 -0.38619652940E+02 -0.45660887507E+02  0.92542135929E+02  0.41800000000E+01 0.  1.
        -11    1    4    4    0    0 -0.19351333632E+02  0.44214971448E+02 -0.18488500192E+02  0.51684257302E+02  0.00000000000E+00 0.  1.
         11    1    4    4    0    0 -0.13755357279E+02 -0.21567089199E+02 -0.88356150401E+02  0.91984555791E+02  0.00000000000E+00 0. -1.
</event>
<event>
 8    1  0.6840032E-009  0.1785233E+03  0.7561462E-02  0.1169240E+00
          1   -1    0    0  501    0  0.00000000000E+00  0.00000000000E+00  0.46716181934E+02  0.46716181934E+02  0.00000000000E+00 0. -1.
         -1   -1    0    0    0  501 -0.00000000000E+00 -0.00000000000E+00 -0.75629788014E+03  0.75629788014E+03  0.00000000000E+00 0.  1.
         25    2    1    2    0    0  0.15397046459E+03 -0.29781965075E+01 -0.41994044366E+03  0.46445189190E+03  0.12509920081E+03 0.  0.
         23    2    1    2    0    0 -0.15397046459E+03  0.29781965075E+01 -0.28964125455E+03  0.33856217018E+03  0.83764629286E+02 0.  0.
          5    1    3    3  502    0  0.17553131947E+02  0.35651511516E+02 -0.31366022966E+02  0.50798056175E+02  0.41800000000E+01 0.  1.
         -5    1    3    3    0  502  0.13641733265E+03 -0.38629708023E+02 -0.38857442070E+03  0.41365383572E+03  0.41800000000E+01 0.  1.
        -11    1    4    4    0    0 -0.81832206266E+02  0.43322608419E+02 -0.15746235662E+03  0.18266842129E+03  0.00000000000E+00 0.  1.
         11    1    4    4    0    0 -0.72138258327E+02 -0.40344411911E+02 -0.13217889792E+03  0.15589374889E+03  0.00000000000E+00 0. -1.
</event>
<event>
 8    1  0.6840032E-009  0.1861197E+03  0.7561462E-02  0.1162008E+00
         -1   -1    0    0    0  501 -0.00000000000E+00  0.00000000000E+00  0.98186048652E+02  0.98186048652E+02  0.00000000000E+00 0. -1.
          1   -1    0    0  501    0  0.00000000000E+00 -0.00000000000E+00 -0.55617339115E+03  0.55617339115E+03  0.00000000000E+00 0.  1.
         25    2    1    2    0    0 -0.15920783801E+03 -0.36505303232E+02 -0.60150400712E+02  0.21434819853E+03  0.12508919482E+03 0.  0.
         23    2    1    2    0    0  0.15920783801E+03  0.36505303232E+02 -0.39783694179E+03  0.44001124127E+03  0.93037021395E+02 0.  0.
          5    1    3    3  502    0  0.80450147295E+01 -0.18056851483E+02  0.19548462595E+02  0.28113821109E+02  0.41800000000E+01 0. -1.
         -5    1    3    3    0  502 -0.16725285274E+03 -0.18448451748E+02 -0.79698863307E+02  0.18623437742E+03  0.41800000000E+01 0. -1.
        -11    1    4    4    0    0  0.10101544598E+03 -0.19579317855E+02 -0.17548550369E+03  0.20342721553E+03  0.00000000000E+00 0. -1.
         11    1    4    4    0    0  0.58192392030E+02  0.56084621086E+02 -0.22235143810E+03  0.23658402574E+03  0.00000000000E+00 0.  1.
</event>
<event>
 8    1  0.6840032E-009  0.9289209E+02  0.7561462E-02  0.1295995E+00
          1   -1    0    0  501    0  0.00000000000E+00  0.00000000000E+00  0.55216975452E+02  0.55216975452E+02  0.00000000000E+00 0. -1.
         -1   -1    0    0    0  501 -0.00000000000E+00 -0.00000000000E+00 -0.23659440006E+03  0.23659440006E+03  0.00000000000E+00 0.  1.
         25    2    1    2    0    0 -0.33324024343E+01  0.33206721451E+02 -0.91882883605E+02  0.15875559939E+03  0.12508830794E+03 0.  0.
         23    2    1    2    0    0  0.33324024343E+01 -0.33206721451E+02 -0.89494541001E+02  0.13305577612E+03  0.92632475052E+02 0.  0.
          5    1    3    3  502    0 -0.49748122951E+02  0.11380505802E+02  0.24889368599E+01  0.51264596518E+02  0.41800000000E+01 0.  1.
         -5    1    3    3    0  502  0.46415720516E+02  0.21826215650E+02 -0.94371820465E+02  0.10749100287E+03  0.41800000000E+01 0.  1.
        -11    1    4    4    0    0  0.25746504828E+02  0.15112288726E+02 -0.70406140341E+02  0.76474102670E+02  0.00000000000E+00 0.  1.
         11    1    4    4    0    0 -0.22414102394E+02 -0.48319010177E+02 -0.19088400660E+02  0.56581673450E+02  0.00000000000E+00 0. -1.
</event>
<event>
 8    1  0.6840032E-009  0.2282761E+03  0.7561462E-02  0.1127859E+00
         -3   -1    0    0    0  501 -0.00000000000E+00  0.00000000000E+00  0.12193806586E+03  0.12193806586E+03  0.00000000000E+00 0.  1.
          3   -1    0    0  501    0  0.00000000000E+00 -0.00000000000E+00 -0.46666195665E+03  0.46666195665E+03  0.00000000000E+00 0. -1.
         25    2    1    2    0    0  0.20431323253E+03  0.53395605753E+02 -0.15386956491E+03  0.28968813582E+03  0.12509350633E+03 0.  0.
         23    2    1    2    0    0 -0.20431323253E+03 -0.53395605753E+02 -0.19085432588E+03  0.29891188669E+03  0.91257627620E+02 0.  0.
          5    1    3    3  502    0  0.97606406334E+02  0.74494628044E+02 -0.33383038055E+02  0.12731205675E+03  0.41800000000E+01 0.  1.
         -5    1    3    3    0  502  0.10670682620E+03 -0.21099022291E+02 -0.12048652686E+03  0.16237607907E+03  0.41800000000E+01 0.  1.
        -11    1    4    4    0    0 -0.17244045252E+03 -0.73182067354E+02 -0.13216646714E+03  0.22925815074E+03  0.00000000000E+00 0.  1.
         11    1    4    4    0    0 -0.31872780018E+02  0.19786461600E+02 -0.58687858737E+02  0.69653735951E+02  0.00000000000E+00 0. -1.
</event>
<event>
 8    1  0.6840032E-009  0.9800336E+02  0.7561462E-02  0.1284552E+00
         -1   -1    0    0    0  501 -0.00000000000E+00  0.00000000000E+00  0.30408294294E+02  0.30408294294E+02  0.00000000000E+00 0.  1.
          1   -1    0    0  501    0  0.00000000000E+00 -0.00000000000E+00 -0.63320868769E+03  0.63320868769E+03  0.00000000000E+00 0. -1.
         25    2    1    2    0    0  0.37743310710E+02  0.77792486784E+02 -0.33204398028E+03  0.36520997018E+03  0.12509551940E+03 0.  0.
         23    2    1    2    0    0 -0.37743310710E+02 -0.77792486784E+02 -0.27075641311E+03  0.29840701180E+03  0.90892689189E+02 0.  0.
          5    1    3    3  502    0  0.12434686574E+02  0.62428376333E+02 -0.48606461716E+02  0.80199651635E+02  0.41800000000E+01 0.  1.
         -5    1    3    3    0  502  0.25308624136E+02  0.15364110451E+02 -0.28343751857E+03  0.28501031855E+03  0.41800000000E+01 0.  1.
        -11    1    4    4    0    0  0.75233601231E+01 -0.46926241003E+02 -0.42794164635E+02  0.63953213907E+02  0.00000000000E+00 0.  1.
         11    1    4    4    0    0 -0.45266670833E+02 -0.30866245781E+02 -0.22796224847E+03  0.23445379789E+03  0.00000000000E+00 0. -1.
</event>
<event>
 8    1  0.6840032E-009  0.1397440E+03  0.7561462E-02  0.1213674E+00
          1   -1    0    0  501    0  0.00000000000E+00  0.00000000000E+00  0.51588756849E+02  0.51588756849E+02  0.00000000000E+00 0.  1.
         -1   -1    0    0    0  501 -0.00000000000E+00 -0.00000000000E+00 -0.59159628115E+03  0.59159628115E+03  0.00000000000E+00 0. -1.
         25    2    1    2    0    0 -0.11235655657E+03 -0.13378329051E+02 -0.42846171918E+03  0.46046634629E+03  0.12508731261E+03 0.  0.
         23    2    1    2    0    0  0.11235655657E+03  0.13378329051E+02 -0.11154580513E+03  0.18271869171E+03  0.90225706785E+02 0.  0.
          5    1    3    3  502    0  0.20922501078E+02 -0.38362706630E+01 -0.15020853965E+03  0.15176477130E+03  0.41800000000E+01 0. -1.
         -5    1    3    3    0  502 -0.13327905765E+03 -0.95420583879E+01 -0.27825317953E+03  0.30870157499E+03  0.41800000000E+01 0. -1.
        -11    1    4    4    0    0  0.67384460855E+02 -0.17441313846E+02 -0.14041379165E+02  0.71007220212E+02  0.00000000000E+00 0.  1.
         11    1    4    4    0    0  0.44972095718E+02  0.30819642897E+02 -0.97504425962E+02  0.11171147150E+03  0.00000000000E+00 0. -1.
</event>
<event>
 8    1  0.6840032E-009  0.1301277E+03  0.7561462E-02  0.1227266E+00
         -1   -1    0    0    0  501 -0.00000000000E+00  0.00000000000E+00  0.22792578757E+03  0.22792578757E+03  0.00000000000E+00 0.  1.
          1   -1    0    0  501    0  0.00000000000E+00 -0.00000000000E+00 -0.11878135499E+03  0.11878135499E+03  0.00000000000E+00 0. -1.
         25    2    1    2    0    0 -0.29862089751E+02 -0.76310011796E+02  0.15477569138E+03  0.21521569568E+03  0.12508924303E+03 0.  0.
         23    2    1    2    0    0  0.29862089751E+02  0.76310011796E+02 -0.45631258796E+02  0.13149144687E+03  0.92156532688E+02 0.  0.
          5    1    3    3  502    0 -0.26443082246E+02  0.27782494511E+02  0.73610741210E+02  0.83109068226E+02  0.41800000000E+01 0. -1.
         -5    1    3    3    0  502 -0.34190075047E+01 -0.10409250631E+03  0.81164950168E+02  0.13210662745E+03  0.41800000000E+01 0. -1.
        -11    1    4    4    0    0  0.70306024654E+01 -0.18567950467E+02  0.64514528035E+01  0.20876287956E+02  0.00000000000E+00 0.  1.
         11    1    4    4    0    0  0.22831487285E+02  0.94877962263E+02 -0.52082711600E+02  0.11061515892E+03  0.00000000000E+00 0. -1.
</event>
<event>
 8    1  0.6840032E-009  0.1078509E+03  0.7561462E-02  0.1264602E+00
         -1   -1    0    0    0  501 -0.00000000000E+00  0.00000000000E+00  0.47633295468E+02  0.47633295468E+02  0.00000000000E+00 0.  1.
          1   -1    0    0  501    0  0.00000000000E+00 -0.00000000000E+00 -0.35883550506E+03  0.35883550506E+03  0.00000000000E+00 0. -1.
         25    2    1    2    0    0  0.43767850972E+02 -0.58955486974E+02 -0.12938634243E+03  0.19436915059E+03  0.12508863607E+03 0.  0.
         23    2    1    2    0    0 -0.43767850972E+02  0.58955486974E+02 -0.18181586716E+03  0.21209964993E+03  0.80857143939E+02 0.  0.
          5    1    3    3  502    0  0.82702247718E+01  0.19042083366E+02  0.15321573408E+02  0.26138488258E+02  0.41800000000E+01 0. -1.
         -5    1    3    3    0  502  0.35497626200E+02 -0.77997570341E+02 -0.14470791584E+03  0.16823066234E+03  0.41800000000E+01 0. -1.
        -11    1    4    4    0    0 -0.16519539696E+02  0.75207506529E+02 -0.13758645677E+03  0.15766768000E+03  0.00000000000E+00 0.  1.
         11    1    4    4    0    0 -0.27248311276E+02 -0.16252019555E+02 -0.44229410396E+02  0.54431969934E+02  0.00000000000E+00 0. -1.
</event>
<event>
 8    1  0.6840032E-009  0.1127737E+03  0.7561462E-02  0.1255518E+00
         -2   -1    0    0    0  501 -0.00000000000E+00  0.00000000000E+00  0.52197432046E+02  0.52197432046E+02  0.00000000000E+00 0.  1.
          2   -1    0    0  501    0  0.00000000000E+00 -0.00000000000E+00 -0.34644144009E+03  0.34644144009E+03  0.00000000000E+00 0. -1.
         25    2    1    2    0    0 -0.55676687952E+02 -0.45667733127E+01 -0.85822057576E+02  0.16166229281E+03  0.12509405402E+03 0.  0.
         23    2    1    2    0    0  0.55676687952E+02  0.45667733127E+01 -0.20842195047E+03  0.23697657933E+03  0.97966528521E+02 0.  0.
          5    1    3    3  502    0 -0.27489876407E+01 -0.54236320517E+02 -0.78097004103E+01  0.55023624170E+02  0.41800000000E+01 0.  1.
         -5    1    3    3    0  502 -0.52927700311E+02  0.49669547204E+02 -0.78012357166E+02  0.10663866864E+03  0.41800000000E+01 0.  1.
        -11    1    4    4    0    0 -0.20050689224E+02  0.10093508189E+02 -0.10097822521E+02  0.24614529562E+02  0.00000000000E+00 0.  1.
         11    1    4    4    0    0  0.75727377175E+02 -0.55267348759E+01 -0.19832412795E+03  0.21236204976E+03  0.00000000000E+00 0. -1.
</event>
<event>
 8    1  0.6840032E-009  0.1061145E+03  0.7561462E-02  0.1267939E+00
          1   -1    0    0  501    0  0.00000000000E+00  0.00000000000E+00  0.23119988967E+03  0.23119988967E+03  0.00000000000E+00 0. -1.
         -1   -1    0    0    0  501 -0.00000000000E+00 -0.00000000000E+00 -0.87010820257E+02  0.87010820257E+02  0.00000000000E+00 0.  1.
         25    2    1    2    0    0  0.82863616922E+02  0.23405076199E+01  0.28803618350E+02  0.15280374977E+03  0.12508988980E+03 0.  0.
         23    2    1    2    0    0 -0.82863616922E+02 -0.23405076199E+01  0.11538545107E+03  0.16540696016E+03  0.84698306746E+02 0.  0.
          5    1    3    3  502    0 -0.14713110651E+02 -0.12890683825E+02  0.48097926499E+02  0.52091537585E+02  0.41800000000E+01 0.  1.
         -5    1    3    3    0  502  0.97576727573E+02  0.15231191445E+02 -0.19294308150E+02  0.10071221219E+03  0.41800000000E+01 0.  1.
        -11    1    4    4    0    0 -0.64110410319E+02  0.17116594514E+02  0.12081992463E+03  0.13784257944E+03  0.00000000000E+00 0.  1.
         11    1    4    4    0    0 -0.18753206603E+02 -0.19457102134E+02 -0.54344735659E+01  0.27564380716E+02  0.00000000000E+00 0. -1.
</event>
<event>
 8    1  0.6840032E-009  0.9177473E+02  0.7561462E-02  0.1298610E+00
          1   -1    0    0  501    0  0.00000000000E+00  0.00000000000E+00  0.51468937323E+03  0.51468937323E+03  0.00000000000E+00 0. -1.
         -1   -1    0    0    0  501 -0.00000000000E+00 -0.00000000000E+00 -0.29881623829E+02  0.29881623829E+02  0.00000000000E+00 0.  1.
         25    2    1    2    0    0 -0.18951858050E+02  0.31060619757E+02  0.37213296205E+03  0.39427775315E+03  0.12509224661E+03 0.  0.
         23    2    1    2    0    0  0.18951858050E+02 -0.31060619757E+02  0.11267478735E+03  0.15029324391E+03  0.92566281317E+02 0.  0.
          5    1    3    3  502    0  0.86370689951E+01 -0.43275978015E+02  0.79053063009E+02  0.90632601227E+02  0.41800000000E+01 0.  1.
         -5    1    3    3    0  502 -0.27588927046E+02  0.74336597773E+02  0.29307989904E+03  0.30364515192E+03  0.41800000000E+01 0.  1.
        -11    1    4    4    0    0  0.18897240900E+01  0.12706366726E+02 -0.11679742073E+02  0.17362004130E+02  0.00000000000E+00 0.  1.
         11    1    4    4    0    0  0.17062133960E+02 -0.43766986483E+02  0.12435452942E+03  0.13293123978E+03  0.00000000000E+00 0. -1.
</event>
<event>
 8    1  0.6840032E-009  0.1331971E+03  0.7561462E-02  0.1222787E+00
         -2   -1    0    0    0  501 -0.00000000000E+00  0.00000000000E+00  0.50168493171E+02  0.50168493171E+02  0.00000000000E+00 0.  1.
          2   -1    0    0  501    0  0.00000000000E+00 -0.00000000000E+00 -0.58394595259E+03  0.58394595259E+03  0.00000000000E+00 0. -1.
         25    2    1    2    0    0  0.62559006445E+02  0.77974418602E+02 -0.42819424749E+03  0.45715741860E+03  0.12509577354E+03 0.  0.
         23    2    1    2    0    0 -0.62559006445E+02 -0.77974418602E+02 -0.10558321193E+03  0.17695702716E+03  0.10085799708E+03 0.  0.
          5    1    3    3  502    0  0.17830274998E+02 -0.15553283379E+02 -0.95636547557E+01  0.25860379399E+02  0.41800000000E+01 0.  1.
         -5    1    3    3    0  502  0.44728731446E+02  0.93527701982E+02 -0.41863059273E+03  0.43129703920E+03  0.41800000000E+01 0.  1.
        -11    1    4    4    0    0  0.41434148684E+01 -0.71471343418E+02 -0.35224214838E+02  0.79787631420E+02  0.00000000000E+00 0.  1.
         11    1    4    4    0    0 -0.66702421313E+02 -0.65030751844E+01 -0.70358997094E+02  0.97169395737E+02  0.00000000000E+00 0. -1.
</event>
<event>
 8    1  0.6840032E-009  0.7570862E+02  0.7561462E-02  0.1341691E+00
         -1   -1    0    0    0  501 -0.00000000000E+00  0.00000000000E+00  0.41010042709E+02  0.41010042709E+02  0.00000000000E+00 0.  1.
          1   -1    0    0  501    0  0.00000000000E+00 -0.00000000000E+00 -0.53831978600E+03  0.53831978600E+03  0.00000000000E+00 0. -1.
         25    2    1    2    0    0 -0.23943587815E+02  0.21298449032E+02 -0.81923518612E+02  0.15292525445E+03  0.12509097177E+03 0.  0.
         23    2    1    2    0    0  0.23943587815E+02 -0.21298449032E+02 -0.41538622468E+03  0.42640457426E+03  0.90819744355E+02 0.  0.
          5    1    3    3  502    0 -0.73070741287E+01  0.34546804457E+02 -0.11105886757E+03  0.11661226135E+03  0.41800000000E+01 0.  1.
         -5    1    3    3    0  502 -0.16636513686E+02 -0.13248355425E+02  0.29135348961E+02  0.36312993104E+02  0.41800000000E+01 0.  1.
        -11    1    4    4    0    0  0.55739539710E+02 -0.26914518738E+02 -0.22778712210E+03  0.23604715758E+03  0.00000000000E+00 0.  1.
         11    1    4    4    0    0 -0.31795951896E+02  0.56160697058E+01 -0.18759910258E+03  0.19035741668E+03  0.00000000000E+00 0. -1.
</event>
<event>
 8    1  0.6840032E-009  0.1509589E+03  0.7561462E-02  0.1199300E+00
          1   -1    0    0  501    0  0.00000000000E+00  0.00000000000E+00  0.58837420148E+03  0.58837420148E+03  0.00000000000E+00 0. -1.
         -1   -1    0    0    0  501 -0.00000000000E+00 -0.00000000000E+00 -0.54327354592E+02  0.54327354592E+02  0.00000000000E+00 0.  1.
         25    2    1    2    0    0  0.11165226074E+03 -0.66339335444E+02  0.38721347985E+03  0.42713688404E+03  0.12507799155E+03 0.  0.
         23    2    1    2    0    0 -0.11165226074E+03  0.66339335444E+02  0.14683336703E+03  0.21556467203E+03  0.89671374456E+02 0.  0.
          5    1    3    3  502    0  0.67559080898E+02 -0.73197152110E+02  0.11917702109E+03  0.15537917249E+03  0.41800000000E+01 0.  1.
         -5    1    3    3    0  502  0.44093179847E+02  0.68578166662E+01  0.26803645877E+03  0.27175771155E+03  0.41800000000E+01 0.  1.
        -11    1    4    4    0    0 -0.17436986151E+02  0.60548088366E+02  0.66566351369E+02  0.91658052703E+02  0.00000000000E+00 0. -1.
         11    1    4    4    0    0 -0.94215274593E+02  0.57912470774E+01  0.80267015664E+02  0.12390661933E+03  0.00000000000E+00 0.  1.
</event>
<event>
 8    1  0.6840032E-009  0.1199380E+03  0.7561462E-02  0.1243199E+00
         -4   -1    0    0    0  501 -0.00000000000E+00  0.00000000000E+00  0.16529437118E+03  0.16529437118E+03  0.00000000000E+00 0.  1.
          4   -1    0    0  501    0  0.00000000000E+00 -0.00000000000E+00 -0.11710868177E+03  0.11710868177E+03  0.00000000000E+00 0. -1.
         25    2    1    2    0    0  0.70178989437E+02 -0.23204402304E+02  0.72710961723E+02  0.16247284397E+03  0.12508799394E+03 0.  0.
         23    2    1    2    0    0 -0.70178989437E+02  0.23204402304E+02 -0.24525272320E+02  0.11993020898E+03  0.91204337612E+02 0.  0.
          5    1    3    3  502    0  0.76346865220E+02 -0.63946082503E+02  0.32746002612E+02  0.10491767431E+03  0.41800000000E+01 0.  1.
         -5    1    3    3    0  502 -0.61678757824E+01  0.40741680199E+02  0.39964959111E+02  0.57555169654E+02  0.41800000000E+01 0.  1.
        -11    1    4    4    0    0 -0.13939582958E+02  0.38128089376E+02  0.21319266401E+02  0.45853836179E+02  0.00000000000E+00 0.  1.
         11    1    4    4    0    0 -0.56239406479E+02 -0.14923687072E+02 -0.45844538721E+02  0.74076372802E+02  0.00000000000E+00 0. -1.
</event>
<event>
 8    1  0.6840032E-009  0.1266566E+03  0.7561462E-02  0.1232503E+00
         -1   -1    0    0    0  501 -0.00000000000E+00  0.00000000000E+00  0.58746156642E+02  0.58746156642E+02  0.00000000000E+00 0.  1.
          1   -1    0    0  501    0  0.00000000000E+00 -0.00000000000E+00 -0.28758840719E+03  0.28758840719E+03  0.00000000000E+00 0. -1.
         25    2    1    2    0    0 -0.61094368528E+02 -0.33132870000E+02 -0.10212382017E+03  0.17580636420E+03  0.12509314173E+03 0.  0.
         23    2    1    2    0    0  0.61094368528E+02  0.33132870000E+02 -0.12671843037E+03  0.17052819963E+03  0.90509653252E+02 0.  0.
          5    1    3    3  502    0  0.37668250208E+02 -0.19130762117E+02 -0.39266153242E+02  0.57828940189E+02  0.41800000000E+01 0. -1.
         -5    1    3    3    0  502 -0.98762618737E+02 -0.14002107883E+02 -0.62857666933E+02  0.11797742401E+03  0.41800000000E+01 0. -1.
        -11    1    4    4    0    0  0.43002306103E+02 -0.25271812254E+02 -0.76898730868E+02  0.91658483698E+02  0.00000000000E+00 0.  1.
         11    1    4    4    0    0  0.18092062426E+02  0.58404682254E+02 -0.49819699506E+02  0.78869715930E+02  0.00000000000E+00 0. -1.
</event>
<event>
 8    1  0.6840032E-009  0.1306906E+03  0.7561462E-02  0.1226435E+00
         -2   -1    0    0    0  501 -0.00000000000E+00  0.00000000000E+00  0.17209896059E+03  0.17209896059E+03  0.00000000000E+00 0.  1.
          2   -1    0    0  501    0  0.00000000000E+00 -0.00000000000E+00 -0.16048210245E+03  0.16048210245E+03  0.00000000000E+00 0. -1.
         25    2    1    2    0    0 -0.95119491003E+01 -0.11513434529E+03  0.56016311158E+02  0.17925572803E+03  0.12509354210E+03 0.  0.
         23    2    1    2    0    0  0.95119491003E+01  0.11513434529E+03 -0.44399453016E+02  0.15332533501E+03  0.90503879949E+02 0.  0.
          5    1    3    3  502    0  0.11316966689E+02 -0.60132058600E+02  0.91712729345E+02  0.11032966659E+03  0.41800000000E+01 0.  1.
         -5    1    3    3    0  502 -0.20828915789E+02 -0.55002286692E+02 -0.35696418188E+02  0.68926061441E+02  0.41800000000E+01 0.  1.
        -11    1    4    4    0    0 -0.32866616292E+02  0.78379627690E+02 -0.47088086359E+02  0.97164131140E+02  0.00000000000E+00 0.  1.
         11    1    4    4    0    0  0.42378565392E+02  0.36754717602E+02  0.26886333432E+01  0.56161203868E+02  0.00000000000E+00 0. -1.
</event>
<event>
 8    1  0.6840032E-009  0.1380036E+03  0.7561462E-02  0.1216041E+00
         -2   -1    0    0    0  501 -0.00000000000E+00  0.00000000000E+00  0.41519601201E+03  0.41519601201E+03  0.00000000000E+00 0.  1.
          2   -1    0    0  501    0  0.00000000000E+00 -0.00000000000E+00 -0.58227676224E+02  0.58227676224E+02  0.00000000000E+00 0. -1.
         25    2    1    2    0    0  0.35178254246E+02 -0.10554097475E+03  0.19714972038E+03  0.25863498502E+03  0.12509051246E+03 0.  0.
         23    2    1    2    0    0 -0.35178254246E+02  0.10554097475E+03  0.15981861542E+03  0.21478870322E+03  0.90640996651E+02 0.  0.
          5    1    3    3  502    0 -0.19353729704E+02 -0.10773396525E+03  0.15375854727E+03  0.18878648622E+03  0.41800000000E+01 0. -1.
         -5    1    3    3    0  502  0.54531983950E+02  0.21929904943E+01  0.43391173108E+02  0.69848498799E+02  0.41800000000E+01 0. -1.
        -11    1    4    4    0    0 -0.19048601702E+02  0.41029870286E+02  0.13733549140E+03  0.14459369516E+03  0.00000000000E+00 0.  1.
         11    1    4    4    0    0 -0.16129652544E+02  0.64511104467E+02  0.22483124016E+02  0.70195008058E+02  0.00000000000E+00 0. -1.
</event>
<event>
 8    1  0.6840032E-009  0.3552367E+03  0.7561462E-02  0.1060486E+00
         -2   -1    0    0    0  501 -0.00000000000E+00  0.00000000000E+00  0.47152576273E+03  0.47152576273E+03  0.00000000000E+00 0. -1.
          2   -1    0    0  501    0  0.00000000000E+00 -0.00000000000E+00 -0.67890551928E+03  0.67890551928E+03  0.00000000000E+00 0.  1.
         25    2    1    2    0    0 -0.12586356530E+02  0.34229391135E+03 -0.54816342635E+03  0.65836843996E+03  0.12506927131E+03 0.  0.
         23    2    1    2    0    0  0.12586356530E+02 -0.34229391135E+03  0.34078366980E+03  0.49206284204E+03  0.93106352097E+02 0.  0.
          5    1    3    3  502    0 -0.57980990398E+02  0.21028923115E+03 -0.39385422463E+03  0.45024657538E+03  0.41800000000E+01 0. -1.
         -5    1    3    3    0  502  0.45394633867E+02  0.13200468020E+03 -0.15430920172E+03  0.20812186457E+03  0.41800000000E+01 0. -1.
        -11    1    4    4    0    0 -0.24409319134E+02 -0.32489882926E+02  0.22903907291E+02  0.46647575739E+02  0.00000000000E+00 0. -1.
         11    1    4    4    0    0  0.36995675664E+02 -0.30980402842E+03  0.31787976251E+03  0.44541526630E+03  0.00000000000E+00 0.  1.
</event>
<event>
 8    1  0.6840032E-009  0.1073862E+03  0.7561462E-02  0.1265488E+00
          2   -1    0    0  501    0  0.00000000000E+00  0.00000000000E+00  0.12252729818E+04  0.12252729818E+04  0.00000000000E+00 0. -1.
         -2   -1    0    0    0  501 -0.00000000000E+00 -0.00000000000E+00 -0.95000652786E+01  0.95000652786E+01  0.00000000000E+00 0.  1.
         25    2    1    2    0    0 -0.39763592835E+01 -0.16887729708E+01  0.73024480039E+03  0.74089447907E+03  0.12509395360E+03 0.  0.
         23    2    1    2    0    0  0.39763592835E+01  0.16887729708E+01  0.48552811617E+03  0.49387856805E+03  0.90331749682E+02 0.  0.
          5    1    3    3  502    0 -0.55205346379E+02  0.31105902917E+02  0.33349812772E+03  0.33949032543E+03  0.41800000000E+01 0. -1.
         -5    1    3    3    0  502  0.51228987095E+02 -0.32794675888E+02  0.39674667267E+03  0.40140415364E+03  0.41800000000E+01 0. -1.
        -11    1    4    4    0    0 -0.15287981867E+02 -0.40841450466E+02  0.24804654232E+03  0.25185081620E+03  0.00000000000E+00 0.  1.
         11    1    4    4    0    0  0.19264341151E+02  0.42530223437E+02  0.23748157385E+03  0.24202775185E+03  0.00000000000E+00 0. -1.
</event>
<event>
 8    1  0.6840032E-009  0.2022650E+03  0.7561462E-02  0.1147842E+00
         -2   -1    0    0    0  501 -0.00000000000E+00  0.00000000000E+00  0.44291664968E+03  0.44291664968E+03  0.00000000000E+00 0.  1.
          2   -1    0    0  501    0  0.00000000000E+00 -0.00000000000E+00 -0.11230885970E+03  0.11230885970E+03  0.00000000000E+00 0. -1.
         25    2    1    2    0    0 -0.69447519472E+02 -0.16343411218E+03  0.27110934788E+03  0.34739246110E+03  0.12509027355E+03 0.  0.
         23    2    1    2    0    0  0.69447519472E+02  0.16343411218E+03  0.59498442094E+02  0.20783304828E+03  0.90115727613E+02 0.  0.
          5    1    3    3  502    0  0.30565169196E+02 -0.72840088868E+01  0.37416233100E+02  0.49038079620E+02  0.41800000000E+01 0. -1.
         -5    1    3    3    0  502 -0.10001268867E+03 -0.15615010329E+03  0.23369311478E+03  0.29835438148E+03  0.41800000000E+01 0. -1.
        -11    1    4    4    0    0 -0.10779660551E+02  0.27084725146E+02 -0.15208348081E+02  0.32879739494E+02  0.00000000000E+00 0. -1.
         11    1    4    4    0    0  0.80227180023E+02  0.13634938703E+03  0.74706790175E+02  0.17495330879E+03  0.00000000000E+00 0.  1.
</event>
<event>
 8    1  0.6840032E-009  0.9800317E+02  0.7561462E-02  0.1284552E+00
          1   -1    0    0  501    0  0.00000000000E+00  0.00000000000E+00  0.40070604052E+03  0.40070604052E+03  0.00000000000E+00 0. -1.
         -1   -1    0    0    0  501 -0.00000000000E+00 -0.00000000000E+00 -0.44940633966E+02  0.44940633966E+02  0.00000000000E+00 0.  1.
         25    2    1    2    0    0  0.59350898831E+01  0.79250481230E+01  0.66963545152E+02  0.14222822998E+03  0.12508685520E+03 0.  0.
         23    2    1    2    0    0 -0.59350898831E+01 -0.79250481230E+01  0.28880186140E+03  0.30341844451E+03  0.92510570424E+02 0.  0.
          5    1    3    3  502    0 -0.39687471345E+01  0.55428309410E+02 -0.43204442875E+01  0.55894427957E+02  0.41800000000E+01 0.  1.
         -5    1    3    3    0  502  0.99038370176E+01 -0.47503261287E+02  0.71283989440E+02  0.86333802019E+02  0.41800000000E+01 0.  1.
        -11    1    4    4    0    0 -0.45943758592E+02 -0.19521865899E+02  0.18372743976E+03  0.19038829880E+03  0.00000000000E+00 0.  1.
         11    1    4    4    0    0  0.40008668709E+02  0.11596817776E+02  0.10507442164E+03  0.11303014570E+03  0.00000000000E+00 0. -1.
</event>
<event>
 8    1  0.6840032E-009  0.1666623E+03  0.7561462E-02  0.1181374E+00
          1   -1    0    0  501    0  0.00000000000E+00  0.00000000000E+00  0.11960706043E+04  0.11960706043E+04  0.00000000000E+00 0. -1.
         -1   -1    0    0    0  501 -0.00000000000E+00 -0.00000000000E+00 -0.15795440815E+03  0.15795440815E+03  0.00000000000E+00 0.  1.
         25    2    1    2    0    0 -0.52867341407E+02 -0.14292625382E+03  0.11348131351E+04  0.11518126835E+04  0.12509491013E+03 0.  0.
         23    2    1    2    0    0  0.52867341407E+02  0.14292625382E+03 -0.96696938954E+02  0.20221232892E+03  0.91195713418E+02 0.  0.
          5    1    3    3  502    0  0.23781781842E+02 -0.67459158674E+02  0.70869697504E+03  0.71230975430E+03  0.41800000000E+01 0.  1.
         -5    1    3    3    0  502 -0.76649123249E+02 -0.75467095142E+02  0.42611616006E+03  0.43950292924E+03  0.41800000000E+01 0.  1.
        -11    1    4    4    0    0  0.18588901270E+02  0.82377184447E+02 -0.10201173719E+03  0.13243089629E+03  0.00000000000E+00 0.  1.
         11    1    4    4    0    0  0.34278440137E+02  0.60549069368E+02  0.53147982318E+01  0.69781432630E+02  0.00000000000E+00 0. -1.
</event>
<event>
 8    1  0.6840032E-009  0.1423187E+03  0.7561462E-02  0.1210243E+00
         -3   -1    0    0    0  501 -0.00000000000E+00  0.00000000000E+00  0.85988280787E+02  0.85988280787E+02  0.00000000000E+00 0. -1.
          3   -1    0    0  501    0  0.00000000000E+00 -0.00000000000E+00 -0.31971672364E+03  0.31971672364E+03  0.00000000000E+00 0.  1.
         25    2    1    2    0    0 -0.54281920504E+02  0.88585220574E+02 -0.20807379862E+03  0.26407656176E+03  0.12509139300E+03 0.  0.
         23    2    1    2    0    0  0.54281920504E+02 -0.88585220574E+02 -0.25654644235E+02  0.14162844267E+03  0.92771691826E+02 0.  0.
          5    1    3    3  502    0 -0.76744125198E+02  0.96313406895E+02 -0.11720078668E+03  0.17005713716E+03  0.41800000000E+01 0. -1.
         -5    1    3    3    0  502  0.22462204694E+02 -0.77281863218E+01 -0.90873011940E+02  0.94019424602E+02  0.41800000000E+01 0. -1.
        -11    1    4    4    0    0  0.23061717994E+02  0.16054170530E+02 -0.15159039272E+02  0.31927663552E+02  0.00000000000E+00 0.  1.
         11    1    4    4    0    0  0.31220202510E+02 -0.10463939110E+03 -0.10495604964E+02  0.10970077912E+03  0.00000000000E+00 0. -1.
</event>
<event>
 8    1  0.6840032E-009  0.1814437E+03  0.7561462E-02  0.1166413E+00
          1   -1    0    0  501    0  0.00000000000E+00  0.00000000000E+00  0.98472329232E+02  0.98472329232E+02  0.00000000000E+00 0. -1.
         -1   -1    0    0    0  501 -0.00000000000E+00 -0.00000000000E+00 -0.51949253128E+03  0.51949253128E+03  0.00000000000E+00 0.  1.
         25    2    1    2    0    0  0.14551202413E+03  0.87346683702E+02 -0.78579790655E+02  0.22500117323E+03  0.12509017600E+03 0.  0.
         23    2    1    2    0    0 -0.14551202413E+03 -0.87346683702E+02 -0.34244041140E+03  0.39296368729E+03  0.91388357297E+02 0.  0.
          5    1    3    3  502    0  0.94515281620E+02  0.51180929311E+02  0.18809181226E+02  0.10919653696E+03  0.41800000000E+01 0. -1.
         -5    1    3    3    0  502  0.50996742512E+02  0.36165754390E+02 -0.97388971881E+02  0.11580463627E+03  0.41800000000E+01 0. -1.
        -11    1    4    4    0    0 -0.50822877251E+02  0.15238991273E+02 -0.99800546675E+02  0.11302805326E+03  0.00000000000E+00 0.  1.
         11    1    4    4    0    0 -0.94689146881E+02 -0.10258567497E+03 -0.24263986472E+03  0.27993563403E+03  0.00000000000E+00 0. -1.
</event>
<event>
 7    1  0.6840032E-009  0.1088442E+03  0.7561462E-02  0.1262725E+00
          1   -1    0    0  501    0  0.00000000000E+00  0.00000000000E+00  0.92711176287E+03  0.92711176287E+03  0.00000000000E+00 0. -1.
         -1   -1    0    0    0  501 -0.00000000000E+00 -0.00000000000E+00 -0.21784681915E+02  0.21784681915E+02  0.00000000000E+00 0.  1.
         25    2    1    2    0    0  0.68999318625E+02 -0.74033248406E+02  0.36694202253E+03  0.40066953350E+03  0.12509116410E+03 0.  0.
          5    1    3    3  502    0  0.39106928893E+02 -0.75896814961E+02  0.98042531050E+02  0.13007493495E+03  0.41800000000E+01 0. -1.
         -5    1    3    3    0  502  0.29892389731E+02  0.18635665552E+01  0.26889949148E+03  0.27059459854E+03  0.41800000000E+01 0. -1.
        -11    1    1    2    0    0 -0.38140327473E+01  0.95124271899E+01  0.31943253110E+02  0.33547049588E+02  0.00000000000E+00 0.  1.
         11    1    1    2    0    0 -0.65185285877E+02  0.64520821216E+02  0.50644180532E+03  0.51467986170E+03  0.00000000000E+00 0. -1.
</event>
<event>
 8    1  0.6840032E-009  0.1198772E+03  0.7561462E-02  0.1243300E+00
         -1   -1    0    0    0  501 -0.00000000000E+00  0.00000000000E+00  0.66410432105E+02  0.66410432105E+02  0.00000000000E+00 0.  1.
          1   -1    0    0  501    0  0.00000000000E+00 -0.00000000000E+00 -0.36710930818E+03  0.36710930818E+03  0.00000000000E+00 0. -1.
         25    2    1    2    0    0  0.75463228521E+02  0.78928702232E+02 -0.19115804004E+03  0.25320667475E+03  0.12509110670E+03 0.  0.
         23    2    1    2    0    0 -0.75463228521E+02 -0.78928702232E+02 -0.10954083604E+03  0.18031306553E+03  0.92677764030E+02 0.  0.
          5    1    3    3  502    0  0.81720120973E+01 -0.51458643474E-01 -0.13469130725E+03  0.13500372246E+03  0.41800000000E+01 0. -1.
         -5    1    3    3    0  502  0.67291216423E+02  0.78980160875E+02 -0.56466732789E+02  0.11820295230E+03  0.41800000000E+01 0. -1.
        -11    1    4    4    0    0 -0.86736922898E+02 -0.75374152729E+02 -0.11881202985E+03  0.16529021487E+03  0.00000000000E+00 0. -1.
         11    1    4    4    0    0  0.11273694378E+02 -0.35545495024E+01  0.92711938178E+01  0.15022850658E+02  0.00000000000E+00 0.  1.
</event>
<event>
 8    1  0.6840032E-009  0.1328248E+03  0.7561462E-02  0.1223323E+00
          2   -1    0    0  501    0  0.00000000000E+00  0.00000000000E+00  0.29077658250E+03  0.29077658250E+03  0.00000000000E+00 0. -1.
         -2   -1    0    0    0  501 -0.00000000000E+00 -0.00000000000E+00 -0.11258670543E+03  0.11258670543E+03  0.00000000000E+00 0.  1.
         25    2    1    2    0    0  0.79247226066E+02 -0.94059259233E+02  0.96579634772E+01  0.17569309617E+03  0.12509005035E+03 0.  0.
         23    2    1    2    0    0 -0.79247226066E+02  0.94059259233E+02  0.16853191360E+03  0.22767019176E+03  0.91123231012E+02 0.  0.
          5    1    3    3  502    0  0.46801495051E+02 -0.55478586545E+02  0.67253093594E+02  0.99038903983E+02  0.41800000000E+01 0. -1.
         -5    1    3    3    0  502  0.32445731015E+02 -0.38580672688E+02 -0.57595130117E+02  0.76654192184E+02  0.41800000000E+01 0. -1.
        -11    1    4    4    0    0  0.11528067971E+02  0.27446892265E+02  0.66850606824E+01  0.30510953484E+02  0.00000000000E+00 0.  1.
         11    1    4    4    0    0 -0.90775294037E+02  0.66612366968E+02  0.16184685291E+03  0.19715923828E+03  0.00000000000E+00 0. -1.
</event>
<event>
 8    1  0.6840032E-009  0.8269514E+02  0.7561462E-02  0.1321572E+00
         -1   -1    0    0    0  501 -0.00000000000E+00  0.00000000000E+00  0.19999244051E+03  0.19999244051E+03  0.00000000000E+00 0.  1.
          1   -1    0    0  501    0  0.00000000000E+00 -0.00000000000E+00 -0.77313635943E+02  0.77313635943E+02  0.00000000000E+00 0. -1.
         25    2    1    2    0    0  0.30335102461E+02 -0.21488577962E+02  0.13951901364E+02  0.13125571683E+03  0.12510567623E+03 0.  0.
         23    2    1    2    0    0 -0.30335102461E+02  0.21488577962E+02  0.10872690320E+03  0.14605035962E+03  0.90150932561E+02 0.  0.
          5    1    3    3  502    0  0.54844304861E+02 -0.29431795787E+02 -0.38049816192E+02  0.73071124880E+02  0.41800000000E+01 0. -1.
         -5    1    3    3    0  502 -0.24509202400E+02  0.79432178259E+01  0.52001717556E+02  0.58184591951E+02  0.41800000000E+01 0. -1.
        -11    1    4    4    0    0 -0.31092011319E+02 -0.18982260898E+02  0.77240569479E+01  0.37238427094E+02  0.00000000000E+00 0. -1.
         11    1    4    4    0    0  0.75690885859E+00  0.40470838859E+02  0.10100284626E+03  0.10881193253E+03  0.00000000000E+00 0.  1.
</event>
<event>
 8    1  0.6840032E-009  0.1109006E+03  0.7561462E-02  0.1258911E+00
          3   -1    0    0  501    0  0.00000000000E+00  0.00000000000E+00  0.78094457431E+02  0.78094457431E+02  0.00000000000E+00 0. -1.
         -3   -1    0    0    0  501 -0.00000000000E+00 -0.00000000000E+00 -0.24990120193E+03  0.24990120193E+03  0.00000000000E+00 0.  1.
         25    2    1    2    0    0  0.20081291191E+02 -0.72562681758E+02 -0.14438205286E+03  0.20533698527E+03  0.12509396185E+03 0.  0.
         23    2    1    2    0    0 -0.20081291191E+02  0.72562681758E+02 -0.27424691646E+02  0.12265867410E+03  0.92867839319E+02 0.  0.
          5    1    3    3  502    0  0.43714905074E+02 -0.95980325760E+02 -0.78938188443E+02  0.13180260185E+03  0.41800000000E+01 0. -1.
         -5    1    3    3    0  502 -0.23633613883E+02  0.23417644001E+02 -0.65443864413E+02  0.73534383421E+02  0.41800000000E+01 0. -1.
        -11    1    4    4    0    0  0.90470746642E+01  0.88107735158E+01 -0.47981208775E+02  0.49615276734E+02  0.00000000000E+00 0.  1.
         11    1    4    4    0    0 -0.29128365855E+02  0.63751908242E+02  0.20556517129E+02  0.73043397364E+02  0.00000000000E+00 0. -1.
</event>
<event>
 8    1  0.6840032E-009  0.6341580E+02  0.7561462E-02  0.1384032E+00
          2   -1    0    0  501    0  0.00000000000E+00  0.00000000000E+00  0.50741448508E+03  0.50741448508E+03  0.00000000000E+00 0. -1.
         -2   -1    0    0    0  501 -0.00000000000E+00 -0.00000000000E+00 -0.26645778520E+02  0.26645778520E+02  0.00000000000E+00 0.  1.
         25    2    1    2    0    0  0.11558342271E+02 -0.16973434047E+01  0.37164547734E+03  0.39230690941E+03  0.12509146290E+03 0.  0.
         23    2    1    2    0    0 -0.11558342271E+02  0.16973434047E+01  0.10912322921E+03  0.14175335419E+03  0.89719886419E+02 0.  0.
          5    1    3    3  502    0 -0.20861046679E+02 -0.27369147484E+02  0.23946844126E+02  0.42132852338E+02  0.41800000000E+01 0.  1.
         -5    1    3    3    0  502  0.32419388950E+02  0.25671804079E+02  0.34769863322E+03  0.35017405707E+03  0.41800000000E+01 0.  1.
        -11    1    4    4    0    0 -0.32613834184E+01 -0.23679653932E+02 -0.51085136005E+01  0.24442985566E+02  0.00000000000E+00 0.  1.
         11    1    4    4    0    0 -0.82969588525E+01  0.25376997337E+02  0.11423174282E+03  0.11731036862E+03  0.00000000000E+00 0. -1.
</event>
<event>
 8    1  0.6840032E-009  0.1227340E+03  0.7561462E-02  0.1238654E+00
          3   -1    0    0  501    0  0.00000000000E+00  0.00000000000E+00  0.18188934344E+03  0.18188934344E+03  0.00000000000E+00 0. -1.
         -3   -1    0    0    0  501 -0.00000000000E+00 -0.00000000000E+00 -0.11599966832E+03  0.11599966832E+03  0.00000000000E+00 0.  1.
         25    2    1    2    0    0  0.67987246873E+02  0.60877388042E+02  0.14440447460E+02  0.15550754929E+03  0.12508296947E+03 0.  0.
         23    2    1    2    0    0 -0.67987246873E+02 -0.60877388042E+02  0.51449227664E+02  0.14238146247E+03  0.96421655845E+02 0.  0.
          5    1    3    3  502    0  0.96941158223E+02  0.73555439702E+02  0.19222220593E+02  0.12326782643E+03  0.41800000000E+01 0.  1.
         -5    1    3    3    0  502 -0.28953911350E+02 -0.12678051660E+02 -0.47817731324E+01  0.32239722869E+02  0.41800000000E+01 0.  1.
        -11    1    4    4    0    0 -0.38190720419E+02 -0.27370542101E+02  0.77421427538E+02  0.90563542019E+02  0.00000000000E+00 0. -1.
         11    1    4    4    0    0 -0.29796526454E+02 -0.33506845941E+02 -0.25972199874E+02  0.51817920451E+02  0.00000000000E+00 0.  1.
</event>
<event>
 8    1  0.6840032E-009  0.1304475E+03  0.7561462E-02  0.1226793E+00
         -1   -1    0    0    0  501 -0.00000000000E+00  0.00000000000E+00  0.40672263700E+03  0.40672263700E+03  0.00000000000E+00 0.  1.
          1   -1    0    0  501    0  0.00000000000E+00 -0.00000000000E+00 -0.43648764039E+02  0.43648764039E+02  0.00000000000E+00 0. -1.
         25    2    1    2    0    0 -0.56964804718E+02 -0.57411192688E+02  0.19361708000E+03  0.24428609575E+03  0.12508832435E+03 0.  0.
         23    2    1    2    0    0  0.56964804718E+02  0.57411192688E+02  0.16945679296E+03  0.20608530529E+03  0.84938297318E+02 0.  0.
          5    1    3    3  502    0 -0.47089914094E+00  0.37537174319E+02  0.59422251610E+02  0.70411203571E+02  0.41800000000E+01 0.  1.
         -5    1    3    3    0  502 -0.56493905578E+02 -0.94948367008E+02  0.13419482839E+03  0.17387489218E+03  0.41800000000E+01 0.  1.
        -11    1    4    4    0    0  0.24227101452E+02  0.72552024716E+02  0.13993065891E+03  0.15947206037E+03  0.00000000000E+00 0.  1.
         11    1    4    4    0    0  0.32737703266E+02 -0.15140832028E+02  0.29526134052E+02  0.46613244917E+02  0.00000000000E+00 0. -1.
</event>
<event>
 8    1  0.6840032E-009  0.1034209E+03  0.7561462E-02  0.1273262E+00
          1   -1    0    0  501    0  0.00000000000E+00  0.00000000000E+00  0.22282825575E+04  0.22282825575E+04  0.00000000000E+00 0. -1.
         -1   -1    0    0    0  501 -0.00000000000E+00 -0.00000000000E+00 -0.47141129562E+02  0.47141129562E+02  0.00000000000E+00 0.  1.
         25    2    1    2    0    0 -0.53084357318E+01  0.75047339183E+02  0.21456583018E+04  0.21506177008E+04  0.12508662693E+03 0.  0.
         23    2    1    2    0    0  0.53084357318E+01 -0.75047339183E+02  0.35483126171E+02  0.12480598631E+03  0.93044072179E+02 0.  0.
          5    1    3    3  502    0 -0.22351685416E+02 -0.93277584215E+00  0.72384239713E+02  0.75877654619E+02  0.41800000000E+01 0. -1.
         -5    1    3    3    0  502  0.17043249685E+02  0.75980115025E+02  0.20732740621E+04  0.20747400462E+04  0.41800000000E+01 0. -1.
        -11    1    4    4    0    0  0.22435076193E+02  0.60343752223E+01 -0.15108304675E+02  0.27712942793E+02  0.00000000000E+00 0.  1.
         11    1    4    4    0    0 -0.17126640461E+02 -0.81081714405E+02  0.50591430846E+02  0.97093043517E+02  0.00000000000E+00 0. -1.
</event>
<event>
 8    1  0.6840032E-009  0.2438659E+03  0.7561462E-02  0.1117244E+00
          3   -1    0    0  501    0  0.00000000000E+00  0.00000000000E+00  0.27330308473E+02  0.27330308473E+02  0.00000000000E+00 0. -1.
         -3   -1    0    0    0  501 -0.00000000000E+00 -0.00000000000E+00 -0.36862094876E+04  0.36862094876E+04  0.00000000000E+00 0.  1.
         25    2    1    2    0    0  0.22203389302E+03 -0.61529209743E+01 -0.30342761389E+04  0.30449655544E+04  0.12508649966E+03 0.  0.
         23    2    1    2    0    0 -0.22203389302E+03  0.61529209743E+01 -0.62460304031E+03  0.66857424174E+03  0.86750508163E+02 0.  0.
          5    1    3    3  502    0  0.98180991923E+02 -0.62315763092E+02 -0.11890154344E+04  0.11946957509E+04  0.41800000000E+01 0. -1.
         -5    1    3    3    0  502  0.12385290110E+03  0.56162842118E+02 -0.18452607045E+04  0.18502698035E+04  0.41800000000E+01 0. -1.
        -11    1    4    4    0    0 -0.79583234967E+02 -0.35143253369E+02 -0.18075585737E+03  0.20060214236E+03  0.00000000000E+00 0. -1.
         11    1    4    4    0    0 -0.14245065805E+03  0.41296174343E+02 -0.44384718294E+03  0.46797209938E+03  0.00000000000E+00 0.  1.
</event>
<event>
 8    1  0.6840032E-009  0.1617915E+03  0.7561462E-02  0.1186689E+00
          2   -1    0    0  501    0  0.00000000000E+00  0.00000000000E+00  0.67671912944E+02  0.67671912944E+02  0.00000000000E+00 0. -1.
         -2   -1    0    0    0  501 -0.00000000000E+00 -0.00000000000E+00 -0.39418579963E+03  0.39418579963E+03  0.00000000000E+00 0.  1.
         25    2    1    2    0    0  0.90964095726E+02 -0.77915541124E+02 -0.19459127682E+03  0.26049723020E+03  0.12509094160E+03 0.  0.
         23    2    1    2    0    0 -0.90964095726E+02  0.77915541124E+02 -0.13192260987E+03  0.20136048237E+03  0.93793233260E+02 0.  0.
          5    1    3    3  502    0  0.10351167282E+03 -0.10141947471E+02 -0.11417604575E+03  0.15450296868E+03  0.41800000000E+01 0. -1.
         -5    1    3    3    0  502 -0.12547577098E+02 -0.67773593652E+02 -0.80415231068E+02  0.10599426152E+03  0.41800000000E+01 0. -1.
        -11    1    4    4    0    0  0.12954325750E+01  0.55475270100E+02 -0.34602500044E+02  0.65395081983E+02  0.00000000000E+00 0. -1.
         11    1    4    4    0    0 -0.92259528301E+02  0.22440271024E+02 -0.97320109824E+02  0.13596540039E+03  0.00000000000E+00 0.  1.
</event>
<event>
 8    1  0.6840032E-009  0.6635731E+02  0.7561462E-02  0.1372937E+00
          1   -1    0    0  501    0  0.00000000000E+00  0.00000000000E+00  0.28959565024E+02  0.28959565024E+02  0.00000000000E+00 0. -1.
         -1   -1    0    0    0  501 -0.00000000000E+00 -0.00000000000E+00 -0.61049833751E+03  0.61049833751E+03  0.00000000000E+00 0.  1.
         25    2    1    2    0    0  0.56938898228E+01 -0.47018244004E+02 -0.47044227446E+03  0.48908406153E+03  0.12507657649E+03 0.  0.
         23    2    1    2    0    0 -0.56938898228E+01  0.47018244004E+02 -0.11109649802E+03  0.15037384101E+03  0.89591989240E+02 0.  0.
          5    1    3    3  502    0 -0.21088416887E+02  0.45516008876E+01 -0.86262507795E+01  0.23607689424E+02  0.41800000000E+01 0. -1.
         -5    1    3    3    0  502  0.26782306710E+02 -0.51569844891E+02 -0.46181602369E+03  0.46547637210E+03  0.41800000000E+01 0. -1.
        -11    1    4    4    0    0  0.70007001265E+01  0.32268200182E+02 -0.12313863452E+03  0.12748870482E+03  0.00000000000E+00 0.  1.
         11    1    4    4    0    0 -0.12694589949E+02  0.14750043822E+02  0.12042136500E+02  0.22885136185E+02  0.00000000000E+00 0. -1.
</event>
<event>
 8    1  0.6840032E-009  0.1031277E+03  0.7561462E-02  0.1273853E+00
         -2   -1    0    0    0  501 -0.00000000000E+00  0.00000000000E+00  0.42311462002E+02  0.42311462002E+02  0.00000000000E+00 0. -1.
          2   -1    0    0  501    0  0.00000000000E+00 -0.00000000000E+00 -0.44998287390E+03  0.44998287390E+03  0.00000000000E+00 0.  1.
         25    2    1    2    0    0 -0.57547121910E+02  0.21195189259E+02 -0.32696578111E+03  0.35540968766E+03  0.12509403176E+03 0.  0.
         23    2    1    2    0    0  0.57547121910E+02 -0.21195189259E+02 -0.80705630796E+02  0.13688464824E+03  0.91995112884E+02 0.  0.
          5    1    3    3  502    0 -0.95046851806E+02  0.16482172027E+02 -0.18813869180E+03  0.21146916036E+03  0.41800000000E+01 0. -1.
         -5    1    3    3    0  502  0.37499729896E+02  0.47130172322E+01 -0.13882708931E+03  0.14394052730E+03  0.41800000000E+01 0. -1.
        -11    1    4    4    0    0  0.31463033347E+02  0.80603453441E+01 -0.90780139744E+02  0.96415379511E+02  0.00000000000E+00 0.  1.
         11    1    4    4    0    0  0.26084088564E+02 -0.29255534603E+02  0.10074508948E+02  0.40469268732E+02  0.00000000000E+00 0. -1.
</event>
<event>
 8    1  0.6840032E-009  0.1035687E+03  0.7561462E-02  0.1272966E+00
         -1   -1    0    0    0  501 -0.00000000000E+00  0.00000000000E+00  0.36908176676E+02  0.36908176676E+02  0.00000000000E+00 0.  1.
          1   -1    0    0  501    0  0.00000000000E+00 -0.00000000000E+00 -0.42508099147E+03  0.42508099147E+03  0.00000000000E+00 0. -1.
         25    2    1    2    0    0  0.39796050350E+01 -0.55691700828E+02 -0.16428638211E+03  0.21390565701E+03  0.12509281336E+03 0.  0.
         23    2    1    2    0    0 -0.39796050350E+01  0.55691700828E+02 -0.22388643268E+03  0.24808351114E+03  0.91120200621E+02 0.  0.
          5    1    3    3  502    0 -0.49709017409E+02 -0.52837447507E+02 -0.52042333895E+02  0.89379299550E+02  0.41800000000E+01 0.  1.
         -5    1    3    3    0  502  0.53688622444E+02 -0.28542533214E+01 -0.11224404821E+03  0.12452635746E+03  0.41800000000E+01 0.  1.
        -11    1    4    4    0    0 -0.31081062129E+02  0.30355890779E+02 -0.35575302465E+02  0.56152601663E+02  0.00000000000E+00 0.  1.
         11    1    4    4    0    0  0.27101457094E+02  0.25335810049E+02 -0.18831113022E+03  0.19193090947E+03  0.00000000000E+00 0. -1.
</event>
<event>
 8    1  0.6840032E-009  0.6484675E+02  0.7561462E-02  0.1378549E+00
          1   -1    0    0  501    0  0.00000000000E+00  0.00000000000E+00  0.13256804548E+02  0.13256804548E+02  0.00000000000E+00 0. -1.
         -1   -1    0    0    0  501 -0.00000000000E+00 -0.00000000000E+00 -0.92505350795E+03  0.92505350795E+03  0.00000000000E+00 0.  1.
         25    2    1    2    0    0  0.22177811647E+02 -0.54581817068E+01 -0.54731323418E+03  0.56189066356E+03  0.12509074472E+03 0.  0.
         23    2    1    2    0    0 -0.22177811647E+02  0.54581817068E+01 -0.36448346922E+03  0.37641964893E+03  0.91224479667E+02 0.  0.
          5    1    3    3  502    0  0.23530469252E+02 -0.15939750880E+02 -0.21318167221E+02  0.35772829005E+02  0.41800000000E+01 0.  1.
         -5    1    3    3    0  502 -0.13526576057E+01  0.10481569173E+02 -0.52599506696E+03  0.52611783456E+03  0.41800000000E+01 0.  1.
        -11    1    4    4    0    0 -0.19290655733E+02  0.45518433350E+02 -0.25622547791E+03  0.26095124584E+03  0.00000000000E+00 0.  1.
         11    1    4    4    0    0 -0.28871559131E+01 -0.40060251643E+02 -0.10825799131E+03  0.11546840309E+03  0.00000000000E+00 0. -1.
</event>
<event>
 8    1  0.6840032E-009  0.1365184E+03  0.7561462E-02  0.1218092E+00
          2   -1    0    0  501    0  0.00000000000E+00  0.00000000000E+00  0.51085863633E+03  0.51085863633E+03  0.00000000000E+00 0.  1.
         -2   -1    0    0    0  501 -0.00000000000E+00 -0.00000000000E+00 -0.50433419806E+02  0.50433419806E+02  0.00000000000E+00 0. -1.
         25    2    1    2    0    0 -0.11561366005E+03 -0.15228651661E+02  0.26924229427E+03  0.31896321239E+03  0.12509071753E+03 0.  0.
         23    2    1    2    0    0  0.11561366005E+03  0.15228651661E+02  0.19118292225E+03  0.24232884374E+03  0.92595510303E+02 0.  0.
          5    1    3    3  502    0 -0.40206742521E+02 -0.26926346061E+02  0.22598761000E+03  0.23114818306E+03  0.41800000000E+01 0. -1.
         -5    1    3    3    0  502 -0.75406917528E+02  0.11697694400E+02  0.43254684265E+02  0.87815029330E+02  0.41800000000E+01 0. -1.
        -11    1    4    4    0    0  0.10371987491E+03  0.47182645766E+02  0.15753731684E+03  0.19442741759E+03  0.00000000000E+00 0. -1.
         11    1    4    4    0    0  0.11893785134E+02 -0.31953994104E+02  0.33645605412E+02  0.47901426154E+02  0.00000000000E+00 0.  1.
</event>
<event>
 8    1  0.6840032E-009  0.1693494E+03  0.7561462E-02  0.1178528E+00
          1   -1    0    0  501    0  0.00000000000E+00  0.00000000000E+00  0.58632119937E+03  0.58632119937E+03  0.00000000000E+00 0. -1.
         -1   -1    0    0    0  501 -0.00000000000E+00 -0.00000000000E+00 -0.57239026621E+02  0.57239026621E+02  0.00000000000E+00 0.  1.
         25    2    1    2    0    0  0.13542587647E+03 -0.30551056708E+02  0.19483745697E+03  0.26996805536E+03  0.12509029216E+03 0.  0.
         23    2    1    2    0    0 -0.13542587647E+03  0.30551056708E+02  0.33424471577E+03  0.37359217063E+03  0.92617735056E+02 0.  0.
          5    1    3    3  502    0  0.42219622037E+02 -0.64507457245E+02  0.13059122772E+03  0.15170777726E+03  0.41800000000E+01 0.  1.
         -5    1    3    3    0  502  0.93206254432E+02  0.33956400538E+02  0.64246229255E+02  0.11826027810E+03  0.41800000000E+01 0.  1.
        -11    1    4    4    0    0 -0.38992442627E+02  0.50425675597E+02  0.90344869161E+02  0.11056832605E+03  0.00000000000E+00 0.  1.
         11    1    4    4    0    0 -0.96433433842E+02 -0.19874618889E+02  0.24389984661E+03  0.26302384458E+03  0.00000000000E+00 0. -1.
</event>
<event>
 8    1  0.6840032E-009  0.7394526E+02  0.7561462E-02  0.1347169E+00
         -1   -1    0    0    0  501 -0.00000000000E+00  0.00000000000E+00  0.20611167948E+02  0.20611167948E+02  0.00000000000E+00 0.  1.
          1   -1    0    0  501    0  0.00000000000E+00 -0.00000000000E+00 -0.64209586079E+03  0.64209586079E+03  0.00000000000E+00 0. -1.
         25    2    1    2    0    0  0.17478920136E+02 -0.23080086443E+02 -0.28323949294E+03  0.31098226915E+03  0.12508860192E+03 0.  0.
         23    2    1    2    0    0 -0.17478920136E+02  0.23080086443E+02 -0.33824519990E+03  0.35172475958E+03  0.91990696304E+02 0.  0.
          5    1    3    3  502    0  0.28091316398E+02 -0.34775353153E+02 -0.23402000384E+02  0.50631741683E+02  0.41800000000E+01 0. -1.
         -5    1    3    3    0  502 -0.10612396262E+02  0.11695266710E+02 -0.25983749255E+03  0.26035052747E+03  0.41800000000E+01 0. -1.
        -11    1    4    4    0    0 -0.44202110262E+02 -0.87862160880E+01 -0.97472931995E+02  0.10738713432E+03  0.00000000000E+00 0.  1.
         11    1    4    4    0    0  0.26723190126E+02  0.31866302531E+02 -0.24077226791E+03  0.24433762527E+03  0.00000000000E+00 0. -1.
</event>
<event>
 8    1  0.6840032E-009  0.1336614E+03  0.7561462E-02  0.1222122E+00
          2   -1    0    0  501    0  0.00000000000E+00  0.00000000000E+00  0.37640703343E+03  0.37640703343E+03  0.00000000000E+00 0. -1.
         -2   -1    0    0    0  501 -0.00000000000E+00 -0.00000000000E+00 -0.77995479374E+02  0.77995479374E+02  0.00000000000E+00 0.  1.
         25    2    1    2    0    0  0.11678127380E+03 -0.36523648353E+01  0.74807248106E+02  0.18680056647E+03  0.12508845505E+03 0.  0.
         23    2    1    2    0    0 -0.11678127380E+03  0.36523648353E+01  0.22360430595E+03  0.26760194633E+03  0.89222813019E+02 0.  0.
          5    1    3    3  502    0  0.11463650018E+03 -0.55227852233E+00  0.10534633320E+03  0.15574708506E+03  0.41800000000E+01 0.  1.
         -5    1    3    3    0  502  0.21447736147E+01 -0.31000863130E+01 -0.30539085097E+02  0.31053481408E+02  0.41800000000E+01 0.  1.
        -11    1    4    4    0    0 -0.78688995803E+02 -0.40637257850E+02  0.13208383052E+03  0.15902667409E+03  0.00000000000E+00 0.  1.
         11    1    4    4    0    0 -0.38092277995E+02  0.44289622686E+02  0.91520475430E+02  0.10857527225E+03  0.00000000000E+00 0. -1.
</event>
<event>
 8    1  0.6840032E-009  0.2013094E+03  0.7561462E-02  0.1148639E+00
         -2   -1    0    0    0  501 -0.00000000000E+00  0.00000000000E+00  0.68007722367E+02  0.68007722367E+02  0.00000000000E+00 0.  1.
          2   -1    0    0  501    0  0.00000000000E+00 -0.00000000000E+00 -0.75771959239E+03  0.75771959239E+03  0.00000000000E+00 0. -1.
         25    2    1    2    0    0  0.76505917091E+02  0.16344259654E+03 -0.50815404707E+03  0.55356441922E+03  0.12508554256E+03 0.  0.
         23    2    1    2    0    0 -0.76505917091E+02 -0.16344259654E+03 -0.18155782294E+03  0.27216289553E+03  0.92427057269E+02 0.  0.
          5    1    3    3  502    0  0.42869501189E+00 -0.12909134686E+02 -0.11696500855E+03  0.11775022362E+03  0.41800000000E+01 0. -1.
         -5    1    3    3    0  502  0.76077222079E+02  0.17635173123E+03 -0.39118903853E+03  0.43581419561E+03  0.41800000000E+01 0. -1.
        -11    1    4    4    0    0 -0.57052846913E+01 -0.10493173981E+03 -0.12883380090E+03  0.16625693533E+03  0.00000000000E+00 0. -1.
         11    1    4    4    0    0 -0.70800632399E+02 -0.58510856736E+02 -0.52724022044E+02  0.10590596019E+03  0.00000000000E+00 0.  1.
</event>
<event>
 7    1  0.6840032E-009  0.1146364E+03  0.7561462E-02  0.1252217E+00
          2   -1    0    0  501    0  0.00000000000E+00  0.00000000000E+00  0.65469305316E+03  0.65469305316E+03  0.00000000000E+00 0.  1.
         -2   -1    0    0    0  501 -0.00000000000E+00 -0.00000000000E+00 -0.23493286337E+02  0.23493286337E+02  0.00000000000E+00 0. -1.
         23    2    1    2    0    0  0.42109525205E+02 -0.50490307944E+01  0.19720790051E+03  0.22442994166E+03  0.98382609548E+02 0.  0.
          5    1    1    2  502    0 -0.86783791809E+02 -0.26140028808E+01  0.28839485548E+03  0.30120976844E+03  0.41800000000E+01 0. -1.
         -5    1    1    2    0  502  0.44674266604E+02  0.76630336751E+01  0.14559701082E+03  0.15254662940E+03  0.41800000000E+01 0. -1.
        -11    1    3    3    0    0 -0.18483767379E+02  0.23458647466E+02  0.11279156013E+03  0.11667859201E+03  0.00000000000E+00 0.  1.
         11    1    3    3    0    0  0.60593292584E+02 -0.28507678261E+02  0.84416340382E+02  0.10775134964E+03  0.00000000000E+00 0. -1.
</event>
<event>
 8    1  0.6840032E-009  0.2666770E+03  0.7561462E-02  0.1103197E+00
          1   -1    0    0  501    0  0.00000000000E+00  0.00000000000E+00  0.39102717465E+03  0.39102717465E+03  0.00000000000E+00 0. -1.
         -1   -1    0    0    0  501 -0.00000000000E+00 -0.00000000000E+00 -0.18872913529E+03  0.18872913529E+03  0.00000000000E+00 0.  1.
         25    2    1    2    0    0  0.39560914519E+02  0.24428862243E+03  0.13093209489E+03  0.30664395613E+03  0.12508119504E+03 0.  0.
         23    2    1    2    0    0 -0.39560914519E+02 -0.24428862243E+03  0.71365944478E+02  0.27311235381E+03  0.90858476588E+02 0.  0.
          5    1    3    3  502    0 -0.35544680939E+02  0.30215211708E+02  0.42073417679E+02  0.62960529198E+02  0.41800000000E+01 0.  1.
         -5    1    3    3    0  502  0.75105595458E+02  0.21407341072E+03  0.88858677206E+02  0.24368342693E+03  0.41800000000E+01 0.  1.
        -11    1    4    4    0    0 -0.62692996155E+02 -0.15101310865E+03  0.21721964917E+02  0.16494609577E+03  0.00000000000E+00 0.  1.
         11    1    4    4    0    0  0.23132081636E+02 -0.93275513777E+02  0.49643979560E+02  0.10816625804E+03  0.00000000000E+00 0. -1.
</event>
<event>
 8    1  0.6840032E-009  0.1279790E+03  0.7561462E-02  0.1230486E+00
         -1   -1    0    0    0  501 -0.00000000000E+00  0.00000000000E+00  0.20781419708E+02  0.20781419708E+02  0.00000000000E+00 0.  1.
          1   -1    0    0  501    0  0.00000000000E+00 -0.00000000000E+00 -0.89808544669E+03  0.89808544669E+03  0.00000000000E+00 0. -1.
         25    2    1    2    0    0  0.28408402374E+02  0.63273403149E+02 -0.63820656493E+03  0.65403853970E+03  0.12509288955E+03 0.  0.
         23    2    1    2    0    0 -0.28408402374E+02 -0.63273403149E+02 -0.23909746205E+03  0.26482832670E+03  0.90309940721E+02 0.  0.
          5    1    3    3  502    0 -0.45638825303E+01 -0.36563730907E+02 -0.13891659355E+03  0.14378118029E+03  0.41800000000E+01 0. -1.
         -5    1    3    3    0  502  0.32972284905E+02  0.99837134056E+02 -0.49928997138E+03  0.51025735941E+03  0.41800000000E+01 0. -1.
        -11    1    4    4    0    0  0.17303317941E+02  0.15070153357E+02 -0.41935618151E+02  0.47802828407E+02  0.00000000000E+00 0.  1.
         11    1    4    4    0    0 -0.45711720315E+02 -0.78343556506E+02 -0.19716184390E+03  0.21702549830E+03  0.00000000000E+00 0. -1.
</event>
<event>
 8    1  0.6840032E-009  0.1122665E+03  0.7561462E-02  0.1256429E+00
          2   -1    0    0  501    0  0.00000000000E+00  0.00000000000E+00  0.72719413110E+03  0.72719413110E+03  0.00000000000E+00 0. -1.
         -2   -1    0    0    0  501 -0.00000000000E+00 -0.00000000000E+00 -0.24580647389E+02  0.24580647389E+02  0.00000000000E+00 0.  1.
         25    2    1    2    0    0  0.65571279303E+02  0.39954620973E+02  0.42930153712E+03  0.45369979077E+03  0.12509087081E+03 0.  0.
         23    2    1    2    0    0 -0.65571279303E+02 -0.39954620973E+02  0.27331194659E+03  0.29807498773E+03  0.90847750392E+02 0.  0.
          5    1    3    3  502    0  0.10243560643E+03  0.21787035766E+02  0.32643484635E+03  0.34284823129E+03  0.41800000000E+01 0. -1.
         -5    1    3    3    0  502 -0.36864327125E+02  0.18167585207E+02  0.10286669077E+03  0.11085155947E+03  0.41800000000E+01 0. -1.
        -11    1    4    4    0    0 -0.17782524327E+02 -0.30707032347E+01 -0.13263451790E+00  0.18046190227E+02  0.00000000000E+00 0.  1.
         11    1    4    4    0    0 -0.47788754975E+02 -0.36883917738E+02  0.27344458111E+03  0.28002879750E+03  0.00000000000E+00 0. -1.
</event>
<event>
 8    1  0.6840032E-009  0.1583663E+03  0.7561462E-02  0.1190554E+00
          1   -1    0    0  501    0  0.00000000000E+00  0.00000000000E+00  0.49394486300E+03  0.49394486300E+03  0.00000000000E+00 0. -1.
         -1   -1    0    0    0  501 -0.00000000000E+00 -0.00000000000E+00 -0.55617582969E+02  0.55617582969E+02  0.00000000000E+00 0.  1.
         25    2    1    2    0    0  0.88200722984E+02  0.83316815490E+02  0.18257254739E+03  0.25239188071E+03  0.12509143499E+03 0.  0.
         23    2    1    2    0    0 -0.88200722984E+02 -0.83316815490E+02  0.25575473265E+03  0.29717056527E+03  0.90436730987E+02 0.  0.
          5    1    3    3  502    0  0.48975148983E+02 -0.24800102301E+02  0.34965206542E+02  0.65219999698E+02  0.41800000000E+01 0.  1.
         -5    1    3    3    0  502  0.39225574001E+02  0.10811691779E+03  0.14760734085E+03  0.18717188101E+03  0.41800000000E+01 0.  1.
        -11    1    4    4    0    0 -0.75052178763E+01 -0.62905765167E+02  0.14817053014E+03  0.16114580227E+03  0.00000000000E+00 0. -1.
         11    1    4    4    0    0 -0.80695505108E+02 -0.20411050323E+02  0.10758420251E+03  0.13602476300E+03  0.00000000000E+00 0.  1.
</event>
<event>
 8    1  0.6840032E-009  0.9490095E+02  0.7561462E-02  0.1291399E+00
         -2   -1    0    0    0  501 -0.00000000000E+00  0.00000000000E+00  0.14061191613E+02  0.14061191613E+02  0.00000000000E+00 0.  1.
          2   -1    0    0  501    0  0.00000000000E+00 -0.00000000000E+00 -0.90175579096E+03  0.90175579096E+03  0.00000000000E+00 0. -1.
         25    2    1    2    0    0 -0.37519528379E+01 -0.31925022823E+02 -0.51760702828E+03  0.53347817264E+03  0.12509452717E+03 0.  0.
         23    2    1    2    0    0  0.37519528379E+01  0.31925022823E+02 -0.37008757107E+03  0.38233880994E+03  0.90470277384E+02 0.  0.
          5    1    3    3  502    0  0.42174161645E+02 -0.27560844403E+02 -0.88844965718E+02  0.10222113474E+03  0.41800000000E+01 0. -1.
         -5    1    3    3    0  502 -0.45926114482E+02 -0.43641784207E+01 -0.42876206256E+03  0.43125703790E+03  0.41800000000E+01 0. -1.
        -11    1    4    4    0    0 -0.26497282937E+02 -0.19750070943E+02 -0.88836328471E+02  0.94784305460E+02  0.00000000000E+00 0.  1.
         11    1    4    4    0    0  0.30249235775E+02  0.51675093767E+02 -0.28125124260E+03  0.28755450448E+03  0.00000000000E+00 0. -1.
</event>
<event>
 8    1  0.6840032E-009  0.9949671E+02  0.7561462E-02  0.1281358E+00
          4   -1    0    0  501    0  0.00000000000E+00  0.00000000000E+00  0.84043279850E+02  0.84043279850E+02  0.00000000000E+00 0. -1.
         -4   -1    0    0    0  501 -0.00000000000E+00 -0.00000000000E+00 -0.16826115674E+03  0.16826115674E+03  0.00000000000E+00 0.  1.
         25    2    1    2    0    0  0.45686223176E+02  0.24133934571E+02 -0.20256562947E+02  0.13685053186E+03  0.12509221376E+03 0.  0.
         23    2    1    2    0    0 -0.45686223176E+02 -0.24133934571E+02 -0.63961313947E+02  0.11545390473E+03  0.81048606714E+02 0.  0.
          5    1    3    3  502    0 -0.19999512067E+02  0.34915362839E+02 -0.49582769554E+02  0.63992081399E+02  0.41800000000E+01 0. -1.
         -5    1    3    3    0  502  0.65685735243E+02 -0.10781428268E+02  0.29326206607E+02  0.72858450463E+02  0.41800000000E+01 0. -1.
        -11    1    4    4    0    0 -0.50800020774E+02  0.14534530614E+02 -0.53223866441E+02  0.74997830967E+02  0.00000000000E+00 0.  1.
         11    1    4    4    0    0  0.51137975983E+01 -0.38668465185E+02 -0.10737447507E+02  0.40456073766E+02  0.00000000000E+00 0. -1.
</event>
<event>
 8    1  0.6840032E-009  0.1955750E+03  0.7561462E-02  0.1153527E+00
          2   -1    0    0  501    0  0.00000000000E+00  0.00000000000E+00  0.11278762410E+04  0.11278762410E+04  0.00000000000E+00 0.  1.
         -2   -1    0    0    0  501 -0.00000000000E+00 -0.00000000000E+00 -0.35380979479E+02  0.35380979479E+02  0.00000000000E+00 0. -1.
         25    2    1    2    0    0 -0.12811763401E+03  0.10308365693E+03  0.66649176430E+03  0.69778137259E+03  0.12508878276E+03 0.  0.
         23    2    1    2    0    0  0.12811763401E+03 -0.10308365693E+03  0.42600349725E+03  0.46547584792E+03  0.90268581822E+02 0.  0.
          5    1    3    3  502    0 -0.71069226591E+02 -0.16983654051E+02  0.21561905173E+03  0.22770227786E+03  0.41800000000E+01 0. -1.
         -5    1    3    3    0  502 -0.57048407419E+02  0.12006731098E+03  0.45087271258E+03  0.47007909473E+03  0.41800000000E+01 0. -1.
        -11    1    4    4    0    0  0.94582324345E+02 -0.11542687391E+03  0.37095270568E+03  0.39984383095E+03  0.00000000000E+00 0.  1.
         11    1    4    4    0    0  0.33535309665E+02  0.12343216980E+02  0.55050791570E+02  0.65632016976E+02  0.00000000000E+00 0. -1.
</event>
<event>
 7    1  0.6840032E-009  0.7861521E+02  0.7561462E-02  0.1333028E+00
         -1   -1    0    0    0  501 -0.00000000000E+00  0.00000000000E+00  0.79579968689E+02  0.79579968689E+02  0.00000000000E+00 0.  1.
          1   -1    0    0  501    0  0.00000000000E+00 -0.00000000000E+00 -0.16834847994E+03  0.16834847994E+03  0.00000000000E+00 0. -1.
         23    2    1    2    0    0  0.29297298584E+02  0.12366048572E+02 -0.39381268013E+02  0.10984276997E+03  0.97484865400E+02 0.  0.
          5    1    1    2  502    0 -0.70726643366E+01  0.18147427667E+02  0.37942870289E+02  0.42854235701E+02  0.41800000000E+01 0.  1.
         -5    1    1    2    0  502 -0.22224634248E+02 -0.30513476240E+02 -0.87330113525E+02  0.95231442959E+02  0.41800000000E+01 0.  1.
        -11    1    3    3    0    0  0.94375204944E+01 -0.41165391868E+02 -0.34344315380E+01  0.42372769567E+02  0.00000000000E+00 0.  1.
         11    1    3    3    0    0  0.19859778090E+02  0.53531440441E+02 -0.35946836475E+02  0.67470000400E+02  0.00000000000E+00 0. -1.
</event>
<event>
 8    1  0.6840032E-009  0.1536601E+03  0.7561462E-02  0.1196046E+00
          1   -1    0    0  501    0  0.00000000000E+00  0.00000000000E+00  0.40608006827E+03  0.40608006827E+03  0.00000000000E+00 0. -1.
         -1   -1    0    0    0  501 -0.00000000000E+00 -0.00000000000E+00 -0.65593439703E+02  0.65593439703E+02  0.00000000000E+00 0.  1.
         25    2    1    2    0    0  0.11869745702E+03 -0.44752805509E+01  0.21686358269E+03  0.27710369665E+03  0.12509009058E+03 0.  0.
         23    2    1    2    0    0 -0.11869745702E+03  0.44752805509E+01  0.12362304588E+03  0.19456981132E+03  0.92008910256E+02 0.  0.
          5    1    3    3  502    0  0.78384074358E+02 -0.59078875539E+02  0.90350475793E+02  0.13347305917E+03  0.41800000000E+01 0.  1.
         -5    1    3    3    0  502  0.40313382663E+02  0.54603594988E+02  0.12651310689E+03  0.14363063748E+03  0.41800000000E+01 0.  1.
        -11    1    4    4    0    0 -0.67953250613E+02 -0.35322937824E+02  0.99848963351E+02  0.12583787064E+03  0.00000000000E+00 0.  1.
         11    1    4    4    0    0 -0.50744206408E+02  0.39798218375E+02  0.23774082531E+02  0.68731940682E+02  0.00000000000E+00 0. -1.
</event>
<event>
 8    1  0.6840032E-009  0.2486833E+03  0.7561462E-02  0.1114140E+00
          1   -1    0    0  501    0  0.00000000000E+00  0.00000000000E+00  0.60786599980E+03  0.60786599980E+03  0.00000000000E+00 0.  1.
         -1   -1    0    0    0  501 -0.00000000000E+00 -0.00000000000E+00 -0.10643056193E+03  0.10643056193E+03  0.00000000000E+00 0. -1.
         25    2    1    2    0    0 -0.18302149739E+03  0.13810238866E+03  0.26424177865E+03  0.37154542382E+03  0.12511253380E+03 0.  0.
         23    2    1    2    0    0  0.18302149739E+03 -0.13810238866E+03  0.23719365922E+03  0.34275113792E+03  0.92996625266E+02 0.  0.
          5    1    3    3  502    0 -0.92304587917E+02  0.12927364429E+03  0.11325314549E+03  0.19512959648E+03  0.41800000000E+01 0.  1.
         -5    1    3    3    0  502 -0.90716909469E+02  0.88287443686E+01  0.15098863317E+03  0.17641582734E+03  0.41800000000E+01 0.  1.
        -11    1    4    4    0    0  0.48691787823E+02 -0.93962407886E+02  0.10832125258E+03  0.15143750545E+03  0.00000000000E+00 0.  1.
         11    1    4    4    0    0  0.13432970956E+03 -0.44139980773E+02  0.12887240664E+03  0.19131363246E+03  0.00000000000E+00 0. -1.
</event>
<event>
 8    1  0.6840032E-009  0.1006123E+03  0.7561462E-02  0.1279014E+00
          2   -1    0    0  501    0  0.00000000000E+00  0.00000000000E+00  0.17364114244E+03  0.17364114244E+03  0.00000000000E+00 0.  1.
         -2   -1    0    0    0  501 -0.00000000000E+00 -0.00000000000E+00 -0.10394788731E+03  0.10394788731E+03  0.00000000000E+00 0. -1.
         25    2    1    2    0    0 -0.18547911017E+02  0.57023637953E+02  0.85741784527E+02  0.16307972548E+03  0.12509045911E+03 0.  0.
         23    2    1    2    0    0  0.18547911017E+02 -0.57023637953E+02 -0.16048529396E+02  0.11450930427E+03  0.96224244245E+02 0.  0.
          5    1    3    3  502    0 -0.52143480763E+02  0.80084070960E+02  0.72515746426E+02  0.12003502359E+03  0.41800000000E+01 0. -1.
         -5    1    3    3    0  502  0.33595569747E+02 -0.23060433007E+02  0.13226038101E+02  0.43044701891E+02  0.41800000000E+01 0. -1.
        -11    1    4    4    0    0 -0.21012845739E+01 -0.32414303231E+02 -0.55088036084E+02  0.63951498578E+02  0.00000000000E+00 0. -1.
         11    1    4    4    0    0  0.20649195591E+02 -0.24609334722E+02  0.39039506688E+02  0.50557805693E+02  0.00000000000E+00 0.  1.
</event>
<event>
 8    1  0.6840032E-009  0.1050956E+03  0.7561462E-02  0.1269931E+00
         -2   -1    0    0    0  501 -0.00000000000E+00  0.00000000000E+00  0.35910905328E+02  0.35910905328E+02  0.00000000000E+00 0.  1.
          2   -1    0    0  501    0  0.00000000000E+00 -0.00000000000E+00 -0.71321779147E+03  0.71321779147E+03  0.00000000000E+00 0. -1.
         25    2    1    2    0    0 -0.46997955514E+02  0.48942735845E+02 -0.58717855315E+03  0.60417727609E+03  0.12508928192E+03 0.  0.
         23    2    1    2    0    0  0.46997955514E+02 -0.48942735845E+02 -0.90128332989E+02  0.14495142070E+03  0.91014277682E+02 0.  0.
          5    1    3    3  502    0 -0.89112439925E+02  0.23637589845E+02 -0.35310007259E+03  0.36496149971E+03  0.41800000000E+01 0. -1.
         -5    1    3    3    0  502  0.42114484412E+02  0.25305146000E+02 -0.23407848056E+03  0.23921577639E+03  0.41800000000E+01 0. -1.
        -11    1    4    4    0    0  0.14883149225E+02 -0.22577268301E+02  0.15692718676E+02  0.31265037889E+02  0.00000000000E+00 0.  1.
         11    1    4    4    0    0  0.32114806289E+02 -0.26365467544E+02 -0.10582105166E+03  0.11368638281E+03  0.00000000000E+00 0. -1.
</event>
<event>
 8    1  0.6840032E-009  0.1100147E+03  0.7561462E-02  0.1260543E+00
          2   -1    0    0  501    0  0.00000000000E+00  0.00000000000E+00  0.63099961322E+03  0.63099961322E+03  0.00000000000E+00 0. -1.
         -2   -1    0    0    0  501 -0.00000000000E+00 -0.00000000000E+00 -0.28635942018E+02  0.28635942018E+02  0.00000000000E+00 0.  1.
         25    2    1    2    0    0  0.91451735404E+01  0.70565006255E+02  0.24737577281E+03  0.28618565599E+03  0.12507758557E+03 0.  0.
         23    2    1    2    0    0 -0.91451735404E+01 -0.70565006255E+02  0.35498789839E+03  0.37344989925E+03  0.91571638294E+02 0.  0.
          5    1    3    3  502    0 -0.35344783392E+01  0.10005552220E+03  0.12833513240E+03  0.16282192318E+03  0.41800000000E+01 0. -1.
         -5    1    3    3    0  502  0.12679651880E+02 -0.29490515946E+02  0.11904064041E+03  0.12336373281E+03  0.41800000000E+01 0. -1.
        -11    1    4    4    0    0 -0.17538092953E+02 -0.11974641928E+01  0.76806992250E+01  0.19183632750E+02  0.00000000000E+00 0. -1.
         11    1    4    4    0    0  0.83929194124E+01 -0.69367542063E+02  0.34730719916E+03  0.35426626650E+03  0.00000000000E+00 0.  1.
</event>
<event>
 8    1  0.6840032E-009  0.1702912E+03  0.7561462E-02  0.1177544E+00
         -1   -1    0    0    0  501 -0.00000000000E+00  0.00000000000E+00  0.26801326892E+02  0.26801326892E+02  0.00000000000E+00 0.  1.
          1   -1    0    0  501    0  0.00000000000E+00 -0.00000000000E+00 -0.15236004841E+04  0.15236004841E+04  0.00000000000E+00 0. -1.
         25    2    1    2    0    0  0.48962216947E+02  0.15456353251E+03 -0.97288836938E+03  0.99420624150E+03  0.12508831723E+03 0.  0.
         23    2    1    2    0    0 -0.48962216947E+02 -0.15456353251E+03 -0.52391078784E+03  0.55619556949E+03  0.92648872845E+02 0.  0.
          5    1    3    3  502    0  0.24824996051E+01  0.47010881028E+02 -0.63113285025E+03  0.63289993901E+03  0.41800000000E+01 0. -1.
         -5    1    3    3    0  502  0.46479717342E+02  0.10755265149E+03 -0.34175551913E+03  0.36130630249E+03  0.41800000000E+01 0. -1.
        -11    1    4    4    0    0 -0.56175627375E+02 -0.63704235288E+02 -0.16118538752E+03  0.18219401706E+03  0.00000000000E+00 0.  1.
         11    1    4    4    0    0  0.72134104276E+01 -0.90859297227E+02 -0.36272540032E+03  0.37400155243E+03  0.00000000000E+00 0. -1.
</event>
<event>
 7    1  0.6840032E-009  0.1216597E+03  0.7561462E-02  0.1240384E+00
         -2   -1    0    0    0  501 -0.00000000000E+00  0.00000000000E+00  0.61955613485E+02  0.61955613485E+02  0.00000000000E+00 0.  1.
          2   -1    0    0  501    0  0.00000000000E+00 -0.00000000000E+00 -0.44284080153E+03  0.44284080153E+03  0.00000000000E+00 0. -1.
         23    2    1    2    0    0  0.67842454862E+02  0.33940525126E+02 -0.26574974435E+02  0.12144254390E+03  0.91035730764E+02 0.  0.
          5    1    1    2  502    0 -0.37650708097E+01 -0.70810169170E+02 -0.19894804860E+03  0.21124879705E+03  0.41800000000E+01 0. -1.
         -5    1    1    2    0  502 -0.64077384053E+02  0.36869644044E+02 -0.15536216501E+03  0.17210507406E+03  0.41800000000E+01 0. -1.
        -11    1    3    3    0    0  0.28180369363E+02 -0.17585548848E+02  0.22378083941E+02  0.40052008521E+02  0.00000000000E+00 0.  1.
         11    1    3    3    0    0  0.39662085499E+02  0.51526073974E+02 -0.48953058376E+02  0.81390535381E+02  0.00000000000E+00 0. -1.
</event>
<event>
 8    1  0.6840032E-009  0.1135959E+03  0.7561462E-02  0.1254052E+00
         -1   -1    0    0    0  501 -0.00000000000E+00  0.00000000000E+00  0.12637563622E+02  0.12637563622E+02  0.00000000000E+00 0.  1.
          1   -1    0    0  501    0  0.00000000000E+00 -0.00000000000E+00 -0.11882584451E+04  0.11882584451E+04  0.00000000000E+00 0. -1.
         25    2    1    2    0    0  0.52891581656E+02 -0.12257969619E+02 -0.69953217525E+03  0.71269968420E+03  0.12509116041E+03 0.  0.
         23    2    1    2    0    0 -0.52891581656E+02  0.12257969619E+02 -0.47608870623E+03  0.48819632453E+03  0.93420650047E+02 0.  0.
          5    1    3    3  502    0 -0.33689223457E+02 -0.93388722486E+01 -0.37929177277E+03  0.38092243253E+03  0.41800000000E+01 0. -1.
         -5    1    3    3    0  502  0.86580805113E+02 -0.29190973701E+01 -0.32024040248E+03  0.33177725167E+03  0.41800000000E+01 0. -1.
        -11    1    4    4    0    0 -0.35326158608E+02 -0.38077071581E+02 -0.29030119809E+03  0.29491115014E+03  0.00000000000E+00 0.  1.
         11    1    4    4    0    0 -0.17565423048E+02  0.50335041200E+02 -0.18578750814E+03  0.19328517439E+03  0.00000000000E+00 0. -1.
</event>
<event>
 8    1  0.6840032E-009  0.1006240E+03  0.7561462E-02  0.1278989E+00
          1   -1    0    0  501    0  0.00000000000E+00  0.00000000000E+00  0.20843353306E+03  0.20843353306E+03  0.00000000000E+00 0. -1.
         -1   -1    0    0    0  501 -0.00000000000E+00 -0.00000000000E+00 -0.82071785065E+02  0.82071785065E+02  0.00000000000E+00 0.  1.
         25    2    1    2    0    0 -0.23958786744E+02  0.30914192716E+02  0.16923206381E+01  0.13107245477E+03  0.12508962257E+03 0.  0.
         23    2    1    2    0    0  0.23958786744E+02 -0.30914192716E+02  0.12466942736E+03  0.15943286336E+03  0.91360062542E+02 0.  0.
          5    1    3    3  502    0  0.36271885455E+02  0.26369382190E+02  0.39319174390E+02  0.59786820172E+02  0.41800000000E+01 0.  1.
         -5    1    3    3    0  502 -0.60230672199E+02  0.45448105260E+01 -0.37626853752E+02  0.71285634595E+02  0.41800000000E+01 0.  1.
        -11    1    4    4    0    0 -0.18530435439E+02 -0.46773611456E+02  0.43757662511E+02  0.66677438423E+02  0.00000000000E+00 0.  1.
         11    1    4    4    0    0  0.42489222184E+02  0.15859418740E+02  0.80911764845E+02  0.92755424935E+02  0.00000000000E+00 0. -1.
</event>
<event>
 8    1  0.6840032E-009  0.1062268E+03  0.7561462E-02  0.1267721E+00
          2   -1    0    0  501    0  0.00000000000E+00  0.00000000000E+00  0.48941871506E+03  0.48941871506E+03  0.00000000000E+00 0. -1.
         -2   -1    0    0    0  501 -0.00000000000E+00 -0.00000000000E+00 -0.23951535327E+02  0.23951535327E+02  0.00000000000E+00 0.  1.
         25    2    1    2    0    0  0.60850903796E+01  0.15670746265E+02  0.26169500248E+03  0.29054122146E+03  0.12508927384E+03 0.  0.
         23    2    1    2    0    0 -0.60850903796E+01 -0.15670746265E+02  0.20377217724E+03  0.22282902892E+03  0.88583719143E+02 0.  0.
          5    1    3    3  502    0 -0.51491618677E+02 -0.22584348954E+02  0.13138884844E+03  0.14297531782E+03  0.41800000000E+01 0.  1.
         -5    1    3    3    0  502  0.57576709056E+02  0.38255095218E+02  0.13030615404E+03  0.14756590364E+03  0.41800000000E+01 0.  1.
        -11    1    4    4    0    0 -0.85732951979E+01  0.35026469595E+02  0.56225882249E+02  0.66795993873E+02  0.00000000000E+00 0.  1.
         11    1    4    4    0    0  0.24882048183E+01 -0.50697215860E+02  0.14754629499E+03  0.15603303505E+03  0.00000000000E+00 0. -1.
</event>
<event>
 8    1  0.6840032E-009  0.1229797E+03  0.7561462E-02  0.1238261E+00
         -2   -1    0    0    0  501 -0.00000000000E+00  0.00000000000E+00  0.17297033090E+03  0.17297033090E+03  0.00000000000E+00 0.  1.
          2   -1    0    0  501    0  0.00000000000E+00 -0.00000000000E+00 -0.15815781309E+03  0.15815781309E+03  0.00000000000E+00 0. -1.
         25    2    1    2    0    0  0.11443912514E+03  0.15923175993E+02 -0.40443418568E+02  0.17502099559E+03  0.12508724114E+03 0.  0.
         23    2    1    2    0    0 -0.11443912514E+03 -0.15923175993E+02  0.55255936378E+02  0.15610714840E+03  0.89254481015E+02 0.  0.
          5    1    3    3  502    0  0.44371029471E+02  0.28624217222E+02  0.40833957903E+02  0.66880629377E+02  0.41800000000E+01 0. -1.
         -5    1    3    3    0  502  0.70068095667E+02 -0.12701041228E+02 -0.81277376470E+02  0.10814036621E+03  0.41800000000E+01 0. -1.
        -11    1    4    4    0    0 -0.60627005222E+02 -0.27569193593E+02  0.72465519622E+02  0.98422282699E+02  0.00000000000E+00 0.  1.
         11    1    4    4    0    0 -0.53812119916E+02  0.11646017599E+02 -0.17209583244E+02  0.57684865703E+02  0.00000000000E+00 0. -1.
</event>
<event>
 8    1  0.6840032E-009  0.1408398E+03  0.7561462E-02  0.1212203E+00
         -1   -1    0    0    0  501 -0.00000000000E+00  0.00000000000E+00  0.21735966009E+03  0.21735966009E+03  0.00000000000E+00 0.  1.
          1   -1    0    0  501    0  0.00000000000E+00 -0.00000000000E+00 -0.14214277573E+03  0.14214277573E+03  0.00000000000E+00 0. -1.
         25    2    1    2    0    0 -0.96838970260E+00  0.96324811162E+02  0.14022058427E+03  0.21115957046E+03  0.12508854831E+03 0.  0.
         23    2    1    2    0    0  0.96838970260E+00 -0.96324811162E+02 -0.65003699913E+02  0.14834286536E+03  0.92199336640E+02 0.  0.
          5    1    3    3  502    0  0.44196426177E+02 -0.33436729851E+01  0.20816424354E+02  0.49145703360E+02  0.41800000000E+01 0. -1.
         -5    1    3    3    0  502 -0.45164815880E+02  0.99668484147E+02  0.11940415992E+03  0.16201386710E+03  0.41800000000E+01 0. -1.
        -11    1    4    4    0    0  0.29491091304E+02 -0.25060388680E+01  0.18624711875E+01  0.29655918398E+02  0.00000000000E+00 0.  1.
         11    1    4    4    0    0 -0.28522701602E+02 -0.93818772294E+02 -0.66866171100E+02  0.11868694696E+03  0.00000000000E+00 0. -1.
</event>
<event>
 8    1  0.6840032E-009  0.1690481E+03  0.7561462E-02  0.1178844E+00
          2   -1    0    0  501    0  0.00000000000E+00  0.00000000000E+00  0.35642698024E+03  0.35642698024E+03  0.00000000000E+00 0. -1.
         -2   -1    0    0    0  501 -0.00000000000E+00 -0.00000000000E+00 -0.12218653389E+03  0.12218653389E+03  0.00000000000E+00 0.  1.
         25    2    1    2    0    0 -0.42279426598E+02 -0.15319574840E+03  0.21403785787E+03  0.29447559787E+03  0.12508871213E+03 0.  0.
         23    2    1    2    0    0  0.42279426598E+02  0.15319574840E+03  0.20202588478E+02  0.18413791625E+03  0.90786234523E+02 0.  0.
          5    1    3    3  502    0 -0.55002363771E+02 -0.14182435563E+03  0.10705111612E+03  0.18605596398E+03  0.41800000000E+01 0.  1.
         -5    1    3    3    0  502  0.12722937173E+02 -0.11371392769E+02  0.10698674175E+03  0.10841963389E+03  0.41800000000E+01 0.  1.
        -11    1    4    4    0    0  0.33757141150E+01  0.11065463299E+03 -0.21773603725E+02  0.11282700505E+03  0.00000000000E+00 0.  1.
         11    1    4    4    0    0  0.38903712483E+02  0.42541115407E+02  0.41976192202E+02  0.71310911205E+02  0.00000000000E+00 0. -1.
</event>
<event>
 8    1  0.6840032E-009  0.7258274E+02  0.7561462E-02  0.1351524E+00
         -2   -1    0    0    0  501 -0.00000000000E+00  0.00000000000E+00  0.45302436999E+02  0.45302436999E+02  0.00000000000E+00 0. -1.
          2   -1    0    0  501    0  0.00000000000E+00 -0.00000000000E+00 -0.28780750846E+03  0.28780750846E+03  0.00000000000E+00 0.  1.
         25    2    1    2    0    0  0.19800065062E+02 -0.86974379841E+00 -0.94039633138E+02  0.15774744280E+03  0.12509198246E+03 0.  0.
         23    2    1    2    0    0 -0.19800065062E+02  0.86974379841E+00 -0.14846543833E+03  0.17536250267E+03  0.91198804452E+02 0.  0.
          5    1    3    3  502    0 -0.18902640034E+02 -0.23473780521E+02 -0.10672661315E+03  0.11097914456E+03  0.41800000000E+01 0. -1.
         -5    1    3    3    0  502  0.38702705096E+02  0.22604036723E+02  0.12686980015E+02  0.46768298235E+02  0.41800000000E+01 0. -1.
        -11    1    4    4    0    0  0.17147318493E+01  0.31910204180E+02 -0.12895013388E+03  0.13285081281E+03  0.00000000000E+00 0.  1.
         11    1    4    4    0    0 -0.21514796912E+02 -0.31040460382E+02 -0.19515304443E+02  0.42511689856E+02  0.00000000000E+00 0. -1.
</event>
<event>
 8    1  0.6840032E-009  0.9942702E+02  0.7561462E-02  0.1281505E+00
         -2   -1    0    0    0  501 -0.00000000000E+00  0.00000000000E+00  0.41930488379E+02  0.41930488379E+02  0.00000000000E+00 0.  1.
          2   -1    0    0  501    0  0.00000000000E+00 -0.00000000000E+00 -0.44264812823E+03  0.44264812823E+03  0.00000000000E+00 0. -1.
         25    2    1    2    0    0 -0.48692756343E+02  0.45808098898E+02 -0.30052659164E+03  0.33231433294E+03  0.12508883705E+03 0.  0.
         23    2    1    2    0    0  0.48692756343E+02 -0.45808098898E+02 -0.10019104822E+03  0.15226428367E+03  0.93149339738E+02 0.  0.
          5    1    3    3  502    0  0.29102507682E+02  0.10284640477E+01 -0.17774249623E+03  0.18016070897E+03  0.41800000000E+01 0. -1.
         -5    1    3    3    0  502 -0.77795264026E+02  0.44779634851E+02 -0.12278409541E+03  0.15215362397E+03  0.41800000000E+01 0. -1.
        -11    1    4    4    0    0  0.55768949277E+02 -0.32619668648E+02 -0.15740843499E+02  0.66498064936E+02  0.00000000000E+00 0.  1.
         11    1    4    4    0    0 -0.70761929341E+01 -0.13188430250E+02 -0.84450204719E+02  0.85766218734E+02  0.00000000000E+00 0. -1.
</event>
<event>
 8    1  0.6840032E-009  0.9760347E+02  0.7561462E-02  0.1285418E+00
         -2   -1    0    0    0  501 -0.00000000000E+00  0.00000000000E+00  0.33070108442E+02  0.33070108442E+02  0.00000000000E+00 0. -1.
          2   -1    0    0  501    0  0.00000000000E+00 -0.00000000000E+00 -0.36076295738E+03  0.36076295738E+03  0.00000000000E+00 0.  1.
         25    2    1    2    0    0 -0.63260931886E+00  0.13489640479E+02 -0.18017632165E+03  0.21976053748E+03  0.12509522914E+03 0.  0.
         23    2    1    2    0    0  0.63260931886E+00 -0.13489640479E+02 -0.14751652729E+03  0.17407252835E+03  0.91420723622E+02 0.  0.
          5    1    3    3  502    0 -0.33431150719E+02 -0.37431129521E+02 -0.13498773678E+03  0.14407599653E+03  0.41800000000E+01 0.  1.
         -5    1    3    3    0  502  0.32798541401E+02  0.50920770000E+02 -0.45188584876E+02  0.75684540948E+02  0.41800000000E+01 0.  1.
        -11    1    4    4    0    0  0.68337820788E+01  0.34790765727E+02 -0.99790190526E+02  0.10590174731E+03  0.00000000000E+00 0.  1.
         11    1    4    4    0    0 -0.62011727600E+01 -0.48280406206E+02 -0.47726336759E+02  0.68170781039E+02  0.00000000000E+00 0. -1.
</event>
<event>
 8    1  0.6840032E-009  0.1910630E+03  0.7561462E-02  0.1157506E+00
          2   -1    0    0  501    0  0.00000000000E+00  0.00000000000E+00  0.37333266561E+03  0.37333266561E+03  0.00000000000E+00 0. -1.
         -2   -1    0    0    0  501 -0.00000000000E+00 -0.00000000000E+00 -0.11873088384E+03  0.11873088384E+03  0.00000000000E+00 0.  1.
         25    2    1    2    0    0  0.55702572618E+02 -0.16123800175E+03  0.65672263623E+02  0.22149570904E+03  0.12508810139E+03 0.  0.
         23    2    1    2    0    0 -0.55702572618E+02  0.16123800175E+03  0.18892951815E+03  0.27056784042E+03  0.91717629918E+02 0.  0.
          5    1    3    3  502    0  0.63964177167E+02 -0.17974973249E+03  0.59418564540E+02  0.19987351126E+03  0.41800000000E+01 0.  1.
         -5    1    3    3    0  502 -0.82616045482E+01  0.18511730741E+02  0.62536990830E+01  0.21622197783E+02  0.41800000000E+01 0.  1.
        -11    1    4    4    0    0 -0.19879170514E+02  0.56343021772E+02  0.13430601828E+03  0.14699600018E+03  0.00000000000E+00 0. -1.
         11    1    4    4    0    0 -0.35823402105E+02  0.10489497997E+03  0.54623499868E+02  0.12357184024E+03  0.00000000000E+00 0.  1.
</event>
<event>
 8    1  0.6840032E-009  0.1299010E+03  0.7561462E-02  0.1227603E+00
         -1   -1    0    0    0  501 -0.00000000000E+00  0.00000000000E+00  0.58144442032E+02  0.58144442032E+02  0.00000000000E+00 0.  1.
          1   -1    0    0  501    0  0.00000000000E+00 -0.00000000000E+00 -0.37603873093E+03  0.37603873093E+03  0.00000000000E+00 0. -1.
         25    2    1    2    0    0 -0.29678110833E+02  0.91631537653E+02 -0.13591825980E+03  0.20832135712E+03  0.12508751149E+03 0.  0.
         23    2    1    2    0    0  0.29678110833E+02 -0.91631537653E+02 -0.18197602910E+03  0.22586181585E+03  0.92850178966E+02 0.  0.
          5    1    3    3  502    0  0.51701014486E+01  0.98336984372E+02 -0.14120343076E+03  0.17219980750E+03  0.41800000000E+01 0.  1.
         -5    1    3    3    0  502 -0.34848212282E+02 -0.67054467186E+01  0.52851709603E+01  0.36121549621E+02  0.41800000000E+01 0.  1.
        -11    1    4    4    0    0 -0.26184621484E+02 -0.13500123724E+02 -0.82420090556E+02  0.87526904835E+02  0.00000000000E+00 0. -1.
         11    1    4    4    0    0  0.55862732317E+02 -0.78131413929E+02 -0.99555938548E+02  0.13833491101E+03  0.00000000000E+00 0.  1.
</event>
<event>
 8    1  0.6840032E-009  0.1615902E+03  0.7561462E-02  0.1186913E+00
          1   -1    0    0  501    0  0.00000000000E+00  0.00000000000E+00  0.49139540709E+02  0.49139540709E+02  0.00000000000E+00 0. -1.
         -1   -1    0    0    0  501 -0.00000000000E+00 -0.00000000000E+00 -0.78569111346E+03  0.78569111346E+03  0.00000000000E+00 0.  1.
         25    2    1    2    0    0  0.74533171444E+02 -0.13304939607E+03 -0.50753283052E+03  0.54451276587E+03  0.12508893917E+03 0.  0.
         23    2    1    2    0    0 -0.74533171444E+02  0.13304939607E+03 -0.22901874223E+03  0.29031788830E+03  0.92615098828E+02 0.  0.
          5    1    3    3  502    0  0.79421396259E+02 -0.76200592002E+02 -0.45035047357E+03  0.46362410404E+03  0.41800000000E+01 0.  1.
         -5    1    3    3    0  502 -0.48882248149E+01 -0.56848804070E+02 -0.57182356945E+02  0.80888661825E+02  0.41800000000E+01 0.  1.
        -11    1    4    4    0    0 -0.19471277173E+02  0.67322807441E+02 -0.35296587852E+02  0.78468720842E+02  0.00000000000E+00 0. -1.
         11    1    4    4    0    0 -0.55061894270E+02  0.65726588631E+02 -0.19372215438E+03  0.21184916746E+03  0.00000000000E+00 0.  1.
</event>
<event>
 8    1  0.6840032E-009  0.7759600E+02  0.7561462E-02  0.1336015E+00
         -1   -1    0    0    0  501 -0.00000000000E+00  0.00000000000E+00  0.51715935177E+02  0.51715935177E+02  0.00000000000E+00 0.  1.
          1   -1    0    0  501    0  0.00000000000E+00 -0.00000000000E+00 -0.29171391229E+03  0.29171391229E+03  0.00000000000E+00 0. -1.
         25    2    1    2    0    0  0.50301871591E+02 -0.10017471081E+02 -0.94264278116E+02  0.16481341364E+03  0.12508828552E+03 0.  0.
         23    2    1    2    0    0 -0.50301871591E+02  0.10017471081E+02 -0.14573369900E+03  0.17861643383E+03  0.89637555738E+02 0.  0.
          5    1    3    3  502    0  0.11426202773E+02 -0.20180676960E+01  0.30990377620E+02  0.33354259279E+02  0.41800000000E+01 0. -1.
         -5    1    3    3    0  502  0.38875668819E+02 -0.79994033846E+01 -0.12525465574E+03  0.13145915436E+03  0.41800000000E+01 0. -1.
        -11    1    4    4    0    0 -0.44558750151E+01  0.45038063525E+02 -0.71146194491E+02  0.84321189382E+02  0.00000000000E+00 0. -1.
         11    1    4    4    0    0 -0.45845996576E+02 -0.35020592444E+02 -0.74587504507E+02  0.94295244449E+02  0.00000000000E+00 0.  1.
</event>
<event>
 8    1  0.6840032E-009  0.1093510E+03  0.7561462E-02  0.1261776E+00
         -3   -1    0    0    0  501 -0.00000000000E+00  0.00000000000E+00  0.58237213530E+02  0.58237213530E+02  0.00000000000E+00 0.  1.
          3   -1    0    0  501    0  0.00000000000E+00 -0.00000000000E+00 -0.25698714088E+03  0.25698714088E+03  0.00000000000E+00 0. -1.
         25    2    1    2    0    0  0.17818378495E+02 -0.50346420978E+02 -0.10440169374E+03  0.17146297057E+03  0.12509028701E+03 0.  0.
         23    2    1    2    0    0 -0.17818378495E+02  0.50346420978E+02 -0.94348233615E+02  0.14376138384E+03  0.94411278887E+02 0.  0.
          5    1    3    3  502    0  0.21377925540E+02 -0.91006957837E+02 -0.83504230443E+02  0.12541814453E+03  0.41800000000E+01 0. -1.
         -5    1    3    3    0  502 -0.35595470449E+01  0.40660536860E+02 -0.20897463294E+02  0.46044826039E+02  0.41800000000E+01 0. -1.
        -11    1    4    4    0    0  0.24311819451E+02  0.11937826699E+02 -0.80722826415E+02  0.85145469496E+02  0.00000000000E+00 0. -1.
         11    1    4    4    0    0 -0.42130197946E+02  0.38408594279E+02 -0.13625407199E+02  0.58615914348E+02  0.00000000000E+00 0.  1.
</event>
<event>
 8    1  0.6840032E-009  0.1066774E+03  0.7561462E-02  0.1266850E+00
         -1   -1    0    0    0  501 -0.00000000000E+00  0.00000000000E+00  0.49146534319E+02  0.49146534319E+02  0.00000000000E+00 0.  1.
          1   -1    0    0  501    0  0.00000000000E+00 -0.00000000000E+00 -0.34767788127E+03  0.34767788127E+03  0.00000000000E+00 0. -1.
         25    2    1    2    0    0  0.47655547540E+02 -0.44367089284E+02 -0.11347792596E+03  0.18100829379E+03  0.12508905994E+03 0.  0.
         23    2    1    2    0    0 -0.47655547540E+02  0.44367089284E+02 -0.18505342099E+03  0.21581612180E+03  0.89957434304E+02 0.  0.
          5    1    3    3  502    0  0.58390083086E+02 -0.63160779992E+02 -0.24778731864E+02  0.89611070102E+02  0.41800000000E+01 0.  1.
         -5    1    3    3    0  502 -0.10734535547E+02  0.18793690709E+02 -0.88699194097E+02  0.91397223685E+02  0.41800000000E+01 0.  1.
        -11    1    4    4    0    0  0.23649289945E+02  0.68468845555E+01 -0.78228469901E+02  0.82011354372E+02  0.00000000000E+00 0. -1.
         11    1    4    4    0    0 -0.71304837484E+02  0.37520204728E+02 -0.10682495109E+03  0.13380476743E+03  0.00000000000E+00 0.  1.
</event>
<event>
 8    1  0.6840032E-009  0.1510571E+03  0.7561462E-02  0.1199180E+00
         -2   -1    0    0    0  501 -0.00000000000E+00  0.00000000000E+00  0.23598013556E+02  0.23598013556E+02  0.00000000000E+00 0.  1.
          2   -1    0    0  501    0  0.00000000000E+00 -0.00000000000E+00 -0.12529690361E+04  0.12529690361E+04  0.00000000000E+00 0. -1.
         25    2    1    2    0    0 -0.76171408856E+02 -0.11610737526E+03 -0.69743858733E+03  0.72204685028E+03  0.12509222515E+03 0.  0.
         23    2    1    2    0    0  0.76171408856E+02  0.11610737526E+03 -0.53193243518E+03  0.55452019933E+03  0.72508825384E+02 0.  0.
          5    1    3    3  502    0  0.11634750075E+02 -0.20855575808E+01 -0.30681682020E+01  0.12907479067E+02  0.41800000000E+01 0.  1.
         -5    1    3    3    0  502 -0.87806158932E+02 -0.11402181768E+03 -0.69437041912E+03  0.70913937122E+03  0.41800000000E+01 0.  1.
        -11    1    4    4    0    0  0.44168229295E+02  0.10095508563E+03 -0.47386070527E+03  0.48650460408E+03  0.00000000000E+00 0. -1.
         11    1    4    4    0    0  0.32003179561E+02  0.15152289634E+02 -0.58071729905E+02  0.68015595251E+02  0.00000000000E+00 0.  1.
</event>
<event>
 8    1  0.6840032E-009  0.1100075E+03  0.7561462E-02  0.1260556E+00
         -2   -1    0    0    0  501 -0.00000000000E+00  0.00000000000E+00  0.58798509723E+02  0.58798509723E+02  0.00000000000E+00 0.  1.
          2   -1    0    0  501    0  0.00000000000E+00 -0.00000000000E+00 -0.25344957868E+03  0.25344957868E+03  0.00000000000E+00 0. -1.
         25    2    1    2    0    0 -0.20685218140E+02  0.50967778579E+02 -0.87999168850E+02  0.16253523227E+03  0.12509298665E+03 0.  0.
         23    2    1    2    0    0  0.20685218140E+02 -0.50967778579E+02 -0.10665190010E+03  0.14971285612E+03  0.89519376620E+02 0.  0.
          5    1    3    3  502    0 -0.16187438082E+02  0.90625670345E+02 -0.41369288595E+02  0.10101453220E+03  0.41800000000E+01 0.  1.
         -5    1    3    3    0  502 -0.44977800586E+01 -0.39657891766E+02 -0.46629880255E+02  0.61520700073E+02  0.41800000000E+01 0.  1.
        -11    1    4    4    0    0 -0.17344206794E+02 -0.46266658556E+02 -0.98988454474E+02  0.11063516314E+03  0.00000000000E+00 0. -1.
         11    1    4    4    0    0  0.38029424935E+02 -0.47011200232E+01 -0.76634456301E+01  0.39077692988E+02  0.00000000000E+00 0.  1.
</event>
<event>
 8    1  0.6840032E-009  0.1136879E+03  0.7561462E-02  0.1253889E+00
          1   -1    0    0  501    0  0.00000000000E+00  0.00000000000E+00  0.45239758013E+02  0.45239758013E+02  0.00000000000E+00 0. -1.
         -1   -1    0    0    0  501 -0.00000000000E+00 -0.00000000000E+00 -0.36641420923E+03  0.36641420923E+03  0.00000000000E+00 0.  1.
         25    2    1    2    0    0  0.55981178352E+02  0.62310388129E+02 -0.15760515189E+03  0.21795301193E+03  0.12509058602E+03 0.  0.
         23    2    1    2    0    0 -0.55981178352E+02 -0.62310388129E+02 -0.16356929933E+03  0.19370095531E+03  0.61226363662E+02 0.  0.
          5    1    3    3  502    0 -0.23863622336E+02  0.45752170907E+02 -0.11441570963E+03  0.12558328163E+03  0.41800000000E+01 0.  1.
         -5    1    3    3    0  502  0.79844800688E+02  0.16558217222E+02 -0.43189442258E+02  0.92369730307E+02  0.41800000000E+01 0.  1.
        -11    1    4    4    0    0 -0.40585380919E+02 -0.13497251137E+02 -0.34825064115E+02  0.55155543903E+02  0.00000000000E+00 0.  1.
         11    1    4    4    0    0 -0.15395797433E+02 -0.48813136992E+02 -0.12874423522E+03  0.13854541141E+03  0.00000000000E+00 0. -1.
</event>
<event>
 8    1  0.6840032E-009  0.1258272E+03  0.7561462E-02  0.1233782E+00
         -3   -1    0    0    0  501 -0.00000000000E+00  0.00000000000E+00  0.27681579418E+03  0.27681579418E+03  0.00000000000E+00 0.  1.
          3   -1    0    0  501    0  0.00000000000E+00 -0.00000000000E+00 -0.63225067591E+02  0.63225067591E+02  0.00000000000E+00 0. -1.
         25    2    1    2    0    0 -0.71341337608E+02 -0.19112714421E+02  0.10126029012E+03  0.17708366015E+03  0.12510033586E+03 0.  0.
         23    2    1    2    0    0  0.71341337608E+02  0.19112714421E+02  0.11233043647E+03  0.16295720162E+03  0.92097992917E+02 0.  0.
          5    1    3    3  502    0 -0.75067963686E+02  0.33835485589E+02  0.29153527117E+02  0.87449641511E+02  0.41800000000E+01 0.  1.
         -5    1    3    3    0  502  0.37266260776E+01 -0.52948200010E+02  0.72106763006E+02  0.89634018639E+02  0.41800000000E+01 0.  1.
        -11    1    4    4    0    0 -0.14514939737E+02  0.26057217799E+02  0.43268379153E+02  0.52552970511E+02  0.00000000000E+00 0.  1.
         11    1    4    4    0    0  0.85856277345E+02 -0.69445033782E+01  0.69062057314E+02  0.11040423111E+03  0.00000000000E+00 0. -1.
</event>
<event>
 8    1  0.6840032E-009  0.9985566E+02  0.7561462E-02  0.1280600E+00
         -2   -1    0    0    0  501 -0.00000000000E+00  0.00000000000E+00  0.54930439539E+03  0.54930439539E+03  0.00000000000E+00 0.  1.
          2   -1    0    0  501    0  0.00000000000E+00 -0.00000000000E+00 -0.40049655350E+02  0.40049655350E+02  0.00000000000E+00 0. -1.
         25    2    1    2    0    0 -0.14815056104E+02  0.50188291122E+02  0.11226854845E+03  0.17603725307E+03  0.12508611851E+03 0.  0.
         23    2    1    2    0    0  0.14815056104E+02 -0.50188291122E+02  0.39698619159E+03  0.41331679767E+03  0.10244212253E+03 0.  0.
          5    1    3    3  502    0 -0.55047679857E+02  0.94398475294E+01  0.74192506196E+01  0.56496685378E+02  0.41800000000E+01 0. -1.
         -5    1    3    3    0  502  0.40232623752E+02  0.40748443593E+02  0.10484929783E+03  0.11954056769E+03  0.41800000000E+01 0. -1.
        -11    1    4    4    0    0  0.12422385103E+02 -0.67590313913E+02  0.38711465142E+03  0.39316729204E+03  0.00000000000E+00 0.  1.
         11    1    4    4    0    0  0.23926710013E+01  0.17402022791E+02  0.98715401726E+01  0.20149505630E+02  0.00000000000E+00 0. -1.
</event>
<event>
 8    1  0.6840032E-009  0.1200094E+03  0.7561462E-02  0.1243082E+00
         -2   -1    0    0    0  501 -0.00000000000E+00  0.00000000000E+00  0.46420819662E+03  0.46420819662E+03  0.00000000000E+00 0.  1.
          2   -1    0    0  501    0  0.00000000000E+00 -0.00000000000E+00 -0.42957765497E+02  0.42957765497E+02  0.00000000000E+00 0. -1.
         25    2    1    2    0    0 -0.82668703331E+02 -0.34624047898E+02  0.20816124530E+03  0.25886559577E+03  0.12508938174E+03 0.  0.
         23    2    1    2    0    0  0.82668703331E+02  0.34624047898E+02  0.21308918582E+03  0.24830036635E+03  0.90626329574E+02 0.  0.
          5    1    3    3  502    0 -0.25139195942E+02  0.26080391765E+02  0.15601109375E+03  0.16021579130E+03  0.41800000000E+01 0. -1.
         -5    1    3    3    0  502 -0.57529507389E+02 -0.60704439663E+02  0.52150151549E+02  0.98649804469E+02  0.41800000000E+01 0. -1.
        -11    1    4    4    0    0  0.72078380988E+02 -0.11058667003E+02  0.16845154377E+03  0.18355791926E+03  0.00000000000E+00 0.  1.
         11    1    4    4    0    0  0.10590322343E+02  0.45682714901E+02  0.44637642045E+02  0.64742447092E+02  0.00000000000E+00 0. -1.
</event>
<event>
 8    1  0.6840032E-009  0.9700313E+02  0.7561462E-02  0.1286727E+00
          2   -1    0    0  501    0  0.00000000000E+00  0.00000000000E+00  0.89941094443E+02  0.89941094443E+02  0.00000000000E+00 0. -1.
         -2   -1    0    0    0  501 -0.00000000000E+00 -0.00000000000E+00 -0.15162034591E+03  0.15162034591E+03  0.00000000000E+00 0.  1.
         25    2    1    2    0    0  0.38719337925E+02  0.75860426624E+01 -0.33797471052E+02  0.13545182775E+03  0.12509273927E+03 0.  0.
         23    2    1    2    0    0 -0.38719337925E+02 -0.75860426624E+01 -0.27881780411E+02  0.10610961260E+03  0.94472858720E+02 0.  0.
          5    1    3    3  502    0  0.26501502656E+02 -0.45384682770E+02  0.22282157678E+02  0.57236928848E+02  0.41800000000E+01 0. -1.
         -5    1    3    3    0  502  0.12217835269E+02  0.52970725432E+02 -0.56079628730E+02  0.78214898900E+02  0.41800000000E+01 0. -1.
        -11    1    4    4    0    0 -0.62477449998E+02 -0.80908845629E+01  0.75466997865E+01  0.63449561455E+02  0.00000000000E+00 0. -1.
         11    1    4    4    0    0  0.23758112073E+02  0.50484190059E+00 -0.35428480198E+02  0.42660051145E+02  0.00000000000E+00 0.  1.
</event>
<event>
 8    1  0.6840032E-009  0.1146204E+03  0.7561462E-02  0.1252245E+00
         -2   -1    0    0    0  501 -0.00000000000E+00  0.00000000000E+00  0.86661242834E+02  0.86661242834E+02  0.00000000000E+00 0.  1.
          2   -1    0    0  501    0  0.00000000000E+00 -0.00000000000E+00 -0.18222433864E+03  0.18222433864E+03  0.00000000000E+00 0. -1.
         25    2    1    2    0    0  0.35327411205E+02  0.44783821210E+01 -0.10517894207E+03  0.16725221866E+03  0.12507043176E+03 0.  0.
         23    2    1    2    0    0 -0.35327411205E+02 -0.44783821210E+01  0.96158462644E+01  0.10163336282E+03  0.94703717191E+02 0.  0.
          5    1    3    3  502    0 -0.30693314165E+02  0.42221034075E+02 -0.30573269046E+02  0.60637384780E+02  0.41800000000E+01 0. -1.
         -5    1    3    3    0  502  0.66020725370E+02 -0.37742651954E+02 -0.74605673027E+02  0.10661483388E+03  0.41800000000E+01 0. -1.
        -11    1    4    4    0    0 -0.50977993969E+02  0.32569871513E+02  0.10534084790E+02  0.61404554732E+02  0.00000000000E+00 0.  1.
         11    1    4    4    0    0  0.15650582764E+02 -0.37048253634E+02 -0.91823852536E+00  0.40228808088E+02  0.00000000000E+00 0. -1.
</event>
<event>
 8    1  0.6840032E-009  0.1577375E+03  0.7561462E-02  0.1191275E+00
         -1   -1    0    0    0  501 -0.00000000000E+00  0.00000000000E+00  0.25936924353E+03  0.25936924353E+03  0.00000000000E+00 0.  1.
          1   -1    0    0  501    0  0.00000000000E+00 -0.00000000000E+00 -0.15136004999E+03  0.15136004999E+03  0.00000000000E+00 0. -1.
         25    2    1    2    0    0  0.49965006750E+02  0.12664789934E+03 -0.40930101217E+02  0.18936496917E+03  0.12509047148E+03 0.  0.
         23    2    1    2    0    0 -0.49965006750E+02 -0.12664789934E+03  0.14893929476E+03  0.22136432436E+03  0.91011308465E+02 0.  0.
          5    1    3    3  502    0 -0.26878101243E+02  0.31789345933E+02  0.26808186603E+02  0.49690503219E+02  0.41800000000E+01 0. -1.
         -5    1    3    3    0  502  0.76843107993E+02  0.94858553410E+02 -0.67738287819E+02  0.13967446595E+03  0.41800000000E+01 0. -1.
        -11    1    4    4    0    0 -0.14731443123E+02  0.47256388535E+01  0.52226670135E+02  0.54469919703E+02  0.00000000000E+00 0.  1.
         11    1    4    4    0    0 -0.35233563627E+02 -0.13137353820E+03  0.96712624622E+02  0.16689440466E+03  0.00000000000E+00 0. -1.
</event>
<event>
 7    1  0.6840032E-009  0.1160107E+03  0.7561462E-02  0.1249827E+00
          2   -1    0    0  501    0  0.00000000000E+00  0.00000000000E+00  0.79625364833E+03  0.79625364833E+03  0.00000000000E+00 0. -1.
         -2   -1    0    0    0  501 -0.00000000000E+00 -0.00000000000E+00 -0.33995666768E+02  0.33995666768E+02  0.00000000000E+00 0.  1.
         23    2    1    2    0    0  0.79360353914E+02  0.64683326074E+02  0.54422570546E+03  0.55973907514E+03  0.81512056265E+02 0.  0.
          5    1    1    2  502    0 -0.52405813342E+02 -0.32591663308E+02  0.21981776387E+03  0.22835478427E+03  0.41800000000E+01 0.  1.
         -5    1    1    2    0  502 -0.26954540572E+02 -0.32091662766E+02 -0.17854877694E+01  0.42155455674E+02  0.41800000000E+01 0.  1.
        -11    1    3    3    0    0  0.83677094839E+01  0.55890646089E+02  0.29894108008E+03  0.30423601404E+03  0.00000000000E+00 0.  1.
         11    1    3    3    0    0  0.70992644430E+02  0.87926799853E+01  0.24528462538E+03  0.25550306110E+03  0.00000000000E+00 0. -1.
</event>
<event>
 8    1  0.6840032E-009  0.1501533E+03  0.7561462E-02  0.1200285E+00
         -4   -1    0    0    0  501 -0.00000000000E+00  0.00000000000E+00  0.15186915666E+03  0.15186915666E+03  0.00000000000E+00 0.  1.
          4   -1    0    0  501    0  0.00000000000E+00 -0.00000000000E+00 -0.18546842972E+03  0.18546842972E+03  0.00000000000E+00 0. -1.
         25    2    1    2    0    0  0.22515960247E+02 -0.12490713608E+03 -0.72720579988E+01  0.17832258920E+03  0.12504919784E+03 0.  0.
         23    2    1    2    0    0 -0.22515960247E+02  0.12490713608E+03 -0.26327215058E+02  0.15901499718E+03  0.92108012504E+02 0.  0.
          5    1    3    3  502    0  0.54990843254E+02 -0.12859994599E+03  0.11503199883E+02  0.14039848631E+03  0.41800000000E+01 0. -1.
         -5    1    3    3    0  502 -0.32474883007E+02  0.36928099127E+01 -0.18775257882E+02  0.37924102888E+02  0.41800000000E+01 0. -1.
        -11    1    4    4    0    0 -0.20040295852E+02  0.80615815932E+02 -0.60710426010E+02  0.10288964507E+03  0.00000000000E+00 0. -1.
         11    1    4    4    0    0 -0.24756643956E+01  0.44291320145E+02  0.34383210953E+02  0.56125352113E+02  0.00000000000E+00 0.  1.
</event>
<event>
 8    1  0.6840032E-009  0.9305669E+02  0.7561462E-02  0.1295614E+00
          2   -1    0    0  501    0  0.00000000000E+00  0.00000000000E+00  0.52414762880E+02  0.52414762880E+02  0.00000000000E+00 0. -1.
         -2   -1    0    0    0  501 -0.00000000000E+00 -0.00000000000E+00 -0.23278610228E+03  0.23278610228E+03  0.00000000000E+00 0.  1.
         25    2    1    2    0    0 -0.38682555368E+01  0.34291256985E+00 -0.13136116016E+03  0.18143638253E+03  0.12509326727E+03 0.  0.
         23    2    1    2    0    0  0.38682555368E+01 -0.34291256985E+00 -0.49010179241E+02  0.10376448263E+03  0.91378275296E+02 0.  0.
          5    1    3    3  502    0  0.46946838803E+02 -0.77146582581E+01 -0.89561158885E+01  0.48592242564E+02  0.41800000000E+01 0.  1.
         -5    1    3    3    0  502 -0.50815094340E+02  0.80575708279E+01 -0.12240504427E+03  0.13284413996E+03  0.41800000000E+01 0.  1.
        -11    1    4    4    0    0  0.45071337776E+02 -0.46305616525E+01 -0.41939751858E+02  0.61739860512E+02  0.00000000000E+00 0.  1.
         11    1    4    4    0    0 -0.41203082239E+02  0.42876490827E+01 -0.70704273828E+01  0.42024622117E+02  0.00000000000E+00 0. -1.
</event>
<event>
 8    1  0.6840032E-009  0.9019405E+02  0.7561462E-02  0.1302382E+00
         -2   -1    0    0    0  501 -0.00000000000E+00  0.00000000000E+00  0.56970721950E+02  0.56970721950E+02  0.00000000000E+00 0.  1.
          2   -1    0    0  501    0  0.00000000000E+00 -0.00000000000E+00 -0.25939177840E+03  0.25939177840E+03  0.00000000000E+00 0. -1.
         25    2    1    2    0    0 -0.44331800000E+02  0.25105279018E+02 -0.12222351830E+03  0.18215568436E+03  0.12508605595E+03 0.  0.
         23    2    1    2    0    0  0.44331800000E+02 -0.25105279018E+02 -0.80197538152E+02  0.13420681600E+03  0.94785235181E+02 0.  0.
          5    1    3    3  502    0 -0.55768906839E+02  0.10151816169E+02 -0.14295586485E+03  0.15384109346E+03  0.41800000000E+01 0. -1.
         -5    1    3    3    0  502  0.11437106839E+02  0.14953462849E+02  0.20732346552E+02  0.28314590896E+02  0.41800000000E+01 0. -1.
        -11    1    4    4    0    0  0.34789063321E+02  0.31457371506E+02 -0.19799886749E+02  0.50910516243E+02  0.00000000000E+00 0.  1.
         11    1    4    4    0    0  0.95427366793E+01 -0.56562650524E+02 -0.60397651403E+02  0.83296299753E+02  0.00000000000E+00 0. -1.
</event>
<event>
 8    1  0.6840032E-009  0.1270944E+03  0.7561462E-02  0.1231832E+00
          1   -1    0    0  501    0  0.00000000000E+00  0.00000000000E+00  0.17796811634E+03  0.17796811634E+03  0.00000000000E+00 0. -1.
         -1   -1    0    0    0  501 -0.00000000000E+00 -0.00000000000E+00 -0.12192375247E+03  0.12192375247E+03  0.00000000000E+00 0.  1.
         25    2    1    2    0    0  0.67976425556E+02 -0.69126271562E+02  0.34624023992E+02  0.16200529344E+03  0.12509059203E+03 0.  0.
         23    2    1    2    0    0 -0.67976425556E+02  0.69126271562E+02  0.21420339879E+02  0.13788657537E+03  0.95679887414E+02 0.  0.
          5    1    3    3  502    0  0.93626553145E+02 -0.26844535767E+02 -0.62809116387E+01  0.97690750870E+02  0.41800000000E+01 0. -1.
         -5    1    3    3    0  502 -0.25650127589E+02 -0.42281735794E+02  0.40904935631E+02  0.64314542571E+02  0.41800000000E+01 0. -1.
        -11    1    4    4    0    0 -0.20626764296E+02  0.53289336057E+02 -0.31402268929E+02  0.65202141350E+02  0.00000000000E+00 0.  1.
         11    1    4    4    0    0 -0.47349661260E+02  0.15836935505E+02  0.52822608808E+02  0.72684434021E+02  0.00000000000E+00 0. -1.
</event>
<event>
 8    1  0.6840032E-009  0.1601095E+03  0.7561462E-02  0.1188573E+00
          2   -1    0    0  501    0  0.00000000000E+00  0.00000000000E+00  0.17559302228E+04  0.17559302228E+04  0.00000000000E+00 0. -1.
         -2   -1    0    0    0  501 -0.00000000000E+00 -0.00000000000E+00 -0.17316586837E+02  0.17316586837E+02  0.00000000000E+00 0.  1.
         25    2    1    2    0    0 -0.95246806333E+02 -0.97516011973E+02  0.94028077230E+03  0.95830915843E+03  0.12508871116E+03 0.  0.
         23    2    1    2    0    0  0.95246806333E+02  0.97516011973E+02  0.79833286368E+03  0.81493765123E+03  0.90590769118E+02 0.  0.
          5    1    3    3  502    0 -0.85515403850E+02 -0.11052904597E+03  0.54417679527E+03  0.56184998995E+03  0.41800000000E+01 0. -1.
         -5    1    3    3    0  502 -0.97314024832E+01  0.13013033999E+02  0.39610397703E+03  0.39645916848E+03  0.41800000000E+01 0. -1.
        -11    1    4    4    0    0  0.17992657743E+02  0.83121137707E+02  0.40587624843E+03  0.41469071403E+03  0.00000000000E+00 0.  1.
         11    1    4    4    0    0  0.77254148590E+02  0.14394874266E+02  0.39245661526E+03  0.40024693720E+03  0.00000000000E+00 0. -1.
</event>
<event>
 8    1  0.6840032E-009  0.1220730E+03  0.7561462E-02  0.1239716E+00
          2   -1    0    0  501    0  0.00000000000E+00  0.00000000000E+00  0.15922729115E+03  0.15922729115E+03  0.00000000000E+00 0. -1.
         -2   -1    0    0    0  501 -0.00000000000E+00 -0.00000000000E+00 -0.14930467163E+03  0.14930467163E+03  0.00000000000E+00 0.  1.
         25    2    1    2    0    0 -0.93843422590E+02  0.32208660470E+02 -0.39124645303E+02  0.16438236986E+03  0.12508732901E+03 0.  0.
         23    2    1    2    0    0  0.93843422590E+02 -0.32208660470E+02  0.49047264826E+02  0.14414959293E+03  0.92355211986E+02 0.  0.
          5    1    3    3  502    0  0.21317744313E+02  0.53191667873E+00  0.21330886831E+02  0.30450095089E+02  0.41800000000E+01 0. -1.
         -5    1    3    3    0  502 -0.11516116690E+03  0.31676743791E+02 -0.60455532134E+02  0.13393227477E+03  0.41800000000E+01 0. -1.
        -11    1    4    4    0    0  0.80362970790E+02 -0.16206514447E+02  0.74794026131E+02  0.11097299009E+03  0.00000000000E+00 0. -1.
         11    1    4    4    0    0  0.13480451800E+02 -0.16002146023E+02 -0.25746761304E+02  0.33176602836E+02  0.00000000000E+00 0.  1.
</event>
<event>
 8    1  0.6840032E-009  0.1052733E+03  0.7561462E-02  0.1269582E+00
          2   -1    0    0  501    0  0.00000000000E+00  0.00000000000E+00  0.46521345320E+03  0.46521345320E+03  0.00000000000E+00 0. -1.
         -2   -1    0    0    0  501 -0.00000000000E+00 -0.00000000000E+00 -0.32369118881E+02  0.32369118881E+02  0.00000000000E+00 0.  1.
         25    2    1    2    0    0  0.20013903799E+02 -0.27685396480E+02  0.14817762450E+03  0.19690395458E+03  0.12509005317E+03 0.  0.
         23    2    1    2    0    0 -0.20013903799E+02  0.27685396480E+02  0.28466670982E+03  0.30067861750E+03  0.90583982139E+02 0.  0.
          5    1    3    3  502    0  0.96279264536E+01  0.49852207492E+02  0.65882962387E+02  0.83282511324E+02  0.41800000000E+01 0. -1.
         -5    1    3    3    0  502  0.10385977345E+02 -0.77537603971E+02  0.82294662111E+02  0.11362144325E+03  0.41800000000E+01 0. -1.
        -11    1    4    4    0    0 -0.31189927567E+02 -0.16775946627E+02  0.48218026044E+02  0.59826599456E+02  0.00000000000E+00 0.  1.
         11    1    4    4    0    0  0.11176023768E+02  0.44461343106E+02  0.23644868378E+03  0.24085201805E+03  0.00000000000E+00 0. -1.
</event>
<event>
 8    1  0.6840032E-009  0.1622335E+03  0.7561462E-02  0.1186198E+00
          1   -1    0    0  501    0  0.00000000000E+00  0.00000000000E+00  0.65194863061E+02  0.65194863061E+02  0.00000000000E+00 0. -1.
         -1   -1    0    0    0  501 -0.00000000000E+00 -0.00000000000E+00 -0.64925166535E+03  0.64925166535E+03  0.00000000000E+00 0.  1.
         25    2    1    2    0    0 -0.10599886387E+03 -0.94523856939E+02 -0.13107783230E+03  0.23021617236E+03  0.12509024433E+03 0.  0.
         23    2    1    2    0    0  0.10599886387E+03  0.94523856939E+02 -0.45297896999E+03  0.48423035605E+03  0.95491213146E+02 0.  0.
          5    1    3    3  502    0 -0.11869434084E+03 -0.10838739219E+03 -0.13571359759E+03  0.21040871253E+03  0.41800000000E+01 0. -1.
         -5    1    3    3    0  502  0.12695476973E+02  0.13863535256E+02  0.46357652979E+01  0.19807459839E+02  0.41800000000E+01 0. -1.
        -11    1    4    4    0    0  0.47895455321E+02  0.25722887705E+02 -0.31368815699E+03  0.31836441608E+03  0.00000000000E+00 0.  1.
         11    1    4    4    0    0  0.58103408549E+02  0.68800969234E+02 -0.13929081300E+03  0.16586593996E+03  0.00000000000E+00 0. -1.
</event>
<event>
 8    1  0.6840032E-009  0.1506972E+03  0.7561462E-02  0.1199619E+00
          1   -1    0    0  501    0  0.00000000000E+00  0.00000000000E+00  0.19511632275E+03  0.19511632275E+03  0.00000000000E+00 0. -1.
         -1   -1    0    0    0  501 -0.00000000000E+00 -0.00000000000E+00 -0.18816291767E+03  0.18816291767E+03  0.00000000000E+00 0.  1.
         25    2    1    2    0    0  0.74394725502E+02 -0.12716183012E+03  0.62012544362E+02  0.20297190236E+03  0.12508929318E+03 0.  0.
         23    2    1    2    0    0 -0.74394725502E+02  0.12716183012E+03 -0.55059139282E+02  0.18030733805E+03  0.88173244885E+02 0.  0.
          5    1    3    3  502    0  0.71720196971E+02 -0.11804209884E+03 -0.19230974005E+01  0.13819874983E+03  0.41800000000E+01 0.  1.
         -5    1    3    3    0  502  0.26745285316E+01 -0.91197312862E+01  0.63935641763E+02  0.64773152534E+02  0.41800000000E+01 0.  1.
        -11    1    4    4    0    0 -0.53999384257E+02  0.52071565273E+02 -0.68213334021E+02  0.10139250637E+03  0.00000000000E+00 0.  1.
         11    1    4    4    0    0 -0.20395341245E+02  0.75090264848E+02  0.13154194739E+02  0.78914831678E+02  0.00000000000E+00 0. -1.
</event>
<event>
 8    1  0.6840032E-009  0.1093511E+03  0.7561462E-02  0.1261776E+00
          2   -1    0    0  501    0  0.00000000000E+00  0.00000000000E+00  0.26556673831E+03  0.26556673831E+03  0.00000000000E+00 0. -1.
         -2   -1    0    0    0  501 -0.00000000000E+00 -0.00000000000E+00 -0.63725564165E+02  0.63725564165E+02  0.00000000000E+00 0.  1.
         25    2    1    2    0    0  0.63498308747E+02 -0.39990939908E+02  0.10876556044E+03  0.18196000388E+03  0.12509270717E+03 0.  0.
         23    2    1    2    0    0 -0.63498308747E+02  0.39990939908E+02  0.93075613709E+02  0.14733229859E+03  0.86095446178E+02 0.  0.
          5    1    3    3  502    0  0.34868668655E+02 -0.82408750000E+02  0.90829595101E+02  0.12757160294E+03  0.41800000000E+01 0.  1.
         -5    1    3    3    0  502  0.28629640092E+02  0.42417810092E+02  0.17935965335E+02  0.54388400944E+02  0.41800000000E+01 0.  1.
        -11    1    4    4    0    0 -0.59774949220E+02  0.29526938503E+02  0.10908628319E+03  0.12784639937E+03  0.00000000000E+00 0. -1.
         11    1    4    4    0    0 -0.37233595269E+01  0.10464001406E+02 -0.16010669476E+02  0.19485899226E+02  0.00000000000E+00 0.  1.
</event>
<event>
 8    1  0.6840032E-009  0.1274358E+03  0.7561462E-02  0.1231311E+00
         -2   -1    0    0    0  501 -0.00000000000E+00  0.00000000000E+00  0.48734722460E+02  0.48734722460E+02  0.00000000000E+00 0. -1.
          2   -1    0    0  501    0  0.00000000000E+00 -0.00000000000E+00 -0.37045329812E+03  0.37045329812E+03  0.00000000000E+00 0.  1.
         25    2    1    2    0    0  0.72125738181E+02 -0.95352023270E+00 -0.12740386524E+03  0.19256930447E+03  0.12509260905E+03 0.  0.
         23    2    1    2    0    0 -0.72125738181E+02  0.95352023270E+00 -0.19431471043E+03  0.22661871611E+03  0.91623165709E+02 0.  0.
          5    1    3    3  502    0  0.10657964712E+03 -0.25670922029E+01 -0.11161529219E+03  0.15440614299E+03  0.41800000000E+01 0. -1.
         -5    1    3    3    0  502 -0.34453908936E+02  0.16135719702E+01 -0.15788573044E+02  0.38163161481E+02  0.41800000000E+01 0. -1.
        -11    1    4    4    0    0 -0.87348256088E+01 -0.38027487687E+02 -0.93486598663E+02  0.10130217731E+03  0.00000000000E+00 0.  1.
         11    1    4    4    0    0 -0.63390912572E+02  0.38981007920E+02 -0.10082811176E+03  0.12531653880E+03  0.00000000000E+00 0. -1.
</event>
<event>
 8    1  0.6840032E-009  0.1114358E+03  0.7561462E-02  0.1257934E+00
          1   -1    0    0  501    0  0.00000000000E+00  0.00000000000E+00  0.22081558447E+03  0.22081558447E+03  0.00000000000E+00 0. -1.
         -1   -1    0    0    0  501 -0.00000000000E+00 -0.00000000000E+00 -0.91524154047E+02  0.91524154047E+02  0.00000000000E+00 0.  1.
         25    2    1    2    0    0 -0.88883850848E+02  0.25184365398E+02  0.56288089008E+02  0.16537875510E+03  0.12508873839E+03 0.  0.
         23    2    1    2    0    0  0.88883850848E+02 -0.25184365398E+02  0.73003341416E+02  0.14696098341E+03  0.87940045406E+02 0.  0.
          5    1    3    3  502    0 -0.56083751107E+02 -0.29468408809E+02  0.75525642633E+02  0.98667975307E+02  0.41800000000E+01 0.  1.
         -5    1    3    3    0  502 -0.32800099741E+02  0.54652774207E+02 -0.19237553625E+02  0.66710779796E+02  0.41800000000E+01 0.  1.
        -11    1    4    4    0    0  0.64481009977E+02 -0.65781862254E+01  0.90744146462E+02  0.11151490169E+03  0.00000000000E+00 0. -1.
         11    1    4    4    0    0  0.24402840871E+02 -0.18606179173E+02 -0.17740805046E+02  0.35446081725E+02  0.00000000000E+00 0.  1.
</event>
<event>
 8    1  0.6840032E-009  0.9798480E+02  0.7561462E-02  0.1284592E+00
          1   -1    0    0  501    0  0.00000000000E+00  0.00000000000E+00  0.28523032814E+03  0.28523032814E+03  0.00000000000E+00 0. -1.
         -1   -1    0    0    0  501 -0.00000000000E+00 -0.00000000000E+00 -0.62331670637E+02  0.62331670637E+02  0.00000000000E+00 0.  1.
         25    2    1    2    0    0 -0.65089076096E+02  0.15265656794E+02  0.70863707431E+02  0.15855230161E+03  0.12509012435E+03 0.  0.
         23    2    1    2    0    0  0.65089076096E+02 -0.15265656794E+02  0.15203495007E+03  0.18900969716E+03  0.90224228865E+02 0.  0.
          5    1    3    3  502    0  0.12599188247E+02  0.99382840021E+01 -0.28056060274E+02  0.32590243195E+02  0.41800000000E+01 0. -1.
         -5    1    3    3    0  502 -0.77688264344E+02  0.53273727921E+01  0.98919767706E+02  0.12596205842E+03  0.41800000000E+01 0. -1.
        -11    1    4    4    0    0  0.35913204847E+02  0.30508528952E+02  0.31124679256E+02  0.56473660055E+02  0.00000000000E+00 0.  1.
         11    1    4    4    0    0  0.29175871250E+02 -0.45774185747E+02  0.12091027081E+03  0.13253603711E+03  0.00000000000E+00 0. -1.
</event>
<event>
 8    1  0.6840032E-009  0.9224135E+02  0.7561462E-02  0.1297513E+00
         -2   -1    0    0    0  501 -0.00000000000E+00  0.00000000000E+00  0.25228045817E+02  0.25228045817E+02  0.00000000000E+00 0.  1.
          2   -1    0    0  501    0  0.00000000000E+00 -0.00000000000E+00 -0.10668423119E+04  0.10668423119E+04  0.00000000000E+00 0. -1.
         25    2    1    2    0    0  0.38018673708E+02 -0.32298148269E+02 -0.92949322865E+03  0.93919931516E+03  0.12509636911E+03 0.  0.
         23    2    1    2    0    0 -0.38018673708E+02  0.32298148269E+02 -0.11212103739E+03  0.15287104251E+03  0.91158316576E+02 0.  0.
          5    1    3    3  502    0 -0.17773958750E+02 -0.80375878956E+01 -0.22151980485E+02  0.29811056141E+02  0.41800000000E+01 0.  1.
         -5    1    3    3    0  502  0.55792632458E+02 -0.24260560373E+02 -0.90734124816E+03  0.90938825902E+03  0.41800000000E+01 0.  1.
        -11    1    4    4    0    0  0.28230440097E+02 -0.31641732066E+01 -0.25219363004E+02  0.37986655690E+02  0.00000000000E+00 0.  1.
         11    1    4    4    0    0 -0.66249113805E+02  0.35462321475E+02 -0.86901674388E+02  0.11488438682E+03  0.00000000000E+00 0. -1.
</event>
<event>
 8    1  0.6840032E-009  0.2194554E+03  0.7561462E-02  0.1134290E+00
         -2   -1    0    0    0  501 -0.00000000000E+00  0.00000000000E+00  0.51498615463E+02  0.51498615463E+02  0.00000000000E+00 0.  1.
          2   -1    0    0  501    0  0.00000000000E+00 -0.00000000000E+00 -0.10122590213E+04  0.10122590213E+04  0.00000000000E+00 0. -1.
         25    2    1    2    0    0  0.77817926360E+02 -0.18313628995E+03 -0.51753117250E+03  0.56840266466E+03  0.12509414185E+03 0.  0.
         23    2    1    2    0    0 -0.77817926360E+02  0.18313628995E+03 -0.44322923331E+03  0.49535497208E+03  0.96591224977E+02 0.  0.
          5    1    3    3  502    0  0.11096512742E+03 -0.13220987054E+03 -0.40898846616E+03  0.44393890033E+03  0.41800000000E+01 0.  1.
         -5    1    3    3    0  502 -0.33147201065E+02 -0.50926419406E+02 -0.10854270633E+03  0.12446376433E+03  0.41800000000E+01 0.  1.
        -11    1    4    4    0    0 -0.54900559775E+02  0.65342295770E+02 -0.98468957963E+02  0.13030664896E+03  0.00000000000E+00 0.  1.
         11    1    4    4    0    0 -0.22917366585E+02  0.11779399418E+03 -0.34476027535E+03  0.36504832312E+03  0.00000000000E+00 0. -1.
</event>
<event>
 8    1  0.6840032E-009  0.1992640E+03  0.7561462E-02  0.1150361E+00
          2   -1    0    0  501    0  0.00000000000E+00  0.00000000000E+00  0.43514517451E+03  0.43514517451E+03  0.00000000000E+00 0. -1.
         -2   -1    0    0    0  501 -0.00000000000E+00 -0.00000000000E+00 -0.10263214604E+03  0.10263214604E+03  0.00000000000E+00 0.  1.
         25    2    1    2    0    0  0.11170768923E+03 -0.14049592444E+03  0.20213825335E+03  0.29786955087E+03  0.12509469714E+03 0.  0.
         23    2    1    2    0    0 -0.11170768923E+03  0.14049592444E+03  0.13037477512E+03  0.23990776969E+03  0.91326027787E+02 0.  0.
          5    1    3    3  502    0 -0.27796066695E+02 -0.22152086215E+02  0.34076550154E+02  0.49416797931E+02  0.41800000000E+01 0.  1.
         -5    1    3    3    0  502  0.13950375593E+03 -0.11834383822E+03  0.16806170319E+03  0.24845275294E+03  0.41800000000E+01 0.  1.
        -11    1    4    4    0    0 -0.77784518150E+02  0.10475894348E+03  0.39150118132E+02  0.13622627960E+03  0.00000000000E+00 0.  1.
         11    1    4    4    0    0 -0.33923171081E+02  0.35736980953E+02  0.91224656989E+02  0.10368149009E+03  0.00000000000E+00 0. -1.
</event>
<event>
 8    1  0.6840032E-009  0.9317924E+02  0.7561462E-02  0.1295330E+00
         -2   -1    0    0    0  501 -0.00000000000E+00  0.00000000000E+00  0.14885610615E+03  0.14885610615E+03  0.00000000000E+00 0.  1.
          2   -1    0    0  501    0  0.00000000000E+00 -0.00000000000E+00 -0.95200433467E+02  0.95200433467E+02  0.00000000000E+00 0. -1.
         25    2    1    2    0    0  0.48733696226E+01  0.40456127044E+02  0.30278525927E+01  0.13159409635E+03  0.12508952936E+03 0.  0.
         23    2    1    2    0    0 -0.48733696226E+01 -0.40456127044E+02  0.50627820086E+02  0.11246244326E+03  0.91783315645E+02 0.  0.
          5    1    3    3  502    0  0.52163445877E+02  0.10530464654E+02 -0.34975784292E+02  0.63817659456E+02  0.41800000000E+01 0.  1.
         -5    1    3    3    0  502 -0.47290076255E+02  0.29925662390E+02  0.38003636885E+02  0.67776436895E+02  0.41800000000E+01 0.  1.
        -11    1    4    4    0    0  0.30006823808E+01  0.17811415682E+02 -0.15624187851E+02  0.23882333834E+02  0.00000000000E+00 0. -1.
         11    1    4    4    0    0 -0.78740520035E+01 -0.58267542727E+02  0.66252007937E+02  0.88580109427E+02  0.00000000000E+00 0.  1.
</event>
<event>
 8    1  0.6840032E-009  0.6875257E+02  0.7561462E-02  0.1364387E+00
         -1   -1    0    0    0  501 -0.00000000000E+00  0.00000000000E+00  0.27696619881E+02  0.27696619881E+02  0.00000000000E+00 0.  1.
          1   -1    0    0  501    0  0.00000000000E+00 -0.00000000000E+00 -0.46568898352E+03  0.46568898352E+03  0.00000000000E+00 0. -1.
         25    2    1    2    0    0  0.94638664786E+01  0.11873317240E+02 -0.18164010143E+03  0.22106765215E+03  0.12508892817E+03 0.  0.
         23    2    1    2    0    0 -0.94638664786E+01 -0.11873317240E+02 -0.25635226221E+03  0.27231795125E+03  0.90609292027E+02 0.  0.
          5    1    3    3  502    0  0.19801112464E+02 -0.11444537898E+02  0.11686233490E+02  0.26021182826E+02  0.41800000000E+01 0. -1.
         -5    1    3    3    0  502 -0.10337245985E+02  0.23317855138E+02 -0.19332633492E+03  0.19504646933E+03  0.41800000000E+01 0. -1.
        -11    1    4    4    0    0  0.20299920512E+02 -0.41633741310E+02 -0.96859128430E+02  0.10736454698E+03  0.00000000000E+00 0.  1.
         11    1    4    4    0    0 -0.29763786991E+02  0.29760424070E+02 -0.15949313378E+03  0.16495340427E+03  0.00000000000E+00 0. -1.
</event>
<event>
 8    1  0.6840032E-009  0.1311464E+03  0.7561462E-02  0.1225765E+00
         -3   -1    0    0    0  501 -0.00000000000E+00  0.00000000000E+00  0.40069905471E+02  0.40069905471E+02  0.00000000000E+00 0.  1.
          3   -1    0    0  501    0  0.00000000000E+00 -0.00000000000E+00 -0.45470423889E+03  0.45470423889E+03  0.00000000000E+00 0. -1.
         25    2    1    2    0    0 -0.66265557136E+02  0.45452960526E+02 -0.22989833909E+03  0.27378447009E+03  0.12509034359E+03 0.  0.
         23    2    1    2    0    0  0.66265557136E+02 -0.45452960526E+02 -0.18473599432E+03  0.22098967427E+03  0.90840260085E+02 0.  0.
          5    1    3    3  502    0 -0.91126958150E+02 -0.30545349590E+00 -0.17869374463E+03  0.20063185832E+03  0.41800000000E+01 0.  1.
         -5    1    3    3    0  502  0.24861401014E+02  0.45758414022E+02 -0.51204594463E+02  0.73152611767E+02  0.41800000000E+01 0.  1.
        -11    1    4    4    0    0  0.36932307475E+02  0.23580937588E+02 -0.47719597508E+02  0.64785923928E+02  0.00000000000E+00 0.  1.
         11    1    4    4    0    0  0.29333249662E+02 -0.69033898114E+02 -0.13701639681E+03  0.15620375034E+03  0.00000000000E+00 0. -1.
</event>
<event>
 8    1  0.6840032E-009  0.8126491E+02  0.7561462E-02  0.1325500E+00
          2   -1    0    0  501    0  0.00000000000E+00  0.00000000000E+00  0.69942134958E+03  0.69942134958E+03  0.00000000000E+00 0. -1.
         -2   -1    0    0    0  501 -0.00000000000E+00 -0.00000000000E+00 -0.20023741974E+02  0.20023741974E+02  0.00000000000E+00 0.  1.
         25    2    1    2    0    0  0.13496639699E+02 -0.33251181789E+02  0.47692811827E+03  0.49436480100E+03  0.12509326958E+03 0.  0.
         23    2    1    2    0    0 -0.13496639699E+02  0.33251181789E+02  0.20246948933E+03  0.22508029055E+03  0.91539295995E+02 0.  0.
          5    1    3    3  502    0  0.35854867719E+01 -0.48773913895E+02  0.62327844442E+02  0.79334626645E+02  0.41800000000E+01 0. -1.
         -5    1    3    3    0  502  0.99111529274E+01  0.15522732107E+02  0.41460027383E+03  0.41503017435E+03  0.41800000000E+01 0. -1.
        -11    1    4    4    0    0  0.10619988356E+02  0.58610437972E+02  0.95710972055E+02  0.11273223924E+03  0.00000000000E+00 0. -1.
         11    1    4    4    0    0 -0.24116628055E+02 -0.25359256183E+02  0.10675851727E+03  0.11234805131E+03  0.00000000000E+00 0.  1.
</event>
<event>
 8    1  0.6840032E-009  0.1373441E+03  0.7561462E-02  0.1216948E+00
          3   -1    0    0  501    0  0.00000000000E+00  0.00000000000E+00  0.45234100244E+03  0.45234100244E+03  0.00000000000E+00 0. -1.
         -3   -1    0    0    0  501 -0.00000000000E+00 -0.00000000000E+00 -0.64200758518E+02  0.64200758518E+02  0.00000000000E+00 0.  1.
         25    2    1    2    0    0 -0.65624685011E+02 -0.10897640375E+03  0.24441867681E+03  0.30260565354E+03  0.12508891287E+03 0.  0.
         23    2    1    2    0    0  0.65624685011E+02  0.10897640375E+03  0.14372156711E+03  0.21393610742E+03  0.94500335177E+02 0.  0.
          5    1    3    3  502    0 -0.57488265325E+02 -0.67283288426E+02  0.24435512508E+03  0.25992083622E+03  0.41800000000E+01 0. -1.
         -5    1    3    3    0  502 -0.81364196859E+01 -0.41693115322E+02  0.63551737261E-01  0.42684817317E+02  0.41800000000E+01 0. -1.
        -11    1    4    4    0    0 -0.13423741773E+02  0.10007583689E+02 -0.60341577190E+01  0.17797742381E+02  0.00000000000E+00 0.  1.
         11    1    4    4    0    0  0.79048426784E+02  0.98968820059E+02  0.14975572483E+03  0.19613836504E+03  0.00000000000E+00 0. -1.
</event>
<event>
 8    1  0.6840032E-009  0.1461591E+03  0.7561462E-02  0.1205274E+00
         -2   -1    0    0    0  501 -0.00000000000E+00  0.00000000000E+00  0.45570517371E+02  0.45570517371E+02  0.00000000000E+00 0.  1.
          2   -1    0    0  501    0  0.00000000000E+00 -0.00000000000E+00 -0.68879217994E+03  0.68879217994E+03  0.00000000000E+00 0. -1.
         25    2    1    2    0    0  0.19447182386E+02 -0.13598049172E+03 -0.42508216710E+03  0.46390898994E+03  0.12509122725E+03 0.  0.
         23    2    1    2    0    0 -0.19447182386E+02  0.13598049172E+03 -0.21813949547E+03  0.27045370737E+03  0.81801475010E+02 0.  0.
          5    1    3    3  502    0 -0.12392818495E+01 -0.10910745426E+03 -0.41373894190E+03  0.42790578033E+03  0.41800000000E+01 0.  1.
         -5    1    3    3    0  502  0.20686464235E+02 -0.26873037454E+02 -0.11343225198E+02  0.36003209613E+02  0.41800000000E+01 0.  1.
        -11    1    4    4    0    0 -0.38948300957E+02  0.69465091810E+02 -0.66610684336E+02  0.10382366009E+03  0.00000000000E+00 0.  1.
         11    1    4    4    0    0  0.19501118571E+02  0.66515399909E+02 -0.15152881113E+03  0.16663004727E+03  0.00000000000E+00 0. -1.
</event>
<event>
 8    1  0.6840032E-009  0.1304988E+03  0.7561462E-02  0.1226717E+00
          2   -1    0    0  501    0  0.00000000000E+00  0.00000000000E+00  0.19537980045E+03  0.19537980045E+03  0.00000000000E+00 0. -1.
         -2   -1    0    0    0  501 -0.00000000000E+00 -0.00000000000E+00 -0.10013430946E+03  0.10013430946E+03  0.00000000000E+00 0.  1.
         25    2    1    2    0    0  0.16388098300E+02 -0.80159786384E+02  0.90159183261E+02  0.17456643642E+03  0.12510236321E+03 0.  0.
         23    2    1    2    0    0 -0.16388098300E+02  0.80159786384E+02  0.50863077334E+01  0.12094767349E+03  0.88928668479E+02 0.  0.
          5    1    3    3  502    0  0.51611771877E+02 -0.89586874561E+02  0.36842038333E+02  0.10983802292E+03  0.41800000000E+01 0.  1.
         -5    1    3    3    0  502 -0.35223673577E+02  0.94270881775E+01  0.53317144928E+02  0.64728413506E+02  0.41800000000E+01 0.  1.
        -11    1    4    4    0    0 -0.50751918280E+02  0.26908310044E+02  0.13172848972E+01  0.57459112402E+02  0.00000000000E+00 0.  1.
         11    1    4    4    0    0  0.34363819980E+02  0.53251476340E+02  0.37690228362E+01  0.63488561089E+02  0.00000000000E+00 0. -1.
</event>
<event>
 8    1  0.6840032E-009  0.1641037E+03  0.7561462E-02  0.1184140E+00
          2   -1    0    0  501    0  0.00000000000E+00  0.00000000000E+00  0.11393529762E+03  0.11393529762E+03  0.00000000000E+00 0.  1.
         -2   -1    0    0    0  501 -0.00000000000E+00 -0.00000000000E+00 -0.27943438713E+03  0.27943438713E+03  0.00000000000E+00 0. -1.
         25    2    1    2    0    0 -0.96650903447E+02 -0.10340200611E+03 -0.48126364728E+02  0.19492738808E+03  0.12508863912E+03 0.  0.
         23    2    1    2    0    0  0.96650903447E+02  0.10340200611E+03 -0.11737272478E+03  0.19844229666E+03  0.74629863832E+02 0.  0.
          5    1    3    3  502    0 -0.11412083152E+03 -0.40860366004E+02 -0.46322782524E+02  0.12983222357E+03  0.41800000000E+01 0. -1.
         -5    1    3    3    0  502  0.17469928071E+02 -0.62541640108E+02 -0.18035822039E+01  0.65095164513E+02  0.41800000000E+01 0. -1.
        -11    1    4    4    0    0  0.29120603923E+02  0.25052568007E+02  0.44040571721E+01  0.38665701288E+02  0.00000000000E+00 0.  1.
         11    1    4    4    0    0  0.67530299524E+02  0.78349438106E+02 -0.12177678195E+03  0.15977659537E+03  0.00000000000E+00 0. -1.
</event>
<event>
 8    1  0.6840032E-009  0.1167323E+03  0.7561462E-02  0.1248587E+00
          2   -1    0    0  501    0  0.00000000000E+00  0.00000000000E+00  0.35227175404E+03  0.35227175404E+03  0.00000000000E+00 0. -1.
         -2   -1    0    0    0  501 -0.00000000000E+00 -0.00000000000E+00 -0.57735047211E+02  0.57735047211E+02  0.00000000000E+00 0.  1.
         25    2    1    2    0    0 -0.22933895843E+01  0.60185756310E+02  0.58633691749E+02  0.15070061984E+03  0.12508070241E+03 0.  0.
         23    2    1    2    0    0  0.22933895843E+01 -0.60185756310E+02  0.23590301509E+03  0.25930618141E+03  0.89229357801E+02 0.  0.
          5    1    3    3  502    0 -0.15677135480E+02 -0.30563945326E+02 -0.10045172267E+02  0.36032002673E+02  0.41800000000E+01 0. -1.
         -5    1    3    3    0  502  0.13383745896E+02  0.90749701636E+02  0.68678864016E+02  0.11466861717E+03  0.41800000000E+01 0. -1.
        -11    1    4    4    0    0  0.35115832818E+02  0.35995006319E+01  0.65188684830E+02  0.74132602472E+02  0.00000000000E+00 0.  1.
         11    1    4    4    0    0 -0.32822443234E+02 -0.63785256942E+02  0.17071433026E+03  0.18517357894E+03  0.00000000000E+00 0. -1.
</event>
<event>
 8    1  0.6840032E-009  0.1171222E+03  0.7561462E-02  0.1247921E+00
         -1   -1    0    0    0  501 -0.00000000000E+00  0.00000000000E+00  0.93840436724E+02  0.93840436724E+02  0.00000000000E+00 0.  1.
          1   -1    0    0  501    0  0.00000000000E+00 -0.00000000000E+00 -0.20796710806E+03  0.20796710806E+03  0.00000000000E+00 0. -1.
         25    2    1    2    0    0 -0.76648673233E+02 -0.25655448088E+02 -0.26902586349E+02  0.15134446469E+03  0.12509267250E+03 0.  0.
         23    2    1    2    0    0  0.76648673233E+02  0.25655448088E+02 -0.87224084991E+02  0.15046308010E+03  0.92183926726E+02 0.  0.
          5    1    3    3  502    0 -0.57188924950E+02 -0.53009483379E+02  0.31215438823E+02  0.84097886335E+02  0.41800000000E+01 0. -1.
         -5    1    3    3    0  502 -0.19459748282E+02  0.27354035292E+02 -0.58118025172E+02  0.67246578351E+02  0.41800000000E+01 0. -1.
        -11    1    4    4    0    0  0.17561904603E+02  0.54005595759E+02 -0.35475302189E+02  0.66959106416E+02  0.00000000000E+00 0.  1.
         11    1    4    4    0    0  0.59086768630E+02 -0.28350147671E+02 -0.51748782802E+02  0.83503973687E+02  0.00000000000E+00 0. -1.
</event>
<event>
 8    1  0.6840032E-009  0.1081861E+03  0.7561462E-02  0.1263966E+00
          2   -1    0    0  501    0  0.00000000000E+00  0.00000000000E+00  0.31690642471E+03  0.31690642471E+03  0.00000000000E+00 0.  1.
         -2   -1    0    0    0  501 -0.00000000000E+00 -0.00000000000E+00 -0.42872045446E+02  0.42872045446E+02  0.00000000000E+00 0. -1.
         25    2    1    2    0    0 -0.42306227503E+02  0.71997940251E+01  0.14868460092E+03  0.19898822480E+03  0.12509016405E+03 0.  0.
         23    2    1    2    0    0  0.42306227503E+02 -0.71997940251E+01  0.12534977835E+03  0.16079024536E+03  0.91100395990E+02 0.  0.
          5    1    3    3  502    0 -0.15055486147E+02 -0.50063555008E+02  0.21253843875E+02  0.56588209749E+02  0.41800000000E+01 0.  1.
         -5    1    3    3    0  502 -0.27250741356E+02  0.57263349033E+02  0.12743075704E+03  0.14240001505E+03  0.41800000000E+01 0.  1.
        -11    1    4    4    0    0  0.32860637985E+02 -0.48179189527E+02  0.79179888899E+02  0.98338754509E+02  0.00000000000E+00 0. -1.
         11    1    4    4    0    0  0.94455895185E+01  0.40979395502E+02  0.46169889450E+02  0.62451490846E+02  0.00000000000E+00 0.  1.
</event>
<event>
 8    1  0.6840032E-009  0.1600131E+03  0.7561462E-02  0.1188682E+00
          2   -1    0    0  501    0  0.00000000000E+00  0.00000000000E+00  0.44562597298E+03  0.44562597298E+03  0.00000000000E+00 0. -1.
         -2   -1    0    0    0  501 -0.00000000000E+00 -0.00000000000E+00 -0.69987691766E+02  0.69987691766E+02  0.00000000000E+00 0.  1.
         25    2    1    2    0    0  0.54115985914E+02 -0.12561319657E+03  0.24984184154E+03  0.31108794120E+03  0.12509015265E+03 0.  0.
         23    2    1    2    0    0 -0.54115985914E+02  0.12561319657E+03  0.12579643968E+03  0.20452572355E+03  0.85433086533E+02 0.  0.
          5    1    3    3  502    0 -0.37826157973E+02 -0.19431368686E+02  0.79604446450E+02  0.90347864450E+02  0.41800000000E+01 0. -1.
         -5    1    3    3    0  502  0.91942143887E+02 -0.10618182789E+03  0.17023739509E+03  0.22074007675E+03  0.41800000000E+01 0. -1.
        -11    1    4    4    0    0 -0.30622993655E+02  0.69881482989E+02  0.12204170742E+03  0.14392834244E+03  0.00000000000E+00 0. -1.
         11    1    4    4    0    0 -0.23492992259E+02  0.55731713581E+02  0.37547322557E+01  0.60597381118E+02  0.00000000000E+00 0.  1.
</event>
<event>
 8    1  0.6840032E-009  0.9990328E+02  0.7561462E-02  0.1280499E+00
          1   -1    0    0  501    0  0.00000000000E+00  0.00000000000E+00  0.59245052569E+03  0.59245052569E+03  0.00000000000E+00 0. -1.
         -1   -1    0    0    0  501 -0.00000000000E+00 -0.00000000000E+00 -0.19833195836E+02  0.19833195836E+02  0.00000000000E+00 0.  1.
         25    2    1    2    0    0  0.13404544407E+02  0.10296719949E+02  0.40615362036E+03  0.42531502671E+03  0.12508558814E+03 0.  0.
         23    2    1    2    0    0 -0.13404544407E+02 -0.10296719949E+02  0.16646370950E+03  0.18696869482E+03  0.83435136548E+02 0.  0.
          5    1    3    3  502    0 -0.12609050961E+02 -0.54399365559E+02  0.19700579271E+03  0.20480975050E+03  0.41800000000E+01 0.  1.
         -5    1    3    3    0  502  0.26013595368E+02  0.64696085508E+02  0.20914782765E+03  0.22050527620E+03  0.41800000000E+01 0.  1.
        -11    1    4    4    0    0 -0.38532885695E+02 -0.23936104689E+02  0.52078861194E+02  0.69064666588E+02  0.00000000000E+00 0.  1.
         11    1    4    4    0    0  0.25128341289E+02  0.13639384740E+02  0.11438484830E+03  0.11790402823E+03  0.00000000000E+00 0. -1.
</event>
<event>
 8    1  0.6840032E-009  0.1177292E+03  0.7561462E-02  0.1246891E+00
         -1   -1    0    0    0  501 -0.00000000000E+00  0.00000000000E+00  0.40001595173E+03  0.40001595173E+03  0.00000000000E+00 0.  1.
          1   -1    0    0  501    0  0.00000000000E+00 -0.00000000000E+00 -0.46156744522E+02  0.46156744522E+02  0.00000000000E+00 0. -1.
         25    2    1    2    0    0  0.82182062176E+01  0.73690213680E+02  0.26105694495E+03  0.29882752149E+03  0.12509745235E+03 0.  0.
         23    2    1    2    0    0 -0.82182062176E+01 -0.73690213680E+02  0.92802262255E+02  0.14734517477E+03  0.87181157032E+02 0.  0.
          5    1    3    3  502    0 -0.25701286055E+02  0.84423641100E+02  0.98267779770E+02  0.13214361968E+03  0.41800000000E+01 0. -1.
         -5    1    3    3    0  502  0.33919492272E+02 -0.10733427420E+02  0.16278916518E+03  0.16668390181E+03  0.41800000000E+01 0. -1.
        -11    1    4    4    0    0  0.26531969011E+02  0.33797670572E+01  0.38454017503E+02  0.46841004122E+02  0.00000000000E+00 0. -1.
         11    1    4    4    0    0 -0.34750175229E+02 -0.77069980737E+02  0.54348244752E+02  0.10050417064E+03  0.00000000000E+00 0.  1.
</event>
<event>
 8    1  0.6840032E-009  0.2175631E+03  0.7561462E-02  0.1135713E+00
          2   -1    0    0  501    0  0.00000000000E+00  0.00000000000E+00  0.39030237794E+03  0.39030237794E+03  0.00000000000E+00 0.  1.
         -2   -1    0    0    0  501 -0.00000000000E+00 -0.00000000000E+00 -0.13469742744E+03  0.13469742744E+03  0.00000000000E+00 0. -1.
         25    2    1    2    0    0 -0.13230717003E+03 -0.15162080772E+03  0.15126211769E+03  0.28110483648E+03  0.12508254983E+03 0.  0.
         23    2    1    2    0    0  0.13230717003E+03  0.15162080772E+03  0.10434283281E+03  0.24389496889E+03  0.90018178808E+02 0.  0.
          5    1    3    3  502    0  0.24165365620E+01 -0.61081764935E+02  0.31927496760E+01  0.61355421171E+02  0.41800000000E+01 0. -1.
         -5    1    3    3    0  502 -0.13472370659E+03 -0.90539042782E+02  0.14806936801E+03  0.21974941531E+03  0.41800000000E+01 0. -1.
        -11    1    4    4    0    0  0.72047613654E+02  0.34753142534E+02  0.73955703330E+02  0.10894074355E+03  0.00000000000E+00 0. -1.
         11    1    4    4    0    0  0.60259556379E+02  0.11686766518E+03  0.30387129483E+02  0.13495422535E+03  0.00000000000E+00 0.  1.
</event>
<event>
 8    1  0.6840032E-009  0.2127841E+03  0.7561462E-02  0.1139380E+00
         -2   -1    0    0    0  501 -0.00000000000E+00  0.00000000000E+00  0.38769400250E+03  0.38769400250E+03  0.00000000000E+00 0.  1.
          2   -1    0    0  501    0  0.00000000000E+00 -0.00000000000E+00 -0.21492023832E+03  0.21492023832E+03  0.00000000000E+00 0. -1.
         25    2    1    2    0    0  0.11684710493E+02  0.21040207054E+03 -0.81994182304E+02  0.25841355937E+03  0.12509579523E+03 0.  0.
         23    2    1    2    0    0 -0.11684710493E+02 -0.21040207054E+03  0.25476794648E+03  0.34420068145E+03  0.95717494795E+02 0.  0.
          5    1    3    3  502    0  0.23735847443E+02  0.12789275552E+03 -0.10994646355E+03  0.17036914220E+03  0.41800000000E+01 0.  1.
         -5    1    3    3    0  502 -0.12051136951E+02  0.82509315025E+02  0.27952281242E+02  0.88044417167E+02  0.41800000000E+01 0.  1.
        -11    1    4    4    0    0 -0.74820369785E+01 -0.18081309795E+02  0.86307454066E+02  0.88497973246E+02  0.00000000000E+00 0.  1.
         11    1    4    4    0    0 -0.42026735142E+01 -0.19232076075E+03  0.16846049241E+03  0.25570270820E+03  0.00000000000E+00 0. -1.
</event>
<event>
 8    1  0.6840032E-009  0.7536679E+02  0.7561462E-02  0.1342739E+00
         -2   -1    0    0    0  501 -0.00000000000E+00  0.00000000000E+00  0.28248271170E+02  0.28248271170E+02  0.00000000000E+00 0.  1.
          2   -1    0    0  501    0  0.00000000000E+00 -0.00000000000E+00 -0.59414780459E+03  0.59414780459E+03  0.00000000000E+00 0. -1.
         25    2    1    2    0    0 -0.39628798434E+02  0.18043922449E+02 -0.47225544913E+03  0.49047812510E+03  0.12509019610E+03 0.  0.
         23    2    1    2    0    0  0.39628798434E+02 -0.18043922449E+02 -0.93644084284E+02  0.13191795066E+03  0.82079878060E+02 0.  0.
          5    1    3    3  502    0 -0.61329584227E+02 -0.17962053440E+02 -0.41164388605E+03  0.41659586482E+03  0.41800000000E+01 0.  1.
         -5    1    3    3    0  502  0.21700785793E+02  0.36005975889E+02 -0.60611563084E+02  0.73882260275E+02  0.41800000000E+01 0.  1.
        -11    1    4    4    0    0  0.26352377544E+02 -0.72447676789E+01  0.82880207797E+01  0.28559162267E+02  0.00000000000E+00 0.  1.
         11    1    4    4    0    0  0.13276420890E+02 -0.10799154771E+02 -0.10193210506E+03  0.10335878839E+03  0.00000000000E+00 0. -1.
</event>
<event>
 8    1  0.6840032E-009  0.1211475E+03  0.7561462E-02  0.1241216E+00
         -1   -1    0    0    0  501 -0.00000000000E+00  0.00000000000E+00  0.23641270615E+02  0.23641270615E+02  0.00000000000E+00 0.  1.
          1   -1    0    0  501    0  0.00000000000E+00 -0.00000000000E+00 -0.74597434168E+03  0.74597434168E+03  0.00000000000E+00 0. -1.
         25    2    1    2    0    0  0.57013192454E+02  0.41154118823E+02 -0.47984373293E+03  0.50084090957E+03  0.12508974003E+03 0.  0.
         23    2    1    2    0    0 -0.57013192454E+02 -0.41154118823E+02 -0.24248933814E+03  0.26877470273E+03  0.92166133177E+02 0.  0.
          5    1    3    3  502    0 -0.26989427141E+02  0.40792980367E+02 -0.27592143449E+03  0.28025453936E+03  0.41800000000E+01 0.  1.
         -5    1    3    3    0  502  0.84002619595E+02  0.36113845616E+00 -0.20392229844E+03  0.22058637021E+03  0.41800000000E+01 0.  1.
        -11    1    4    4    0    0  0.21942172664E+02 -0.11341467728E+02 -0.23531561518E+02  0.34114838691E+02  0.00000000000E+00 0.  1.
         11    1    4    4    0    0 -0.78955365118E+02 -0.29812651095E+02 -0.21895777662E+03  0.23465986403E+03  0.00000000000E+00 0. -1.
</event>
<event>
 8    1  0.6840032E-009  0.1254780E+03  0.7561462E-02  0.1234324E+00
         -1   -1    0    0    0  501 -0.00000000000E+00  0.00000000000E+00  0.29963359909E+03  0.29963359909E+03  0.00000000000E+00 0.  1.
          1   -1    0    0  501    0  0.00000000000E+00 -0.00000000000E+00 -0.79326274511E+02  0.79326274511E+02  0.00000000000E+00 0. -1.
         25    2    1    2    0    0 -0.92853829995E+02  0.44608570462E+02  0.16194763221E+03  0.22909991543E+03  0.12509187570E+03 0.  0.
         23    2    1    2    0    0  0.92853829995E+02 -0.44608570462E+02  0.58359692372E+02  0.14985995818E+03  0.91871622758E+02 0.  0.
          5    1    3    3  502    0 -0.69078084492E+02  0.70378936205E+02  0.47903279543E+02  0.10971405110E+03  0.41800000000E+01 0.  1.
         -5    1    3    3    0  502 -0.23775745503E+02 -0.25770365743E+02  0.11404435267E+03  0.11938586432E+03  0.41800000000E+01 0.  1.
        -11    1    4    4    0    0  0.28231713120E+02  0.12336023302E+02  0.55740328538E+02  0.63688235351E+02  0.00000000000E+00 0.  1.
         11    1    4    4    0    0  0.64622116874E+02 -0.56944593764E+02  0.26193638341E+01  0.86171722828E+02  0.00000000000E+00 0. -1.
</event>
<event>
 8    1  0.6840032E-009  0.1029924E+03  0.7561462E-02  0.1274126E+00
         -2   -1    0    0    0  501 -0.00000000000E+00  0.00000000000E+00  0.49109243713E+02  0.49109243713E+02  0.00000000000E+00 0.  1.
          2   -1    0    0  501    0  0.00000000000E+00 -0.00000000000E+00 -0.35611222473E+03  0.35611222473E+03  0.00000000000E+00 0. -1.
         25    2    1    2    0    0  0.30469636829E+02 -0.50877793692E+02 -0.19703624493E+03  0.24080354160E+03  0.12508443217E+03 0.  0.
         23    2    1    2    0    0 -0.30469636829E+02  0.50877793692E+02 -0.10996673609E+03  0.16441792684E+03  0.10688134993E+03 0.  0.
          5    1    3    3  502    0 -0.15525234349E+02 -0.32358391798E+02 -0.18646541090E+03  0.18993398928E+03  0.41800000000E+01 0.  1.
         -5    1    3    3    0  502  0.45994871179E+02 -0.18519401895E+02 -0.10570834029E+02  0.50869552321E+02  0.41800000000E+01 0.  1.
        -11    1    4    4    0    0 -0.62132353670E+02  0.23843604243E+01 -0.41565973208E+02  0.74792009439E+02  0.00000000000E+00 0.  1.
         11    1    4    4    0    0  0.31662716841E+02  0.48493433268E+02 -0.68400762883E+02  0.89625917406E+02  0.00000000000E+00 0. -1.
</event>
<event>
 8    1  0.6840032E-009  0.1367033E+03  0.7561462E-02  0.1217835E+00
          2   -1    0    0  501    0  0.00000000000E+00  0.00000000000E+00  0.29220728509E+03  0.29220728509E+03  0.00000000000E+00 0. -1.
         -2   -1    0    0    0  501 -0.00000000000E+00 -0.00000000000E+00 -0.11099103835E+03  0.11099103835E+03  0.00000000000E+00 0.  1.
         25    2    1    2    0    0 -0.34806366555E+02 -0.10481896981E+03  0.19124734951E+03  0.25381581260E+03  0.12509363871E+03 0.  0.
         23    2    1    2    0    0  0.34806366555E+02  0.10481896981E+03 -0.10031102763E+02  0.14938251084E+03  0.10008002766E+03 0.  0.
          5    1    3    3  502    0 -0.62336604947E+02 -0.10396681011E+03  0.96325879631E+02  0.15489059819E+03  0.41800000000E+01 0. -1.
         -5    1    3    3    0  502  0.27530238392E+02 -0.85215970051E+00  0.94921469880E+02  0.98925214411E+02  0.41800000000E+01 0. -1.
        -11    1    4    4    0    0 -0.14163803118E+02  0.43685688756E+02 -0.44370283381E+02  0.63857456637E+02  0.00000000000E+00 0.  1.
         11    1    4    4    0    0  0.48970169673E+02  0.61133281058E+02  0.34339180618E+02  0.85525054202E+02  0.00000000000E+00 0. -1.
</event>
<event>
 8    1  0.6840032E-009  0.1245521E+03  0.7561462E-02  0.1235771E+00
          1   -1    0    0  501    0  0.00000000000E+00  0.00000000000E+00  0.26843279041E+03  0.26843279041E+03  0.00000000000E+00 0.  1.
         -1   -1    0    0    0  501 -0.00000000000E+00 -0.00000000000E+00 -0.91382409052E+02  0.91382409052E+02  0.00000000000E+00 0. -1.
         25    2    1    2    0    0  0.86607455879E+02  0.47625318207E+02  0.15785720943E+03  0.22435701743E+03  0.12509256713E+03 0.  0.
         23    2    1    2    0    0 -0.86607455879E+02 -0.47625318207E+02  0.19193171931E+02  0.13545818204E+03  0.90617431457E+02 0.  0.
          5    1    3    3  502    0 -0.26496453918E+02  0.84028003521E+01  0.71098529499E+02  0.76453531122E+02  0.41800000000E+01 0. -1.
         -5    1    3    3    0  502  0.11310390980E+03  0.39222517855E+02  0.86758679933E+02  0.14790348631E+03  0.41800000000E+01 0. -1.
        -11    1    4    4    0    0 -0.41700431202E+02 -0.10648412359E+02  0.52923801091E+02  0.68214685884E+02  0.00000000000E+00 0.  1.
         11    1    4    4    0    0 -0.44907024677E+02 -0.36976905848E+02 -0.33730629161E+02  0.67243496154E+02  0.00000000000E+00 0. -1.
</event>
<event>
 8    1  0.6840032E-009  0.1491974E+03  0.7561462E-02  0.1201463E+00
          1   -1    0    0  501    0  0.00000000000E+00  0.00000000000E+00  0.23234800345E+03  0.23234800345E+03  0.00000000000E+00 0. -1.
         -1   -1    0    0    0  501 -0.00000000000E+00 -0.00000000000E+00 -0.11616184796E+03  0.11616184796E+03  0.00000000000E+00 0.  1.
         25    2    1    2    0    0  0.17932656608E+02 -0.12127117891E+03  0.88496100228E+02  0.19623111140E+03  0.12508721085E+03 0.  0.
         23    2    1    2    0    0 -0.17932656608E+02  0.12127117891E+03  0.27690055259E+02  0.15227874002E+03  0.85987187969E+02 0.  0.
          5    1    3    3  502    0  0.55045983546E+02 -0.12488881745E+03  0.78062367632E+02  0.15728471848E+03  0.41800000000E+01 0.  1.
         -5    1    3    3    0  502 -0.37113326938E+02  0.36176385404E+01  0.10433732596E+02  0.38946392913E+02  0.41800000000E+01 0.  1.
        -11    1    4    4    0    0 -0.13400044717E+01  0.77563366135E+02  0.57738396755E+02  0.96703639218E+02  0.00000000000E+00 0. -1.
         11    1    4    4    0    0 -0.16592652136E+02  0.43707812772E+02 -0.30048341497E+02  0.55575100800E+02  0.00000000000E+00 0.  1.
</event>
<event>
 8    1  0.6840032E-009  0.9016244E+02  0.7561462E-02  0.1302459E+00
          1   -1    0    0  501    0  0.00000000000E+00  0.00000000000E+00  0.95310938941E+03  0.95310938941E+03  0.00000000000E+00 0. -1.
         -1   -1    0    0    0  501 -0.00000000000E+00 -0.00000000000E+00 -0.13185262741E+02  0.13185262741E+02  0.00000000000E+00 0.  1.
         25    2    1    2    0    0 -0.17285077630E+02  0.96940993071E+01  0.68464315090E+03  0.69625864406E+03  0.12508839224E+03 0.  0.
         23    2    1    2    0    0  0.17285077630E+02 -0.96940993071E+01  0.25528097576E+03  0.27003600809E+03  0.85780648226E+02 0.  0.
          5    1    3    3  502    0  0.43213645892E+02 -0.90272624710E+01  0.11773730448E+03  0.12581119157E+03  0.41800000000E+01 0.  1.
         -5    1    3    3    0  502 -0.60498723523E+02  0.18721361778E+02  0.56690584642E+03  0.57044745248E+03  0.41800000000E+01 0.  1.
        -11    1    4    4    0    0 -0.15294392115E+01 -0.38269925196E+02  0.56034212093E+02  0.67873111639E+02  0.00000000000E+00 0.  1.
         11    1    4    4    0    0  0.18814516842E+02  0.28575825889E+02  0.19924676367E+03  0.20216289645E+03  0.00000000000E+00 0. -1.
</event>
<event>
 8    1  0.6840032E-009  0.1314233E+03  0.7561462E-02  0.1225359E+00
          2   -1    0    0  501    0  0.00000000000E+00  0.00000000000E+00  0.10161746957E+04  0.10161746957E+04  0.00000000000E+00 0. -1.
         -2   -1    0    0    0  501 -0.00000000000E+00 -0.00000000000E+00 -0.68547696251E+02  0.68547696251E+02  0.00000000000E+00 0.  1.
         25    2    1    2    0    0 -0.17300957349E+02 -0.10053028994E+03  0.93424461846E+03  0.94808594292E+03  0.12509310821E+03 0.  0.
         23    2    1    2    0    0  0.17300957349E+02  0.10053028994E+03  0.13382380968E+02  0.13663644901E+03  0.89915342169E+02 0.  0.
          5    1    3    3  502    0  0.60055339971E+01 -0.10329011406E+03  0.90232434105E+03  0.90824644396E+03  0.41800000000E+01 0. -1.
         -5    1    3    3    0  502 -0.23306491346E+02  0.27598241169E+01  0.31920277405E+02  0.39839498963E+02  0.41800000000E+01 0. -1.
        -11    1    4    4    0    0  0.36787059086E+02  0.40256984228E+01 -0.16487305148E+01  0.37043383704E+02  0.00000000000E+00 0.  1.
         11    1    4    4    0    0 -0.19486101737E+02  0.96504591516E+02  0.15031111483E+02  0.99593065306E+02  0.00000000000E+00 0. -1.
</event>
<event>
 8    1  0.6840032E-009  0.1115309E+03  0.7561462E-02  0.1257761E+00
         -1   -1    0    0    0  501 -0.00000000000E+00  0.00000000000E+00  0.30575528235E+03  0.30575528235E+03  0.00000000000E+00 0.  1.
          1   -1    0    0  501    0  0.00000000000E+00 -0.00000000000E+00 -0.63551338020E+02  0.63551338020E+02  0.00000000000E+00 0. -1.
         25    2    1    2    0    0 -0.16919358651E+02  0.18514424194E+02  0.25503985139E+02  0.13010280398E+03  0.12508891935E+03 0.  0.
         23    2    1    2    0    0  0.16919358651E+02 -0.18514424194E+02  0.21669995919E+03  0.23920381639E+03  0.98135339519E+02 0.  0.
          5    1    3    3  502    0  0.33833383394E+02  0.51951571694E+02  0.30029950327E+02  0.69014012708E+02  0.41800000000E+01 0.  1.
         -5    1    3    3    0  502 -0.50752742045E+02 -0.33437147500E+02 -0.45259651876E+01  0.61088791271E+02  0.41800000000E+01 0.  1.
        -11    1    4    4    0    0 -0.40514603778E+02 -0.11674692435E+02  0.11056781384E+03  0.11833415830E+03  0.00000000000E+00 0. -1.
         11    1    4    4    0    0  0.57433962428E+02 -0.68397317590E+01  0.10613214535E+03  0.12086965809E+03  0.00000000000E+00 0.  1.
</event>
<event>
 8    1  0.6840032E-009  0.1502630E+03  0.7561462E-02  0.1200150E+00
          2   -1    0    0  501    0  0.00000000000E+00  0.00000000000E+00  0.18334931852E+03  0.18334931852E+03  0.00000000000E+00 0. -1.
         -2   -1    0    0    0  501 -0.00000000000E+00 -0.00000000000E+00 -0.15002005904E+03  0.15002005904E+03  0.00000000000E+00 0.  1.
         25    2    1    2    0    0  0.10740954727E+03 -0.71155344260E+02  0.11061256706E+02  0.17992332714E+03  0.12510059307E+03 0.  0.
         23    2    1    2    0    0 -0.10740954727E+03  0.71155344260E+02  0.22268002775E+02  0.15344605043E+03  0.80311472305E+02 0.  0.
          5    1    3    3  502    0  0.11195428756E+03 -0.39463022591E+02  0.50400590663E+02  0.12903016932E+03  0.41800000000E+01 0.  1.
         -5    1    3    3    0  502 -0.45447402870E+01 -0.31692321669E+02 -0.39339333958E+02  0.50893157823E+02  0.41800000000E+01 0.  1.
        -11    1    4    4    0    0 -0.91066431152E+02  0.16676417299E+02  0.26818292447E+02  0.96386817494E+02  0.00000000000E+00 0.  1.
         11    1    4    4    0    0 -0.16343116117E+02  0.54478926961E+02 -0.45502896720E+01  0.57059232937E+02  0.00000000000E+00 0. -1.
</event>
<event>
 8    1  0.6840032E-009  0.1844129E+03  0.7561462E-02  0.1163599E+00
          2   -1    0    0  501    0  0.00000000000E+00  0.00000000000E+00  0.25757069075E+04  0.25757069075E+04  0.00000000000E+00 0. -1.
         -2   -1    0    0    0  501 -0.00000000000E+00 -0.00000000000E+00 -0.19352268922E+02  0.19352268922E+02  0.00000000000E+00 0.  1.
         25    2    1    2    0    0  0.26542440480E+02 -0.17584177040E+03  0.17920745722E+04  0.18052156730E+04  0.12509006473E+03 0.  0.
         23    2    1    2    0    0 -0.26542440480E+02  0.17584177040E+03  0.76428006639E+03  0.78984350345E+03  0.90021723479E+02 0.  0.
          5    1    3    3  502    0  0.26092879763E+02 -0.24075406504E+02  0.97387483863E+02  0.10374130318E+03  0.41800000000E+01 0. -1.
         -5    1    3    3    0  502  0.44956071699E+00 -0.15176636390E+03  0.16946870883E+04  0.17014743698E+04  0.41800000000E+01 0. -1.
        -11    1    4    4    0    0 -0.34591477375E+02  0.12185975066E+03  0.66100551203E+03  0.67303391896E+03  0.00000000000E+00 0.  1.
         11    1    4    4    0    0  0.80490368953E+01  0.53982019744E+02  0.10327455436E+03  0.11680958449E+03  0.00000000000E+00 0. -1.
</event>
<event>
 8    1  0.6840032E-009  0.8091309E+02  0.7561462E-02  0.1326480E+00
          2   -1    0    0  501    0  0.00000000000E+00  0.00000000000E+00  0.40265050095E+02  0.40265050095E+02  0.00000000000E+00 0. -1.
         -2   -1    0    0    0  501 -0.00000000000E+00 -0.00000000000E+00 -0.34480623367E+03  0.34480623367E+03  0.00000000000E+00 0.  1.
         25    2    1    2    0    0 -0.17708533603E+02 -0.17768694733E+02 -0.23579848645E+03  0.26809920679E+03  0.12508772838E+03 0.  0.
         23    2    1    2    0    0  0.17708533603E+02  0.17768694733E+02 -0.68742697128E+02  0.11697207698E+03  0.91255628377E+02 0.  0.
          5    1    3    3  502    0  0.26033512637E+02 -0.22614292209E+02 -0.21749624746E+03  0.22025267320E+03  0.41800000000E+01 0.  1.
         -5    1    3    3    0  502 -0.43742046241E+02  0.48455974760E+01 -0.18302238994E+02  0.47846533588E+02  0.41800000000E+01 0.  1.
        -11    1    4    4    0    0 -0.27232036589E+02 -0.11165974267E+02  0.57787736881E+00  0.29438015225E+02  0.00000000000E+00 0.  1.
         11    1    4    4    0    0  0.44940570193E+02  0.28934669000E+02 -0.69320574497E+02  0.87534061759E+02  0.00000000000E+00 0. -1.
</event>
<event>
 8    1  0.6840032E-009  0.1796307E+03  0.7561462E-02  0.1168161E+00
          1   -1    0    0  501    0  0.00000000000E+00  0.00000000000E+00  0.40627754450E+03  0.40627754450E+03  0.00000000000E+00 0. -1.
         -1   -1    0    0    0  501 -0.00000000000E+00 -0.00000000000E+00 -0.11874362010E+03  0.11874362010E+03  0.00000000000E+00 0.  1.
         25    2    1    2    0    0  0.47902617288E+02 -0.15790701847E+03  0.26088911844E+03  0.33307757002E+03  0.12509295866E+03 0.  0.
         23    2    1    2    0    0 -0.47902617288E+02  0.15790701847E+03  0.26644805966E+02  0.19194359458E+03  0.94356295962E+02 0.  0.
          5    1    3    3  502    0 -0.10477940363E+02 -0.11974607273E+03  0.22355641183E+03  0.25385793436E+03  0.41800000000E+01 0. -1.
         -5    1    3    3    0  502  0.58380557651E+02 -0.38160945746E+02  0.37332706610E+02  0.79219635664E+02  0.41800000000E+01 0. -1.
        -11    1    4    4    0    0 -0.44329106343E+02  0.82782833943E+02  0.58096243321E+02  0.11042300826E+03  0.00000000000E+00 0. -1.
         11    1    4    4    0    0 -0.35735109446E+01  0.75124184530E+02 -0.31451437355E+02  0.81520586317E+02  0.00000000000E+00 0.  1.
</event>
<event>
 8    1  0.6840032E-009  0.9963577E+02  0.7561462E-02  0.1281064E+00
          1   -1    0    0  501    0  0.00000000000E+00  0.00000000000E+00  0.38113247436E+03  0.38113247436E+03  0.00000000000E+00 0. -1.
         -1   -1    0    0    0  501 -0.00000000000E+00 -0.00000000000E+00 -0.39566252236E+02  0.39566252236E+02  0.00000000000E+00 0.  1.
         25    2    1    2    0    0 -0.27734333582E+02 -0.50036481216E+02  0.19318851296E+03  0.23715369975E+03  0.12508890059E+03 0.  0.
         23    2    1    2    0    0  0.27734333582E+02  0.50036481216E+02  0.14837770917E+03  0.18354502685E+03  0.91651457126E+02 0.  0.
          5    1    3    3  502    0 -0.66541369218E+02 -0.39745310181E+01  0.55611132890E+02  0.86911571241E+02  0.41800000000E+01 0.  1.
         -5    1    3    3    0  502  0.38807035636E+02 -0.46061950197E+02  0.13757738007E+03  0.15024212850E+03  0.41800000000E+01 0.  1.
        -11    1    4    4    0    0 -0.97452249854E+01  0.25525695852E+02 -0.12580877464E+01  0.27351660709E+02  0.00000000000E+00 0.  1.
         11    1    4    4    0    0  0.37479558567E+02  0.24510785363E+02  0.14963579691E+03  0.15619336615E+03  0.00000000000E+00 0. -1.
</event>
<event>
 8    1  0.6840032E-009  0.1105604E+03  0.7561462E-02  0.1259536E+00
         -1   -1    0    0    0  501 -0.00000000000E+00  0.00000000000E+00  0.22452281196E+02  0.22452281196E+02  0.00000000000E+00 0.  1.
          1   -1    0    0  501    0  0.00000000000E+00 -0.00000000000E+00 -0.95498561687E+03  0.95498561687E+03  0.00000000000E+00 0. -1.
         25    2    1    2    0    0  0.20960522790E+02  0.50082552414E+02 -0.77223197861E+03  0.78417882590E+03  0.12508635666E+03 0.  0.
         23    2    1    2    0    0 -0.20960522790E+02 -0.50082552414E+02 -0.16030135707E+03  0.19325907217E+03  0.93300258993E+02 0.  0.
          5    1    3    3  502    0 -0.20974662671E+02 -0.30078539512E+02 -0.37210464093E+03  0.37393046308E+03  0.41800000000E+01 0.  1.
         -5    1    3    3    0  502  0.41935185462E+02  0.80161091926E+02 -0.40012733768E+03  0.41024836282E+03  0.41800000000E+01 0.  1.
        -11    1    4    4    0    0  0.25380369395E+02 -0.38108744761E+02 -0.30764176361E+02  0.55162252719E+02  0.00000000000E+00 0.  1.
         11    1    4    4    0    0 -0.46340892186E+02 -0.11973807653E+02 -0.12953718070E+03  0.13809681945E+03  0.00000000000E+00 0. -1.
</event>
<event>
 8    1  0.6840032E-009  0.1080785E+03  0.7561462E-02  0.1264170E+00
         -1   -1    0    0    0  501 -0.00000000000E+00  0.00000000000E+00  0.17463072264E+02  0.17463072264E+02  0.00000000000E+00 0.  1.
          1   -1    0    0  501    0  0.00000000000E+00 -0.00000000000E+00 -0.68278490434E+03  0.68278490434E+03  0.00000000000E+00 0. -1.
         25    2    1    2    0    0 -0.28932333732E+01 -0.98437309522E+01 -0.40353501793E+03  0.42260339893E+03  0.12509137561E+03 0.  0.
         23    2    1    2    0    0  0.28932333732E+01  0.98437309522E+01 -0.26178681415E+03  0.27764457768E+03  0.91917928681E+02 0.  0.
          5    1    3    3  502    0  0.60430975531E+02  0.33224852107E+01 -0.19984306011E+03  0.20884842059E+03  0.41800000000E+01 0.  1.
         -5    1    3    3    0  502 -0.63324208904E+02 -0.13166216163E+02 -0.20369195782E+03  0.21375497833E+03  0.41800000000E+01 0.  1.
        -11    1    4    4    0    0 -0.90380840357E+01  0.48957204193E+02 -0.11601648139E+03  0.12624705446E+03  0.00000000000E+00 0.  1.
         11    1    4    4    0    0  0.11931317409E+02 -0.39113473241E+02 -0.14577033276E+03  0.15139752322E+03  0.00000000000E+00 0. -1.
</event>
<event>
 8    1  0.6840032E-009  0.1855410E+03  0.7561462E-02  0.1162546E+00
          2   -1    0    0  501    0  0.00000000000E+00  0.00000000000E+00  0.19266019190E+03  0.19266019190E+03  0.00000000000E+00 0. -1.
         -2   -1    0    0    0  501 -0.00000000000E+00 -0.00000000000E+00 -0.19931785511E+03  0.19931785511E+03  0.00000000000E+00 0.  1.
         25    2    1    2    0    0  0.13249713270E+02  0.15888016759E+03  0.29394946747E+02  0.20476318444E+03  0.12508171831E+03 0.  0.
         23    2    1    2    0    0 -0.13249713270E+02 -0.15888016759E+03 -0.36052609961E+02  0.18721486257E+03  0.91275141889E+02 0.  0.
          5    1    3    3  502    0 -0.51035634283E+02  0.64800007072E+02  0.36974314597E+02  0.90488945309E+02  0.41800000000E+01 0. -1.
         -5    1    3    3    0  502  0.64285347553E+02  0.94080160514E+02 -0.75793678493E+01  0.11427423913E+03  0.41800000000E+01 0. -1.
        -11    1    4    4    0    0  0.29385795748E+02 -0.68524271840E+02  0.13371071061E+02  0.75748837379E+02  0.00000000000E+00 0. -1.
         11    1    4    4    0    0 -0.42635509018E+02 -0.90355895747E+02 -0.49423681022E+02  0.11146602519E+03  0.00000000000E+00 0.  1.
</event>
<event>
 8    1  0.6840032E-009  0.1178618E+03  0.7561462E-02  0.1246667E+00
          2   -1    0    0  501    0  0.00000000000E+00  0.00000000000E+00  0.11412812752E+03  0.11412812752E+03  0.00000000000E+00 0.  1.
         -2   -1    0    0    0  501 -0.00000000000E+00 -0.00000000000E+00 -0.16590794841E+03  0.16590794841E+03  0.00000000000E+00 0. -1.
         25    2    1    2    0    0 -0.23020585974E+01 -0.82555462944E+02 -0.14218193548E+02  0.15056605801E+03  0.12508907570E+03 0.  0.
         23    2    1    2    0    0  0.23020585974E+01  0.82555462944E+02 -0.37561627337E+02  0.12947001793E+03  0.92362902500E+02 0.  0.
          5    1    3    3  502    0 -0.34569798666E+02  0.70131980787E+01  0.29069679488E+02  0.45899614297E+02  0.41800000000E+01 0.  1.
         -5    1    3    3    0  502  0.32267740068E+02 -0.89568661022E+02 -0.43287873036E+02  0.10466644371E+03  0.41800000000E+01 0.  1.
        -11    1    4    4    0    0  0.12915298357E+02 -0.70237576097E+01  0.18218932366E+02  0.23410843623E+02  0.00000000000E+00 0.  1.
         11    1    4    4    0    0 -0.10613239760E+02  0.89579220553E+02 -0.55780559703E+02  0.10605917430E+03  0.00000000000E+00 0. -1.
</event>
<event>
 8    1  0.6840032E-009  0.1263507E+03  0.7561462E-02  0.1232973E+00
         -2   -1    0    0    0  501 -0.00000000000E+00  0.00000000000E+00  0.13095457154E+02  0.13095457154E+02  0.00000000000E+00 0.  1.
          2   -1    0    0  501    0  0.00000000000E+00 -0.00000000000E+00 -0.14573367659E+04  0.14573367659E+04  0.00000000000E+00 0. -1.
         25    2    1    2    0    0  0.28966393574E+02  0.55823325305E+02 -0.10694691400E+04  0.10785954055E+04  0.12509401161E+03 0.  0.
         23    2    1    2    0    0 -0.28966393574E+02 -0.55823325305E+02 -0.37477216874E+03  0.39183681755E+03  0.95533331997E+02 0.  0.
          5    1    3    3  502    0  0.19357700321E+02  0.95997088830E+02 -0.79048981896E+03  0.79654365098E+03  0.41800000000E+01 0.  1.
         -5    1    3    3    0  502  0.96086932533E+01 -0.40173763525E+02 -0.27897932100E+03  0.28205175448E+03  0.41800000000E+01 0.  1.
        -11    1    4    4    0    0 -0.48501567370E+00 -0.77419894311E+02 -0.22846329208E+03  0.24122510463E+03  0.00000000000E+00 0.  1.
         11    1    4    4    0    0 -0.28481377900E+02  0.21596569006E+02 -0.14630887666E+03  0.15061171293E+03  0.00000000000E+00 0. -1.
</event>
<event>
 8    1  0.6840032E-009  0.8272096E+02  0.7561462E-02  0.1321502E+00
          2   -1    0    0  501    0  0.00000000000E+00  0.00000000000E+00  0.34676286246E+03  0.34676286246E+03  0.00000000000E+00 0. -1.
         -2   -1    0    0    0  501 -0.00000000000E+00 -0.00000000000E+00 -0.48285412607E+02  0.48285412607E+02  0.00000000000E+00 0.  1.
         25    2    1    2    0    0 -0.61402179269E+02 -0.34046788342E+01  0.11834417214E+03  0.18285525648E+03  0.12509549266E+03 0.  0.
         23    2    1    2    0    0  0.61402179269E+02  0.34046788342E+01  0.18013327771E+03  0.21219301859E+03  0.93787312267E+02 0.  0.
          5    1    3    3  502    0 -0.17928959020E+02  0.16466528532E+02  0.13093875688E+03  0.13324798155E+03  0.41800000000E+01 0. -1.
         -5    1    3    3    0  502 -0.43473220250E+02 -0.19871207366E+02 -0.12594584739E+02  0.49607274928E+02  0.41800000000E+01 0. -1.
        -11    1    4    4    0    0  0.33041551684E+02 -0.32942629534E+02  0.15006634528E+03  0.15715237498E+03  0.00000000000E+00 0. -1.
         11    1    4    4    0    0  0.28360627585E+02  0.36347308368E+02  0.30066932436E+02  0.55040643608E+02  0.00000000000E+00 0.  1.
</event>
<event>
 8    1  0.6840032E-009  0.9181750E+02  0.7561462E-02  0.1298509E+00
         -2   -1    0    0    0  501 -0.00000000000E+00  0.00000000000E+00  0.11741010838E+03  0.11741010838E+03  0.00000000000E+00 0.  1.
          2   -1    0    0  501    0  0.00000000000E+00 -0.00000000000E+00 -0.12960204905E+03  0.12960204905E+03  0.00000000000E+00 0. -1.
         25    2    1    2    0    0 -0.26594551198E+02  0.38259381932E+02  0.27385415973E+02  0.13626947246E+03  0.12509339574E+03 0.  0.
         23    2    1    2    0    0  0.26594551198E+02 -0.38259381932E+02 -0.39577356642E+02  0.11074268497E+03  0.92339182672E+02 0.  0.
          5    1    3    3  502    0 -0.17653740527E+02 -0.38752747066E+02  0.38838927493E+02  0.57787236035E+02  0.41800000000E+01 0. -1.
         -5    1    3    3    0  502 -0.89408106706E+01  0.77012128998E+02 -0.11453511520E+02  0.78482236426E+02  0.41800000000E+01 0. -1.
        -11    1    4    4    0    0  0.38344123184E+02 -0.31676177735E+02  0.17018084440E+02  0.52566788152E+02  0.00000000000E+00 0.  1.
         11    1    4    4    0    0 -0.11749571987E+02 -0.65832041973E+01 -0.56595441082E+02  0.58175896819E+02  0.00000000000E+00 0. -1.
</event>
<event>
 8    1  0.6840032E-009  0.1410494E+03  0.7561462E-02  0.1211924E+00
         -2   -1    0    0    0  501 -0.00000000000E+00  0.00000000000E+00  0.11194544917E+03  0.11194544917E+03  0.00000000000E+00 0.  1.
          2   -1    0    0  501    0  0.00000000000E+00 -0.00000000000E+00 -0.60365090638E+03  0.60365090638E+03  0.00000000000E+00 0. -1.
         25    2    1    2    0    0  0.92507556423E+02 -0.52055382819E+02 -0.54195305079E+03  0.56624132302E+03  0.12509482708E+03 0.  0.
         23    2    1    2    0    0 -0.92507556423E+02  0.52055382819E+02  0.50247593580E+02  0.14935503252E+03  0.92275100666E+02 0.  0.
          5    1    3    3  502    0  0.10954405388E+03 -0.30383332637E+02 -0.27168734946E+03  0.29454122785E+03  0.41800000000E+01 0. -1.
         -5    1    3    3    0  502 -0.17036497458E+02 -0.21672050182E+02 -0.27026570133E+03  0.27170009518E+03  0.41800000000E+01 0. -1.
        -11    1    4    4    0    0 -0.87756214618E+02 -0.43335571257E+00  0.27636602819E+02  0.92006102062E+02  0.00000000000E+00 0. -1.
         11    1    4    4    0    0 -0.47513418053E+01  0.52488738532E+02  0.22610990761E+02  0.57348930459E+02  0.00000000000E+00 0.  1.
</event>
<event>
 8    1  0.6840032E-009  0.1084994E+03  0.7561462E-02  0.1263374E+00
         -1   -1    0    0    0  501 -0.00000000000E+00  0.00000000000E+00  0.26523418085E+03  0.26523418085E+03  0.00000000000E+00 0.  1.
          1   -1    0    0  501    0  0.00000000000E+00 -0.00000000000E+00 -0.73773387744E+02  0.73773387744E+02  0.00000000000E+00 0. -1.
         25    2    1    2    0    0  0.79491067742E+02 -0.17478424105E+02  0.82269599353E+02  0.17041236655E+03  0.12509101700E+03 0.  0.
         23    2    1    2    0    0 -0.79491067742E+02  0.17478424105E+02  0.10919119375E+03  0.16859520205E+03  0.99384607459E+02 0.  0.
          5    1    3    3  502    0 -0.24443847772E+02 -0.94443651790E+00 -0.13330813535E+02  0.28170492430E+02  0.41800000000E+01 0. -1.
         -5    1    3    3    0  502  0.10393491551E+03 -0.16533987588E+02  0.95600412888E+02  0.14224187412E+03  0.41800000000E+01 0. -1.
        -11    1    4    4    0    0 -0.44313422968E+02 -0.57759851290E+01  0.11741497314E+03  0.12563167346E+03  0.00000000000E+00 0.  1.
         11    1    4    4    0    0 -0.35177644774E+02  0.23254409234E+02 -0.82237793905E+01  0.42963528581E+02  0.00000000000E+00 0. -1.
</event>
<event>
 8    1  0.6840032E-009  0.1423396E+03  0.7561462E-02  0.1210215E+00
          2   -1    0    0  501    0  0.00000000000E+00  0.00000000000E+00  0.25598135931E+03  0.25598135931E+03  0.00000000000E+00 0.  1.
         -2   -1    0    0    0  501 -0.00000000000E+00 -0.00000000000E+00 -0.99605789347E+02  0.99605789347E+02  0.00000000000E+00 0. -1.
         25    2    1    2    0    0  0.69484351553E+02  0.91764913012E+02  0.99240282935E+02  0.19683849125E+03  0.12509150055E+03 0.  0.
         23    2    1    2    0    0 -0.69484351553E+02 -0.91764913012E+02  0.57135287031E+02  0.15874865741E+03  0.93208480485E+02 0.  0.
          5    1    3    3  502    0  0.72951446156E+02  0.36579270345E+02  0.11324128241E+03  0.13964604168E+03  0.41800000000E+01 0.  1.
         -5    1    3    3    0  502 -0.34670946034E+01  0.55185642666E+02 -0.14000999476E+02  0.57192449570E+02  0.41800000000E+01 0.  1.
        -11    1    4    4    0    0 -0.90335053452E+02 -0.56516159274E+02  0.47563682452E+02  0.11669105377E+03  0.00000000000E+00 0.  1.
         11    1    4    4    0    0  0.20850701899E+02 -0.35248753737E+02  0.95716045788E+01  0.42057603640E+02  0.00000000000E+00 0. -1.
</event>
<event>
 8    1  0.6840032E-009  0.8633678E+02  0.7561462E-02  0.1311973E+00
          2   -1    0    0  501    0  0.00000000000E+00  0.00000000000E+00  0.15232873407E+04  0.15232873407E+04  0.00000000000E+00 0. -1.
         -2   -1    0    0    0  501 -0.00000000000E+00 -0.00000000000E+00 -0.17064791215E+02  0.17064791215E+02  0.00000000000E+00 0.  1.
         25    2    1    2    0    0  0.18465995594E+02 -0.29443013964E+02  0.13472320819E+04  0.13534731043E+04  0.12508907886E+03 0.  0.
         23    2    1    2    0    0 -0.18465995594E+02  0.29443013964E+02  0.15899046757E+03  0.18687902755E+03  0.91858141137E+02 0.  0.
          5    1    3    3  502    0  0.75048701503E+01  0.34197510341E+02  0.13544471980E+03  0.13995905584E+03  0.41800000000E+01 0.  1.
         -5    1    3    3    0  502  0.10961125443E+02 -0.63640524305E+02  0.12117873621E+04  0.12135140485E+04  0.41800000000E+01 0.  1.
        -11    1    4    4    0    0  0.10719169752E+02 -0.15660967017E+02 -0.83517210505E-01  0.18978236567E+02  0.00000000000E+00 0.  1.
         11    1    4    4    0    0 -0.29185165346E+02  0.45103980982E+02  0.15907398478E+03  0.16790079098E+03  0.00000000000E+00 0. -1.
</event>
<event>
 8    1  0.6840032E-009  0.1247932E+03  0.7561462E-02  0.1235393E+00
          1   -1    0    0  501    0  0.00000000000E+00  0.00000000000E+00  0.11909541438E+03  0.11909541438E+03  0.00000000000E+00 0. -1.
         -1   -1    0    0    0  501 -0.00000000000E+00 -0.00000000000E+00 -0.17851032336E+03  0.17851032336E+03  0.00000000000E+00 0.  1.
         25    2    1    2    0    0  0.73982879296E-01  0.90065765502E+02  0.58884326402E+01  0.15425276781E+03  0.12508954852E+03 0.  0.
         23    2    1    2    0    0 -0.73982879296E-01 -0.90065765502E+02 -0.65303341623E+02  0.14335296993E+03  0.90408517148E+02 0.  0.
          5    1    3    3  502    0 -0.22660117264E+01  0.11761068818E+03  0.25070035450E+02  0.12034694786E+03  0.41800000000E+01 0.  1.
         -5    1    3    3    0  502  0.23399946057E+01 -0.27544922674E+02 -0.19181602810E+02  0.33905819946E+02  0.41800000000E+01 0.  1.
        -11    1    4    4    0    0  0.21985891123E+02 -0.17571832214E+02  0.15866988160E+02  0.32309596239E+02  0.00000000000E+00 0. -1.
         11    1    4    4    0    0 -0.22059874003E+02 -0.72493933287E+02 -0.81170329783E+02  0.11104337370E+03  0.00000000000E+00 0.  1.
</event>
<event>
 8    1  0.6840032E-009  0.7240655E+02  0.7561462E-02  0.1352096E+00
          1   -1    0    0  501    0  0.00000000000E+00  0.00000000000E+00  0.11181399380E+03  0.11181399380E+03  0.00000000000E+00 0. -1.
         -1   -1    0    0    0  501 -0.00000000000E+00 -0.00000000000E+00 -0.11641019235E+03  0.11641019235E+03  0.00000000000E+00 0.  1.
         25    2    1    2    0    0  0.34033345038E+01 -0.32697084373E+02  0.88892681826E+01  0.12964650738E+03  0.12509402774E+03 0.  0.
         23    2    1    2    0    0 -0.34033345038E+01  0.32697084373E+02 -0.13485466736E+02  0.98577678766E+02  0.91951176858E+02 0.  0.
          5    1    3    3  502    0  0.32784316592E+00 -0.41569431035E+02  0.62434130249E+02  0.75124018115E+02  0.41800000000E+01 0. -1.
         -5    1    3    3    0  502  0.30754913379E+01  0.88723466615E+01 -0.53544862067E+02  0.54522489268E+02  0.41800000000E+01 0. -1.
        -11    1    4    4    0    0 -0.16275884978E+02  0.60214132544E+02 -0.23402684359E+02  0.66620806247E+02  0.00000000000E+00 0.  1.
         11    1    4    4    0    0  0.12872550475E+02 -0.27517048171E+02  0.99172176235E+01  0.31956872518E+02  0.00000000000E+00 0. -1.
</event>
<event>
 8    1  0.6840032E-009  0.1786008E+03  0.7561462E-02  0.1169164E+00
         -1   -1    0    0    0  501 -0.00000000000E+00  0.00000000000E+00  0.55952588630E+02  0.55952588630E+02  0.00000000000E+00 0.  1.
          1   -1    0    0  501    0  0.00000000000E+00 -0.00000000000E+00 -0.10486953853E+04  0.10486953853E+04  0.00000000000E+00 0. -1.
         25    2    1    2    0    0  0.28474512276E+02 -0.15380429452E+03 -0.87534575822E+03  0.89796666780E+03  0.12508949270E+03 0.  0.
         23    2    1    2    0    0 -0.28474512276E+02  0.15380429452E+03 -0.11739703846E+03  0.20668130614E+03  0.66847130135E+02 0.  0.
          5    1    3    3  502    0  0.26496304306E+02  0.14106497303E+02 -0.93837853882E+02  0.98610661844E+02  0.41800000000E+01 0.  1.
         -5    1    3    3    0  502  0.19782079704E+01 -0.16791079182E+03 -0.78150790434E+03  0.79935600596E+03  0.41800000000E+01 0.  1.
        -11    1    4    4    0    0 -0.20174523139E+02  0.39867656318E+02 -0.69903627106E+02  0.82963597359E+02  0.00000000000E+00 0. -1.
         11    1    4    4    0    0 -0.82999891369E+01  0.11393663820E+03 -0.47493411351E+02  0.12371770878E+03  0.00000000000E+00 0.  1.
</event>
<event>
 8    1  0.6840032E-009  0.1304382E+03  0.7561462E-02  0.1226807E+00
         -2   -1    0    0    0  501 -0.00000000000E+00  0.00000000000E+00  0.71587305836E+03  0.71587305836E+03  0.00000000000E+00 0.  1.
          2   -1    0    0  501    0  0.00000000000E+00 -0.00000000000E+00 -0.51702108232E+02  0.51702108232E+02  0.00000000000E+00 0. -1.
         25    2    1    2    0    0 -0.10714333829E+03  0.13957193012E+02  0.58057458593E+03  0.60364717224E+03  0.12509420667E+03 0.  0.
         23    2    1    2    0    0  0.10714333829E+03 -0.13957193012E+02  0.83596364195E+02  0.16392799436E+03  0.90606495633E+02 0.  0.
          5    1    3    3  502    0 -0.10301443573E+03 -0.30423611837E+02  0.50044674352E+03  0.51186129530E+03  0.41800000000E+01 0. -1.
         -5    1    3    3    0  502 -0.41289025582E+01  0.44380804848E+02  0.80127842414E+02  0.91785876938E+02  0.41800000000E+01 0. -1.
        -11    1    4    4    0    0  0.28020335799E+02 -0.85976335720E+01 -0.18492397723E+02  0.34655840704E+02  0.00000000000E+00 0. -1.
         11    1    4    4    0    0  0.79123002488E+02 -0.53595594396E+01  0.10208876192E+03  0.12927215365E+03  0.00000000000E+00 0.  1.
</event>
<event>
 8    1  0.6840032E-009  0.1127982E+03  0.7561462E-02  0.1255474E+00
          1   -1    0    0  501    0  0.00000000000E+00  0.00000000000E+00  0.57895071804E+03  0.57895071804E+03  0.00000000000E+00 0. -1.
         -1   -1    0    0    0  501 -0.00000000000E+00 -0.00000000000E+00 -0.23989398945E+02  0.23989398945E+02  0.00000000000E+00 0.  1.
         25    2    1    2    0    0 -0.34475030324E+02 -0.13074409668E+02  0.37735715804E+03  0.39925594362E+03  0.12508963144E+03 0.  0.
         23    2    1    2    0    0  0.34475030324E+02  0.13074409668E+02  0.17760416106E+03  0.20368417336E+03  0.92652774101E+02 0.  0.
          5    1    3    3  502    0 -0.15997874274E+02  0.56019104164E+02  0.15486674907E+03  0.16551511829E+03  0.41800000000E+01 0.  1.
         -5    1    3    3    0  502 -0.18477156050E+02 -0.69093513832E+02  0.22249040896E+03  0.23374082534E+03  0.41800000000E+01 0.  1.
        -11    1    4    4    0    0  0.60244808568E+02 -0.98610005557E+01  0.13956190420E+03  0.15232925325E+03  0.00000000000E+00 0. -1.
         11    1    4    4    0    0 -0.25769778244E+02  0.22935410223E+02  0.38042256856E+02  0.51354920111E+02  0.00000000000E+00 0.  1.
</event>
<event>
 8    1  0.6840032E-009  0.7462187E+02  0.7561462E-02  0.1345046E+00
          1   -1    0    0  501    0  0.00000000000E+00  0.00000000000E+00  0.30323245344E+03  0.30323245344E+03  0.00000000000E+00 0. -1.
         -1   -1    0    0    0  501 -0.00000000000E+00 -0.00000000000E+00 -0.46012070608E+02  0.46012070608E+02  0.00000000000E+00 0.  1.
         25    2    1    2    0    0 -0.45457188265E+02  0.10691835872E+02  0.13845696920E+03  0.19234978927E+03  0.12508971897E+03 0.  0.
         23    2    1    2    0    0  0.45457188265E+02 -0.10691835872E+02  0.11876341363E+03  0.15689473478E+03  0.91271781313E+02 0.  0.
          5    1    3    3  502    0  0.26590562282E-02  0.86687227950E+01 -0.22797490938E+02  0.24745600721E+02  0.41800000000E+01 0. -1.
         -5    1    3    3    0  502 -0.45459847321E+02  0.20231130765E+01  0.16125446014E+03  0.16760418855E+03  0.41800000000E+01 0. -1.
        -11    1    4    4    0    0  0.45356379754E+02 -0.42475314716E+02  0.10553033821E+03  0.12246634569E+03  0.00000000000E+00 0. -1.
         11    1    4    4    0    0  0.10080851154E+00  0.31783478845E+02  0.13233075423E+02  0.34428389085E+02  0.00000000000E+00 0.  1.
</event>
<event>
 8    1  0.6840032E-009  0.1809715E+03  0.7561462E-02  0.1166866E+00
          2   -1    0    0  501    0  0.00000000000E+00  0.00000000000E+00  0.16901169637E+03  0.16901169637E+03  0.00000000000E+00 0. -1.
         -2   -1    0    0    0  501 -0.00000000000E+00 -0.00000000000E+00 -0.21544437643E+03  0.21544437643E+03  0.00000000000E+00 0.  1.
         25    2    1    2    0    0 -0.67456520438E+02 -0.13760724600E+03 -0.60494785120E+02  0.20686642652E+03  0.12509181864E+03 0.  0.
         23    2    1    2    0    0  0.67456520438E+02  0.13760724600E+03  0.14062105060E+02  0.17758964628E+03  0.88623943529E+02 0.  0.
          5    1    3    3  502    0 -0.84639701464E+02 -0.31763570950E+02 -0.28831797285E+02  0.94981832148E+02  0.41800000000E+01 0.  1.
         -5    1    3    3    0  502  0.17183181027E+02 -0.10584367505E+03 -0.31662987835E+02  0.11188459437E+03  0.41800000000E+01 0.  1.
        -11    1    4    4    0    0  0.68283146891E+02  0.74649794519E+02 -0.24052632889E+02  0.10398898557E+03  0.00000000000E+00 0.  1.
         11    1    4    4    0    0 -0.82662645374E+00  0.62957451483E+02  0.38114737949E+02  0.73600660713E+02  0.00000000000E+00 0. -1.
</event>
<event>
 8    1  0.6840032E-009  0.1033442E+03  0.7561462E-02  0.1273417E+00
          2   -1    0    0  501    0  0.00000000000E+00  0.00000000000E+00  0.20812350792E+04  0.20812350792E+04  0.00000000000E+00 0.  1.
         -2   -1    0    0    0  501 -0.00000000000E+00 -0.00000000000E+00 -0.99103617908E+01  0.99103617908E+01  0.00000000000E+00 0. -1.
         25    2    1    2    0    0 -0.78066988178E+02 -0.25844650770E+02  0.14781913395E+04  0.14857523700E+04  0.12509223918E+03 0.  0.
         23    2    1    2    0    0  0.78066988178E+02  0.25844650770E+02  0.59313337793E+03  0.60539307097E+03  0.89057092604E+02 0.  0.
          5    1    3    3  502    0 -0.55880360092E+02 -0.29380614845E+02  0.26884148544E+03  0.27618662507E+03  0.41800000000E+01 0. -1.
         -5    1    3    3    0  502 -0.22186628087E+02  0.35359640741E+01  0.12093498540E+04  0.12095657449E+04  0.41800000000E+01 0. -1.
        -11    1    4    4    0    0  0.17926069456E+02  0.51984538215E+02  0.30204603518E+03  0.30701065706E+03  0.00000000000E+00 0.  1.
         11    1    4    4    0    0  0.60140918722E+02 -0.26139887445E+02  0.29108734275E+03  0.29838241391E+03  0.00000000000E+00 0. -1.
</event>
<event>
 8    1  0.6840032E-009  0.1663492E+03  0.7561462E-02  0.1181709E+00
         -1   -1    0    0    0  501 -0.00000000000E+00  0.00000000000E+00  0.34033634456E+03  0.34033634456E+03  0.00000000000E+00 0.  1.
          1   -1    0    0  501    0  0.00000000000E+00 -0.00000000000E+00 -0.90583741631E+02  0.90583741631E+02  0.00000000000E+00 0. -1.
         25    2    1    2    0    0  0.47335024367E+02  0.12548947852E+03  0.17026953570E+03  0.25025475907E+03  0.12509003117E+03 0.  0.
         23    2    1    2    0    0 -0.47335024367E+02 -0.12548947852E+03  0.79483067221E+02  0.18066532712E+03  0.91291777815E+02 0.  0.
          5    1    3    3  502    0 -0.21513267715E+02  0.10087103632E+03  0.13216358337E+03  0.16769756059E+03  0.41800000000E+01 0.  1.
         -5    1    3    3    0  502  0.68848292082E+02  0.24618442193E+02  0.38105952333E+02  0.82557198485E+02  0.41800000000E+01 0.  1.
        -11    1    4    4    0    0  0.21988872021E+02 -0.18420155953E+02  0.35724852691E+02  0.45815693139E+02  0.00000000000E+00 0.  1.
         11    1    4    4    0    0 -0.69323896388E+02 -0.10706932256E+03  0.43758214531E+02  0.13484963398E+03  0.00000000000E+00 0. -1.
</event>
<event>
 8    1  0.6840032E-009  0.2049499E+03  0.7561462E-02  0.1145629E+00
          2   -1    0    0  501    0  0.00000000000E+00  0.00000000000E+00  0.17922177255E+04  0.17922177255E+04  0.00000000000E+00 0. -1.
         -2   -1    0    0    0  501 -0.00000000000E+00 -0.00000000000E+00 -0.28984571857E+02  0.28984571857E+02  0.00000000000E+00 0.  1.
         25    2    1    2    0    0  0.71481598076E+02  0.17835335882E+03  0.69073837810E+03  0.72779559455E+03  0.12508949197E+03 0.  0.
         23    2    1    2    0    0 -0.71481598076E+02 -0.17835335882E+03  0.10724947755E+04  0.10934067028E+04  0.91507566382E+02 0.  0.
          5    1    3    3  502    0  0.24176151448E+02  0.16297363684E+02  0.30865839304E+03  0.31006058498E+03  0.41800000000E+01 0. -1.
         -5    1    3    3    0  502  0.47305446628E+02  0.16205599514E+03  0.38207998506E+03  0.41773500958E+03  0.41800000000E+01 0. -1.
        -11    1    4    4    0    0 -0.64358849022E+02 -0.46188246837E+02  0.46037223051E+03  0.46713810187E+03  0.00000000000E+00 0.  1.
         11    1    4    4    0    0 -0.71227490547E+01 -0.13216511199E+03  0.61212254499E+03  0.62626860089E+03  0.00000000000E+00 0. -1.
</event>
<event>
 8    1  0.6840032E-009  0.9058945E+02  0.7561462E-02  0.1301431E+00
          1   -1    0    0  501    0  0.00000000000E+00  0.00000000000E+00  0.68088002331E+02  0.68088002331E+02  0.00000000000E+00 0. -1.
         -1   -1    0    0    0  501 -0.00000000000E+00 -0.00000000000E+00 -0.19277876912E+03  0.19277876912E+03  0.00000000000E+00 0.  1.
         25    2    1    2    0    0  0.19555566966E+02 -0.28996775102E+02 -0.65500157563E+02  0.14546779095E+03  0.12508946557E+03 0.  0.
         23    2    1    2    0    0 -0.19555566966E+02  0.28996775102E+02 -0.59190609226E+02  0.11539898050E+03  0.92683133929E+02 0.  0.
          5    1    3    3  502    0  0.48162019614E+02  0.19027437989E+02  0.84898019520E+01  0.52641928792E+02  0.41800000000E+01 0. -1.
         -5    1    3    3    0  502 -0.28606452648E+02 -0.48024213091E+02 -0.73989959515E+02  0.92825862157E+02  0.41800000000E+01 0. -1.
        -11    1    4    4    0    0 -0.39023299279E+02  0.35389932381E+02  0.85845646305E-01  0.52680855821E+02  0.00000000000E+00 0. -1.
         11    1    4    4    0    0  0.19467732313E+02 -0.63931572792E+01 -0.59276454872E+02  0.62718124682E+02  0.00000000000E+00 0.  1.
</event>
<event>
 8    1  0.6840032E-009  0.1153557E+03  0.7561462E-02  0.1250961E+00
         -2   -1    0    0    0  501 -0.00000000000E+00  0.00000000000E+00  0.13483928395E+03  0.13483928395E+03  0.00000000000E+00 0.  1.
          2   -1    0    0  501    0  0.00000000000E+00 -0.00000000000E+00 -0.14381702797E+03  0.14381702797E+03  0.00000000000E+00 0. -1.
         25    2    1    2    0    0  0.13435307023E+02 -0.43939108960E+02  0.70629681563E+02  0.15082023754E+03  0.12508812638E+03 0.  0.
         23    2    1    2    0    0 -0.13435307023E+02  0.43939108960E+02 -0.79607425583E+02  0.12783607438E+03  0.88845747981E+02 0.  0.
          5    1    3    3  502    0  0.10710270179E+02  0.43383258000E+02  0.15751484649E+02  0.47564678393E+02  0.41800000000E+01 0.  1.
         -5    1    3    3    0  502  0.27250368434E+01 -0.87322366960E+02  0.54878196915E+02  0.10325555914E+03  0.41800000000E+01 0.  1.
        -11    1    4    4    0    0 -0.47392038987E+02  0.65239151485E+01 -0.50336800095E+02  0.69443216170E+02  0.00000000000E+00 0.  1.
         11    1    4    4    0    0  0.33956731965E+02  0.37415193812E+02 -0.29270625488E+02  0.58392858212E+02  0.00000000000E+00 0. -1.
</event>
<event>
 8    1  0.6840032E-009  0.3297292E+03  0.7561462E-02  0.1071257E+00
         -1   -1    0    0    0  501 -0.00000000000E+00  0.00000000000E+00  0.15972290110E+03  0.15972290110E+03  0.00000000000E+00 0.  1.
          1   -1    0    0  501    0  0.00000000000E+00 -0.00000000000E+00 -0.84214771733E+03  0.84214771733E+03  0.00000000000E+00 0. -1.
         25    2    1    2    0    0 -0.31469506826E+03  0.30156158637E+02 -0.55091985687E+03  0.64738376980E+03  0.12510266513E+03 0.  0.
         23    2    1    2    0    0  0.31469506826E+03 -0.30156158637E+02 -0.13150495937E+03  0.35448684863E+03  0.91787753123E+02 0.  0.
          5    1    3    3  502    0 -0.66644039240E+02 -0.45087874233E+02 -0.13953132425E+03  0.16112357747E+03  0.41800000000E+01 0. -1.
         -5    1    3    3    0  502 -0.24805102902E+03  0.75244032870E+02 -0.41138853262E+03  0.48626019233E+03  0.41800000000E+01 0. -1.
        -11    1    4    4    0    0  0.22751063004E+02 -0.15105302933E+02  0.10789267446E+02  0.29363060749E+02  0.00000000000E+00 0.  1.
         11    1    4    4    0    0  0.29194400525E+03 -0.15050855703E+02 -0.14229422682E+03  0.32512378788E+03  0.00000000000E+00 0. -1.
</event>
<event>
 8    1  0.6840032E-009  0.1857491E+03  0.7561462E-02  0.1162352E+00
          1   -1    0    0  501    0  0.00000000000E+00  0.00000000000E+00  0.10002510328E+03  0.10002510328E+03  0.00000000000E+00 0. -1.
         -1   -1    0    0    0  501 -0.00000000000E+00 -0.00000000000E+00 -0.37136485909E+03  0.37136485909E+03  0.00000000000E+00 0.  1.
         25    2    1    2    0    0  0.76373503933E+02 -0.13642864405E+03 -0.13418491754E+03  0.24103927470E+03  0.12509457554E+03 0.  0.
         23    2    1    2    0    0 -0.76373503933E+02  0.13642864405E+03 -0.13715483826E+03  0.23035068768E+03  0.99016678567E+02 0.  0.
          5    1    3    3  502    0  0.89521301426E+02 -0.53758848314E+02 -0.11434992604E+03  0.15491112022E+03  0.41800000000E+01 0.  1.
         -5    1    3    3    0  502 -0.13147797493E+02 -0.82669795738E+02 -0.19834991504E+02  0.86128154480E+02  0.41800000000E+01 0.  1.
        -11    1    4    4    0    0 -0.77959485841E+02  0.15024771930E+03 -0.11664061372E+03  0.20556529707E+03  0.00000000000E+00 0.  1.
         11    1    4    4    0    0  0.15859819078E+01 -0.13819075250E+02 -0.20514224539E+02  0.24785390613E+02  0.00000000000E+00 0. -1.
</event>
<event>
 8    1  0.6840032E-009  0.1283318E+03  0.7561462E-02  0.1229952E+00
         -1   -1    0    0    0  501 -0.00000000000E+00  0.00000000000E+00  0.47199299437E+03  0.47199299437E+03  0.00000000000E+00 0.  1.
          1   -1    0    0  501    0  0.00000000000E+00 -0.00000000000E+00 -0.43735363911E+02  0.43735363911E+02  0.00000000000E+00 0. -1.
         25    2    1    2    0    0  0.74995457422E+02  0.27782190601E+02  0.31461184909E+03  0.34788518448E+03  0.12508923711E+03 0.  0.
         23    2    1    2    0    0 -0.74995457422E+02 -0.27782190601E+02  0.11364578137E+03  0.16784317380E+03  0.94126503290E+02 0.  0.
          5    1    3    3  502    0  0.12019410879E+02 -0.40605907060E+02  0.17500488433E+03  0.18010410285E+03  0.41800000000E+01 0. -1.
         -5    1    3    3    0  502  0.62976046543E+02  0.68388097661E+02  0.13960696477E+03  0.16778108163E+03  0.41800000000E+01 0. -1.
        -11    1    4    4    0    0 -0.68718566772E+02  0.21007078300E+02  0.83444432725E+02  0.11012044365E+03  0.00000000000E+00 0.  1.
         11    1    4    4    0    0 -0.62768906509E+01 -0.48789268901E+02  0.30201348640E+02  0.57722730149E+02  0.00000000000E+00 0. -1.
</event>
<event>
 8    1  0.6840032E-009  0.1118024E+03  0.7561462E-02  0.1257268E+00
         -3   -1    0    0    0  501 -0.00000000000E+00  0.00000000000E+00  0.38974132488E+02  0.38974132488E+02  0.00000000000E+00 0.  1.
          3   -1    0    0  501    0  0.00000000000E+00 -0.00000000000E+00 -0.61867776512E+03  0.61867776512E+03  0.00000000000E+00 0. -1.
         25    2    1    2    0    0  0.33918392407E+02  0.24600263759E+02 -0.53279810323E+03  0.54888744705E+03  0.12509188782E+03 0.  0.
         23    2    1    2    0    0 -0.33918392407E+02 -0.24600263759E+02 -0.46905529400E+02  0.10876445056E+03  0.88735261856E+02 0.  0.
          5    1    3    3  502    0  0.41731989819E+02  0.71567907852E+02 -0.30153704013E+03  0.31273884213E+03  0.41800000000E+01 0.  1.
         -5    1    3    3    0  502 -0.78135974120E+01 -0.46967644093E+02 -0.23126106310E+03  0.23614860492E+03  0.41800000000E+01 0.  1.
        -11    1    4    4    0    0 -0.51609281773E+02  0.11302098479E+02 -0.89118351368E+01  0.53578691666E+02  0.00000000000E+00 0. -1.
         11    1    4    4    0    0  0.17690889366E+02 -0.35902362237E+02 -0.37993694264E+02  0.55185758893E+02  0.00000000000E+00 0.  1.
</event>
<event>
 8    1  0.6840032E-009  0.1328268E+03  0.7561462E-02  0.1223321E+00
          3   -1    0    0  501    0  0.00000000000E+00  0.00000000000E+00  0.57114806950E+02  0.57114806950E+02  0.00000000000E+00 0. -1.
         -3   -1    0    0    0  501 -0.00000000000E+00 -0.00000000000E+00 -0.37923961472E+03  0.37923961472E+03  0.00000000000E+00 0.  1.
         25    2    1    2    0    0  0.60905406825E+02  0.40026776415E+02 -0.82458418099E+02  0.16661035367E+03  0.12509199744E+03 0.  0.
         23    2    1    2    0    0 -0.60905406825E+02 -0.40026776415E+02 -0.23966638967E+03  0.26974406800E+03  0.10005134918E+03 0.  0.
          5    1    3    3  502    0  0.88294570740E+02  0.63026227900E+02 -0.65686271094E+02  0.12688733284E+03  0.41800000000E+01 0. -1.
         -5    1    3    3    0  502 -0.27389163915E+02 -0.22999451485E+02 -0.16772147005E+02  0.39723020828E+02  0.41800000000E+01 0. -1.
        -11    1    4    4    0    0 -0.61949637452E+02  0.16847134789E+02 -0.15472124198E+03  0.16751192868E+03  0.00000000000E+00 0.  1.
         11    1    4    4    0    0  0.10442306266E+01 -0.56873911204E+02 -0.84945147692E+02  0.10223213932E+03  0.00000000000E+00 0. -1.
</event>
<event>
 8    1  0.6840032E-009  0.2665037E+03  0.7561462E-02  0.1103297E+00
         -2   -1    0    0    0  501 -0.00000000000E+00  0.00000000000E+00  0.19477523064E+03  0.19477523064E+03  0.00000000000E+00 0.  1.
          2   -1    0    0  501    0  0.00000000000E+00 -0.00000000000E+00 -0.77990357623E+03  0.77990357623E+03  0.00000000000E+00 0. -1.
         25    2    1    2    0    0 -0.12696043765E+03  0.22606769287E+03  0.42268576429E+02  0.29096309802E+03  0.12508931755E+03 0.  0.
         23    2    1    2    0    0  0.12696043765E+03 -0.22606769287E+03 -0.62739692201E+03  0.68371570886E+03  0.81330918473E+02 0.  0.
          5    1    3    3  502    0 -0.12726253301E+03  0.22351190653E+03  0.66943320152E+02  0.26580482536E+03  0.41800000000E+01 0.  1.
         -5    1    3    3    0  502  0.30209536444E+00  0.25557863438E+01 -0.24674743723E+02  0.25158272660E+02  0.41800000000E+01 0.  1.
        -11    1    4    4    0    0  0.69219875281E+02 -0.19135580863E+03 -0.49404099593E+03  0.53430790962E+03  0.00000000000E+00 0. -1.
         11    1    4    4    0    0  0.57740562364E+02 -0.34711884249E+02 -0.13335592609E+03  0.14940779924E+03  0.00000000000E+00 0.  1.
</event>
<event>
 8    1  0.6840032E-009  0.1504029E+03  0.7561462E-02  0.1199979E+00
          2   -1    0    0  501    0  0.00000000000E+00  0.00000000000E+00  0.12405042753E+03  0.12405042753E+03  0.00000000000E+00 0. -1.
         -2   -1    0    0    0  501 -0.00000000000E+00 -0.00000000000E+00 -0.29254495036E+03  0.29254495036E+03  0.00000000000E+00 0.  1.
         25    2    1    2    0    0 -0.12147954304E+03 -0.45065492108E+01 -0.19544786077E+03  0.26196198215E+03  0.12508647188E+03 0.  0.
         23    2    1    2    0    0  0.12147954304E+03  0.45065492108E+01  0.26953337952E+02  0.15463339574E+03  0.91691964136E+02 0.  0.
          5    1    3    3  502    0 -0.13974222609E+03 -0.10729243255E+02 -0.19739315697E+03  0.24212504462E+03  0.41800000000E+01 0. -1.
         -5    1    3    3    0  502  0.18262683046E+02  0.62226940444E+01  0.19452962002E+01  0.19836937529E+02  0.41800000000E+01 0. -1.
        -11    1    4    4    0    0  0.29807135495E+02  0.33365872885E+02 -0.18381721692E+02  0.48369768370E+02  0.00000000000E+00 0. -1.
         11    1    4    4    0    0  0.91672407548E+02 -0.28859323675E+02  0.45335059644E+02  0.10626362737E+03  0.00000000000E+00 0.  1.
</event>
<event>
 8    1  0.6840032E-009  0.1514965E+03  0.7561462E-02  0.1198646E+00
         -2   -1    0    0    0  501 -0.00000000000E+00  0.00000000000E+00  0.48529484148E+03  0.48529484148E+03  0.00000000000E+00 0.  1.
          2   -1    0    0  501    0  0.00000000000E+00 -0.00000000000E+00 -0.10124971875E+03  0.10124971875E+03  0.00000000000E+00 0. -1.
         25    2    1    2    0    0  0.13667608297E+03 -0.44869271501E+02  0.36783791820E+03  0.41430119339E+03  0.12508853504E+03 0.  0.
         23    2    1    2    0    0 -0.13667608297E+03  0.44869271501E+02  0.16207204525E+02  0.17224336684E+03  0.93335420715E+02 0.  0.
          5    1    3    3  502    0  0.45645150502E+01 -0.18386642564E+02  0.19079220994E+03  0.19177602352E+03  0.41800000000E+01 0. -1.
         -5    1    3    3    0  502  0.13211156792E+03 -0.26482628937E+02  0.17704570825E+03  0.22252516987E+03  0.41800000000E+01 0. -1.
        -11    1    4    4    0    0 -0.67859067154E+02  0.23594440571E+01  0.50262007076E+02  0.84478928299E+02  0.00000000000E+00 0.  1.
         11    1    4    4    0    0 -0.68817015818E+02  0.42509827444E+02 -0.34054802551E+02  0.87764438540E+02  0.00000000000E+00 0. -1.
</event>
<event>
 8    1  0.6840032E-009  0.1128486E+03  0.7561462E-02  0.1255384E+00
         -1   -1    0    0    0  501 -0.00000000000E+00  0.00000000000E+00  0.42606538531E+03  0.42606538531E+03  0.00000000000E+00 0.  1.
          1   -1    0    0  501    0  0.00000000000E+00 -0.00000000000E+00 -0.42921023091E+02  0.42921023091E+02  0.00000000000E+00 0. -1.
         25    2    1    2    0    0  0.70500736559E+02 -0.56729354533E+01  0.14346817427E+03  0.20306346274E+03  0.12509643008E+03 0.  0.
         23    2    1    2    0    0 -0.70500736559E+02  0.56729354533E+01  0.23967618795E+03  0.26592294566E+03  0.90927454089E+02 0.  0.
          5    1    3    3  502    0  0.39934894381E+02 -0.45782829247E+02  0.11829997380E+02  0.62034542645E+02  0.41800000000E+01 0.  1.
         -5    1    3    3    0  502  0.30565842178E+02  0.40109893794E+02  0.13163817689E+03  0.14102892009E+03  0.41800000000E+01 0.  1.
        -11    1    4    4    0    0 -0.76845154741E+02 -0.26592191426E+02  0.18562997422E+03  0.20265934418E+03  0.00000000000E+00 0.  1.
         11    1    4    4    0    0  0.63444181822E+01  0.32265126879E+02  0.54046213721E+02  0.63263601479E+02  0.00000000000E+00 0. -1.
</event>
<event>
 8    1  0.6840032E-009  0.2613964E+03  0.7561462E-02  0.1106307E+00
          2   -1    0    0  501    0  0.00000000000E+00  0.00000000000E+00  0.17274285121E+04  0.17274285121E+04  0.00000000000E+00 0. -1.
         -2   -1    0    0    0  501 -0.00000000000E+00 -0.00000000000E+00 -0.46101563938E+02  0.46101563938E+02  0.00000000000E+00 0.  1.
         25    2    1    2    0    0  0.22354964946E+03 -0.10779456575E+03  0.62255013643E+03  0.68176282815E+03  0.12505105873E+03 0.  0.
         23    2    1    2    0    0 -0.22354964946E+03  0.10779456575E+03  0.10587768117E+04  0.10917672479E+04  0.96712317393E+02 0.  0.
          5    1    3    3  502    0  0.38850493374E+02 -0.49531632905E+02  0.61070509883E+02  0.87805598176E+02  0.41800000000E+01 0. -1.
         -5    1    3    3    0  502  0.18469915609E+03 -0.58262932841E+02  0.56147962655E+03  0.59395722997E+03  0.41800000000E+01 0. -1.
        -11    1    4    4    0    0 -0.70510068145E+02 -0.12145431952E+02  0.31105589348E+03  0.31917855520E+03  0.00000000000E+00 0. -1.
         11    1    4    4    0    0 -0.15303958132E+03  0.11993999770E+03  0.74772091824E+03  0.77258869269E+03  0.00000000000E+00 0.  1.
</event>
<event>
 8    1  0.6840032E-009  0.1022968E+03  0.7561462E-02  0.1275539E+00
         -3   -1    0    0    0  501 -0.00000000000E+00  0.00000000000E+00  0.11080636431E+03  0.11080636431E+03  0.00000000000E+00 0.  1.
          3   -1    0    0  501    0  0.00000000000E+00 -0.00000000000E+00 -0.12624375121E+03  0.12624375121E+03  0.00000000000E+00 0. -1.
         25    2    1    2    0    0  0.10500938918E+02  0.29082168153E+02 -0.42259996198E+02  0.13560840815E+03  0.12509073051E+03 0.  0.
         23    2    1    2    0    0 -0.10500938918E+02 -0.29082168153E+02  0.26822609289E+02  0.10144170737E+03  0.92816622451E+02 0.  0.
          5    1    3    3  502    0  0.27416251550E+01 -0.42074139534E+02 -0.47580424041E+02  0.63711214695E+02  0.41800000000E+01 0. -1.
         -5    1    3    3    0  502  0.77593137629E+01  0.71156307688E+02  0.53204278424E+01  0.71897193452E+02  0.41800000000E+01 0. -1.
        -11    1    4    4    0    0 -0.26460879792E+02  0.23612741349E+02  0.29771135475E+02  0.46303997893E+02  0.00000000000E+00 0. -1.
         11    1    4    4    0    0  0.15959940874E+02 -0.52694909502E+02 -0.29485261856E+01  0.55137709481E+02  0.00000000000E+00 0.  1.
</event>
<event>
 8    1  0.6840032E-009  0.9563885E+02  0.7561462E-02  0.1289744E+00
         -1   -1    0    0    0  501 -0.00000000000E+00  0.00000000000E+00  0.31550763398E+02  0.31550763398E+02  0.00000000000E+00 0.  1.
          1   -1    0    0  501    0  0.00000000000E+00 -0.00000000000E+00 -0.41107441401E+03  0.41107441401E+03  0.00000000000E+00 0. -1.
         25    2    1    2    0    0  0.75344335314E+01  0.37041402545E+02 -0.22413495941E+03  0.25944716723E+03  0.12509004501E+03 0.  0.
         23    2    1    2    0    0 -0.75344335314E+01 -0.37041402545E+02 -0.15538869120E+03  0.18317801018E+03  0.89329193827E+02 0.  0.
          5    1    3    3  502    0 -0.41464072950E+02 -0.19001192232E+02 -0.13863030403E+03  0.14600050770E+03  0.41800000000E+01 0.  1.
         -5    1    3    3    0  502  0.48998506481E+02  0.56042594777E+02 -0.85504655381E+02  0.11344665953E+03  0.41800000000E+01 0.  1.
        -11    1    4    4    0    0  0.99338608678E+01 -0.48838141228E+02 -0.34859728912E+02  0.60819785680E+02  0.00000000000E+00 0.  1.
         11    1    4    4    0    0 -0.17468294399E+02  0.11796738684E+02 -0.12052896229E+03  0.12235822450E+03  0.00000000000E+00 0. -1.
</event>
<event>
 8    1  0.6840032E-009  0.2246722E+03  0.7561462E-02  0.1130447E+00
         -2   -1    0    0    0  501 -0.00000000000E+00  0.00000000000E+00  0.40718686430E+02  0.40718686430E+02  0.00000000000E+00 0.  1.
          2   -1    0    0  501    0  0.00000000000E+00 -0.00000000000E+00 -0.13193068510E+04  0.13193068510E+04  0.00000000000E+00 0. -1.
         25    2    1    2    0    0  0.13262303382E+03  0.14946587872E+03 -0.79043927421E+03  0.82484594161E+03  0.12509061988E+03 0.  0.
         23    2    1    2    0    0 -0.13262303382E+03 -0.14946587872E+03 -0.48814889040E+03  0.53517959586E+03  0.90548012782E+02 0.  0.
          5    1    3    3  502    0  0.13387922509E+03  0.16766773140E+03 -0.68737707688E+03  0.72009779425E+03  0.41800000000E+01 0. -1.
         -5    1    3    3    0  502 -0.12561912633E+01 -0.18201852684E+02 -0.10306219733E+03  0.10474814736E+03  0.41800000000E+01 0. -1.
        -11    1    4    4    0    0 -0.13811818977E+03 -0.11106778207E+03 -0.35958581566E+03  0.40089231145E+03  0.00000000000E+00 0.  1.
         11    1    4    4    0    0  0.54951559450E+01 -0.38398096652E+02 -0.12856307474E+03  0.13428728440E+03  0.00000000000E+00 0. -1.
</event>
<event>
 8    1  0.6840032E-009  0.6294286E+02  0.7561462E-02  0.1385881E+00
         -2   -1    0    0    0  501 -0.00000000000E+00  0.00000000000E+00  0.19033879458E+03  0.19033879458E+03  0.00000000000E+00 0.  1.
          2   -1    0    0  501    0  0.00000000000E+00 -0.00000000000E+00 -0.63405965180E+02  0.63405965180E+02  0.00000000000E+00 0. -1.
         25    2    1    2    0    0 -0.10557475156E+02 -0.97966570059E+01  0.53551560947E+02  0.13683481072E+03  0.12509420839E+03 0.  0.
         23    2    1    2    0    0  0.10557475156E+02  0.97966570059E+01  0.73381268455E+02  0.11690994905E+03  0.89864847720E+02 0.  0.
          5    1    3    3  502    0 -0.21402002847E+02 -0.30512781861E+00 -0.38133894198E+02  0.43929547182E+02  0.41800000000E+01 0.  1.
         -5    1    3    3    0  502  0.10844527692E+02 -0.94915291873E+01  0.91685455146E+02  0.92905263535E+02  0.41800000000E+01 0.  1.
        -11    1    4    4    0    0  0.36896886935E+02  0.36261921398E+02  0.54223786343E+02  0.74943486804E+02  0.00000000000E+00 0.  1.
         11    1    4    4    0    0 -0.26339411780E+02 -0.26465264392E+02  0.19157482112E+02  0.41966462242E+02  0.00000000000E+00 0. -1.
</event>
<event>
 8    1  0.6840032E-009  0.2076560E+03  0.7561462E-02  0.1143436E+00
         -2   -1    0    0    0  501 -0.00000000000E+00  0.00000000000E+00  0.10068443648E+03  0.10068443648E+03  0.00000000000E+00 0. -1.
          2   -1    0    0  501    0  0.00000000000E+00 -0.00000000000E+00 -0.54384422852E+03  0.54384422852E+03  0.00000000000E+00 0.  1.
         25    2    1    2    0    0  0.12012524646E+03  0.16304925320E+03 -0.28804127694E+03  0.37367142066E+03  0.12508964623E+03 0.  0.
         23    2    1    2    0    0 -0.12012524646E+03 -0.16304925320E+03 -0.15511851510E+03  0.27085724434E+03  0.91031638892E+02 0.  0.
          5    1    3    3  502    0  0.22803593224E+02  0.10783019831E+02  0.80146459778E+01  0.26795229627E+02  0.41800000000E+01 0.  1.
         -5    1    3    3    0  502  0.97321653238E+02  0.15226623337E+03 -0.29605592292E+03  0.34687619104E+03  0.41800000000E+01 0.  1.
        -11    1    4    4    0    0  0.47345151993E+01 -0.12671235739E+02 -0.43977871895E+02  0.46011184138E+02  0.00000000000E+00 0.  1.
         11    1    4    4    0    0 -0.12485976166E+03 -0.15037801746E+03 -0.11114064320E+03  0.22484606021E+03  0.00000000000E+00 0. -1.
</event>
<event>
 8    1  0.6840032E-009  0.2539344E+03  0.7561462E-02  0.1110843E+00
         -2   -1    0    0    0  501 -0.00000000000E+00  0.00000000000E+00  0.47895177522E+03  0.47895177522E+03  0.00000000000E+00 0.  1.
          2   -1    0    0  501    0  0.00000000000E+00 -0.00000000000E+00 -0.23087380707E+03  0.23087380707E+03  0.00000000000E+00 0. -1.
         25    2    1    2    0    0 -0.18850798125E+03  0.14359947924E+03  0.34580575395E+03  0.43747646800E+03  0.12509185089E+03 0.  0.
         23    2    1    2    0    0  0.18850798125E+03 -0.14359947924E+03 -0.97727785795E+02  0.27234911429E+03  0.92017664077E+02 0.  0.
          5    1    3    3  502    0 -0.55507828520E+02 -0.36025436308E+01  0.14413454523E+03  0.15455205232E+03  0.41800000000E+01 0. -1.
         -5    1    3    3    0  502 -0.13300015273E+03  0.14720202287E+03  0.20167120871E+03  0.28292441568E+03  0.41800000000E+01 0. -1.
        -11    1    4    4    0    0  0.36038267915E+02 -0.81337753317E+02 -0.42924125074E+02  0.98777868889E+02  0.00000000000E+00 0. -1.
         11    1    4    4    0    0  0.15246971334E+03 -0.62261725924E+02 -0.54803660721E+02  0.17357124540E+03  0.00000000000E+00 0.  1.
</event>
<event>
 8    1  0.6840032E-009  0.2317048E+03  0.7561462E-02  0.1125446E+00
         -3   -1    0    0    0  501 -0.00000000000E+00  0.00000000000E+00  0.17339097008E+03  0.17339097008E+03  0.00000000000E+00 0.  1.
          3   -1    0    0  501    0  0.00000000000E+00 -0.00000000000E+00 -0.33257264166E+03  0.33257264166E+03  0.00000000000E+00 0. -1.
         25    2    1    2    0    0  0.12445608723E+03  0.17317257957E+03 -0.60544524958E+02  0.25454157497E+03  0.12509082269E+03 0.  0.
         23    2    1    2    0    0 -0.12445608723E+03 -0.17317257957E+03 -0.98637146620E+02  0.25142203677E+03  0.89474543386E+02 0.  0.
          5    1    3    3  502    0  0.12746032477E+03  0.10764798128E+03 -0.25822133168E+01  0.16690824572E+03  0.41800000000E+01 0.  1.
         -5    1    3    3    0  502 -0.30042375351E+01  0.65524598292E+02 -0.57962311641E+02  0.87633329249E+02  0.41800000000E+01 0.  1.
        -11    1    4    4    0    0 -0.83962100402E+02 -0.42726811809E+02 -0.48180607445E+02  0.10581392009E+03  0.00000000000E+00 0. -1.
         11    1    4    4    0    0 -0.40493986832E+02 -0.13044576776E+03 -0.50456539175E+02  0.14560811668E+03  0.00000000000E+00 0.  1.
</event>
<event>
 8    1  0.6840032E-009  0.1353789E+03  0.7561462E-02  0.1219686E+00
         -2   -1    0    0    0  501 -0.00000000000E+00  0.00000000000E+00  0.47164735044E+02  0.47164735044E+02  0.00000000000E+00 0. -1.
          2   -1    0    0  501    0  0.00000000000E+00 -0.00000000000E+00 -0.50773853803E+03  0.50773853803E+03  0.00000000000E+00 0.  1.
         25    2    1    2    0    0 -0.23740067562E+02 -0.83356158319E+02 -0.36777786346E+03  0.39803265240E+03  0.12513031442E+03 0.  0.
         23    2    1    2    0    0  0.23740067562E+02  0.83356158319E+02 -0.92795939521E+02  0.15687062067E+03  0.92116585372E+02 0.  0.
          5    1    3    3  502    0  0.39636583538E+02 -0.72678785241E+02 -0.15568100792E+03  0.17637265436E+03  0.41800000000E+01 0.  1.
         -5    1    3    3    0  502 -0.63376651101E+02 -0.10677373077E+02 -0.21209685554E+03  0.22165999804E+03  0.41800000000E+01 0.  1.
        -11    1    4    4    0    0 -0.31069577712E+02  0.51275860145E+02 -0.28099567274E+02  0.66212673816E+02  0.00000000000E+00 0.  1.
         11    1    4    4    0    0  0.54809645274E+02  0.32080298173E+02 -0.64696372247E+02  0.90657946855E+02  0.00000000000E+00 0. -1.
</event>
<event>
 8    1  0.6840032E-009  0.1596958E+03  0.7561462E-02  0.1189041E+00
         -1   -1    0    0    0  501 -0.00000000000E+00  0.00000000000E+00  0.65950962681E+02  0.65950962681E+02  0.00000000000E+00 0.  1.
          1   -1    0    0  501    0  0.00000000000E+00 -0.00000000000E+00 -0.49709195092E+03  0.49709195092E+03  0.00000000000E+00 0. -1.
         25    2    1    2    0    0 -0.37537094315E+02 -0.11621631241E+03 -0.10771978336E+03  0.20534387688E+03  0.12508913352E+03 0.  0.
         23    2    1    2    0    0  0.37537094315E+02  0.11621631241E+03 -0.32342120487E+03  0.35769903672E+03  0.91826251091E+02 0.  0.
          5    1    3    3  502    0 -0.74279501789E+02 -0.30767093979E+02 -0.37997950899E+02  0.89024575992E+02  0.41800000000E+01 0.  1.
         -5    1    3    3    0  502  0.36742407474E+02 -0.85449218427E+02 -0.69721832466E+02  0.11631930089E+03  0.41800000000E+01 0.  1.
        -11    1    4    4    0    0  0.14891532584E+02  0.12159247987E+03 -0.22114019693E+03  0.25280323495E+03  0.00000000000E+00 0.  1.
         11    1    4    4    0    0  0.22645561731E+02 -0.53761674632E+01 -0.10228100794E+03  0.10489580177E+03  0.00000000000E+00 0. -1.
</event>
<event>
 8    1  0.6840032E-009  0.2056152E+03  0.7561462E-02  0.1145086E+00
          2   -1    0    0  501    0  0.00000000000E+00  0.00000000000E+00  0.65965659871E+03  0.65965659871E+03  0.00000000000E+00 0. -1.
         -2   -1    0    0    0  501 -0.00000000000E+00 -0.00000000000E+00 -0.76292673224E+02  0.76292673224E+02  0.00000000000E+00 0.  1.
         25    2    1    2    0    0 -0.18860066027E+03  0.53050700183E+02  0.30971968629E+03  0.38724636025E+03  0.12509545798E+03 0.  0.
         23    2    1    2    0    0  0.18860066027E+03 -0.53050700183E+02  0.27364423919E+03  0.34870291168E+03  0.91257685319E+02 0.  0.
          5    1    3    3  502    0 -0.15927160483E+03  0.52666860198E+02  0.31522889904E+03  0.35711058996E+03  0.41800000000E+01 0. -1.
         -5    1    3    3    0  502 -0.29329055437E+02  0.38383998447E+00 -0.55092127513E+01  0.30135770292E+02  0.41800000000E+01 0. -1.
        -11    1    4    4    0    0  0.13350534321E+03 -0.76555197772E+02  0.17267422731E+03  0.23130232110E+03  0.00000000000E+00 0.  1.
         11    1    4    4    0    0  0.55095317059E+02  0.23504497589E+02  0.10097001188E+03  0.11740059058E+03  0.00000000000E+00 0. -1.
</event>
<event>
 8    1  0.6840032E-009  0.7836479E+02  0.7561462E-02  0.1333757E+00
          2   -1    0    0  501    0  0.00000000000E+00  0.00000000000E+00  0.76268147042E+03  0.76268147042E+03  0.00000000000E+00 0.  1.
         -2   -1    0    0    0  501 -0.00000000000E+00 -0.00000000000E+00 -0.19558743485E+02  0.19558743485E+02  0.00000000000E+00 0. -1.
         25    2    1    2    0    0  0.48001853241E+02 -0.16337168116E+02  0.49079924328E+03  0.50902057340E+03  0.12508783302E+03 0.  0.
         23    2    1    2    0    0 -0.48001853241E+02  0.16337168116E+02  0.25232348366E+03  0.27321964050E+03  0.91710144336E+02 0.  0.
          5    1    3    3  502    0  0.12042400188E+02 -0.46567571213E+02  0.42678884703E+03  0.42951105974E+03  0.41800000000E+01 0. -1.
         -5    1    3    3    0  502  0.35959453052E+02  0.30230403098E+02  0.64010396251E+02  0.79509513666E+02  0.41800000000E+01 0. -1.
        -11    1    4    4    0    0 -0.48408327296E+02  0.36007644739E+01  0.25551344063E+03  0.26008354427E+03  0.00000000000E+00 0.  1.
         11    1    4    4    0    0  0.40647405505E+00  0.12736403642E+02 -0.31899569690E+01  0.13136096237E+02  0.00000000000E+00 0. -1.
</event>
<event>
 8    1  0.6840032E-009  0.1227106E+03  0.7561462E-02  0.1238691E+00
          1   -1    0    0  501    0  0.00000000000E+00  0.00000000000E+00  0.54591439445E+02  0.54591439445E+02  0.00000000000E+00 0.  1.
         -1   -1    0    0    0  501 -0.00000000000E+00 -0.00000000000E+00 -0.30669460042E+03  0.30669460042E+03  0.00000000000E+00 0. -1.
         25    2    1    2    0    0  0.38850110312E+02  0.50929466664E+02 -0.17675490803E+03  0.22581602708E+03  0.12508972350E+03 0.  0.
         23    2    1    2    0    0 -0.38850110312E+02 -0.50929466664E+02 -0.75348252940E+02  0.13547001279E+03  0.92583062692E+02 0.  0.
          5    1    3    3  502    0  0.48118172192E+02 -0.31176170209E+02 -0.79990785994E+02  0.98505382229E+02  0.41800000000E+01 0. -1.
         -5    1    3    3    0  502 -0.92680618805E+01  0.82105636873E+02 -0.96764122039E+02  0.12731064485E+03  0.41800000000E+01 0. -1.
        -11    1    4    4    0    0 -0.60147266088E+02 -0.12750436625E+02 -0.67049452670E+02  0.90971953674E+02  0.00000000000E+00 0.  1.
         11    1    4    4    0    0  0.21297155776E+02 -0.38179030039E+02 -0.82988002699E+01  0.44498059113E+02  0.00000000000E+00 0. -1.
</event>
<event>
 8    1  0.6840032E-009  0.1236894E+03  0.7561462E-02  0.1237132E+00
          1   -1    0    0  501    0  0.00000000000E+00  0.00000000000E+00  0.98716088558E+02  0.98716088558E+02  0.00000000000E+00 0. -1.
         -1   -1    0    0    0  501 -0.00000000000E+00 -0.00000000000E+00 -0.21231110647E+03  0.21231110647E+03  0.00000000000E+00 0.  1.
         25    2    1    2    0    0  0.62267024291E+02 -0.38634990585E+02  0.36648177597E+01  0.14502255459E+03  0.12509302793E+03 0.  0.
         23    2    1    2    0    0 -0.62267024291E+02  0.38634990585E+02 -0.11725983567E+03  0.16600464044E+03  0.91857644077E+02 0.  0.
          5    1    3    3  502    0 -0.18701463618E+02  0.28160382878E+02  0.18775091126E+02  0.38893808660E+02  0.41800000000E+01 0. -1.
         -5    1    3    3    0  502  0.80968487910E+02 -0.66795373463E+02 -0.15110273367E+02  0.10612874592E+03  0.41800000000E+01 0. -1.
        -11    1    4    4    0    0  0.18388794551E+02  0.16312245527E+02 -0.59336343978E+02  0.64226465229E+02  0.00000000000E+00 0.  1.
         11    1    4    4    0    0 -0.80655818842E+02  0.22322745058E+02 -0.57923491695E+02  0.10177817522E+03  0.00000000000E+00 0. -1.
</event>
<event>
 8    1  0.6840032E-009  0.9363706E+02  0.7561462E-02  0.1294276E+00
          1   -1    0    0  501    0  0.00000000000E+00  0.00000000000E+00  0.34506071631E+02  0.34506071631E+02  0.00000000000E+00 0. -1.
         -1   -1    0    0    0  501 -0.00000000000E+00 -0.00000000000E+00 -0.36716425356E+03  0.36716425356E+03  0.00000000000E+00 0.  1.
         25    2    1    2    0    0  0.27015063554E+02 -0.46421800155E+01 -0.17946697675E+03  0.22047165864E+03  0.12509193830E+03 0.  0.
         23    2    1    2    0    0 -0.27015063554E+02  0.46421800155E+01 -0.15319120518E+03  0.18119866655E+03  0.92811895361E+02 0.  0.
          5    1    3    3  502    0  0.59711991308E+02 -0.30136312829E+02 -0.16194963789E+03  0.17526801440E+03  0.41800000000E+01 0.  1.
         -5    1    3    3    0  502 -0.32696927754E+02  0.25494132814E+02 -0.17517338855E+02  0.45203644245E+02  0.41800000000E+01 0.  1.
        -11    1    4    4    0    0 -0.52634938690E+02  0.57127572073E+01 -0.43418230719E+02  0.68470542021E+02  0.00000000000E+00 0. -1.
         11    1    4    4    0    0  0.25619875136E+02 -0.10705771918E+01 -0.10977297447E+03  0.11272812453E+03  0.00000000000E+00 0.  1.
</event>
<event>
 8    1  0.6840032E-009  0.1683636E+03  0.7561462E-02  0.1179565E+00
         -1   -1    0    0    0  501 -0.00000000000E+00  0.00000000000E+00  0.14541658843E+03  0.14541658843E+03  0.00000000000E+00 0.  1.
          1   -1    0    0  501    0  0.00000000000E+00 -0.00000000000E+00 -0.23099189872E+03  0.23099189872E+03  0.00000000000E+00 0. -1.
         25    2    1    2    0    0 -0.10036320371E+02 -0.14327836644E+03 -0.10065539512E+02  0.19073301570E+03  0.12509336583E+03 0.  0.
         23    2    1    2    0    0  0.10036320371E+02  0.14327836644E+03 -0.75509770777E+02  0.18567547145E+03  0.90245427572E+02 0.  0.
          5    1    3    3  502    0 -0.41146575435E+02 -0.15137500501E+03 -0.46459794831E+00  0.15692393401E+03  0.41800000000E+01 0.  1.
         -5    1    3    3    0  502  0.31110255063E+02  0.80966385688E+01 -0.96009415642E+01  0.33809081696E+02  0.41800000000E+01 0.  1.
        -11    1    4    4    0    0  0.18587670153E+02  0.13163282115E+03 -0.93555376016E+02  0.16255863393E+03  0.00000000000E+00 0. -1.
         11    1    4    4    0    0 -0.85513497811E+01  0.11645545299E+02  0.18045605238E+02  0.23116837517E+02  0.00000000000E+00 0.  1.
</event>
<event>
 8    1  0.6840032E-009  0.8918656E+02  0.7561462E-02  0.1304834E+00
          3   -1    0    0  501    0  0.00000000000E+00  0.00000000000E+00  0.43101888019E+03  0.43101888019E+03  0.00000000000E+00 0. -1.
         -3   -1    0    0    0  501 -0.00000000000E+00 -0.00000000000E+00 -0.32356218495E+02  0.32356218495E+02  0.00000000000E+00 0.  1.
         25    2    1    2    0    0  0.24939314824E+02  0.46543727594E+01  0.30015992314E+03  0.32616974498E+03  0.12508833068E+03 0.  0.
         23    2    1    2    0    0 -0.24939314824E+02 -0.46543727594E+01  0.98502738553E+02  0.13720535370E+03  0.92080871914E+02 0.  0.
          5    1    3    3  502    0  0.39117195957E+02  0.48619085231E+02  0.25061834099E+03  0.25830407606E+03  0.41800000000E+01 0. -1.
         -5    1    3    3    0  502 -0.14177881133E+02 -0.43964712472E+02  0.49541582149E+02  0.67865668920E+02  0.41800000000E+01 0. -1.
        -11    1    4    4    0    0 -0.59227006720E+01  0.29644684722E+02 -0.10059234303E+01  0.30247274215E+02  0.00000000000E+00 0.  1.
         11    1    4    4    0    0 -0.19016614152E+02 -0.34299057481E+02  0.99508661983E+02  0.10695807949E+03  0.00000000000E+00 0. -1.
</event>
<event>
 8    1  0.6840032E-009  0.9677810E+02  0.7561462E-02  0.1287221E+00
         -2   -1    0    0    0  501 -0.00000000000E+00  0.00000000000E+00  0.10885779942E+03  0.10885779942E+03  0.00000000000E+00 0.  1.
          2   -1    0    0  501    0  0.00000000000E+00 -0.00000000000E+00 -0.16088819927E+03  0.16088819927E+03  0.00000000000E+00 0. -1.
         25    2    1    2    0    0 -0.48989395782E+02  0.26907280419E+02 -0.78891641093E+02  0.15809972036E+03  0.12509063876E+03 0.  0.
         23    2    1    2    0    0  0.48989395782E+02 -0.26907280419E+02  0.26861241247E+02  0.11164627832E+03  0.92840737520E+02 0.  0.
          5    1    3    3  502    0  0.24796571961E+02 -0.31499858661E+02 -0.10378031606E+02  0.41620752236E+02  0.41800000000E+01 0. -1.
         -5    1    3    3    0  502 -0.73785967743E+02  0.58407139080E+02 -0.68513609487E+02  0.11647896813E+03  0.41800000000E+01 0. -1.
        -11    1    4    4    0    0  0.42531962298E+02 -0.14272302452E+02  0.60394738335E+02  0.75234239896E+02  0.00000000000E+00 0.  1.
         11    1    4    4    0    0  0.64574334840E+01 -0.12634977967E+02 -0.33533497088E+02  0.36412038427E+02  0.00000000000E+00 0. -1.
</event>
<event>
 8    1  0.6840032E-009  0.1444710E+03  0.7561462E-02  0.1207436E+00
         -2   -1    0    0    0  501 -0.00000000000E+00  0.00000000000E+00  0.72632322461E+02  0.72632322461E+02  0.00000000000E+00 0.  1.
          2   -1    0    0  501    0  0.00000000000E+00 -0.00000000000E+00 -0.33046532406E+03  0.33046532406E+03  0.00000000000E+00 0. -1.
         25    2    1    2    0    0  0.88124168608E+02 -0.54035399603E+02 -0.89015609331E+02  0.18508741061E+03  0.12509147597E+03 0.  0.
         23    2    1    2    0    0 -0.88124168608E+02  0.54035399603E+02 -0.16881739227E+03  0.21801023591E+03  0.91342528573E+02 0.  0.
          5    1    3    3  502    0 -0.17927777893E+02  0.15681708972E+02  0.77961149455E+01  0.25408129107E+02  0.41800000000E+01 0. -1.
         -5    1    3    3    0  502  0.10605194650E+03 -0.69717108575E+02 -0.96811724276E+02  0.15967928151E+03  0.41800000000E+01 0. -1.
        -11    1    4    4    0    0 -0.62314959206E+02  0.79839455140E+02 -0.12878795078E+03  0.16384086488E+03  0.00000000000E+00 0. -1.
         11    1    4    4    0    0 -0.25809209402E+02 -0.25804055537E+02 -0.40029441496E+02  0.54169371037E+02  0.00000000000E+00 0.  1.
</event>
<event>
 8    1  0.6840032E-009  0.1391447E+03  0.7561462E-02  0.1214484E+00
         -2   -1    0    0    0  501 -0.00000000000E+00  0.00000000000E+00  0.47920573341E+02  0.47920573341E+02  0.00000000000E+00 0.  1.
          2   -1    0    0  501    0  0.00000000000E+00 -0.00000000000E+00 -0.53880259092E+03  0.53880259092E+03  0.00000000000E+00 0. -1.
         25    2    1    2    0    0  0.10484488473E+03 -0.21048195061E+02 -0.16959802313E+03  0.23631843371E+03  0.12508971298E+03 0.  0.
         23    2    1    2    0    0 -0.10484488473E+03  0.21048195061E+02 -0.32128399445E+03  0.35040473054E+03  0.90136528274E+02 0.  0.
          5    1    3    3  502    0 -0.13015335265E+02  0.13469859358E+02 -0.84979491724E+02  0.87119587217E+02  0.41800000000E+01 0. -1.
         -5    1    3    3    0  502  0.11786022000E+03 -0.34518054419E+02 -0.84618531404E+02  0.14919884650E+03  0.41800000000E+01 0. -1.
        -11    1    4    4    0    0  0.11548043607E+02  0.15975982570E+02 -0.81031466527E+02  0.83394771406E+02  0.00000000000E+00 0. -1.
         11    1    4    4    0    0 -0.11639292834E+03  0.50722124910E+01 -0.24025252792E+03  0.26700995914E+03  0.00000000000E+00 0.  1.
</event>
<event>
 8    1  0.6840032E-009  0.1599593E+03  0.7561462E-02  0.1188743E+00
          2   -1    0    0  501    0  0.00000000000E+00  0.00000000000E+00  0.70491322431E+03  0.70491322431E+03  0.00000000000E+00 0. -1.
         -2   -1    0    0    0  501 -0.00000000000E+00 -0.00000000000E+00 -0.47013364682E+02  0.47013364682E+02  0.00000000000E+00 0.  1.
         25    2    1    2    0    0  0.39947201176E+02 -0.14031632406E+03  0.34390374851E+03  0.39395503957E+03  0.12508531203E+03 0.  0.
         23    2    1    2    0    0 -0.39947201176E+02  0.14031632406E+03  0.31399611112E+03  0.35797154942E+03  0.90915470181E+02 0.  0.
          5    1    3    3  502    0  0.60516491629E+02 -0.12016634095E+03  0.16614770166E+03  0.21383340811E+03  0.41800000000E+01 0. -1.
         -5    1    3    3    0  502 -0.20569290453E+02 -0.20149983109E+02  0.17775604684E+03  0.18012163146E+03  0.41800000000E+01 0. -1.
        -11    1    4    4    0    0 -0.34149049511E+02  0.29158476449E+02  0.17078965321E+03  0.17659411082E+03  0.00000000000E+00 0. -1.
         11    1    4    4    0    0 -0.57981516654E+01  0.11115784761E+03  0.14320645791E+03  0.18137743860E+03  0.00000000000E+00 0.  1.
</event>
<event>
 8    1  0.6840032E-009  0.1598911E+03  0.7561462E-02  0.1188820E+00
          1   -1    0    0  501    0  0.00000000000E+00  0.00000000000E+00  0.18770672718E+04  0.18770672718E+04  0.00000000000E+00 0. -1.
         -1   -1    0    0    0  501 -0.00000000000E+00 -0.00000000000E+00 -0.18962869270E+02  0.18962869270E+02  0.00000000000E+00 0.  1.
         25    2    1    2    0    0 -0.10790308575E+03  0.11000240164E+03  0.12157999891E+04  0.12318931800E+04  0.12509032396E+03 0.  0.
         23    2    1    2    0    0  0.10790308575E+03 -0.11000240164E+03  0.64230441347E+03  0.66413696111E+03  0.69132765558E+02 0.  0.
          5    1    3    3  502    0 -0.75262570205E+02  0.10365249303E+03  0.53004021860E+03  0.54531495443E+03  0.41800000000E+01 0.  1.
         -5    1    3    3    0  502 -0.32640515541E+02  0.63499086061E+01  0.68575977046E+03  0.68657822553E+03  0.41800000000E+01 0.  1.
        -11    1    4    4    0    0  0.14397473513E+01 -0.16047952750E+02  0.19229620458E+02  0.25087605762E+02  0.00000000000E+00 0.  1.
         11    1    4    4    0    0  0.10646333839E+03 -0.93954448890E+02  0.62307479301E+03  0.63904935535E+03  0.00000000000E+00 0. -1.
</event>
<event>
 8    1  0.6840032E-009  0.1283527E+03  0.7561462E-02  0.1229921E+00
          2   -1    0    0  501    0  0.00000000000E+00  0.00000000000E+00  0.75165173823E+03  0.75165173823E+03  0.00000000000E+00 0. -1.
         -2   -1    0    0    0  501 -0.00000000000E+00 -0.00000000000E+00 -0.30421880938E+02  0.30421880938E+02  0.00000000000E+00 0.  1.
         25    2    1    2    0    0 -0.10127343260E+03 -0.18483193836E+02  0.44787834414E+03  0.47627750019E+03  0.12508920589E+03 0.  0.
         23    2    1    2    0    0  0.10127343260E+03  0.18483193836E+02  0.27335151315E+03  0.30579611898E+03  0.90511214971E+02 0.  0.
          5    1    3    3  502    0 -0.60801067319E+02 -0.64444350173E+02  0.17053538521E+03  0.19222287602E+03  0.41800000000E+01 0. -1.
         -5    1    3    3    0  502 -0.40472365283E+02  0.45961156338E+02  0.27734295893E+03  0.28405462417E+03  0.41800000000E+01 0. -1.
        -11    1    4    4    0    0  0.27936556676E+02  0.18097644346E+02  0.19751103022E+03  0.20029623808E+03  0.00000000000E+00 0. -1.
         11    1    4    4    0    0  0.73336875926E+02  0.38554948921E+00  0.75840482933E+02  0.10549988090E+03  0.00000000000E+00 0.  1.
</event>
<event>
 8    1  0.6840032E-009  0.1053957E+03  0.7561462E-02  0.1269342E+00
          2   -1    0    0  501    0  0.00000000000E+00  0.00000000000E+00  0.15987834093E+03  0.15987834093E+03  0.00000000000E+00 0. -1.
         -2   -1    0    0    0  501 -0.00000000000E+00 -0.00000000000E+00 -0.91652103140E+02  0.91652103140E+02  0.00000000000E+00 0.  1.
         25    2    1    2    0    0 -0.63743282583E+01  0.49459881519E+02  0.48587267710E+02  0.14316117724E+03  0.12508992024E+03 0.  0.
         23    2    1    2    0    0  0.63743282583E+01 -0.49459881519E+02  0.19638970083E+02  0.10836926683E+03  0.94187562380E+02 0.  0.
          5    1    3    3  502    0 -0.13186753533E+02  0.90760799532E+02  0.26029639862E+02  0.95427604769E+02  0.41800000000E+01 0. -1.
         -5    1    3    3    0  502  0.68124252751E+01 -0.41300918013E+02  0.22557627848E+02  0.47733572472E+02  0.41800000000E+01 0. -1.
        -11    1    4    4    0    0  0.29004354910E+02 -0.45474724616E+02 -0.24011384453E+02  0.59040238532E+02  0.00000000000E+00 0.  1.
         11    1    4    4    0    0 -0.22630026651E+02 -0.39851569034E+01  0.43650354536E+02  0.49329028299E+02  0.00000000000E+00 0. -1.
</event>
<event>
 8    1  0.6840032E-009  0.9277589E+02  0.7561462E-02  0.1296265E+00
         -1   -1    0    0    0  501 -0.00000000000E+00  0.00000000000E+00  0.23196648162E+03  0.23196648162E+03  0.00000000000E+00 0.  1.
          1   -1    0    0  501    0  0.00000000000E+00 -0.00000000000E+00 -0.91731047892E+02  0.91731047892E+02  0.00000000000E+00 0. -1.
         25    2    1    2    0    0 -0.48689418396E+02 -0.67349126984E+02  0.20002225636E+02  0.15150264784E+03  0.12508556632E+03 0.  0.
         23    2    1    2    0    0  0.48689418396E+02  0.67349126984E+02  0.12023320809E+03  0.17219488168E+03  0.91041136737E+02 0.  0.
          5    1    3    3  502    0 -0.36680124170E+02 -0.56374132472E+02 -0.47174319350E+02  0.82257906168E+02  0.41800000000E+01 0.  1.
         -5    1    3    3    0  502 -0.12009294226E+02 -0.10974994512E+02  0.67176544986E+02  0.69244741668E+02  0.41800000000E+01 0.  1.
        -11    1    4    4    0    0 -0.11213481110E+02 -0.26529621336E-01 -0.91682550340E+01  0.14484466259E+02  0.00000000000E+00 0. -1.
         11    1    4    4    0    0  0.59902899506E+02  0.67375656605E+02  0.12940146313E+03  0.15771041542E+03  0.00000000000E+00 0.  1.
</event>
<event>
 8    1  0.6840032E-009  0.9855202E+02  0.7561462E-02  0.1283371E+00
          2   -1    0    0  501    0  0.00000000000E+00  0.00000000000E+00  0.50734058066E+03  0.50734058066E+03  0.00000000000E+00 0. -1.
         -2   -1    0    0    0  501 -0.00000000000E+00 -0.00000000000E+00 -0.33432712290E+02  0.33432712290E+02  0.00000000000E+00 0.  1.
         25    2    1    2    0    0  0.67903738357E+02  0.25148690741E+02  0.25100979501E+03  0.28964838427E+03  0.12508754932E+03 0.  0.
         23    2    1    2    0    0 -0.67903738357E+02 -0.25148690741E+02  0.22289807336E+03  0.25112490867E+03  0.90204181278E+02 0.  0.
          5    1    3    3  502    0  0.12324857375E+02  0.32711664323E+02  0.22489687501E+03  0.22763574386E+03  0.41800000000E+01 0. -1.
         -5    1    3    3    0  502  0.55578880982E+02 -0.75629735824E+01  0.26112919997E+02  0.62012640416E+02  0.41800000000E+01 0. -1.
        -11    1    4    4    0    0 -0.25841425376E+02 -0.50366818842E+02  0.16911854216E+03  0.17834146183E+03  0.00000000000E+00 0. -1.
         11    1    4    4    0    0 -0.42062312981E+02  0.25218128101E+02  0.53779531201E+02  0.72783446844E+02  0.00000000000E+00 0.  1.
</event>
<event>
 8    1  0.6840032E-009  0.7673696E+02  0.7561462E-02  0.1338575E+00
         -2   -1    0    0    0  501 -0.00000000000E+00  0.00000000000E+00  0.43679686094E+02  0.43679686094E+02  0.00000000000E+00 0.  1.
          2   -1    0    0  501    0  0.00000000000E+00 -0.00000000000E+00 -0.38083533105E+03  0.38083533105E+03  0.00000000000E+00 0. -1.
         25    2    1    2    0    0 -0.48054860434E+02  0.13171956124E+02 -0.26122691711E+03  0.29388742151E+03  0.12509014453E+03 0.  0.
         23    2    1    2    0    0  0.48054860434E+02 -0.13171956124E+02 -0.75928727846E+02  0.13062759563E+03  0.93891570385E+02 0.  0.
          5    1    3    3  502    0 -0.35360953321E+02  0.29272754352E+02 -0.26796798589E+03  0.27190366866E+03  0.41800000000E+01 0.  1.
         -5    1    3    3    0  502 -0.12693907113E+02 -0.16100798229E+02  0.67410687766E+01  0.21983752856E+02  0.41800000000E+01 0.  1.
        -11    1    4    4    0    0  0.25251806255E+02  0.29035862424E+02 -0.73052684587E+02  0.82567728267E+02  0.00000000000E+00 0. -1.
         11    1    4    4    0    0  0.22803054179E+02 -0.42207818548E+02 -0.28760432592E+01  0.48059867367E+02  0.00000000000E+00 0.  1.
</event>
<event>
 8    1  0.6840032E-009  0.1681589E+03  0.7561462E-02  0.1179781E+00
          1   -1    0    0  501    0  0.00000000000E+00  0.00000000000E+00  0.92136694209E+03  0.92136694209E+03  0.00000000000E+00 0. -1.
         -1   -1    0    0    0  501 -0.00000000000E+00 -0.00000000000E+00 -0.51068682947E+02  0.51068682947E+02  0.00000000000E+00 0.  1.
         25    2    1    2    0    0  0.93893458123E+02  0.11816911568E+03  0.67523629506E+03  0.70311561563E+03  0.12509034095E+03 0.  0.
         23    2    1    2    0    0 -0.93893458123E+02 -0.11816911568E+03  0.19506196409E+03  0.26932000941E+03  0.10818584128E+03 0.  0.
          5    1    3    3  502    0  0.31911389862E+02  0.38690685499E+02  0.54288318635E+02  0.74027021333E+02  0.41800000000E+01 0. -1.
         -5    1    3    3    0  502  0.61982068261E+02  0.79478430184E+02  0.62094797642E+03  0.62908859429E+03  0.41800000000E+01 0. -1.
        -11    1    4    4    0    0  0.20666970419E+02 -0.44079228632E+02  0.42183076950E+02  0.64416721774E+02  0.00000000000E+00 0.  1.
         11    1    4    4    0    0 -0.11456042854E+03 -0.74089887051E+02  0.15287888714E+03  0.20490328763E+03  0.00000000000E+00 0. -1.
</event>
<event>
 8    1  0.6840032E-009  0.9111955E+02  0.7561462E-02  0.1300163E+00
          2   -1    0    0  501    0  0.00000000000E+00  0.00000000000E+00  0.12138863692E+04  0.12138863692E+04  0.00000000000E+00 0. -1.
         -2   -1    0    0    0  501 -0.00000000000E+00 -0.00000000000E+00 -0.12539373115E+02  0.12539373115E+02  0.00000000000E+00 0.  1.
         25    2    1    2    0    0 -0.45898911536E+02 -0.17760580209E+02  0.84481724129E+03  0.85544496177E+03  0.12509101941E+03 0.  0.
         23    2    1    2    0    0  0.45898911536E+02  0.17760580209E+02  0.35652975479E+03  0.37098078055E+03  0.89950682012E+02 0.  0.
          5    1    3    3  502    0 -0.31494126419E+02 -0.41120391126E+02  0.12876546820E+03  0.13885526553E+03  0.41800000000E+01 0. -1.
         -5    1    3    3    0  502 -0.14404785117E+02  0.23359810917E+02  0.71605177310E+03  0.71658969624E+03  0.41800000000E+01 0. -1.
        -11    1    4    4    0    0  0.36105023674E+02 -0.34144748672E+02  0.17645190812E+03  0.18331588167E+03  0.00000000000E+00 0. -1.
         11    1    4    4    0    0  0.97938878628E+01  0.51905328881E+02  0.18007784668E+03  0.18766489888E+03  0.00000000000E+00 0.  1.
</event>
<event>
 8    1  0.6840032E-009  0.1355035E+03  0.7561462E-02  0.1219511E+00
         -1   -1    0    0    0  501 -0.00000000000E+00  0.00000000000E+00  0.18822362783E+03  0.18822362783E+03  0.00000000000E+00 0.  1.
          1   -1    0    0  501    0  0.00000000000E+00 -0.00000000000E+00 -0.11360413727E+03  0.11360413727E+03  0.00000000000E+00 0. -1.
         25    2    1    2    0    0  0.68771633757E+02  0.53936791696E+02  0.90445393249E+02  0.17738757229E+03  0.12508903443E+03 0.  0.
         23    2    1    2    0    0 -0.68771633757E+02 -0.53936791696E+02 -0.15825902685E+02  0.12444019281E+03  0.87156108690E+02 0.  0.
          5    1    3    3  502    0  0.41521561790E+02  0.92615369873E+02  0.78583057071E+02  0.12843058860E+03  0.41800000000E+01 0. -1.
         -5    1    3    3    0  502  0.27250071967E+02 -0.38678578177E+02  0.11862336178E+02  0.48956983686E+02  0.41800000000E+01 0. -1.
        -11    1    4    4    0    0 -0.26378263746E+02 -0.71369443364E+02 -0.19216420225E+02  0.78477264546E+02  0.00000000000E+00 0. -1.
         11    1    4    4    0    0 -0.42393370011E+02  0.17432651668E+02  0.33905175402E+01  0.45962928261E+02  0.00000000000E+00 0.  1.
</event>
<event>
 8    1  0.6840032E-009  0.1480384E+03  0.7561462E-02  0.1202904E+00
         -1   -1    0    0    0  501 -0.00000000000E+00  0.00000000000E+00  0.19738860740E+02  0.19738860740E+02  0.00000000000E+00 0.  1.
          1   -1    0    0  501    0  0.00000000000E+00 -0.00000000000E+00 -0.12145286064E+04  0.12145286064E+04  0.00000000000E+00 0. -1.
         25    2    1    2    0    0  0.22652877162E+02 -0.10626335873E+03 -0.57862786027E+03  0.60188301697E+03  0.12509161116E+03 0.  0.
         23    2    1    2    0    0 -0.22652877162E+02  0.10626335873E+03 -0.61616188535E+03  0.63238445014E+03  0.91921540229E+02 0.  0.
          5    1    3    3  502    0 -0.44161761231E+02 -0.26489404078E+02 -0.10604868695E+03  0.11796502061E+03  0.41800000000E+01 0. -1.
         -5    1    3    3    0  502  0.66814638393E+02 -0.79773954654E+02 -0.47257917332E+03  0.48391799636E+03  0.41800000000E+01 0. -1.
        -11    1    4    4    0    0  0.18270039626E+02  0.96476933906E+02 -0.37865861578E+03  0.39118274556E+03  0.00000000000E+00 0.  1.
         11    1    4    4    0    0 -0.40922916788E+02  0.97864248264E+01 -0.23750326958E+03  0.24120170458E+03  0.00000000000E+00 0. -1.
</event>
<event>
 8    1  0.6840032E-009  0.3232240E+03  0.7561462E-02  0.1074175E+00
          2   -1    0    0  501    0  0.00000000000E+00  0.00000000000E+00  0.12730101498E+04  0.12730101498E+04  0.00000000000E+00 0. -1.
         -2   -1    0    0    0  501 -0.00000000000E+00 -0.00000000000E+00 -0.11883842074E+03  0.11883842074E+03  0.00000000000E+00 0.  1.
         25    2    1    2    0    0 -0.23272594509E+03  0.21369975021E+03  0.22829273199E+03  0.40938270146E+03  0.12509067119E+03 0.  0.
         23    2    1    2    0    0  0.23272594509E+03 -0.21369975021E+03  0.92587899710E+03  0.98246586912E+03  0.90323407542E+02 0.  0.
          5    1    3    3  502    0 -0.17472620108E+03  0.18355999417E+03  0.23223861671E+03  0.34376702037E+03  0.41800000000E+01 0.  1.
         -5    1    3    3    0  502 -0.57999744004E+02  0.30139756044E+02 -0.39458847176E+01  0.65615681092E+02  0.41800000000E+01 0.  1.
        -11    1    4    4    0    0  0.87866422814E+02 -0.13916571003E+03  0.50583323835E+03  0.53193502247E+03  0.00000000000E+00 0.  1.
         11    1    4    4    0    0  0.14485952227E+03 -0.74534040178E+02  0.42004575875E+03  0.45053084665E+03  0.00000000000E+00 0. -1.
</event>
<event>
 8    1  0.6840032E-009  0.1727074E+03  0.7561462E-02  0.1175054E+00
         -2   -1    0    0    0  501 -0.00000000000E+00  0.00000000000E+00  0.22766801115E+03  0.22766801115E+03  0.00000000000E+00 0.  1.
          2   -1    0    0  501    0  0.00000000000E+00 -0.00000000000E+00 -0.16269031928E+03  0.16269031928E+03  0.00000000000E+00 0. -1.
         25    2    1    2    0    0  0.15182244124E+03 -0.29995947447E+02  0.76386867257E+02  0.21314784458E+03  0.12508892690E+03 0.  0.
         23    2    1    2    0    0 -0.15182244124E+03  0.29995947447E+02 -0.11409175384E+02  0.17721048585E+03  0.85577897175E+02 0.  0.
          5    1    3    3  502    0  0.27106160003E+02 -0.54693405735E+02  0.58569377497E+02  0.84699214408E+02  0.41800000000E+01 0.  1.
         -5    1    3    3    0  502  0.12471628124E+03  0.24697458288E+02  0.17817489761E+02  0.12844863017E+03  0.41800000000E+01 0.  1.
        -11    1    4    4    0    0 -0.76149744822E+02  0.28582180731E+02  0.34870260878E+02  0.88496665392E+02  0.00000000000E+00 0.  1.
         11    1    4    4    0    0 -0.75672696419E+02  0.14137667158E+01 -0.46279436262E+02  0.88713820459E+02  0.00000000000E+00 0. -1.
</event>
<event>
 8    1  0.6840032E-009  0.1414792E+03  0.7561462E-02  0.1211352E+00
         -1   -1    0    0    0  501 -0.00000000000E+00  0.00000000000E+00  0.21060006720E+03  0.21060006720E+03  0.00000000000E+00 0.  1.
          1   -1    0    0  501    0  0.00000000000E+00 -0.00000000000E+00 -0.11559905471E+03  0.11559905471E+03  0.00000000000E+00 0. -1.
         25    2    1    2    0    0 -0.31475826078E+02  0.10049663644E+03  0.83884653539E+02  0.18377719485E+03  0.12508845144E+03 0.  0.
         23    2    1    2    0    0  0.31475826078E+02 -0.10049663644E+03  0.11116358942E+02  0.14242192706E+03  0.95237231737E+02 0.  0.
          5    1    3    3  502    0  0.13136645792E+01 -0.23918537692E+02 -0.80207981955E+01  0.25605229224E+02  0.41800000000E+01 0.  1.
         -5    1    3    3    0  502 -0.32789490657E+02  0.12441517413E+03  0.91905451735E+02  0.15817196562E+03  0.41800000000E+01 0.  1.
        -11    1    4    4    0    0 -0.25294500880E+02 -0.35852764358E+02  0.31491778329E+02  0.54008930644E+02  0.00000000000E+00 0.  1.
         11    1    4    4    0    0  0.56770326958E+02 -0.64643872079E+02 -0.20375419387E+02  0.88412996417E+02  0.00000000000E+00 0. -1.
</event>
<event>
 8    1  0.6840032E-009  0.1233280E+03  0.7561462E-02  0.1237706E+00
          3   -1    0    0  501    0  0.00000000000E+00  0.00000000000E+00  0.44035895051E+02  0.44035895051E+02  0.00000000000E+00 0. -1.
         -3   -1    0    0    0  501 -0.00000000000E+00 -0.00000000000E+00 -0.42730213863E+03  0.42730213863E+03  0.00000000000E+00 0.  1.
         25    2    1    2    0    0  0.29308091571E+02  0.71054225331E+02 -0.15152095385E+03  0.21098665004E+03  0.12509636234E+03 0.  0.
         23    2    1    2    0    0 -0.29308091571E+02 -0.71054225331E+02 -0.23174528973E+03  0.26035138365E+03  0.90384160578E+02 0.  0.
          5    1    3    3  502    0 -0.48473472899E+02  0.31762147706E+02 -0.75500473273E+02  0.95269646091E+02  0.41800000000E+01 0.  1.
         -5    1    3    3    0  502  0.77781564470E+02  0.39292077625E+02 -0.76020480573E+02  0.11571700395E+03  0.41800000000E+01 0.  1.
        -11    1    4    4    0    0 -0.43897770239E+02 -0.74359812019E+02 -0.22952157224E+03  0.24522754331E+03  0.00000000000E+00 0.  1.
         11    1    4    4    0    0  0.14589678668E+02  0.33055866873E+01 -0.22237174957E+01  0.15123840335E+02  0.00000000000E+00 0. -1.
</event>
<event>
 8    1  0.6840032E-009  0.1097663E+03  0.7561462E-02  0.1261003E+00
          2   -1    0    0  501    0  0.00000000000E+00  0.00000000000E+00  0.57083718656E+03  0.57083718656E+03  0.00000000000E+00 0. -1.
         -2   -1    0    0    0  501 -0.00000000000E+00 -0.00000000000E+00 -0.29844763343E+02  0.29844763343E+02  0.00000000000E+00 0.  1.
         25    2    1    2    0    0 -0.33607407976E+02  0.30543739323E+02  0.16877241328E+03  0.21493189207E+03  0.12509681395E+03 0.  0.
         23    2    1    2    0    0  0.33607407976E+02 -0.30543739323E+02  0.37222000994E+03  0.38575005784E+03  0.90515155858E+02 0.  0.
          5    1    3    3  502    0  0.22293068374E+02  0.54102949655E+02  0.35824526780E+02  0.68738483966E+02  0.41800000000E+01 0. -1.
         -5    1    3    3    0  502 -0.55900476349E+02 -0.23559210332E+02  0.13294788650E+03  0.14619340810E+03  0.41800000000E+01 0. -1.
        -11    1    4    4    0    0  0.12457324361E+02 -0.61400905016E+02  0.20319160728E+03  0.21263133668E+03  0.00000000000E+00 0.  1.
         11    1    4    4    0    0  0.21150083614E+02  0.30857165694E+02  0.16902840266E+03  0.17311872116E+03  0.00000000000E+00 0. -1.
</event>
<event>
 8    1  0.6840032E-009  0.9349366E+02  0.7561462E-02  0.1294605E+00
         -1   -1    0    0    0  501 -0.00000000000E+00  0.00000000000E+00  0.35584655267E+02  0.35584655267E+02  0.00000000000E+00 0.  1.
          1   -1    0    0  501    0  0.00000000000E+00 -0.00000000000E+00 -0.37392617876E+03  0.37392617876E+03  0.00000000000E+00 0. -1.
         25    2    1    2    0    0  0.13072920394E+02  0.20316603083E+02 -0.24807298485E+03  0.27887834457E+03  0.12509700094E+03 0.  0.
         23    2    1    2    0    0 -0.13072920394E+02 -0.20316603083E+02 -0.90268538640E+02  0.13063248946E+03  0.91284021748E+02 0.  0.
          5    1    3    3  502    0 -0.16507772352E+02 -0.46223862893E+02 -0.63153059080E+02  0.80093278869E+02  0.41800000000E+01 0.  1.
         -5    1    3    3    0  502  0.29580692746E+02  0.66540465976E+02 -0.18491992577E+03  0.19878506570E+03  0.41800000000E+01 0.  1.
        -11    1    4    4    0    0 -0.36866927506E+02 -0.17556426019E+02 -0.39181812837E+01  0.41021343016E+02  0.00000000000E+00 0.  1.
         11    1    4    4    0    0  0.23794007112E+02 -0.27601770637E+01 -0.86350357356E+02  0.89611146446E+02  0.00000000000E+00 0. -1.
</event>
<event>
 8    1  0.6840032E-009  0.9407222E+02  0.7561462E-02  0.1293279E+00
          2   -1    0    0  501    0  0.00000000000E+00  0.00000000000E+00  0.66510135315E+02  0.66510135315E+02  0.00000000000E+00 0. -1.
         -2   -1    0    0    0  501 -0.00000000000E+00 -0.00000000000E+00 -0.20813040682E+03  0.20813040682E+03  0.00000000000E+00 0.  1.
         25    2    1    2    0    0 -0.36314923667E+02 -0.29455625957E+02 -0.86838825739E+02  0.15929523200E+03  0.12509029419E+03 0.  0.
         23    2    1    2    0    0  0.36314923667E+02  0.29455625957E+02 -0.54781445770E+02  0.11534531014E+03  0.90095095255E+02 0.  0.
          5    1    3    3  502    0 -0.78354957561E+02  0.43701559953E+01 -0.60070014276E+02  0.98916513550E+02  0.41800000000E+01 0. -1.
         -5    1    3    3    0  502  0.42040033894E+02 -0.33825781953E+02 -0.26768811463E+02  0.60378718450E+02  0.41800000000E+01 0. -1.
        -11    1    4    4    0    0  0.88884136141E+01  0.26380520241E+02 -0.75738121010E+02  0.80691999100E+02  0.00000000000E+00 0.  1.
         11    1    4    4    0    0  0.27426510053E+02  0.30751057168E+01  0.20956675240E+02  0.34653311039E+02  0.00000000000E+00 0. -1.
</event>
<event>
 8    1  0.6840032E-009  0.1068126E+03  0.7561462E-02  0.1266589E+00
          1   -1    0    0  501    0  0.00000000000E+00  0.00000000000E+00  0.26432778004E+03  0.26432778004E+03  0.00000000000E+00 0. -1.
         -1   -1    0    0    0  501 -0.00000000000E+00 -0.00000000000E+00 -0.46721955223E+02  0.46721955223E+02  0.00000000000E+00 0.  1.
         25    2    1    2    0    0 -0.27785637109E+02 -0.50205319900E+01  0.13065908065E+03  0.18306455149E+03  0.12507432704E+03 0.  0.
         23    2    1    2    0    0  0.27785637109E+02  0.50205319900E+01  0.86946744173E+02  0.12798518378E+03  0.89572448741E+02 0.  0.
          5    1    3    3  502    0 -0.51966994112E+02 -0.50975934903E+02  0.95752904859E+02  0.12035449973E+03  0.41800000000E+01 0.  1.
         -5    1    3    3    0  502  0.24181357003E+02  0.45955402913E+02  0.34906175786E+02  0.62710051757E+02  0.41800000000E+01 0.  1.
        -11    1    4    4    0    0 -0.27745575447E+02 -0.12432637049E+02  0.51580253082E+02  0.59874117353E+02  0.00000000000E+00 0. -1.
         11    1    4    4    0    0  0.55531212555E+02  0.17453169039E+02  0.35366491091E+02  0.68111066425E+02  0.00000000000E+00 0.  1.
</event>
<event>
 8    1  0.6840032E-009  0.8385712E+02  0.7561462E-02  0.1318449E+00
          1   -1    0    0  501    0  0.00000000000E+00  0.00000000000E+00  0.48124606725E+02  0.48124606725E+02  0.00000000000E+00 0. -1.
         -1   -1    0    0    0  501 -0.00000000000E+00 -0.00000000000E+00 -0.27292640717E+03  0.27292640717E+03  0.00000000000E+00 0.  1.
         25    2    1    2    0    0  0.25068660087E+01  0.24850322043E+02 -0.15850967594E+03  0.20345902105E+03  0.12508570261E+03 0.  0.
         23    2    1    2    0    0 -0.25068660087E+01 -0.24850322043E+02 -0.66292124509E+02  0.11759199285E+03  0.93858447289E+02 0.  0.
          5    1    3    3  502    0  0.14098588341E+02  0.51228150452E+02 -0.16520130412E+03  0.17358581991E+03  0.41800000000E+01 0. -1.
         -5    1    3    3    0  502 -0.11591722332E+02 -0.26377828410E+02  0.66916281835E+01  0.29873201134E+02  0.41800000000E+01 0. -1.
        -11    1    4    4    0    0 -0.15596217929E+02  0.27351320463E+02 -0.53811776794E+02  0.62346163205E+02  0.00000000000E+00 0.  1.
         11    1    4    4    0    0  0.13089351920E+02 -0.52201642505E+02 -0.12480347715E+02  0.55245829644E+02  0.00000000000E+00 0. -1.
</event>
<event>
 8    1  0.6840032E-009  0.8756104E+02  0.7561462E-02  0.1308868E+00
          1   -1    0    0  501    0  0.00000000000E+00  0.00000000000E+00  0.16937730579E+03  0.16937730579E+03  0.00000000000E+00 0. -1.
         -1   -1    0    0    0  501 -0.00000000000E+00 -0.00000000000E+00 -0.96491516595E+02  0.96491516595E+02  0.00000000000E+00 0.  1.
         25    2    1    2    0    0  0.31170581295E+02  0.26677429207E+02 -0.17230355413E+02  0.13276838431E+03  0.12508904171E+03 0.  0.
         23    2    1    2    0    0 -0.31170581295E+02 -0.26677429207E+02  0.90116144603E+02  0.13310043807E+03  0.88946707245E+02 0.  0.
          5    1    3    3  502    0  0.28820323055E+02 -0.25252689796E+02 -0.55860128067E+02  0.67868517522E+02  0.41800000000E+01 0. -1.
         -5    1    3    3    0  502  0.23502582399E+01  0.51930119003E+02  0.38629772655E+02  0.64899866786E+02  0.41800000000E+01 0. -1.
        -11    1    4    4    0    0 -0.48932683766E+02  0.38738357709E+01  0.17095184529E+02  0.51977490110E+02  0.00000000000E+00 0.  1.
         11    1    4    4    0    0  0.17762102471E+02 -0.30551264978E+02  0.73020960074E+02  0.81122947962E+02  0.00000000000E+00 0. -1.
</event>
<event>
 8    1  0.6840032E-009  0.7716664E+02  0.7561462E-02  0.1337290E+00
         -2   -1    0    0    0  501 -0.00000000000E+00  0.00000000000E+00  0.17186177814E+03  0.17186177814E+03  0.00000000000E+00 0.  1.
          2   -1    0    0  501    0  0.00000000000E+00 -0.00000000000E+00 -0.10935705863E+03  0.10935705863E+03  0.00000000000E+00 0. -1.
         25    2    1    2    0    0  0.59817086932E+02 -0.11101361879E+02  0.88719001451E+02  0.16498399173E+03  0.12508929684E+03 0.  0.
         23    2    1    2    0    0 -0.59817086932E+02  0.11101361879E+02 -0.26214281940E+02  0.11623484504E+03  0.95509300594E+02 0.  0.
          5    1    3    3  502    0  0.19650583679E+02 -0.10834848004E+02 -0.31079978987E+02  0.38561338981E+02  0.41800000000E+01 0.  1.
         -5    1    3    3    0  502  0.40166503253E+02 -0.26651387483E+00  0.11979898044E+03  0.12642265275E+03  0.41800000000E+01 0.  1.
        -11    1    4    4    0    0  0.27349537130E+01  0.26551053372E+02 -0.42123434167E+02  0.49868047014E+02  0.00000000000E+00 0. -1.
         11    1    4    4    0    0 -0.62552040645E+02 -0.15449691493E+02  0.15909152227E+02  0.66366798029E+02  0.00000000000E+00 0.  1.
</event>
<event>
 8    1  0.6840032E-009  0.2785231E+03  0.7561462E-02  0.1096498E+00
         -1   -1    0    0    0  501 -0.00000000000E+00  0.00000000000E+00  0.70529824774E+02  0.70529824774E+02  0.00000000000E+00 0.  1.
          1   -1    0    0  501    0  0.00000000000E+00 -0.00000000000E+00 -0.11072997620E+04  0.11072997620E+04  0.00000000000E+00 0. -1.
         25    2    1    2    0    0  0.13745313782E+03  0.21229267745E+03 -0.53679567097E+03  0.60642928619E+03  0.12508133668E+03 0.  0.
         23    2    1    2    0    0 -0.13745313782E+03 -0.21229267745E+03 -0.49997426625E+03  0.57140030057E+03  0.11208251685E+03 0.  0.
          5    1    3    3  502    0  0.15240226427E+03  0.13618859180E+03 -0.39389546941E+03  0.44378474051E+03  0.41800000000E+01 0. -1.
         -5    1    3    3    0  502 -0.14949126446E+02  0.76104085653E+02 -0.14290020156E+03  0.16264454568E+03  0.41800000000E+01 0. -1.
        -11    1    4    4    0    0 -0.15604384619E+01 -0.96210359289E+02 -0.20592805271E+03  0.22729987043E+03  0.00000000000E+00 0.  1.
         11    1    4    4    0    0 -0.13589269936E+03 -0.11608231817E+03 -0.29404621354E+03  0.34410043014E+03  0.00000000000E+00 0. -1.
</event>
<event>
 8    1  0.6840032E-009  0.2115207E+03  0.7561462E-02  0.1140367E+00
         -2   -1    0    0    0  501 -0.00000000000E+00  0.00000000000E+00  0.77836025081E+02  0.77836025081E+02  0.00000000000E+00 0.  1.
          2   -1    0    0  501    0  0.00000000000E+00 -0.00000000000E+00 -0.69283950920E+03  0.69283950920E+03  0.00000000000E+00 0. -1.
         25    2    1    2    0    0 -0.19756187592E+03 -0.17687178338E+02 -0.40495074312E+03  0.46795963217E+03  0.12513025970E+03 0.  0.
         23    2    1    2    0    0  0.19756187592E+03  0.17687178338E+02 -0.21005274100E+03  0.30271590211E+03  0.90394868744E+02 0.  0.
          5    1    3    3  502    0 -0.20876155366E+03 -0.76374560994E+01 -0.40048900853E+03  0.45171742868E+03  0.41800000000E+01 0. -1.
         -5    1    3    3    0  502  0.11199677741E+02 -0.10049722238E+02 -0.44617345913E+01  0.16242203488E+02  0.41800000000E+01 0. -1.
        -11    1    4    4    0    0  0.33061404636E+02  0.28523254375E+00  0.27565610444E+01  0.33177348642E+02  0.00000000000E+00 0.  1.
         11    1    4    4    0    0  0.16450047128E+03  0.17401945794E+02 -0.21280930205E+03  0.26953855347E+03  0.00000000000E+00 0. -1.
</event>
<event>
 8    1  0.6840032E-009  0.3671304E+03  0.7561462E-02  0.1055796E+00
          2   -1    0    0  501    0  0.00000000000E+00  0.00000000000E+00  0.31200329821E+04  0.31200329821E+04  0.00000000000E+00 0. -1.
         -2   -1    0    0    0  501 -0.00000000000E+00 -0.00000000000E+00 -0.48826443355E+02  0.48826443355E+02  0.00000000000E+00 0.  1.
         25    2    1    2    0    0  0.35172545408E+03 -0.89408769681E+02  0.11770371253E+04  0.12380497914E+04  0.12508464497E+03 0.  0.
         23    2    1    2    0    0 -0.35172545408E+03  0.89408769681E+02  0.18941694135E+04  0.19308096341E+04  0.91887720267E+02 0.  0.
          5    1    3    3  502    0  0.72993488783E+02 -0.17600646165E+02  0.44747132240E+03  0.45374650293E+03  0.41800000000E+01 0. -1.
         -5    1    3    3    0  502  0.27873196530E+03 -0.71808123515E+02  0.72956580289E+03  0.78430328842E+03  0.41800000000E+01 0. -1.
        -11    1    4    4    0    0 -0.30941411769E+03  0.50103039065E+02  0.16800187910E+04  0.17090086451E+04  0.00000000000E+00 0. -1.
         11    1    4    4    0    0 -0.42311336393E+02  0.39305730616E+02  0.21415062244E+03  0.22180098904E+03  0.00000000000E+00 0.  1.
</event>
<event>
 8    1  0.6840032E-009  0.1211472E+03  0.7561462E-02  0.1241216E+00
         -1   -1    0    0    0  501 -0.00000000000E+00  0.00000000000E+00  0.79791297581E+03  0.79791297581E+03  0.00000000000E+00 0.  1.
          1   -1    0    0  501    0  0.00000000000E+00 -0.00000000000E+00 -0.29724067600E+02  0.29724067600E+02  0.00000000000E+00 0. -1.
         25    2    1    2    0    0  0.27827581714E+02  0.75505278764E+02  0.21670541778E+03  0.26283720308E+03  0.12508691300E+03 0.  0.
         23    2    1    2    0    0 -0.27827581714E+02 -0.75505278764E+02  0.55148349043E+03  0.56479984032E+03  0.91593656932E+02 0.  0.
          5    1    3    3  502    0 -0.20442885898E+02 -0.95934440306E+01 -0.21566940794E+01  0.23066631344E+02  0.41800000000E+01 0.  1.
         -5    1    3    3    0  502  0.48270467612E+02  0.85098722795E+02  0.21886211186E+03  0.23977057174E+03  0.41800000000E+01 0.  1.
        -11    1    4    4    0    0 -0.46799326972E+02 -0.34874909785E+01  0.23902802144E+03  0.24359132708E+03  0.00000000000E+00 0. -1.
         11    1    4    4    0    0  0.18971745258E+02 -0.72017787786E+02  0.31245546899E+03  0.32120851324E+03  0.00000000000E+00 0.  1.
</event>
<event>
 8    1  0.6840032E-009  0.8402517E+02  0.7561462E-02  0.1318002E+00
          1   -1    0    0  501    0  0.00000000000E+00  0.00000000000E+00  0.41086661707E+02  0.41086661707E+02  0.00000000000E+00 0. -1.
         -1   -1    0    0    0  501 -0.00000000000E+00 -0.00000000000E+00 -0.34587827768E+03  0.34587827768E+03  0.00000000000E+00 0.  1.
         25    2    1    2    0    0 -0.28267059528E+02 -0.43366207059E+02 -0.17485572355E+03  0.22113411503E+03  0.12508444428E+03 0.  0.
         23    2    1    2    0    0  0.28267059528E+02  0.43366207059E+02 -0.12993589243E+03  0.16583082436E+03  0.89089121668E+02 0.  0.
          5    1    3    3  502    0 -0.63509434424E+02 -0.50275469802E+01 -0.37186044495E+02  0.73885037691E+02  0.41800000000E+01 0. -1.
         -5    1    3    3    0  502  0.35242374895E+02 -0.38338660078E+02 -0.13766967906E+03  0.14724907734E+03  0.41800000000E+01 0. -1.
        -11    1    4    4    0    0  0.19150543387E+02  0.25349013628E+02 -0.13979541663E+03  0.14335994669E+03  0.00000000000E+00 0.  1.
         11    1    4    4    0    0  0.91165161417E+01  0.18017193430E+02  0.98595242085E+01  0.22470877670E+02  0.00000000000E+00 0. -1.
</event>
<event>
 8    1  0.6840032E-009  0.1184624E+03  0.7561462E-02  0.1245655E+00
         -1   -1    0    0    0  501 -0.00000000000E+00  0.00000000000E+00  0.12532490297E+03  0.12532490297E+03  0.00000000000E+00 0.  1.
          1   -1    0    0  501    0  0.00000000000E+00 -0.00000000000E+00 -0.23534468859E+03  0.23534468859E+03  0.00000000000E+00 0. -1.
         25    2    1    2    0    0  0.10037772054E+03 -0.56927822750E+02  0.89487482950E+01  0.17042171870E+03  0.12508804229E+03 0.  0.
         23    2    1    2    0    0 -0.10037772054E+03  0.56927822750E+02 -0.11896853392E+03  0.19024787286E+03  0.93403839753E+02 0.  0.
          5    1    3    3  502    0  0.59170771618E+02 -0.30508599143E+02 -0.57306492302E+02  0.87940100611E+02  0.41800000000E+01 0.  1.
         -5    1    3    3    0  502  0.41206948926E+02 -0.26419223607E+02  0.66255240597E+02  0.82481618088E+02  0.41800000000E+01 0.  1.
        -11    1    4    4    0    0 -0.62909263199E+02  0.55022940397E+02 -0.22220471461E+02  0.86480337176E+02  0.00000000000E+00 0.  1.
         11    1    4    4    0    0 -0.37468457345E+02  0.19048823531E+01 -0.96748062460E+02  0.10376753569E+03  0.00000000000E+00 0. -1.
</event>
<event>
 8    1  0.6840032E-009  0.8597981E+02  0.7561462E-02  0.1312890E+00
         -1   -1    0    0    0  501 -0.00000000000E+00  0.00000000000E+00  0.69726948637E+02  0.69726948637E+02  0.00000000000E+00 0.  1.
          1   -1    0    0  501    0  0.00000000000E+00 -0.00000000000E+00 -0.21671605740E+03  0.21671605740E+03  0.00000000000E+00 0. -1.
         25    2    1    2    0    0 -0.11295444322E+01 -0.50583188904E+02 -0.95951184614E+02  0.16557342332E+03  0.12509194143E+03 0.  0.
         23    2    1    2    0    0  0.11295444322E+01  0.50583188904E+02 -0.51037924149E+02  0.12086958272E+03  0.97183596634E+02 0.  0.
          5    1    3    3  502    0  0.15370882878E+02 -0.38262589784E+02  0.21199636038E+02  0.46553053450E+02  0.41800000000E+01 0.  1.
         -5    1    3    3    0  502 -0.16500427310E+02 -0.12320599121E+02 -0.11715082065E+03  0.11902036987E+03  0.41800000000E+01 0.  1.
        -11    1    4    4    0    0  0.47478245415E+02  0.39706063229E+02 -0.26789616589E+02  0.67442114453E+02  0.00000000000E+00 0. -1.
         11    1    4    4    0    0 -0.46348700983E+02  0.10877125675E+02 -0.24248307560E+02  0.53427468265E+02  0.00000000000E+00 0.  1.
</event>
<event>
 8    1  0.6840032E-009  0.1396257E+03  0.7561462E-02  0.1213834E+00
         -2   -1    0    0    0  501 -0.00000000000E+00  0.00000000000E+00  0.14889050041E+03  0.14889050041E+03  0.00000000000E+00 0.  1.
          2   -1    0    0  501    0  0.00000000000E+00 -0.00000000000E+00 -0.17076341809E+03  0.17076341809E+03  0.00000000000E+00 0. -1.
         25    2    1    2    0    0  0.94433423822E+02 -0.37566879207E+02 -0.68205247542E+02  0.17501105387E+03  0.12509185121E+03 0.  0.
         23    2    1    2    0    0 -0.94433423822E+02  0.37566879207E+02  0.46332329865E+02  0.14464286463E+03  0.91901749433E+02 0.  0.
          5    1    3    3  502    0  0.83103029899E+02  0.31388445441E+02 -0.23623318413E+02  0.92015659854E+02  0.41800000000E+01 0. -1.
         -5    1    3    3    0  502  0.11330393923E+02 -0.68955324648E+02 -0.44581929130E+02  0.82995394020E+02  0.41800000000E+01 0. -1.
        -11    1    4    4    0    0 -0.72172443447E+02  0.56049994775E+02  0.63241402143E+02  0.11113027694E+03  0.00000000000E+00 0.  1.
         11    1    4    4    0    0 -0.22260980375E+02 -0.18483115568E+02 -0.16909072277E+02  0.33512587690E+02  0.00000000000E+00 0. -1.
</event>
<event>
 8    1  0.6840032E-009  0.5354840E+02  0.7561462E-02  0.1427091E+00
         -2   -1    0    0    0  501 -0.00000000000E+00  0.00000000000E+00  0.31482183710E+02  0.31482183710E+02  0.00000000000E+00 0.  1.
          2   -1    0    0  501    0  0.00000000000E+00 -0.00000000000E+00 -0.42247584313E+03  0.42247584313E+03  0.00000000000E+00 0. -1.
         25    2    1    2    0    0  0.78839073655E+01  0.15709854474E+02 -0.15527704590E+03  0.20017421703E+03  0.12509916330E+03 0.  0.
         23    2    1    2    0    0 -0.78839073655E+01 -0.15709854474E+02 -0.23571661353E+03  0.25378380981E+03  0.92384764476E+02 0.  0.
          5    1    3    3  502    0  0.76061936534E+01  0.53015337804E+01  0.21109241685E+02  0.23431451659E+02  0.41800000000E+01 0.  1.
         -5    1    3    3    0  502  0.27771371210E+00  0.10408320694E+02 -0.17638628758E+03  0.17674276537E+03  0.41800000000E+01 0.  1.
        -11    1    4    4    0    0  0.26491252516E+02 -0.36825632983E+02 -0.71440551227E+02  0.84626627394E+02  0.00000000000E+00 0. -1.
         11    1    4    4    0    0 -0.34375159881E+02  0.21115778509E+02 -0.16427606230E+03  0.16915718242E+03  0.00000000000E+00 0.  1.
</event>
<event>
 8    1  0.6840032E-009  0.1265953E+03  0.7561462E-02  0.1232597E+00
          2   -1    0    0  501    0  0.00000000000E+00  0.00000000000E+00  0.21948907417E+03  0.21948907417E+03  0.00000000000E+00 0. -1.
         -2   -1    0    0    0  501 -0.00000000000E+00 -0.00000000000E+00 -0.10170925784E+03  0.10170925784E+03  0.00000000000E+00 0.  1.
         25    2    1    2    0    0  0.88175921049E+02  0.33430753869E+02  0.18380084078E+02  0.15772732047E+03  0.12508985480E+03 0.  0.
         23    2    1    2    0    0 -0.88175921049E+02 -0.33430753869E+02  0.99399732253E+02  0.16347101155E+03  0.89161967716E+02 0.  0.
          5    1    3    3  502    0  0.10989436207E+03  0.42024993364E+01  0.37651661349E+02  0.11631660164E+03  0.41800000000E+01 0.  1.
         -5    1    3    3    0  502 -0.21718441017E+02  0.29228254533E+02 -0.19271577271E+02  0.41410718827E+02  0.41800000000E+01 0.  1.
        -11    1    4    4    0    0 -0.33299614512E+02 -0.39049862690E+02  0.17890537501E+01  0.51351307833E+02  0.00000000000E+00 0.  1.
         11    1    4    4    0    0 -0.54876306536E+02  0.56191088210E+01  0.97610678503E+02  0.11211970371E+03  0.00000000000E+00 0. -1.
</event>
<event>
 8    1  0.6840032E-009  0.1032047E+03  0.7561462E-02  0.1273698E+00
          1   -1    0    0  501    0  0.00000000000E+00  0.00000000000E+00  0.22468389908E+03  0.22468389908E+03  0.00000000000E+00 0. -1.
         -1   -1    0    0    0  501 -0.00000000000E+00 -0.00000000000E+00 -0.89132960045E+02  0.89132960045E+02  0.00000000000E+00 0.  1.
         25    2    1    2    0    0 -0.50688981884E+02 -0.43749219548E+02  0.11541041235E+03  0.18289714207E+03  0.12509370170E+03 0.  0.
         23    2    1    2    0    0  0.50688981884E+02  0.43749219548E+02  0.20140526690E+02  0.13091971706E+03  0.11068407475E+03 0.  0.
          5    1    3    3  502    0 -0.61134237905E+02  0.13679285867E+02  0.10660263430E+03  0.12371787237E+03  0.41800000000E+01 0. -1.
         -5    1    3    3    0  502  0.10445256022E+02 -0.57428505415E+02  0.88077780495E+01  0.59179269696E+02  0.41800000000E+01 0. -1.
        -11    1    4    4    0    0 -0.11178129535E+01  0.31951337853E+02 -0.39648743428E+02  0.50932900485E+02  0.00000000000E+00 0.  1.
         11    1    4    4    0    0  0.51806794837E+02  0.11797881695E+02  0.59789270118E+02  0.79986816571E+02  0.00000000000E+00 0. -1.
</event>
<event>
 8    1  0.6840032E-009  0.8503327E+02  0.7561462E-02  0.1315346E+00
         -1   -1    0    0    0  501 -0.00000000000E+00  0.00000000000E+00  0.10881008898E+03  0.10881008898E+03  0.00000000000E+00 0.  1.
          1   -1    0    0  501    0  0.00000000000E+00 -0.00000000000E+00 -0.14120531334E+03  0.14120531334E+03  0.00000000000E+00 0. -1.
         25    2    1    2    0    0  0.51507017719E+02 -0.25408298333E+02 -0.15713427082E+02  0.13854022173E+03  0.12509167338E+03 0.  0.
         23    2    1    2    0    0 -0.51507017719E+02  0.25408298333E+02 -0.16681797277E+02  0.11147518059E+03  0.94073795649E+02 0.  0.
          5    1    3    3  502    0  0.61170013849E+02 -0.27761304419E+02 -0.61699389920E+02  0.91305792444E+02  0.41800000000E+01 0.  1.
         -5    1    3    3    0  502 -0.96629961304E+01  0.23530060863E+01  0.45985962838E+02  0.47234429286E+02  0.41800000000E+01 0.  1.
        -11    1    4    4    0    0 -0.30640718340E+02 -0.23621176149E+02 -0.37864220065E+02  0.54134210478E+02  0.00000000000E+00 0. -1.
         11    1    4    4    0    0 -0.20866299379E+02  0.49029474481E+02  0.21182422788E+02  0.57340970107E+02  0.00000000000E+00 0.  1.
</event>
<event>
 8    1  0.6840032E-009  0.1020633E+03  0.7561462E-02  0.1276016E+00
         -2   -1    0    0    0  501 -0.00000000000E+00  0.00000000000E+00  0.69720058020E+02  0.69720058020E+02  0.00000000000E+00 0.  1.
          2   -1    0    0  501    0  0.00000000000E+00 -0.00000000000E+00 -0.23403676246E+03  0.23403676246E+03  0.00000000000E+00 0. -1.
         25    2    1    2    0    0  0.37340162778E+02 -0.54942772575E+02 -0.92439675949E+02  0.16913042947E+03  0.12508801888E+03 0.  0.
         23    2    1    2    0    0 -0.37340162778E+02  0.54942772575E+02 -0.71877028489E+02  0.13462639101E+03  0.92438963202E+02 0.  0.
          5    1    3    3  502    0  0.79602848002E+02 -0.21134503747E+02 -0.76675703823E+02  0.11260513583E+03  0.41800000000E+01 0.  1.
         -5    1    3    3    0  502 -0.42262685223E+02 -0.33808268828E+02 -0.15763972126E+02  0.56525293636E+02  0.41800000000E+01 0.  1.
        -11    1    4    4    0    0 -0.21325074704E+02  0.40685176567E+02  0.12469092948E+02  0.47597486093E+02  0.00000000000E+00 0.  1.
         11    1    4    4    0    0 -0.16015088075E+02  0.14257596008E+02 -0.84346121437E+02  0.87028904919E+02  0.00000000000E+00 0. -1.
</event>
<event>
 8    1  0.6840032E-009  0.1503584E+03  0.7561462E-02  0.1200033E+00
          2   -1    0    0  501    0  0.00000000000E+00  0.00000000000E+00  0.47016050956E+03  0.47016050956E+03  0.00000000000E+00 0. -1.
         -2   -1    0    0    0  501 -0.00000000000E+00 -0.00000000000E+00 -0.66811662772E+02  0.66811662772E+02  0.00000000000E+00 0.  1.
         25    2    1    2    0    0  0.47978960193E+02  0.13034948436E+03  0.23706739693E+03  0.30189283674E+03  0.12508143546E+03 0.  0.
         23    2    1    2    0    0 -0.47978960193E+02 -0.13034948436E+03  0.16628144986E+03  0.23507933559E+03  0.91212963768E+02 0.  0.
          5    1    3    3  502    0  0.77377688523E+01  0.18335099103E+02  0.15716664191E+03  0.15847673222E+03  0.41800000000E+01 0.  1.
         -5    1    3    3    0  502  0.40241191341E+02  0.11201438526E+03  0.79900755020E+02  0.14341610453E+03  0.41800000000E+01 0.  1.
        -11    1    4    4    0    0  0.31346059696E+01 -0.10350162967E+03  0.78191461802E+02  0.12975483728E+03  0.00000000000E+00 0.  1.
         11    1    4    4    0    0 -0.51113566163E+02 -0.26847854685E+02  0.88089988063E+02  0.10532449831E+03  0.00000000000E+00 0. -1.
</event>
<event>
 8    1  0.6840032E-009  0.9433313E+02  0.7561462E-02  0.1292685E+00
          2   -1    0    0  501    0  0.00000000000E+00  0.00000000000E+00  0.10142810189E+04  0.10142810189E+04  0.00000000000E+00 0. -1.
         -2   -1    0    0    0  501 -0.00000000000E+00 -0.00000000000E+00 -0.13096953301E+02  0.13096953301E+02  0.00000000000E+00 0.  1.
         25    2    1    2    0    0 -0.32275085770E+02  0.51677998021E+00  0.68577853978E+03  0.69784056785E+03  0.12508918535E+03 0.  0.
         23    2    1    2    0    0  0.32275085770E+02 -0.51677998021E+00  0.31540552579E+03  0.32953740433E+03  0.89846017867E+02 0.  0.
          5    1    3    3  502    0 -0.29047994651E+02  0.47185191074E+02  0.57279652886E+03  0.57548550297E+03  0.41800000000E+01 0. -1.
         -5    1    3    3    0  502 -0.32270911189E+01 -0.46668411093E+02  0.11298201092E+03  0.12235506488E+03  0.41800000000E+01 0. -1.
        -11    1    4    4    0    0  0.47559665394E+02  0.26975713081E+02  0.26124036780E+03  0.26690099408E+03  0.00000000000E+00 0. -1.
         11    1    4    4    0    0 -0.15284579624E+02 -0.27492493062E+02  0.54165157987E+02  0.62636410248E+02  0.00000000000E+00 0.  1.
</event>
<event>
 8    1  0.6840032E-009  0.1239103E+03  0.7561462E-02  0.1236782E+00
         -1   -1    0    0    0  501 -0.00000000000E+00  0.00000000000E+00  0.40728784396E+02  0.40728784396E+02  0.00000000000E+00 0.  1.
          1   -1    0    0  501    0  0.00000000000E+00 -0.00000000000E+00 -0.54152635949E+03  0.54152635949E+03  0.00000000000E+00 0. -1.
         25    2    1    2    0    0  0.66574929953E+00  0.68332638939E+02 -0.41766862511E+03  0.44132072144E+03  0.12508839278E+03 0.  0.
         23    2    1    2    0    0 -0.66574929953E+00 -0.68332638939E+02 -0.83128949988E+02  0.14093442245E+03  0.91007122453E+02 0.  0.
          5    1    3    3  502    0 -0.56096037923E+02  0.13899789969E+02 -0.24143358937E+03  0.24828938783E+03  0.41800000000E+01 0.  1.
         -5    1    3    3    0  502  0.56761787223E+02  0.54432848971E+02 -0.17623503573E+03  0.19303133361E+03  0.41800000000E+01 0.  1.
        -11    1    4    4    0    0 -0.30708493192E+02  0.56938196875E+01 -0.10457465587E+02  0.32936146151E+02  0.00000000000E+00 0.  1.
         11    1    4    4    0    0  0.30042743893E+02 -0.74026458627E+02 -0.72671484401E+02  0.10799827629E+03  0.00000000000E+00 0. -1.
</event>
<event>
 8    1  0.6840032E-009  0.1034419E+03  0.7561462E-02  0.1273220E+00
         -1   -1    0    0    0  501 -0.00000000000E+00  0.00000000000E+00  0.54323264602E+03  0.54323264602E+03  0.00000000000E+00 0.  1.
          1   -1    0    0  501    0  0.00000000000E+00 -0.00000000000E+00 -0.43383810570E+02  0.43383810570E+02  0.00000000000E+00 0. -1.
         25    2    1    2    0    0  0.86866921389E+02 -0.50480469278E+02  0.25373908566E+03  0.30020883316E+03  0.12509068753E+03 0.  0.
         23    2    1    2    0    0 -0.86866921389E+02  0.50480469278E+02  0.24610974979E+03  0.28640762343E+03  0.10660758888E+03 0.  0.
          5    1    3    3  502    0  0.22487606449E+02 -0.38881377868E+01  0.20621949031E+03  0.20752050656E+03  0.41800000000E+01 0. -1.
         -5    1    3    3    0  502  0.64379314939E+02 -0.46592331491E+02  0.47519595349E+02  0.92688326600E+02  0.41800000000E+01 0. -1.
        -11    1    4    4    0    0 -0.43272463677E+02  0.40741260512E+02  0.23210646683E+03  0.23959500906E+03  0.00000000000E+00 0.  1.
         11    1    4    4    0    0 -0.43594457711E+02  0.97392087657E+01  0.14003282960E+02  0.46812614370E+02  0.00000000000E+00 0. -1.
</event>
<event>
 8    1  0.6840032E-009  0.9254800E+02  0.7561462E-02  0.1296796E+00
          1   -1    0    0  501    0  0.00000000000E+00  0.00000000000E+00  0.26722535385E+02  0.26722535385E+02  0.00000000000E+00 0. -1.
         -1   -1    0    0    0  501 -0.00000000000E+00 -0.00000000000E+00 -0.53222848197E+03  0.53222848197E+03  0.00000000000E+00 0.  1.
         25    2    1    2    0    0  0.66220305134E+01  0.15699518003E+02 -0.42278946194E+03  0.44123515000E+03  0.12508877773E+03 0.  0.
         23    2    1    2    0    0 -0.66220305134E+01 -0.15699518003E+02 -0.82716484638E+02  0.11771586735E+03  0.82004161122E+02 0.  0.
          5    1    3    3  502    0 -0.44438404104E+02 -0.11534593430E+02 -0.31913151621E+03  0.32244412794E+03  0.41800000000E+01 0. -1.
         -5    1    3    3    0  502  0.51060434618E+02  0.27234111433E+02 -0.10365794573E+03  0.11879102206E+03  0.41800000000E+01 0. -1.
        -11    1    4    4    0    0 -0.12429725932E+02  0.31268929778E+02 -0.19990392706E+02  0.39138981294E+02  0.00000000000E+00 0. -1.
         11    1    4    4    0    0  0.58076954189E+01 -0.46968447781E+02 -0.62726091932E+02  0.78576886055E+02  0.00000000000E+00 0.  1.
</event>
<event>
 8    1  0.6840032E-009  0.1071884E+03  0.7561462E-02  0.1265867E+00
          1   -1    0    0  501    0  0.00000000000E+00  0.00000000000E+00  0.42011472162E+03  0.42011472162E+03  0.00000000000E+00 0. -1.
         -1   -1    0    0    0  501 -0.00000000000E+00 -0.00000000000E+00 -0.32814481686E+02  0.32814481686E+02  0.00000000000E+00 0.  1.
         25    2    1    2    0    0 -0.11919281451E+02  0.41737032050E+00  0.13843696144E+03  0.18696270345E+03  0.12509203300E+03 0.  0.
         23    2    1    2    0    0  0.11919281451E+02 -0.41737032050E+00  0.24886327849E+03  0.26596649985E+03  0.93075260918E+02 0.  0.
          5    1    3    3  502    0 -0.41780409701E+02 -0.49511856020E+02  0.54574276819E+02  0.84810675104E+02  0.41800000000E+01 0.  1.
         -5    1    3    3    0  502  0.29861128250E+02  0.49929226341E+02  0.83862684624E+02  0.10215202835E+03  0.41800000000E+01 0.  1.
        -11    1    4    4    0    0  0.32982600584E+02  0.36146796213E+02  0.10148194789E+03  0.11266334171E+03  0.00000000000E+00 0.  1.
         11    1    4    4    0    0 -0.21063319132E+02 -0.36564166534E+02  0.14738133060E+03  0.15330315815E+03  0.00000000000E+00 0. -1.
</event>
<event>
 8    1  0.6840032E-009  0.1461097E+03  0.7561462E-02  0.1205337E+00
          1   -1    0    0  501    0  0.00000000000E+00  0.00000000000E+00  0.94448211475E+03  0.94448211475E+03  0.00000000000E+00 0. -1.
         -1   -1    0    0    0  501 -0.00000000000E+00 -0.00000000000E+00 -0.32472245408E+02  0.32472245408E+02  0.00000000000E+00 0.  1.
         25    2    1    2    0    0  0.11958869965E+03  0.58435754498E+02  0.57163555774E+03  0.60010919728E+03  0.12509054042E+03 0.  0.
         23    2    1    2    0    0 -0.11958869965E+03 -0.58435754498E+02  0.34037431161E+03  0.37684516288E+03  0.91877147850E+02 0.  0.
          5    1    3    3  502    0 -0.11041253665E+00 -0.13702742697E+02  0.31326514739E+01  0.14665035070E+02  0.41800000000E+01 0.  1.
         -5    1    3    3    0  502  0.11969911218E+03  0.72138497196E+02  0.56850290626E+03  0.58544416221E+03  0.41800000000E+01 0.  1.
        -11    1    4    4    0    0 -0.31527529741E+02  0.14806588929E+01  0.18980466678E+03  0.19241098985E+03  0.00000000000E+00 0. -1.
         11    1    4    4    0    0 -0.88061169907E+02 -0.59916413391E+02  0.15056964482E+03  0.18443417303E+03  0.00000000000E+00 0.  1.
</event>
<event>
 7    1  0.6840032E-009  0.1372374E+03  0.7561462E-02  0.1217095E+00
          2   -1    0    0  501    0  0.00000000000E+00  0.00000000000E+00  0.13979355690E+04  0.13979355690E+04  0.00000000000E+00 0. -1.
         -2   -1    0    0    0  501 -0.00000000000E+00 -0.00000000000E+00 -0.16606830140E+02  0.16606830140E+02  0.00000000000E+00 0.  1.
         23    2    1    2    0    0 -0.67287239337E+02  0.82953313165E+02  0.59964778914E+03  0.61572965626E+03  0.90203735174E+02 0.  0.
          5    1    1    2  502    0  0.77227977041E+02 -0.26454487964E+02  0.64997642580E+03  0.65509604400E+03  0.41800000000E+01 0.  1.
         -5    1    1    2    0  502 -0.99407377031E+01 -0.56498825201E+02  0.13170452395E+03  0.14371669891E+03  0.41800000000E+01 0.  1.
        -11    1    3    3    0    0 -0.10970632801E+02  0.77904727098E+02  0.26847844051E+03  0.27976807235E+03  0.00000000000E+00 0.  1.
         11    1    3    3    0    0 -0.56316606537E+02  0.50485860669E+01  0.33116934863E+03  0.33596158391E+03  0.00000000000E+00 0. -1.
</event>
<event>
 8    1  0.6840032E-009  0.1217003E+03  0.7561462E-02  0.1240318E+00
          2   -1    0    0  501    0  0.00000000000E+00  0.00000000000E+00  0.10862820224E+04  0.10862820224E+04  0.00000000000E+00 0. -1.
         -2   -1    0    0    0  501 -0.00000000000E+00 -0.00000000000E+00 -0.21839455119E+02  0.21839455119E+02  0.00000000000E+00 0.  1.
         25    2    1    2    0    0  0.20121236657E+02 -0.93443857265E+02  0.38539727603E+03  0.41631202664E+03  0.12509206424E+03 0.  0.
         23    2    1    2    0    0 -0.20121236657E+02  0.93443857265E+02  0.67904529121E+03  0.69180945084E+03  0.91439543520E+02 0.  0.
          5    1    3    3  502    0  0.28116195729E+02 -0.94164640238E+01  0.10076370720E+02  0.31594238460E+02  0.41800000000E+01 0.  1.
         -5    1    3    3    0  502 -0.79949590718E+01 -0.84027393241E+02  0.37532090531E+03  0.38471778818E+03  0.41800000000E+01 0.  1.
        -11    1    4    4    0    0  0.33649025763E+02  0.25068024440E+02  0.15431105765E+03  0.15991424357E+03  0.00000000000E+00 0.  1.
         11    1    4    4    0    0 -0.53770262419E+02  0.68375832825E+02  0.52473423357E+03  0.53189520727E+03  0.00000000000E+00 0. -1.
</event>
<event>
 8    1  0.6840032E-009  0.1832391E+03  0.7561462E-02  0.1164705E+00
         -1   -1    0    0    0  501 -0.00000000000E+00  0.00000000000E+00  0.37809048625E+03  0.37809048625E+03  0.00000000000E+00 0.  1.
          1   -1    0    0  501    0  0.00000000000E+00 -0.00000000000E+00 -0.11558063569E+03  0.11558063569E+03  0.00000000000E+00 0. -1.
         25    2    1    2    0    0 -0.11565375375E+03  0.12784555297E+03  0.19210000071E+03  0.28682731051E+03  0.12508884687E+03 0.  0.
         23    2    1    2    0    0  0.11565375375E+03 -0.12784555297E+03  0.70409849852E+02  0.20684381143E+03  0.90036321559E+02 0.  0.
          5    1    3    3  502    0 -0.11563345088E+03  0.11623499837E+03  0.20914559132E+03  0.26578378539E+03  0.41800000000E+01 0. -1.
         -5    1    3    3    0  502 -0.20302869088E-01  0.11610554602E+02 -0.17045590608E+02  0.21043525122E+02  0.41800000000E+01 0. -1.
        -11    1    4    4    0    0 -0.12455615037E+02 -0.88442310076E+01  0.19420333773E+02  0.24708543703E+02  0.00000000000E+00 0.  1.
         11    1    4    4    0    0  0.12810936879E+03 -0.11900132196E+03  0.50989516079E+02  0.18213526773E+03  0.00000000000E+00 0. -1.
</event>
<event>
 8    1  0.6840032E-009  0.1630138E+03  0.7561462E-02  0.1185336E+00
         -1   -1    0    0    0  501 -0.00000000000E+00  0.00000000000E+00  0.66555504586E+02  0.66555504586E+02  0.00000000000E+00 0.  1.
          1   -1    0    0  501    0  0.00000000000E+00 -0.00000000000E+00 -0.44559287845E+03  0.44559287845E+03  0.00000000000E+00 0. -1.
         25    2    1    2    0    0 -0.12673377735E+03 -0.38138246725E+02 -0.21821799562E+03  0.28422169945E+03  0.12508758788E+03 0.  0.
         23    2    1    2    0    0  0.12673377735E+03  0.38138246725E+02 -0.16081937824E+03  0.22792668358E+03  0.92583608090E+02 0.  0.
          5    1    3    3  502    0 -0.80852446833E+02  0.36530562148E+02 -0.14454811134E+03  0.16965620832E+03  0.41800000000E+01 0.  1.
         -5    1    3    3    0  502 -0.45881330516E+02 -0.74668808873E+02 -0.73669884286E+02  0.11456549114E+03  0.41800000000E+01 0.  1.
        -11    1    4    4    0    0  0.10477292077E+03  0.58089326006E+02 -0.15777200906E+03  0.19810033207E+03  0.00000000000E+00 0. -1.
         11    1    4    4    0    0  0.21960856575E+02 -0.19951079281E+02 -0.30473691885E+01  0.29826351519E+02  0.00000000000E+00 0.  1.
</event>
<event>
 8    1  0.6840032E-009  0.1218057E+03  0.7561462E-02  0.1240148E+00
         -1   -1    0    0    0  501 -0.00000000000E+00  0.00000000000E+00  0.64062570797E+02  0.64062570797E+02  0.00000000000E+00 0.  1.
          1   -1    0    0  501    0  0.00000000000E+00 -0.00000000000E+00 -0.27477061659E+03  0.27477061659E+03  0.00000000000E+00 0. -1.
         25    2    1    2    0    0  0.74374037795E+02  0.16235184753E+01 -0.10383809660E+03  0.17878511955E+03  0.12509050867E+03 0.  0.
         23    2    1    2    0    0 -0.74374037795E+02 -0.16235184753E+01 -0.10686994920E+03  0.16004806784E+03  0.93059468435E+02 0.  0.
          5    1    3    3  502    0  0.10717841330E+02 -0.57150125816E+02 -0.34528109117E+02  0.67754495960E+02  0.41800000000E+01 0.  1.
         -5    1    3    3    0  502  0.63656196465E+02  0.58773644291E+02 -0.69309987478E+02  0.11103062360E+03  0.41800000000E+01 0.  1.
        -11    1    4    4    0    0  0.12013764163E+02 -0.20393424026E+01  0.92634898595E+01  0.15306916449E+02  0.00000000000E+00 0.  1.
         11    1    4    4    0    0 -0.86387801958E+02  0.41582392735E+00 -0.11613343906E+03  0.14474115139E+03  0.00000000000E+00 0. -1.
</event>
<event>
 7    1  0.6840032E-009  0.7841220E+02  0.7561462E-02  0.1333619E+00
         -3   -1    0    0    0  501 -0.00000000000E+00  0.00000000000E+00  0.30758121473E+03  0.30758121473E+03  0.00000000000E+00 0.  1.
          3   -1    0    0  501    0  0.00000000000E+00 -0.00000000000E+00 -0.39678854810E+02  0.39678854810E+02  0.00000000000E+00 0. -1.
         23    2    1    2    0    0  0.12625948354E+02 -0.18136666939E+02  0.10578367400E+03  0.14140567626E+03  0.91197732059E+02 0.  0.
          5    1    1    2  502    0 -0.34718999100E+02  0.40912518437E+02  0.15823117908E+02  0.56098899487E+02  0.41800000000E+01 0.  1.
         -5    1    1    2    0  502  0.22093050746E+02 -0.22775851497E+02  0.14629556801E+03  0.14975549380E+03  0.41800000000E+01 0.  1.
        -11    1    3    3    0    0  0.12141535656E+02  0.25035040680E+02  0.91952450422E+02  0.96069887522E+02  0.00000000000E+00 0.  1.
         11    1    3    3    0    0  0.48441269734E+00 -0.43171707620E+02  0.13831223582E+02  0.45335788735E+02  0.00000000000E+00 0. -1.
</event>
<event>
 8    1  0.6840032E-009  0.1276872E+03  0.7561462E-02  0.1230928E+00
          2   -1    0    0  501    0  0.00000000000E+00  0.00000000000E+00  0.92593212131E+02  0.92593212131E+02  0.00000000000E+00 0.  1.
         -2   -1    0    0    0  501 -0.00000000000E+00 -0.00000000000E+00 -0.18144385715E+03  0.18144385715E+03  0.00000000000E+00 0. -1.
         25    2    1    2    0    0  0.11839978128E+02 -0.63184729329E+02 -0.68668329289E+02  0.15651083899E+03  0.12509119942E+03 0.  0.
         23    2    1    2    0    0 -0.11839978128E+02  0.63184729329E+02 -0.20182315731E+02  0.11752623029E+03  0.96294308428E+02 0.  0.
          5    1    3    3  502    0  0.11060477360E+01 -0.10071061679E+03 -0.55708428881E+02  0.11517270998E+03  0.41800000000E+01 0.  1.
         -5    1    3    3    0  502  0.10733930392E+02  0.37525887462E+02 -0.12959900408E+02  0.41338129010E+02  0.41800000000E+01 0.  1.
        -11    1    4    4    0    0  0.60567543474E+01  0.86059851358E+02 -0.19625129689E+02  0.88476708824E+02  0.00000000000E+00 0. -1.
         11    1    4    4    0    0 -0.17896732476E+02 -0.22875122029E+02 -0.55718604219E+00  0.29049521467E+02  0.00000000000E+00 0.  1.
</event>
<event>
 8    1  0.6840032E-009  0.1261906E+03  0.7561462E-02  0.1233220E+00
          2   -1    0    0  501    0  0.00000000000E+00  0.00000000000E+00  0.10379749471E+04  0.10379749471E+04  0.00000000000E+00 0. -1.
         -2   -1    0    0    0  501 -0.00000000000E+00 -0.00000000000E+00 -0.17570289385E+02  0.17570289385E+02  0.00000000000E+00 0.  1.
         25    2    1    2    0    0  0.77533681720E+02  0.10596757954E+02  0.50452464542E+03  0.52565606810E+03  0.12508165738E+03 0.  0.
         23    2    1    2    0    0 -0.77533681720E+02 -0.10596757954E+02  0.51588001233E+03  0.52988916842E+03  0.92339485632E+02 0.  0.
          5    1    3    3  502    0  0.10534603439E+03 -0.18540847161E+02  0.36633025507E+03  0.38165020393E+03  0.41800000000E+01 0. -1.
         -5    1    3    3    0  502 -0.27812352669E+02  0.29137605114E+02  0.13819439035E+03  0.14400586417E+03  0.41800000000E+01 0. -1.
        -11    1    4    4    0    0  0.12951624250E+02  0.31105477520E+01  0.12530398874E+02  0.18287454004E+02  0.00000000000E+00 0.  1.
         11    1    4    4    0    0 -0.90485305970E+02 -0.13707305706E+02  0.50334961345E+03  0.51160171441E+03  0.00000000000E+00 0. -1.
</event>
<event>
 8    1  0.6840032E-009  0.1237168E+03  0.7561462E-02  0.1237088E+00
         -1   -1    0    0    0  501 -0.00000000000E+00  0.00000000000E+00  0.23136405635E+03  0.23136405635E+03  0.00000000000E+00 0.  1.
          1   -1    0    0  501    0  0.00000000000E+00 -0.00000000000E+00 -0.84099835243E+02  0.84099835243E+02  0.00000000000E+00 0. -1.
         25    2    1    2    0    0 -0.53465546712E+02  0.42514864002E+02  0.19480689706E+02  0.14385290822E+03  0.12509230027E+03 0.  0.
         23    2    1    2    0    0  0.53465546712E+02 -0.42514864002E+02  0.12778353140E+03  0.17161098337E+03  0.91954447248E+02 0.  0.
          5    1    3    3  502    0 -0.42557181286E+02 -0.35663357663E+02 -0.14919251115E+02  0.57645860325E+02  0.41800000000E+01 0. -1.
         -5    1    3    3    0  502 -0.10908365427E+02  0.78178221665E+02  0.34399940820E+02  0.86207047899E+02  0.41800000000E+01 0. -1.
        -11    1    4    4    0    0  0.25940312472E+02 -0.69485241347E+02  0.68871830156E+02  0.10121475962E+03  0.00000000000E+00 0. -1.
         11    1    4    4    0    0  0.27525234240E+02  0.26970377345E+02  0.58911701244E+02  0.70396223745E+02  0.00000000000E+00 0.  1.
</event>
<event>
 8    1  0.6840032E-009  0.1653016E+03  0.7561462E-02  0.1182838E+00
         -2   -1    0    0    0  501 -0.00000000000E+00  0.00000000000E+00  0.79047036859E+02  0.79047036859E+02  0.00000000000E+00 0.  1.
          2   -1    0    0  501    0  0.00000000000E+00 -0.00000000000E+00 -0.38111012895E+03  0.38111012895E+03  0.00000000000E+00 0. -1.
         25    2    1    2    0    0  0.12935793532E+03  0.24260003169E+02 -0.11556661697E+03  0.21523253136E+03  0.12508947364E+03 0.  0.
         23    2    1    2    0    0 -0.12935793532E+03 -0.24260003169E+02 -0.18649647512E+03  0.24492463445E+03  0.88798187713E+02 0.  0.
          5    1    3    3  502    0  0.14631869364E+03  0.28801226659E+01 -0.70776131807E+02  0.16261669179E+03  0.41800000000E+01 0.  1.
         -5    1    3    3    0  502 -0.16960758318E+02  0.21379880503E+02 -0.44790485161E+02  0.52615839574E+02  0.41800000000E+01 0.  1.
        -11    1    4    4    0    0 -0.38847742082E+02  0.31730413901E+02 -0.41743739497E+02  0.65257229625E+02  0.00000000000E+00 0.  1.
         11    1    4    4    0    0 -0.90510193240E+02 -0.55990417070E+02 -0.14475273563E+03  0.17966740482E+03  0.00000000000E+00 0. -1.
</event>
<event>
 8    1  0.6840032E-009  0.1561923E+03  0.7561462E-02  0.1193064E+00
         -3   -1    0    0    0  501 -0.00000000000E+00  0.00000000000E+00  0.29135917867E+03  0.29135917867E+03  0.00000000000E+00 0.  1.
          3   -1    0    0  501    0  0.00000000000E+00 -0.00000000000E+00 -0.10394943702E+03  0.10394943702E+03  0.00000000000E+00 0. -1.
         25    2    1    2    0    0  0.11153677487E+03  0.14902418161E+02  0.18637778754E+03  0.25109208963E+03  0.12509206039E+03 0.  0.
         23    2    1    2    0    0 -0.11153677487E+03 -0.14902418161E+02  0.10319541094E+01  0.14421652606E+03  0.90193166285E+02 0.  0.
          5    1    3    3  502    0  0.13931815324E+03  0.10855172467E+02  0.15759304023E+03  0.21066661178E+03  0.41800000000E+01 0.  1.
         -5    1    3    3    0  502 -0.27781378370E+02  0.40472456944E+01  0.28784747307E+02  0.40425477850E+02  0.41800000000E+01 0.  1.
        -11    1    4    4    0    0 -0.47961495231E+02  0.38237310939E+02 -0.59800861690E+00  0.61341295935E+02  0.00000000000E+00 0.  1.
         11    1    4    4    0    0 -0.63575279637E+02 -0.53139729100E+02  0.16299627263E+01  0.82875230125E+02  0.00000000000E+00 0. -1.
</event>
<event>
 8    1  0.6840032E-009  0.8654046E+02  0.7561462E-02  0.1311453E+00
          2   -1    0    0  501    0  0.00000000000E+00  0.00000000000E+00  0.19853169650E+03  0.19853169650E+03  0.00000000000E+00 0. -1.
         -2   -1    0    0    0  501 -0.00000000000E+00 -0.00000000000E+00 -0.75489767239E+02  0.75489767239E+02  0.00000000000E+00 0.  1.
         25    2    1    2    0    0  0.13925863146E+02  0.75923673023E+00  0.66808719301E+01  0.12604304857E+03  0.12509080677E+03 0.  0.
         23    2    1    2    0    0 -0.13925863146E+02 -0.75923673023E+00  0.11636105733E+03  0.14797841517E+03  0.90350481945E+02 0.  0.
          5    1    3    3  502    0  0.46868170290E+02  0.18658824432E+02 -0.41073350359E+02  0.65186422093E+02  0.41800000000E+01 0.  1.
         -5    1    3    3    0  502 -0.32942307144E+02 -0.17899587702E+02  0.47754222289E+02  0.60856626478E+02  0.41800000000E+01 0.  1.
        -11    1    4    4    0    0  0.33103029724E+02  0.13267195293E+02  0.77734300667E+02  0.85524561080E+02  0.00000000000E+00 0. -1.
         11    1    4    4    0    0 -0.47028892870E+02 -0.14026432023E+02  0.38626756662E+02  0.62453854085E+02  0.00000000000E+00 0.  1.
</event>
<event>
 8    1  0.6840032E-009  0.1348512E+03  0.7561462E-02  0.1220430E+00
         -4   -1    0    0    0  501 -0.00000000000E+00  0.00000000000E+00  0.64027056974E+02  0.64027056974E+02  0.00000000000E+00 0. -1.
          4   -1    0    0  501    0  0.00000000000E+00 -0.00000000000E+00 -0.34729360093E+03  0.34729360093E+03  0.00000000000E+00 0.  1.
         25    2    1    2    0    0  0.27625175427E+02 -0.97989928208E+02 -0.14862577919E+03  0.21932251394E+03  0.12509023357E+03 0.  0.
         23    2    1    2    0    0 -0.27625175427E+02  0.97989928208E+02 -0.13464076477E+03  0.19199814396E+03  0.91487569648E+02 0.  0.
          5    1    3    3  502    0  0.51570713005E+02  0.81282946932E+01 -0.50679916203E+02  0.72880271135E+02  0.41800000000E+01 0.  1.
         -5    1    3    3    0  502 -0.23945537578E+02 -0.10611822290E+03 -0.97945862982E+02  0.14644224280E+03  0.41800000000E+01 0.  1.
        -11    1    4    4    0    0 -0.21794538595E+02  0.18020508623E+02 -0.10127848521E+03  0.10515261390E+03  0.00000000000E+00 0.  1.
         11    1    4    4    0    0 -0.58306368316E+01  0.79969419586E+02 -0.33362279560E+02  0.86845530065E+02  0.00000000000E+00 0. -1.
</event>
<event>
 8    1  0.6840032E-009  0.1510585E+03  0.7561462E-02  0.1199178E+00
         -3   -1    0    0    0  501 -0.00000000000E+00  0.00000000000E+00  0.38634461791E+02  0.38634461791E+02  0.00000000000E+00 0.  1.
          3   -1    0    0  501    0  0.00000000000E+00 -0.00000000000E+00 -0.70203759219E+03  0.70203759219E+03  0.00000000000E+00 0. -1.
         25    2    1    2    0    0 -0.65147247042E+02  0.94229557720E+02 -0.45760939029E+03  0.48803381107E+03  0.12508906157E+03 0.  0.
         23    2    1    2    0    0  0.65147247042E+02 -0.94229557720E+02 -0.20579374011E+03  0.25263824291E+03  0.91387334824E+02 0.  0.
          5    1    3    3  502    0 -0.40231509011E+02 -0.21502330773E+02 -0.78937899445E+02  0.91266581588E+02  0.41800000000E+01 0. -1.
         -5    1    3    3    0  502 -0.24915738031E+02  0.11573188849E+03 -0.37867149084E+03  0.39676722948E+03  0.41800000000E+01 0. -1.
        -11    1    4    4    0    0  0.47855651395E+02 -0.63362517518E+01 -0.34494661400E+02  0.59331215408E+02  0.00000000000E+00 0.  1.
         11    1    4    4    0    0  0.17291595647E+02 -0.87893305968E+02 -0.17129907871E+03  0.19330702750E+03  0.00000000000E+00 0. -1.
</event>
<event>
 8    1  0.6840032E-009  0.1769094E+03  0.7561462E-02  0.1170828E+00
          1   -1    0    0  501    0  0.00000000000E+00  0.00000000000E+00  0.51942525293E+03  0.51942525293E+03  0.00000000000E+00 0. -1.
         -1   -1    0    0    0  501 -0.00000000000E+00 -0.00000000000E+00 -0.70071723299E+02  0.70071723299E+02  0.00000000000E+00 0.  1.
         25    2    1    2    0    0  0.15010572637E+03  0.39281586528E+02  0.26767398754E+03  0.33372404064E+03  0.12509036558E+03 0.  0.
         23    2    1    2    0    0 -0.15010572637E+03 -0.39281586528E+02  0.18167954209E+03  0.25577293560E+03  0.91310275657E+02 0.  0.
          5    1    3    3  502    0  0.24665038645E+02 -0.42169625905E+02  0.78129145861E+02  0.92240323684E+02  0.41800000000E+01 0.  1.
         -5    1    3    3    0  502  0.12544068773E+03  0.81451212433E+02  0.18954484168E+03  0.24148371695E+03  0.41800000000E+01 0.  1.
        -11    1    4    4    0    0 -0.65706851859E+02 -0.17714495004E+02  0.18058669782E+02  0.70408161947E+02  0.00000000000E+00 0.  1.
         11    1    4    4    0    0 -0.84398874512E+02 -0.21567091524E+02  0.16362087231E+03  0.18536477365E+03  0.00000000000E+00 0. -1.
</event>
<event>
 8    1  0.6840032E-009  0.3131889E+03  0.7561462E-02  0.1078827E+00
         -2   -1    0    0    0  501 -0.00000000000E+00  0.00000000000E+00  0.34974047106E+03  0.34974047106E+03  0.00000000000E+00 0.  1.
          2   -1    0    0  501    0  0.00000000000E+00 -0.00000000000E+00 -0.38976015063E+03  0.38976015063E+03  0.00000000000E+00 0. -1.
         25    2    1    2    0    0  0.17353419339E+03  0.25329838737E+03  0.14744114569E+03  0.36285111110E+03  0.12509135889E+03 0.  0.
         23    2    1    2    0    0 -0.17353419339E+03 -0.25329838737E+03 -0.18746082525E+03  0.37664951059E+03  0.11157555067E+03 0.  0.
          5    1    3    3  502    0  0.12817592479E+03  0.18796741602E+03  0.43110596914E+02  0.23159622870E+03  0.41800000000E+01 0. -1.
         -5    1    3    3    0  502  0.45358268598E+02  0.65330971343E+02  0.10433054877E+03  0.13125488240E+03  0.41800000000E+01 0. -1.
        -11    1    4    4    0    0 -0.48769651505E+02 -0.14832014446E+03 -0.13189981343E+03  0.20438910182E+03  0.00000000000E+00 0. -1.
         11    1    4    4    0    0 -0.12476454188E+03 -0.10497824291E+03 -0.55561011822E+02  0.17226040877E+03  0.00000000000E+00 0.  1.
</event>
<event>
 8    1  0.6840032E-009  0.1187057E+03  0.7561462E-02  0.1245248E+00
          2   -1    0    0  501    0  0.00000000000E+00  0.00000000000E+00  0.18609806707E+04  0.18609806707E+04  0.00000000000E+00 0. -1.
         -2   -1    0    0    0  501 -0.00000000000E+00 -0.00000000000E+00 -0.10396137183E+02  0.10396137183E+02  0.00000000000E+00 0.  1.
         25    2    1    2    0    0  0.78252915567E+01 -0.86700918470E+02  0.12785975907E+04  0.12876486767E+04  0.12509608748E+03 0.  0.
         23    2    1    2    0    0 -0.78252915567E+01  0.86700918470E+02  0.57198694280E+03  0.58372813121E+03  0.77402738834E+02 0.  0.
          5    1    3    3  502    0  0.43063563684E+02 -0.70401153127E+02  0.41380762772E+03  0.42197750893E+03  0.41800000000E+01 0. -1.
         -5    1    3    3    0  502 -0.35238272128E+02 -0.16299765343E+02  0.86478996300E+03  0.86567116776E+03  0.41800000000E+01 0. -1.
        -11    1    4    4    0    0 -0.16550461340E+02 -0.95329209406E+01  0.72050469477E+02  0.74539013302E+02  0.00000000000E+00 0.  1.
         11    1    4    4    0    0  0.87251697834E+01  0.96233839411E+02  0.49993647333E+03  0.50918911791E+03  0.00000000000E+00 0. -1.
</event>
<event>
 8    1  0.6840032E-009  0.1772255E+03  0.7561462E-02  0.1170516E+00
          1   -1    0    0  501    0  0.00000000000E+00  0.00000000000E+00  0.58443951231E+03  0.58443951231E+03  0.00000000000E+00 0. -1.
         -1   -1    0    0    0  501 -0.00000000000E+00 -0.00000000000E+00 -0.69745209820E+02  0.69745209820E+02  0.00000000000E+00 0.  1.
         25    2    1    2    0    0  0.49538264972E+02 -0.14836195703E+03  0.20546363460E+03  0.28692824235E+03  0.12508877297E+03 0.  0.
         23    2    1    2    0    0 -0.49538264972E+02  0.14836195703E+03  0.30923066789E+03  0.36725647978E+03  0.12160759016E+03 0.  0.
          5    1    3    3  502    0 -0.32784525799E+01 -0.41858111479E+02  0.14973582197E+03  0.15556715119E+03  0.41800000000E+01 0. -1.
         -5    1    3    3    0  502  0.52816717552E+02 -0.10650384556E+03  0.55727812632E+02  0.13136109116E+03  0.41800000000E+01 0. -1.
        -11    1    4    4    0    0 -0.30138185576E+02  0.16500936803E+03  0.23482130054E+03  0.28857831685E+03  0.00000000000E+00 0.  1.
         11    1    4    4    0    0 -0.19400079396E+02 -0.16647410992E+02  0.74409367346E+02  0.78678162930E+02  0.00000000000E+00 0. -1.
</event>
<event>
 8    1  0.6840032E-009  0.9474801E+02  0.7561462E-02  0.1291745E+00
          2   -1    0    0  501    0  0.00000000000E+00  0.00000000000E+00  0.18338992635E+02  0.18338992635E+02  0.00000000000E+00 0. -1.
         -2   -1    0    0    0  501 -0.00000000000E+00 -0.00000000000E+00 -0.71310176285E+03  0.71310176285E+03  0.00000000000E+00 0.  1.
         25    2    1    2    0    0 -0.19972327539E+01  0.12979965498E+02 -0.50768855989E+03  0.52303811024E+03  0.12509485395E+03 0.  0.
         23    2    1    2    0    0  0.19972327539E+01 -0.12979965498E+02 -0.18707421033E+03  0.20840264524E+03  0.90897931391E+02 0.  0.
          5    1    3    3  502    0 -0.55833147276E+02  0.32971804294E+02 -0.20964345544E+03  0.21948196058E+03  0.41800000000E+01 0. -1.
         -5    1    3    3    0  502  0.53835914522E+02 -0.19991838796E+02 -0.29804510445E+03  0.30355614966E+03  0.41800000000E+01 0. -1.
        -11    1    4    4    0    0 -0.22805352091E+02 -0.29389593519E+02 -0.17018228351E+03  0.17420057954E+03  0.00000000000E+00 0.  1.
         11    1    4    4    0    0  0.24802584845E+02  0.16409628021E+02 -0.16891926820E+02  0.34202065704E+02  0.00000000000E+00 0. -1.
</event>
<event>
 8    1  0.6840032E-009  0.3416638E+03  0.7561462E-02  0.1066089E+00
          1   -1    0    0  501    0  0.00000000000E+00  0.00000000000E+00  0.19345617326E+04  0.19345617326E+04  0.00000000000E+00 0. -1.
         -1   -1    0    0    0  501 -0.00000000000E+00 -0.00000000000E+00 -0.79872455091E+02  0.79872455091E+02  0.00000000000E+00 0.  1.
         25    2    1    2    0    0 -0.22070455324E+03  0.24254543140E+03  0.14172544371E+04  0.14600672170E+04  0.12508937847E+03 0.  0.
         23    2    1    2    0    0  0.22070455324E+03 -0.24254543140E+03  0.43743484044E+03  0.55436697071E+03  0.91840690724E+02 0.  0.
          5    1    3    3  502    0 -0.14822700028E+03  0.22361696634E+03  0.12168221583E+04  0.12460535416E+04  0.41800000000E+01 0.  1.
         -5    1    3    3    0  502 -0.72477552958E+02  0.18928465061E+02  0.20043227882E+03  0.21401367542E+03  0.41800000000E+01 0.  1.
        -11    1    4    4    0    0  0.14153783867E+03 -0.88888550197E+02  0.19913961455E+03  0.25998215365E+03  0.00000000000E+00 0. -1.
         11    1    4    4    0    0  0.79166714563E+02 -0.15365688120E+03  0.23829522589E+03  0.29438481706E+03  0.00000000000E+00 0.  1.
</event>
<event>
 8    1  0.6840032E-009  0.1191860E+03  0.7561462E-02  0.1244446E+00
         -2   -1    0    0    0  501 -0.00000000000E+00  0.00000000000E+00  0.15532843121E+03  0.15532843121E+03  0.00000000000E+00 0.  1.
          2   -1    0    0  501    0  0.00000000000E+00 -0.00000000000E+00 -0.20254122915E+03  0.20254122915E+03  0.00000000000E+00 0. -1.
         25    2    1    2    0    0 -0.42828688778E+02 -0.94773218363E+02 -0.12121133533E+03  0.20287197518E+03  0.12509432841E+03 0.  0.
         23    2    1    2    0    0  0.42828688778E+02  0.94773218363E+02  0.73998537388E+02  0.15499768518E+03  0.87933152870E+02 0.  0.
          5    1    3    3  502    0 -0.51970232863E+02 -0.51413786730E+02  0.55471379095E+00  0.73226106528E+02  0.41800000000E+01 0.  1.
         -5    1    3    3    0  502  0.91415440848E+01 -0.43359431632E+02 -0.12176604912E+03  0.12964586865E+03  0.41800000000E+01 0.  1.
        -11    1    4    4    0    0  0.36783180661E+02  0.13563419145E+02 -0.73561050496E+01  0.39888356696E+02  0.00000000000E+00 0.  1.
         11    1    4    4    0    0  0.60455081179E+01  0.81209799218E+02  0.81354642437E+02  0.11510932848E+03  0.00000000000E+00 0. -1.
</event>
<event>
 8    1  0.6840032E-009  0.1070834E+03  0.7561462E-02  0.1266068E+00
          1   -1    0    0  501    0  0.00000000000E+00  0.00000000000E+00  0.19477679576E+02  0.19477679576E+02  0.00000000000E+00 0. -1.
         -1   -1    0    0    0  501 -0.00000000000E+00 -0.00000000000E+00 -0.75498605308E+03  0.75498605308E+03  0.00000000000E+00 0.  1.
         25    2    1    2    0    0 -0.42709703812E+02  0.20548212749E+02 -0.51517409755E+03  0.53226333205E+03  0.12511417189E+03 0.  0.
         23    2    1    2    0    0  0.42709703812E+02 -0.20548212749E+02 -0.22033427595E+03  0.24220040061E+03  0.88698889779E+02 0.  0.
          5    1    3    3  502    0  0.32070790917E+02  0.24205731355E+02 -0.70019977107E+02  0.80837631425E+02  0.41800000000E+01 0.  1.
         -5    1    3    3    0  502 -0.74780494729E+02 -0.36575186057E+01 -0.44515412044E+03  0.45142570062E+03  0.41800000000E+01 0.  1.
        -11    1    4    4    0    0  0.64302835077E+02  0.59772212503E+01 -0.12120319605E+03  0.13733461510E+03  0.00000000000E+00 0. -1.
         11    1    4    4    0    0 -0.21593131265E+02 -0.26525433999E+02 -0.99131079907E+02  0.10486578551E+03  0.00000000000E+00 0.  1.
</event>
<event>
 8    1  0.6840032E-009  0.6275548E+02  0.7561462E-02  0.1386619E+00
         -2   -1    0    0    0  501 -0.00000000000E+00  0.00000000000E+00  0.53243092735E+02  0.53243092735E+02  0.00000000000E+00 0.  1.
          2   -1    0    0  501    0  0.00000000000E+00 -0.00000000000E+00 -0.26233434189E+03  0.26233434189E+03  0.00000000000E+00 0. -1.
         25    2    1    2    0    0  0.36254663796E+02  0.21346346282E+02 -0.88559117957E+02  0.15893548509E+03  0.12509078264E+03 0.  0.
         23    2    1    2    0    0 -0.36254663796E+02 -0.21346346282E+02 -0.12053213120E+03  0.15664194953E+03  0.90766946380E+02 0.  0.
          5    1    3    3  502    0 -0.48287779049E+01 -0.47938502839E-01 -0.10824431391E+03  0.10843257485E+03  0.41800000000E+01 0. -1.
         -5    1    3    3    0  502  0.41083441701E+02  0.21394284784E+02  0.19685195955E+02  0.50502910245E+02  0.41800000000E+01 0. -1.
        -11    1    4    4    0    0 -0.42763790185E+02 -0.36436506888E+02 -0.28205770917E+02  0.62864348387E+02  0.00000000000E+00 0.  1.
         11    1    4    4    0    0  0.65091263885E+01  0.15090160606E+02 -0.92326360283E+02  0.93777601145E+02  0.00000000000E+00 0. -1.
</event>
<event>
 8    1  0.6840032E-009  0.1077179E+03  0.7561462E-02  0.1264855E+00
          4   -1    0    0  501    0  0.00000000000E+00  0.00000000000E+00  0.14118991439E+03  0.14118991439E+03  0.00000000000E+00 0. -1.
         -4   -1    0    0    0  501 -0.00000000000E+00 -0.00000000000E+00 -0.95629706014E+02  0.95629706014E+02  0.00000000000E+00 0.  1.
         25    2    1    2    0    0 -0.87611556003E+01 -0.29036089178E+02  0.46855708995E+01  0.12880147135E+03  0.12509201464E+03 0.  0.
         23    2    1    2    0    0  0.87611556003E+01  0.29036089178E+02  0.40874637479E+02  0.10801814905E+03  0.95275034578E+02 0.  0.
          5    1    3    3  502    0  0.52180204091E+02 -0.10010197379E+02 -0.24286199261E+02  0.58568503695E+02  0.41800000000E+01 0.  1.
         -5    1    3    3    0  502 -0.60941359691E+02 -0.19025891799E+02  0.28971770161E+02  0.70232967658E+02  0.41800000000E+01 0.  1.
        -11    1    4    4    0    0  0.41263836150E+02 -0.14582012698E+02  0.28517492561E+02  0.52235875125E+02  0.00000000000E+00 0.  1.
         11    1    4    4    0    0 -0.32502680550E+02  0.43618101876E+02  0.12357144917E+02  0.55782273929E+02  0.00000000000E+00 0. -1.
</event>
<event>
 8    1  0.6840032E-009  0.7790049E+02  0.7561462E-02  0.1335117E+00
          1   -1    0    0  501    0  0.00000000000E+00  0.00000000000E+00  0.38370964730E+02  0.38370964730E+02  0.00000000000E+00 0. -1.
         -1   -1    0    0    0  501 -0.00000000000E+00 -0.00000000000E+00 -0.44679018364E+03  0.44679018364E+03  0.00000000000E+00 0.  1.
         25    2    1    2    0    0  0.51344516367E+02 -0.51847347018E+02 -0.20556030157E+03  0.25145307179E+03  0.12509677444E+03 0.  0.
         23    2    1    2    0    0 -0.51344516367E+02  0.51847347018E+02 -0.20285891733E+03  0.23370807658E+03  0.90240334458E+02 0.  0.
          5    1    3    3  502    0  0.46260574646E+01 -0.72756809722E+01  0.17089205498E+02  0.19592072015E+02  0.41800000000E+01 0.  1.
         -5    1    3    3    0  502  0.46718458902E+02 -0.44571666046E+02 -0.22264950707E+03  0.23186099977E+03  0.41800000000E+01 0.  1.
        -11    1    4    4    0    0 -0.94805518938E+01 -0.51543667214E+01  0.65878284392E+01  0.12643094718E+02  0.00000000000E+00 0. -1.
         11    1    4    4    0    0 -0.41863964473E+02  0.57001713739E+02 -0.20944674577E+03  0.22106498186E+03  0.00000000000E+00 0.  1.
</event>
<event>
 8    1  0.6840032E-009  0.1215270E+03  0.7561462E-02  0.1240599E+00
         -1   -1    0    0    0  501 -0.00000000000E+00  0.00000000000E+00  0.23012202780E+03  0.23012202780E+03  0.00000000000E+00 0.  1.
          1   -1    0    0  501    0  0.00000000000E+00 -0.00000000000E+00 -0.77781363427E+02  0.77781363427E+02  0.00000000000E+00 0. -1.
         25    2    1    2    0    0  0.50127820768E+01  0.73591859742E+02  0.55414281217E+02  0.15542377497E+03  0.12507964446E+03 0.  0.
         23    2    1    2    0    0 -0.50127820768E+01 -0.73591859742E+02  0.96926383157E+02  0.15247961626E+03  0.91730146721E+02 0.  0.
          5    1    3    3  502    0  0.63136802134E+02  0.54021205751E+02  0.25227790314E+02  0.86939405672E+02  0.41800000000E+01 0.  1.
         -5    1    3    3    0  502 -0.58124020057E+02  0.19570653991E+02  0.30186490903E+02  0.68484369299E+02  0.41800000000E+01 0.  1.
        -11    1    4    4    0    0 -0.33672465837E+02 -0.24886594845E+02  0.18936089539E+01  0.41913760430E+02  0.00000000000E+00 0. -1.
         11    1    4    4    0    0  0.28659683760E+02 -0.48705264898E+02  0.95032774203E+02  0.11056585583E+03  0.00000000000E+00 0.  1.
</event>
<event>
 8    1  0.6840032E-009  0.1771730E+03  0.7561462E-02  0.1170567E+00
         -2   -1    0    0    0  501 -0.00000000000E+00  0.00000000000E+00  0.38949769476E+02  0.38949769476E+02  0.00000000000E+00 0. -1.
          2   -1    0    0  501    0  0.00000000000E+00 -0.00000000000E+00 -0.10937544154E+04  0.10937544154E+04  0.00000000000E+00 0.  1.
         25    2    1    2    0    0  0.90762153371E+02 -0.11416720847E+03 -0.81636873255E+03  0.83867581675E+03  0.12508916077E+03 0.  0.
         23    2    1    2    0    0 -0.90762153371E+02  0.11416720847E+03 -0.23843591336E+03  0.29402836811E+03  0.91263774303E+02 0.  0.
          5    1    3    3  502    0 -0.20574498696E+02  0.30728350644E+01 -0.21133875098E+03  0.21240125324E+03  0.41800000000E+01 0.  1.
         -5    1    3    3    0  502  0.11133665207E+03 -0.11724004354E+03 -0.60502998157E+03  0.62627456351E+03  0.41800000000E+01 0.  1.
        -11    1    4    4    0    0  0.13854947941E+02  0.42186837528E+02 -0.50944290987E+02  0.67579653944E+02  0.00000000000E+00 0.  1.
         11    1    4    4    0    0 -0.10461710131E+03  0.71980370944E+02 -0.18749162237E+03  0.22644871417E+03  0.00000000000E+00 0. -1.
</event>
<event>
 8    1  0.6840032E-009  0.1320630E+03  0.7561462E-02  0.1224426E+00
         -1   -1    0    0    0  501 -0.00000000000E+00  0.00000000000E+00  0.28467274916E+02  0.28467274916E+02  0.00000000000E+00 0.  1.
          1   -1    0    0  501    0  0.00000000000E+00 -0.00000000000E+00 -0.79016072663E+03  0.79016072663E+03  0.00000000000E+00 0. -1.
         25    2    1    2    0    0  0.33887189143E+02  0.93381426371E+02 -0.48489670321E+03  0.51053389668E+03  0.12510641271E+03 0.  0.
         23    2    1    2    0    0 -0.33887189143E+02 -0.93381426371E+02 -0.27679674850E+03  0.30809410486E+03  0.91853715703E+02 0.  0.
          5    1    3    3  502    0 -0.15355624115E+01 -0.30320335044E+02 -0.80337250245E+02  0.85983875500E+02  0.41800000000E+01 0. -1.
         -5    1    3    3    0  502  0.35422751554E+02  0.12370176142E+03 -0.40455945296E+03  0.42455002118E+03  0.41800000000E+01 0. -1.
        -11    1    4    4    0    0 -0.27833256885E+02 -0.29449941588E+02 -0.23626454306E+02  0.46906274542E+02  0.00000000000E+00 0.  1.
         11    1    4    4    0    0 -0.60539322576E+01 -0.63931484783E+02 -0.25317029420E+03  0.26118783032E+03  0.00000000000E+00 0. -1.
</event>
<event>
 8    1  0.6840032E-009  0.1423503E+03  0.7561462E-02  0.1210201E+00
         -4   -1    0    0    0  501 -0.00000000000E+00  0.00000000000E+00  0.20063488348E+03  0.20063488348E+03  0.00000000000E+00 0. -1.
          4   -1    0    0  501    0  0.00000000000E+00 -0.00000000000E+00 -0.12078164519E+03  0.12078164519E+03  0.00000000000E+00 0.  1.
         25    2    1    2    0    0  0.18947698377E+02  0.11021752565E+03  0.42608882271E+02  0.17311760209E+03  0.12508904457E+03 0.  0.
         23    2    1    2    0    0 -0.18947698377E+02 -0.11021752565E+03  0.37244356013E+02  0.14829892659E+03  0.89991729277E+02 0.  0.
          5    1    3    3  502    0 -0.50910591002E+02  0.44392867473E+02 -0.82229482905E+00  0.67681338103E+02  0.41800000000E+01 0.  1.
         -5    1    3    3    0  502  0.69858289380E+02  0.65824658174E+02  0.43431177100E+02  0.10543626398E+03  0.41800000000E+01 0.  1.
        -11    1    4    4    0    0 -0.29923816846E+02 -0.40408672739E+02 -0.23136263840E+02  0.55349637322E+02  0.00000000000E+00 0.  1.
         11    1    4    4    0    0  0.10976118468E+02 -0.69808852908E+02  0.60380619853E+02  0.92949289264E+02  0.00000000000E+00 0. -1.
</event>
<event>
 8    1  0.6840032E-009  0.1513857E+03  0.7561462E-02  0.1198781E+00
         -4   -1    0    0    0  501 -0.00000000000E+00  0.00000000000E+00  0.11941018782E+03  0.11941018782E+03  0.00000000000E+00 0.  1.
          4   -1    0    0  501    0  0.00000000000E+00 -0.00000000000E+00 -0.26427090537E+03  0.26427090537E+03  0.00000000000E+00 0. -1.
         25    2    1    2    0    0  0.12667272598E+03  0.42319094730E+02 -0.12875207491E+03  0.22376144707E+03  0.12512075413E+03 0.  0.
         23    2    1    2    0    0 -0.12667272598E+03 -0.42319094730E+02 -0.16108642638E+02  0.15991964613E+03  0.86474964954E+02 0.  0.
          5    1    3    3  502    0  0.12522914607E+03  0.61548633607E+02 -0.59495654964E+02  0.15174906485E+03  0.41800000000E+01 0. -1.
         -5    1    3    3    0  502  0.14435799094E+01 -0.19229538877E+02 -0.69256419948E+02  0.72012382216E+02  0.41800000000E+01 0. -1.
        -11    1    4    4    0    0 -0.10585422731E+03 -0.11818466501E+02  0.19884531180E+02  0.10835214889E+03  0.00000000000E+00 0.  1.
         11    1    4    4    0    0 -0.20818498668E+02 -0.30500628229E+02 -0.35993173818E+02  0.51567497231E+02  0.00000000000E+00 0. -1.
</event>
<event>
 8    1  0.6840032E-009  0.1073328E+03  0.7561462E-02  0.1265590E+00
         -4   -1    0    0    0  501 -0.00000000000E+00  0.00000000000E+00  0.95622633161E+02  0.95622633161E+02  0.00000000000E+00 0. -1.
          4   -1    0    0  501    0  0.00000000000E+00 -0.00000000000E+00 -0.19060803189E+03  0.19060803189E+03  0.00000000000E+00 0.  1.
         25    2    1    2    0    0 -0.67506250216E+02  0.40876270885E+02 -0.36451491038E+02  0.15233053707E+03  0.12509163835E+03 0.  0.
         23    2    1    2    0    0  0.67506250216E+02 -0.40876270885E+02 -0.58533907691E+02  0.13390012798E+03  0.90967370988E+02 0.  0.
          5    1    3    3  502    0 -0.54240315530E+02 -0.30923966468E+02 -0.47238327442E+02  0.78404307984E+02  0.41800000000E+01 0. -1.
         -5    1    3    3    0  502 -0.13265934686E+02  0.71800237353E+02  0.10786836404E+02  0.73926229084E+02  0.41800000000E+01 0. -1.
        -11    1    4    4    0    0  0.49028113976E+02 -0.30935230852E+02 -0.83270585525E+02  0.10146297296E+03  0.00000000000E+00 0.  1.
         11    1    4    4    0    0  0.18478136240E+02 -0.99410400335E+01  0.24736677834E+02  0.32437155025E+02  0.00000000000E+00 0. -1.
</event>
<event>
 8    1  0.6840032E-009  0.1226025E+03  0.7561462E-02  0.1238864E+00
          2   -1    0    0  501    0  0.00000000000E+00  0.00000000000E+00  0.20146873229E+04  0.20146873229E+04  0.00000000000E+00 0. -1.
         -2   -1    0    0    0  501 -0.00000000000E+00 -0.00000000000E+00 -0.15833243615E+02  0.15833243615E+02  0.00000000000E+00 0.  1.
         25    2    1    2    0    0 -0.47650857179E+02 -0.25058992851E+02  0.17822149912E+04  0.17874106565E+04  0.12509205683E+03 0.  0.
         23    2    1    2    0    0  0.47650857179E+02  0.25058992851E+02  0.21663908810E+03  0.24310991006E+03  0.96287987650E+02 0.  0.
          5    1    3    3  502    0 -0.87171666167E+02  0.32623607897E+01  0.11670035099E+04  0.11702667247E+04  0.41800000000E+01 0.  1.
         -5    1    3    3    0  502  0.39520808987E+02 -0.28321353641E+02  0.61521148132E+03  0.61714393181E+03  0.41800000000E+01 0.  1.
        -11    1    4    4    0    0  0.60257815136E+00  0.53889515667E+02  0.88858815440E+02  0.10392464617E+03  0.00000000000E+00 0.  1.
         11    1    4    4    0    0  0.47048279028E+02 -0.28830522815E+02  0.12778027266E+03  0.13918526390E+03  0.00000000000E+00 0. -1.
</event>
<event>
 8    1  0.6840032E-009  0.1132885E+03  0.7561462E-02  0.1254598E+00
         -1   -1    0    0    0  501 -0.00000000000E+00  0.00000000000E+00  0.27612898038E+02  0.27612898038E+02  0.00000000000E+00 0.  1.
          1   -1    0    0  501    0  0.00000000000E+00 -0.00000000000E+00 -0.47595070713E+03  0.47595070713E+03  0.00000000000E+00 0. -1.
         25    2    1    2    0    0 -0.92079807445E+01 -0.35814220111E+02 -0.27992154848E+03  0.30882041825E+03  0.12508609896E+03 0.  0.
         23    2    1    2    0    0  0.92079807445E+01  0.35814220111E+02 -0.16841626061E+03  0.19474318692E+03  0.90517549353E+02 0.  0.
          5    1    3    3  502    0 -0.41421910199E+02 -0.71037442919E+02 -0.18475531490E+03  0.20227232071E+03  0.41800000000E+01 0. -1.
         -5    1    3    3    0  502  0.32213929454E+02  0.35223222809E+02 -0.95166233574E+02  0.10654809754E+03  0.41800000000E+01 0. -1.
        -11    1    4    4    0    0  0.19254132863E+02  0.63772186360E+02 -0.13102293089E+03  0.14698510743E+03  0.00000000000E+00 0. -1.
         11    1    4    4    0    0 -0.10046152118E+02 -0.27957966249E+02 -0.37393329718E+02  0.47758079490E+02  0.00000000000E+00 0.  1.
</event>
<event>
 8    1  0.6840032E-009  0.1039469E+03  0.7561462E-02  0.1272208E+00
         -1   -1    0    0    0  501 -0.00000000000E+00  0.00000000000E+00  0.38194133799E+02  0.38194133799E+02  0.00000000000E+00 0.  1.
          1   -1    0    0  501    0  0.00000000000E+00 -0.00000000000E+00 -0.53973685481E+03  0.53973685481E+03  0.00000000000E+00 0. -1.
         25    2    1    2    0    0 -0.10975805377E+01 -0.87276641797E+02 -0.32910782720E+03  0.36273636090E+03  0.12508912307E+03 0.  0.
         23    2    1    2    0    0  0.10975805377E+01  0.87276641797E+02 -0.17243489382E+03  0.21519462771E+03  0.94638883681E+02 0.  0.
          5    1    3    3  502    0 -0.82308451644E+00 -0.61362978904E+02 -0.33076331714E+03  0.33643414959E+03  0.41800000000E+01 0.  1.
         -5    1    3    3    0  502 -0.27449602125E+00 -0.25913662893E+02  0.16554899437E+01  0.26302211305E+02  0.41800000000E+01 0.  1.
        -11    1    4    4    0    0  0.37650542614E+02  0.70478963272E+02 -0.74206079794E+02  0.10904764968E+03  0.00000000000E+00 0.  1.
         11    1    4    4    0    0 -0.36552962076E+02  0.16797678525E+02 -0.98228814026E+02  0.10614697803E+03  0.00000000000E+00 0. -1.
</event>
<event>
 8    1  0.6840032E-009  0.1416530E+03  0.7561462E-02  0.1211122E+00
         -2   -1    0    0    0  501 -0.00000000000E+00  0.00000000000E+00  0.24478893184E+03  0.24478893184E+03  0.00000000000E+00 0.  1.
          2   -1    0    0  501    0  0.00000000000E+00 -0.00000000000E+00 -0.10231357469E+03  0.10231357469E+03  0.00000000000E+00 0. -1.
         25    2    1    2    0    0 -0.16632738841E+02 -0.11583260998E+03  0.71603115968E+02  0.18565641455E+03  0.12508979378E+03 0.  0.
         23    2    1    2    0    0  0.16632738841E+02  0.11583260998E+03  0.70872241190E+02  0.16144609199E+03  0.85721202217E+02 0.  0.
          5    1    3    3  502    0  0.80363739449E+01  0.21889270006E+02  0.32691370790E+02  0.40372287174E+02  0.41800000000E+01 0.  1.
         -5    1    3    3    0  502 -0.24669112786E+02 -0.13772187999E+03  0.38911745178E+02  0.14528412737E+03  0.41800000000E+01 0.  1.
        -11    1    4    4    0    0 -0.27978541774E+01  0.67361781286E+02  0.83893312750E+02  0.10762678798E+03  0.00000000000E+00 0.  1.
         11    1    4    4    0    0  0.19430593019E+02  0.48470828696E+02 -0.13021071559E+02  0.53819304009E+02  0.00000000000E+00 0. -1.
</event>
<event>
 8    1  0.6840032E-009  0.8957177E+02  0.7561462E-02  0.1303892E+00
         -1   -1    0    0    0  501 -0.00000000000E+00  0.00000000000E+00  0.49819459626E+03  0.49819459626E+03  0.00000000000E+00 0.  1.
          1   -1    0    0  501    0  0.00000000000E+00 -0.00000000000E+00 -0.24270308958E+02  0.24270308958E+02  0.00000000000E+00 0. -1.
         25    2    1    2    0    0 -0.31724576068E+01 -0.81781272904E+01  0.31237292353E+03  0.33660371025E+03  0.12509303796E+03 0.  0.
         23    2    1    2    0    0  0.31724576068E+01  0.81781272904E+01  0.16155136377E+03  0.18586119496E+03  0.91480021887E+02 0.  0.
          5    1    3    3  502    0  0.44780597282E+01 -0.66037131348E+02  0.18182998761E+03  0.19354733924E+03  0.41800000000E+01 0.  1.
         -5    1    3    3    0  502 -0.76505173350E+01  0.57859004057E+02  0.13054293592E+03  0.14305637101E+03  0.41800000000E+01 0.  1.
        -11    1    4    4    0    0  0.26828216009E+02 -0.49128909657E+01  0.15586486808E+03  0.15823320376E+03  0.00000000000E+00 0.  1.
         11    1    4    4    0    0 -0.23655758402E+02  0.13091018256E+02  0.56864956906E+01  0.27627991201E+02  0.00000000000E+00 0. -1.
</event>
<event>
 8    1  0.6840032E-009  0.9261871E+02  0.7561462E-02  0.1296631E+00
          4   -1    0    0  501    0  0.00000000000E+00  0.00000000000E+00  0.16732004460E+03  0.16732004460E+03  0.00000000000E+00 0. -1.
         -4   -1    0    0    0  501 -0.00000000000E+00 -0.00000000000E+00 -0.13807612588E+03  0.13807612588E+03  0.00000000000E+00 0.  1.
         25    2    1    2    0    0  0.18434203807E+01  0.81895644967E+02 -0.52971002039E+02  0.15863988055E+03  0.12510151790E+03 0.  0.
         23    2    1    2    0    0 -0.18434203807E+01 -0.81895644967E+02  0.82214920757E+02  0.14675628993E+03  0.89821047511E+02 0.  0.
          5    1    3    3  502    0 -0.31841364176E+00  0.51382168039E+02  0.37040947740E+02  0.63480176347E+02  0.41800000000E+01 0.  1.
         -5    1    3    3    0  502  0.21618340225E+01  0.30513476928E+02 -0.90011949779E+02  0.95159704201E+02  0.41800000000E+01 0.  1.
        -11    1    4    4    0    0 -0.23240521530E+02 -0.77574779209E+02  0.23815632197E+02  0.84410618688E+02  0.00000000000E+00 0.  1.
         11    1    4    4    0    0  0.21397101149E+02 -0.43208657576E+01  0.58399288560E+02  0.62345671243E+02  0.00000000000E+00 0. -1.
</event>
<event>
 8    1  0.6840032E-009  0.1883770E+03  0.7561462E-02  0.1159933E+00
         -1   -1    0    0    0  501 -0.00000000000E+00  0.00000000000E+00  0.39873650190E+02  0.39873650190E+02  0.00000000000E+00 0.  1.
          1   -1    0    0  501    0  0.00000000000E+00 -0.00000000000E+00 -0.11916702878E+04  0.11916702878E+04  0.00000000000E+00 0. -1.
         25    2    1    2    0    0 -0.14972649414E+03  0.11410747286E+03 -0.60184717323E+03  0.64288751661E+03  0.12508317502E+03 0.  0.
         23    2    1    2    0    0  0.14972649414E+03 -0.11410747286E+03 -0.54994946442E+03  0.58865642142E+03  0.92916256156E+02 0.  0.
          5    1    3    3  502    0 -0.63615117949E+02  0.51482385739E+02 -0.97290310634E+02  0.12720140021E+03  0.41800000000E+01 0. -1.
         -5    1    3    3    0  502 -0.86111376194E+02  0.62625087117E+02 -0.50455686260E+03  0.51568611639E+03  0.41800000000E+01 0. -1.
        -11    1    4    4    0    0  0.58708728859E+02 -0.44327356639E+02 -0.98929495872E+02  0.12328290451E+03  0.00000000000E+00 0.  1.
         11    1    4    4    0    0  0.91017765284E+02 -0.69780116218E+02 -0.45101996855E+03  0.46537351691E+03  0.00000000000E+00 0. -1.
</event>
<event>
 8    1  0.6840032E-009  0.1076716E+03  0.7561462E-02  0.1264943E+00
         -3   -1    0    0    0  501 -0.00000000000E+00  0.00000000000E+00  0.29855480922E+03  0.29855480922E+03  0.00000000000E+00 0.  1.
          3   -1    0    0  501    0  0.00000000000E+00 -0.00000000000E+00 -0.59890742343E+02  0.59890742343E+02  0.00000000000E+00 0. -1.
         25    2    1    2    0    0 -0.10855126351E+02 -0.26311112851E+02  0.21796779386E+03  0.25293354062E+03  0.12512117480E+03 0.  0.
         23    2    1    2    0    0  0.10855126351E+02  0.26311112851E+02  0.20696273016E+02  0.10551201094E+03  0.99470298624E+02 0.  0.
          5    1    3    3  502    0 -0.10051783006E+02  0.48008802507E+02  0.55271279241E+02  0.74015337388E+02  0.41800000000E+01 0.  1.
         -5    1    3    3    0  502 -0.80334334508E+00 -0.74319915358E+02  0.16269651462E+03  0.17891820324E+03  0.41800000000E+01 0.  1.
        -11    1    4    4    0    0  0.20287795177E+01  0.58378665197E+02  0.36299524772E+02  0.68773832198E+02  0.00000000000E+00 0.  1.
         11    1    4    4    0    0  0.88263468332E+01 -0.32067552346E+02 -0.15603251756E+02  0.36738178742E+02  0.00000000000E+00 0. -1.
</event>
<event>
 8    1  0.6840032E-009  0.1941686E+03  0.7561462E-02  0.1154754E+00
          1   -1    0    0  501    0  0.00000000000E+00  0.00000000000E+00  0.21899993890E+04  0.21899993890E+04  0.00000000000E+00 0. -1.
         -1   -1    0    0    0  501 -0.00000000000E+00 -0.00000000000E+00 -0.21110074622E+02  0.21110074622E+02  0.00000000000E+00 0.  1.
         25    2    1    2    0    0  0.13274021233E+03 -0.12451551345E+03  0.12648137325E+04  0.12839486035E+04  0.12508461699E+03 0.  0.
         23    2    1    2    0    0 -0.13274021233E+03  0.12451551345E+03  0.90407558183E+03  0.92716086009E+03  0.95658380510E+02 0.  0.
          5    1    3    3  502    0  0.42095476776E+02 -0.25206452891E+02  0.10077570717E+03  0.11216331837E+03  0.41800000000E+01 0. -1.
         -5    1    3    3    0  502  0.90644735558E+02 -0.99309060559E+02  0.11640380253E+04  0.11717852851E+04  0.41800000000E+01 0. -1.
        -11    1    4    4    0    0 -0.11627119550E+03  0.47140789889E+02  0.59871696410E+03  0.61172154456E+03  0.00000000000E+00 0.  1.
         11    1    4    4    0    0 -0.16469016830E+02  0.77374723560E+02  0.30535861773E+03  0.31543931553E+03  0.00000000000E+00 0. -1.
</event>
<event>
 8    1  0.6840032E-009  0.9469111E+02  0.7561462E-02  0.1291873E+00
         -3   -1    0    0    0  501 -0.00000000000E+00  0.00000000000E+00  0.10795350867E+03  0.10795350867E+03  0.00000000000E+00 0.  1.
          3   -1    0    0  501    0  0.00000000000E+00 -0.00000000000E+00 -0.11393408550E+03  0.11393408550E+03  0.00000000000E+00 0. -1.
         25    2    1    2    0    0  0.68990139175E+01 -0.18623592887E+02  0.10660051392E+02  0.12710519439E+03  0.12509060372E+03 0.  0.
         23    2    1    2    0    0 -0.68990139175E+01  0.18623592887E+02 -0.16640628221E+02  0.94782399784E+02  0.91172134976E+02 0.  0.
          5    1    3    3  502    0 -0.22393999357E+02 -0.58550278814E+02 -0.23197475947E+02  0.66971797398E+02  0.41800000000E+01 0. -1.
         -5    1    3    3    0  502  0.29293013275E+02  0.39926685927E+02  0.33857527339E+02  0.60133396988E+02  0.41800000000E+01 0. -1.
        -11    1    4    4    0    0 -0.40421952744E+02  0.15109805680E+02 -0.35747658943E+02  0.56036912935E+02  0.00000000000E+00 0. -1.
         11    1    4    4    0    0  0.33522938827E+02  0.35137872072E+01  0.19107030722E+02  0.38745486849E+02  0.00000000000E+00 0.  1.
</event>
<event>
 8    1  0.6840032E-009  0.9063337E+02  0.7561462E-02  0.1301325E+00
         -2   -1    0    0    0  501 -0.00000000000E+00  0.00000000000E+00  0.27181577562E+02  0.27181577562E+02  0.00000000000E+00 0.  1.
          2   -1    0    0  501    0  0.00000000000E+00 -0.00000000000E+00 -0.52308434758E+03  0.52308434758E+03  0.00000000000E+00 0. -1.
         25    2    1    2    0    0  0.31180374033E+02  0.14140067484E+02 -0.19840709873E+03  0.23703352628E+03  0.12508940211E+03 0.  0.
         23    2    1    2    0    0 -0.31180374033E+02 -0.14140067484E+02 -0.29749567130E+03  0.31323239887E+03  0.91862419020E+02 0.  0.
          5    1    3    3  502    0 -0.22219586144E+02 -0.17476795441E+02 -0.16295336782E+03  0.16544008242E+03  0.41800000000E+01 0. -1.
         -5    1    3    3    0  502  0.53399960177E+02  0.31616862925E+02 -0.35453730905E+02  0.71593443857E+02  0.41800000000E+01 0. -1.
        -11    1    4    4    0    0 -0.67460231306E+01 -0.48146682255E+02 -0.98088008493E+02  0.10947542761E+03  0.00000000000E+00 0.  1.
         11    1    4    4    0    0 -0.24434350903E+02  0.34006614771E+02 -0.19940766280E+03  0.20375697126E+03  0.00000000000E+00 0. -1.
</event>
<event>
 8    1  0.6840032E-009  0.1024636E+03  0.7561462E-02  0.1275199E+00
          1   -1    0    0  501    0  0.00000000000E+00  0.00000000000E+00  0.19459202176E+04  0.19459202176E+04  0.00000000000E+00 0. -1.
         -1   -1    0    0    0  501 -0.00000000000E+00 -0.00000000000E+00 -0.91135463758E+01  0.91135463758E+01  0.00000000000E+00 0.  1.
         25    2    1    2    0    0 -0.19823329956E+02  0.16266986330E+02  0.16185288245E+04  0.16235575446E+04  0.12508383538E+03 0.  0.
         23    2    1    2    0    0  0.19823329956E+02 -0.16266986330E+02  0.31827784679E+03  0.33147621937E+03  0.88983801868E+02 0.  0.
          5    1    3    3  502    0 -0.59845274747E+02  0.39083910374E+02  0.65141876671E+03  0.65534181233E+03  0.41800000000E+01 0. -1.
         -5    1    3    3    0  502  0.40021944791E+02 -0.22816924044E+02  0.96711005775E+03  0.96821573231E+03  0.41800000000E+01 0. -1.
        -11    1    4    4    0    0 -0.24063579379E+01 -0.48145409585E+02  0.11807641333E+03  0.12753748629E+03  0.00000000000E+00 0. -1.
         11    1    4    4    0    0  0.22229687894E+02  0.31878423255E+02  0.20020143346E+03  0.20393873309E+03  0.00000000000E+00 0.  1.
</event>
<event>
 8    1  0.6840032E-009  0.5661669E+02  0.7561462E-02  0.1412605E+00
          4   -1    0    0  501    0  0.00000000000E+00  0.00000000000E+00  0.49278566905E+02  0.49278566905E+02  0.00000000000E+00 0. -1.
         -4   -1    0    0    0  501 -0.00000000000E+00 -0.00000000000E+00 -0.34678303639E+03  0.34678303639E+03  0.00000000000E+00 0.  1.
         25    2    1    2    0    0 -0.11179673330E+02 -0.88316579862E+01 -0.57096717095E+02  0.13824257292E+03  0.12509192855E+03 0.  0.
         23    2    1    2    0    0  0.11179673330E+02  0.88316579862E+01 -0.24040775239E+03  0.25781903037E+03  0.92042282316E+02 0.  0.
          5    1    3    3  502    0 -0.38644073654E+00  0.80367243482E+01 -0.94860920808E+02  0.95293257743E+02  0.41800000000E+01 0. -1.
         -5    1    3    3    0  502 -0.10793232594E+02 -0.16868382334E+02  0.37764203714E+02  0.42949315181E+02  0.41800000000E+01 0. -1.
        -11    1    4    4    0    0  0.89571863535E+01 -0.36875470579E+02 -0.54820321138E+02  0.66673076481E+02  0.00000000000E+00 0. -1.
         11    1    4    4    0    0  0.22224869767E+01  0.45707128565E+02 -0.18558743125E+03  0.19114595389E+03  0.00000000000E+00 0.  1.
</event>
<event>
 7    1  0.6840032E-009  0.1426252E+03  0.7561462E-02  0.1209840E+00
          1   -1    0    0  501    0  0.00000000000E+00  0.00000000000E+00  0.45016539344E+03  0.45016539344E+03  0.00000000000E+00 0. -1.
         -1   -1    0    0    0  501 -0.00000000000E+00 -0.00000000000E+00 -0.50904465733E+02  0.50904465733E+02  0.00000000000E+00 0.  1.
         23    2    1    2    0    0 -0.74170953855E+02 -0.74703965925E+02  0.18068288434E+03  0.22804006048E+03  0.90961264120E+02 0.  0.
          5    1    1    2  502    0  0.10864118658E+03  0.44156402661E+02  0.15861517803E+03  0.19730418754E+03  0.41800000000E+01 0. -1.
         -5    1    1    2    0  502 -0.34470232725E+02  0.30547563264E+02  0.59962865331E+02  0.75725611151E+02  0.41800000000E+01 0. -1.
        -11    1    3    3    0    0 -0.63429369302E+02 -0.85478848884E+02  0.10037837295E+03  0.14630699318E+03  0.00000000000E+00 0.  1.
         11    1    3    3    0    0 -0.10741584553E+02  0.10774882959E+02  0.80304511385E+02  0.81733067300E+02  0.00000000000E+00 0. -1.
</event>
<event>
 8    1  0.6840032E-009  0.1740499E+03  0.7561462E-02  0.1173689E+00
         -1   -1    0    0    0  501 -0.00000000000E+00  0.00000000000E+00  0.29425001872E+02  0.29425001872E+02  0.00000000000E+00 0.  1.
          1   -1    0    0  501    0  0.00000000000E+00 -0.00000000000E+00 -0.14582901138E+04  0.14582901138E+04  0.00000000000E+00 0. -1.
         25    2    1    2    0    0 -0.16052875906E+03  0.20868845862E+02 -0.99663843140E+03  0.10174241133E+04  0.12513461654E+03 0.  0.
         23    2    1    2    0    0  0.16052875906E+03 -0.20868845862E+02 -0.43222668055E+03  0.47029100235E+03  0.90270329006E+02 0.  0.
          5    1    3    3  502    0 -0.21044805023E+02  0.82736198485E+01 -0.52276103845E+03  0.52326657864E+03  0.41800000000E+01 0.  1.
         -5    1    3    3    0  502 -0.13948395404E+03  0.12595226014E+02 -0.47387739295E+03  0.49415753471E+03  0.41800000000E+01 0.  1.
        -11    1    4    4    0    0  0.51016715835E+02 -0.50246676345E+02 -0.18171504899E+03  0.19531459957E+03  0.00000000000E+00 0.  1.
         11    1    4    4    0    0  0.10951204323E+03  0.29377830483E+02 -0.25051163157E+03  0.27497640278E+03  0.00000000000E+00 0. -1.
</event>
<event>
 8    1  0.6840032E-009  0.1090584E+03  0.7561462E-02  0.1262324E+00
         -4   -1    0    0    0  501 -0.00000000000E+00  0.00000000000E+00  0.37510895681E+02  0.37510895681E+02  0.00000000000E+00 0.  1.
          4   -1    0    0  501    0  0.00000000000E+00 -0.00000000000E+00 -0.57562304425E+03  0.57562304425E+03  0.00000000000E+00 0. -1.
         25    2    1    2    0    0  0.31382367846E+02 -0.53121240508E+02 -0.13270133719E+03  0.19251788083E+03  0.12508705106E+03 0.  0.
         23    2    1    2    0    0 -0.31382367846E+02  0.53121240508E+02 -0.40541081138E+03  0.42061605910E+03  0.93558666016E+02 0.  0.
          5    1    3    3  502    0 -0.37742340686E+02 -0.22333015667E+02 -0.10133531924E+03  0.11049691034E+03  0.41800000000E+01 0. -1.
         -5    1    3    3    0  502  0.69124708532E+02 -0.30788224841E+02 -0.31366017954E+02  0.82020970494E+02  0.41800000000E+01 0. -1.
        -11    1    4    4    0    0  0.11060904489E+02  0.54696833417E+02 -0.32421743638E+03  0.32898485261E+03  0.00000000000E+00 0. -1.
         11    1    4    4    0    0 -0.42443272334E+02 -0.15755929093E+01 -0.81193375002E+02  0.91631206495E+02  0.00000000000E+00 0.  1.
</event>
<event>
 8    1  0.6840032E-009  0.1263559E+03  0.7561462E-02  0.1232965E+00
          3   -1    0    0  501    0  0.00000000000E+00  0.00000000000E+00  0.46348965997E+03  0.46348965997E+03  0.00000000000E+00 0. -1.
         -3   -1    0    0    0  501 -0.00000000000E+00 -0.00000000000E+00 -0.45625390670E+02  0.45625390670E+02  0.00000000000E+00 0.  1.
         25    2    1    2    0    0 -0.88619187841E+02  0.34699528015E+02  0.25552903244E+03  0.30000155655E+03  0.12509368415E+03 0.  0.
         23    2    1    2    0    0  0.88619187841E+02 -0.34699528015E+02  0.16233523685E+03  0.20911349408E+03  0.91204750895E+02 0.  0.
          5    1    3    3  502    0 -0.12024267196E+03  0.25777823326E+02  0.18644642794E+03  0.22338876253E+03  0.41800000000E+01 0. -1.
         -5    1    3    3    0  502  0.31623484118E+02  0.89217046888E+01  0.69082604504E+02  0.76612794019E+02  0.41800000000E+01 0. -1.
        -11    1    4    4    0    0  0.14530983027E+02 -0.12590022705E+02 -0.89342629064E+01  0.21200924346E+02  0.00000000000E+00 0.  1.
         11    1    4    4    0    0  0.74088204814E+02 -0.22109505310E+02  0.17126949976E+03  0.18791256974E+03  0.00000000000E+00 0. -1.
</event>
<event>
 8    1  0.6840032E-009  0.1094651E+03  0.7561462E-02  0.1261564E+00
          1   -1    0    0  501    0  0.00000000000E+00  0.00000000000E+00  0.21926576322E+02  0.21926576322E+02  0.00000000000E+00 0. -1.
         -1   -1    0    0    0  501 -0.00000000000E+00 -0.00000000000E+00 -0.57471169857E+03  0.57471169857E+03  0.00000000000E+00 0.  1.
         25    2    1    2    0    0  0.28001155730E+02  0.11743922652E+02 -0.28216686652E+03  0.31013991249E+03  0.12508653131E+03 0.  0.
         23    2    1    2    0    0 -0.28001155730E+02 -0.11743922652E+02 -0.27061825573E+03  0.28649836240E+03  0.89022957062E+02 0.  0.
          5    1    3    3  502    0 -0.45572463470E+02  0.21457751163E+02 -0.15276223971E+03  0.16090698802E+03  0.41800000000E+01 0.  1.
         -5    1    3    3    0  502  0.73573619201E+02 -0.97138285115E+01 -0.12940462681E+03  0.14923292447E+03  0.41800000000E+01 0.  1.
        -11    1    4    4    0    0 -0.60654563138E+02 -0.83461208684E+01 -0.17726118067E+03  0.18753708949E+03  0.00000000000E+00 0.  1.
         11    1    4    4    0    0  0.32653407408E+02 -0.33978017832E+01 -0.93357075061E+02  0.98961272911E+02  0.00000000000E+00 0. -1.
</event>
<event>
 8    1  0.6840032E-009  0.1433438E+03  0.7561462E-02  0.1208899E+00
         -2   -1    0    0    0  501 -0.00000000000E+00  0.00000000000E+00  0.13437508407E+02  0.13437508407E+02  0.00000000000E+00 0.  1.
          2   -1    0    0  501    0  0.00000000000E+00 -0.00000000000E+00 -0.16871001263E+04  0.16871001263E+04  0.00000000000E+00 0. -1.
         25    2    1    2    0    0 -0.40982472119E+02 -0.94916909487E+02 -0.95486523314E+03  0.96855589034E+03  0.12507644279E+03 0.  0.
         23    2    1    2    0    0  0.40982472119E+02  0.94916909487E+02 -0.71879738481E+03  0.73198174441E+03  0.91863001367E+02 0.  0.
          5    1    3    3  502    0  0.32888467604E+02 -0.55831645678E+02 -0.62012196842E+03  0.62351227099E+03  0.41800000000E+01 0.  1.
         -5    1    3    3    0  502 -0.73870939723E+02 -0.39085263809E+02 -0.33474326471E+03  0.34504361935E+03  0.41800000000E+01 0.  1.
        -11    1    4    4    0    0  0.63951352796E+02  0.32848676443E+02 -0.35331046861E+03  0.36055110358E+03  0.00000000000E+00 0. -1.
         11    1    4    4    0    0 -0.22968880677E+02  0.62068233044E+02 -0.36548691620E+03  0.37143064083E+03  0.00000000000E+00 0.  1.
</event>
<event>
 8    1  0.6840032E-009  0.1182702E+03  0.7561462E-02  0.1245978E+00
          2   -1    0    0  501    0  0.00000000000E+00  0.00000000000E+00  0.62336701225E+03  0.62336701225E+03  0.00000000000E+00 0. -1.
         -2   -1    0    0    0  501 -0.00000000000E+00 -0.00000000000E+00 -0.33238921428E+02  0.33238921428E+02  0.00000000000E+00 0.  1.
         25    2    1    2    0    0 -0.29726675288E+02 -0.60231792908E+02  0.46888924362E+03  0.48991408326E+03  0.12508853701E+03 0.  0.
         23    2    1    2    0    0  0.29726675288E+02  0.60231792908E+02  0.12123884720E+03  0.16669185042E+03  0.92605457859E+02 0.  0.
          5    1    3    3  502    0  0.12255270040E+02 -0.85580501315E+02  0.36251768541E+03  0.37270733624E+03  0.41800000000E+01 0. -1.
         -5    1    3    3    0  502 -0.41981945328E+02  0.25348708407E+02  0.10637155821E+03  0.11720674702E+03  0.41800000000E+01 0. -1.
        -11    1    4    4    0    0 -0.25300649827E+02  0.24067748364E+02  0.84173616953E+02  0.91129452890E+02  0.00000000000E+00 0. -1.
         11    1    4    4    0    0  0.55027325115E+02  0.36164044544E+02  0.37065230246E+02  0.75562397529E+02  0.00000000000E+00 0.  1.
</event>
<event>
 8    1  0.6840032E-009  0.1074397E+03  0.7561462E-02  0.1265386E+00
         -2   -1    0    0    0  501 -0.00000000000E+00  0.00000000000E+00  0.24131149524E+02  0.24131149524E+02  0.00000000000E+00 0.  1.
          2   -1    0    0  501    0  0.00000000000E+00 -0.00000000000E+00 -0.71073418491E+03  0.71073418491E+03  0.00000000000E+00 0. -1.
         25    2    1    2    0    0  0.25465439669E+01  0.40837901238E+01 -0.57833368351E+03  0.59172687370E+03  0.12509069249E+03 0.  0.
         23    2    1    2    0    0 -0.25465439669E+01 -0.40837901238E+01 -0.10826935187E+03  0.14313846073E+03  0.93505102310E+02 0.  0.
          5    1    3    3  502    0 -0.56402197618E+02 -0.20367530871E+02 -0.31975633546E+03  0.32535769650E+03  0.41800000000E+01 0.  1.
         -5    1    3    3    0  502  0.58948741585E+02  0.24451320995E+02 -0.25857734806E+03  0.26636917720E+03  0.41800000000E+01 0.  1.
        -11    1    4    4    0    0  0.42942746968E+02 -0.12114084510E+02 -0.70674715986E+02  0.83580775543E+02  0.00000000000E+00 0.  1.
         11    1    4    4    0    0 -0.45489290934E+02  0.80302943858E+01 -0.37594635884E+02  0.59557685188E+02  0.00000000000E+00 0. -1.
</event>
<event>
 8    1  0.6840032E-009  0.1475042E+03  0.7561462E-02  0.1203574E+00
         -4   -1    0    0    0  501 -0.00000000000E+00  0.00000000000E+00  0.11922978681E+03  0.11922978681E+03  0.00000000000E+00 0.  1.
          4   -1    0    0  501    0  0.00000000000E+00 -0.00000000000E+00 -0.19106347698E+03  0.19106347698E+03  0.00000000000E+00 0. -1.
         25    2    1    2    0    0 -0.58083180698E+01 -0.10397881865E+03 -0.25597578239E+02  0.16476719604E+03  0.12509061352E+03 0.  0.
         23    2    1    2    0    0  0.58083180698E+01  0.10397881865E+03 -0.46236111934E+02  0.14552606775E+03  0.90524731770E+02 0.  0.
          5    1    3    3  502    0  0.55341615305E+02 -0.73920334674E+02 -0.17405637274E+01  0.92452215900E+02  0.41800000000E+01 0.  1.
         -5    1    3    3    0  502 -0.61149933375E+02 -0.30058483976E+02 -0.23857014512E+02  0.72314980136E+02  0.41800000000E+01 0.  1.
        -11    1    4    4    0    0 -0.79922132631E+01  0.11583608390E+03 -0.27325074791E+02  0.11928341678E+03  0.00000000000E+00 0.  1.
         11    1    4    4    0    0  0.13800531333E+02 -0.11857265250E+02 -0.18911037144E+02  0.26242650974E+02  0.00000000000E+00 0. -1.
</event>
<event>
 8    1  0.6840032E-009  0.1230907E+03  0.7561462E-02  0.1238084E+00
         -1   -1    0    0    0  501 -0.00000000000E+00  0.00000000000E+00  0.96535497798E+02  0.96535497798E+02  0.00000000000E+00 0.  1.
          1   -1    0    0  501    0  0.00000000000E+00 -0.00000000000E+00 -0.19540899661E+03  0.19540899661E+03  0.00000000000E+00 0. -1.
         25    2    1    2    0    0  0.25949545438E+02 -0.75774703332E+02 -0.39287432194E+02  0.15364421752E+03  0.12509140128E+03 0.  0.
         23    2    1    2    0    0 -0.25949545438E+02  0.75774703332E+02 -0.59586066617E+02  0.13830027689E+03  0.95714589693E+02 0.  0.
          5    1    3    3  502    0  0.64916281167E+02 -0.61623908815E+02  0.87763962301E+01  0.90034033726E+02  0.41800000000E+01 0.  1.
         -5    1    3    3    0  502 -0.38966735729E+02 -0.14150794516E+02 -0.48063828424E+02  0.63610183789E+02  0.41800000000E+01 0.  1.
        -11    1    4    4    0    0 -0.56066866521E+02  0.52974545505E+02 -0.12834673899E+02  0.78195427278E+02  0.00000000000E+00 0.  1.
         11    1    4    4    0    0  0.30117321083E+02  0.22800157826E+02 -0.46751392718E+02  0.60104849615E+02  0.00000000000E+00 0. -1.
</event>
<event>
 8    1  0.6840032E-009  0.7334775E+02  0.7561462E-02  0.1349065E+00
         -3   -1    0    0    0  501 -0.00000000000E+00  0.00000000000E+00  0.12828411886E+03  0.12828411886E+03  0.00000000000E+00 0.  1.
          3   -1    0    0  501    0  0.00000000000E+00 -0.00000000000E+00 -0.11780550414E+03  0.11780550414E+03  0.00000000000E+00 0. -1.
         25    2    1    2    0    0  0.50786050371E+02 -0.79327380255E+01  0.11827101247E+02  0.13575638104E+03  0.12509102055E+03 0.  0.
         23    2    1    2    0    0 -0.50786050371E+02  0.79327380255E+01 -0.13484865267E+01  0.11033324197E+03  0.97618925533E+02 0.  0.
          5    1    3    3  502    0  0.13067966097E+02  0.13011716690E+02  0.64688874030E+02  0.67395840616E+02  0.41800000000E+01 0.  1.
         -5    1    3    3    0  502  0.37718084274E+02 -0.20944454715E+02 -0.52861772783E+02  0.68360540419E+02  0.41800000000E+01 0.  1.
        -11    1    4    4    0    0 -0.58649788935E+02 -0.14714782452E+02 -0.34349867063E+02  0.69543050925E+02  0.00000000000E+00 0. -1.
         11    1    4    4    0    0  0.78637385640E+01  0.22647520478E+02  0.33001380536E+02  0.40790191043E+02  0.00000000000E+00 0.  1.
</event>
<event>
 8    1  0.6840032E-009  0.1157885E+03  0.7561462E-02  0.1250211E+00
         -2   -1    0    0    0  501 -0.00000000000E+00  0.00000000000E+00  0.11289180939E+03  0.11289180939E+03  0.00000000000E+00 0. -1.
          2   -1    0    0  501    0  0.00000000000E+00 -0.00000000000E+00 -0.14433940770E+03  0.14433940770E+03  0.00000000000E+00 0.  1.
         25    2    1    2    0    0  0.56568900047E+02  0.33202799031E+02  0.24545851384E+01  0.14126583491E+03  0.12509014673E+03 0.  0.
         23    2    1    2    0    0 -0.56568900047E+02 -0.33202799031E+02 -0.33902183443E+02  0.11596538219E+03  0.89421169235E+02 0.  0.
          5    1    3    3  502    0  0.65017951916E+02 -0.19055939621E+02 -0.34912961366E+02  0.76333807566E+02  0.41800000000E+01 0. -1.
         -5    1    3    3    0  502 -0.84490518696E+01  0.52258738652E+02  0.37367546504E+02  0.64932027342E+02  0.41800000000E+01 0. -1.
        -11    1    4    4    0    0 -0.11853085519E+02 -0.58179438297E+02 -0.22486986920E+02  0.63490213872E+02  0.00000000000E+00 0.  1.
         11    1    4    4    0    0 -0.44715814528E+02  0.24976639265E+02 -0.11415196523E+02  0.52475168313E+02  0.00000000000E+00 0. -1.
</event>
<event>
 8    1  0.6840032E-009  0.1169271E+03  0.7561462E-02  0.1248254E+00
         -2   -1    0    0    0  501 -0.00000000000E+00  0.00000000000E+00  0.94392735247E+02  0.94392735247E+02  0.00000000000E+00 0.  1.
          2   -1    0    0  501    0  0.00000000000E+00 -0.00000000000E+00 -0.18972144633E+03  0.18972144633E+03  0.00000000000E+00 0. -1.
         25    2    1    2    0    0 -0.52081789575E+02 -0.16792795824E+02  0.69307268841E+01  0.13671114563E+03  0.12508953421E+03 0.  0.
         23    2    1    2    0    0  0.52081789575E+02  0.16792795824E+02 -0.10225943797E+03  0.14740303594E+03  0.90973356291E+02 0.  0.
          5    1    3    3  502    0 -0.88628215747E+02 -0.39986492830E+01 -0.17791152558E+02  0.90581164333E+02  0.41800000000E+01 0. -1.
         -5    1    3    3    0  502  0.36546426172E+02 -0.12794146541E+02  0.24721879442E+02  0.46129981301E+02  0.41800000000E+01 0. -1.
        -11    1    4    4    0    0  0.67645558898E+02 -0.16246989688E+02 -0.69615059768E+02  0.98418203901E+02  0.00000000000E+00 0.  1.
         11    1    4    4    0    0 -0.15563769323E+02  0.33039785512E+02 -0.32644378201E+02  0.48984832044E+02  0.00000000000E+00 0. -1.
</event>
<event>
 8    1  0.6840032E-009  0.1085162E+03  0.7561462E-02  0.1263343E+00
          1   -1    0    0  501    0  0.00000000000E+00  0.00000000000E+00  0.27332248143E+03  0.27332248143E+03  0.00000000000E+00 0. -1.
         -1   -1    0    0    0  501 -0.00000000000E+00 -0.00000000000E+00 -0.43319556381E+02  0.43319556381E+02  0.00000000000E+00 0.  1.
         25    2    1    2    0    0 -0.13134586258E+01  0.10403219880E+02  0.12565345780E+03  0.17761251293E+03  0.12508981226E+03 0.  0.
         23    2    1    2    0    0  0.13134586258E+01 -0.10403219880E+02  0.10434946724E+03  0.13902952488E+03  0.91271273237E+02 0.  0.
          5    1    3    3  502    0 -0.74596167129E+01  0.67374490665E+02  0.72515366147E+02  0.99352496704E+02  0.41800000000E+01 0.  1.
         -5    1    3    3    0  502  0.61461580871E+01 -0.56971270785E+02  0.53138091658E+02  0.78260016222E+02  0.41800000000E+01 0.  1.
        -11    1    4    4    0    0 -0.44876556363E+02 -0.46733648590E+01  0.46689023020E+02  0.64927733063E+02  0.00000000000E+00 0.  1.
         11    1    4    4    0    0  0.46190014989E+02 -0.57298550210E+01  0.57660444222E+02  0.74101791821E+02  0.00000000000E+00 0. -1.
</event>
<event>
 8    1  0.6840032E-009  0.1106148E+03  0.7561462E-02  0.1259436E+00
         -1   -1    0    0    0  501 -0.00000000000E+00  0.00000000000E+00  0.52221348585E+02  0.52221348585E+02  0.00000000000E+00 0.  1.
          1   -1    0    0  501    0  0.00000000000E+00 -0.00000000000E+00 -0.57061767885E+03  0.57061767885E+03  0.00000000000E+00 0. -1.
         25    2    1    2    0    0 -0.19710745163E+02 -0.94819481314E+02 -0.44232883455E+03  0.46976729375E+03  0.12508902783E+03 0.  0.
         23    2    1    2    0    0  0.19710745163E+02  0.94819481314E+02 -0.76067495708E+02  0.15307173368E+03  0.90914488604E+02 0.  0.
          5    1    3    3  502    0  0.10583458841E+02 -0.80850937000E+02 -0.11680750105E+03  0.14251437933E+03  0.41800000000E+01 0.  1.
         -5    1    3    3    0  502 -0.30294204004E+02 -0.13968544315E+02 -0.32552133351E+03  0.32725291442E+03  0.41800000000E+01 0.  1.
        -11    1    4    4    0    0  0.33190637305E+02  0.59086688662E+02 -0.89786025862E+02  0.11249171357E+03  0.00000000000E+00 0. -1.
         11    1    4    4    0    0 -0.13479892142E+02  0.35732792653E+02  0.13718530154E+02  0.40580020115E+02  0.00000000000E+00 0.  1.
</event>
<event>
 8    1  0.6840032E-009  0.7519486E+02  0.7561462E-02  0.1343269E+00
          1   -1    0    0  501    0  0.00000000000E+00  0.00000000000E+00  0.23077067563E+03  0.23077067563E+03  0.00000000000E+00 0. -1.
         -1   -1    0    0    0  501 -0.00000000000E+00 -0.00000000000E+00 -0.50892843749E+02  0.50892843749E+02  0.00000000000E+00 0.  1.
         25    2    1    2    0    0  0.35547586037E+00  0.67829663045E+01  0.86837477801E+02  0.15243101067E+03  0.12509328706E+03 0.  0.
         23    2    1    2    0    0 -0.35547586037E+00 -0.67829663045E+01  0.93040354080E+02  0.12923250871E+03  0.89433767809E+02 0.  0.
          5    1    3    3  502    0  0.22086434387E+02 -0.17716761483E+02 -0.23642811225E+02  0.37123431199E+02  0.41800000000E+01 0. -1.
         -5    1    3    3    0  502 -0.21730958527E+02  0.24499727787E+02  0.11048028903E+03  0.11530757947E+03  0.41800000000E+01 0. -1.
        -11    1    4    4    0    0  0.24875011504E+02 -0.39962235398E+02  0.39987382641E+02  0.61763559044E+02  0.00000000000E+00 0. -1.
         11    1    4    4    0    0 -0.25230487365E+02  0.33179269093E+02  0.53052971439E+02  0.67468949664E+02  0.00000000000E+00 0.  1.
</event>
<event>
 8    1  0.6840032E-009  0.1004406E+03  0.7561462E-02  0.1279372E+00
          1   -1    0    0  501    0  0.00000000000E+00  0.00000000000E+00  0.63627217681E+03  0.63627217681E+03  0.00000000000E+00 0. -1.
         -1   -1    0    0    0  501 -0.00000000000E+00 -0.00000000000E+00 -0.24474947612E+02  0.24474947612E+02  0.00000000000E+00 0.  1.
         25    2    1    2    0    0  0.44815714213E+02 -0.30629018676E+02  0.42194275611E+03  0.44342951472E+03  0.12508980799E+03 0.  0.
         23    2    1    2    0    0 -0.44815714213E+02  0.30629018676E+02  0.18985447309E+03  0.21731760971E+03  0.90750413286E+02 0.  0.
          5    1    3    3  502    0  0.22188252079E+01 -0.55465361136E+02  0.35935990785E+03  0.36364590640E+03  0.41800000000E+01 0.  1.
         -5    1    3    3    0  502  0.42596889005E+02  0.24836342460E+02  0.62582848262E+02  0.79783608318E+02  0.41800000000E+01 0.  1.
        -11    1    4    4    0    0 -0.65150187559E+02  0.85435673970E+01  0.80474896742E+02  0.10389296650E+03  0.00000000000E+00 0.  1.
         11    1    4    4    0    0  0.20334473347E+02  0.22085451279E+02  0.10937957635E+03  0.11342464320E+03  0.00000000000E+00 0. -1.
</event>
<event>
 8    1  0.6840032E-009  0.1555383E+03  0.7561462E-02  0.1193828E+00
          2   -1    0    0  501    0  0.00000000000E+00  0.00000000000E+00  0.97514934882E+02  0.97514934882E+02  0.00000000000E+00 0.  1.
         -2   -1    0    0    0  501 -0.00000000000E+00 -0.00000000000E+00 -0.25048720091E+03  0.25048720091E+03  0.00000000000E+00 0. -1.
         25    2    1    2    0    0 -0.97454781191E+02 -0.55490854554E+02 -0.95186938696E+02  0.19309312793E+03  0.12509090071E+03 0.  0.
         23    2    1    2    0    0  0.97454781191E+02  0.55490854554E+02 -0.57785327337E+02  0.15490900786E+03  0.89894312085E+02 0.  0.
          5    1    3    3  502    0 -0.20175103063E+01  0.35657643231E+02 -0.19726238543E+02  0.41013836149E+02  0.41800000000E+01 0.  1.
         -5    1    3    3    0  502 -0.95437270885E+02 -0.91148497785E+02 -0.75460700153E+02  0.15207929179E+03  0.41800000000E+01 0.  1.
        -11    1    4    4    0    0  0.31723647138E+02  0.69029505312E+02 -0.37990579015E+02  0.84939663793E+02  0.00000000000E+00 0.  1.
         11    1    4    4    0    0  0.65731134054E+02 -0.13538650758E+02 -0.19794748322E+02  0.69969344069E+02  0.00000000000E+00 0. -1.
</event>
<event>
 8    1  0.6840032E-009  0.1487512E+03  0.7561462E-02  0.1202016E+00
          1   -1    0    0  501    0  0.00000000000E+00  0.00000000000E+00  0.33042526079E+03  0.33042526079E+03  0.00000000000E+00 0. -1.
         -1   -1    0    0    0  501 -0.00000000000E+00 -0.00000000000E+00 -0.12339636910E+03  0.12339636910E+03  0.00000000000E+00 0.  1.
         25    2    1    2    0    0 -0.90100535636E+02 -0.61782843966E+02  0.25462615318E+03  0.30400377899E+03  0.12509433809E+03 0.  0.
         23    2    1    2    0    0  0.90100535636E+02  0.61782843966E+02 -0.47597261493E+02  0.14981785091E+03  0.90800125654E+02 0.  0.
          5    1    3    3  502    0 -0.18030150190E+01 -0.73351914776E+02  0.14620105633E+03  0.16363366260E+03  0.41800000000E+01 0. -1.
         -5    1    3    3    0  502 -0.88297520617E+02  0.11569070810E+02  0.10842509685E+03  0.14037011639E+03  0.41800000000E+01 0. -1.
        -11    1    4    4    0    0  0.14570448508E+01 -0.16519943957E+02 -0.24062662639E+02  0.29224018569E+02  0.00000000000E+00 0.  1.
         11    1    4    4    0    0  0.88643490785E+02  0.78302787923E+02 -0.23534598854E+02  0.12059383234E+03  0.00000000000E+00 0. -1.
</event>
<event>
 8    1  0.6840032E-009  0.1495349E+03  0.7561462E-02  0.1201046E+00
         -1   -1    0    0    0  501 -0.00000000000E+00  0.00000000000E+00  0.59395415390E+03  0.59395415390E+03  0.00000000000E+00 0.  1.
          1   -1    0    0  501    0  0.00000000000E+00 -0.00000000000E+00 -0.48199419906E+02  0.48199419906E+02  0.00000000000E+00 0. -1.
         25    2    1    2    0    0 -0.29714242391E+02 -0.12293085929E+03  0.23857264570E+03  0.29758998438E+03  0.12509180294E+03 0.  0.
         23    2    1    2    0    0  0.29714242391E+02  0.12293085929E+03  0.30718208830E+03  0.34456358943E+03  0.91478409585E+02 0.  0.
          5    1    3    3  502    0 -0.44393636982E+02 -0.11829439828E+02  0.16838273344E+02  0.49109372836E+02  0.41800000000E+01 0. -1.
         -5    1    3    3    0  502  0.14679394591E+02 -0.11110141946E+03  0.22173437235E+03  0.24848061155E+03  0.41800000000E+01 0. -1.
        -11    1    4    4    0    0  0.39168590402E+02  0.35532227798E+02  0.19498323581E+03  0.20202767121E+03  0.00000000000E+00 0.  1.
         11    1    4    4    0    0 -0.94543480104E+01  0.87398631488E+02  0.11219885249E+03  0.14253591822E+03  0.00000000000E+00 0. -1.
</event>
<event>
 8    1  0.6840032E-009  0.6839266E+02  0.7561462E-02  0.1365646E+00
          2   -1    0    0  501    0  0.00000000000E+00  0.00000000000E+00  0.70377804988E+02  0.70377804988E+02  0.00000000000E+00 0. -1.
         -2   -1    0    0    0  501 -0.00000000000E+00 -0.00000000000E+00 -0.20334454160E+03  0.20334454160E+03  0.00000000000E+00 0.  1.
         25    2    1    2    0    0 -0.42594679603E+02 -0.23129846795E+02 -0.54229838011E+02  0.14470072076E+03  0.12509247266E+03 0.  0.
         23    2    1    2    0    0  0.42594679603E+02  0.23129846795E+02 -0.78736898597E+02  0.12902162582E+03  0.89987689076E+02 0.  0.
          5    1    3    3  502    0 -0.10339536773E+02  0.17650947416E+02  0.35341157351E+02  0.41047920389E+02  0.41800000000E+01 0. -1.
         -5    1    3    3    0  502 -0.32255142830E+02 -0.40780794211E+02 -0.89570995362E+02  0.10365280037E+03  0.41800000000E+01 0. -1.
        -11    1    4    4    0    0  0.42966574096E+02  0.24244575406E+01 -0.93942121391E+02  0.10333018269E+03  0.00000000000E+00 0.  1.
         11    1    4    4    0    0 -0.37189449330E+00  0.20705389255E+02  0.15205222794E+02  0.25691443126E+02  0.00000000000E+00 0. -1.
</event>
<event>
 8    1  0.6840032E-009  0.7820982E+02  0.7561462E-02  0.1334210E+00
          1   -1    0    0  501    0  0.00000000000E+00  0.00000000000E+00  0.89675786872E+02  0.89675786872E+02  0.00000000000E+00 0. -1.
         -1   -1    0    0    0  501 -0.00000000000E+00 -0.00000000000E+00 -0.14643199547E+03  0.14643199547E+03  0.00000000000E+00 0.  1.
         25    2    1    2    0    0 -0.94638329481E+01 -0.24902801803E+01 -0.77778855771E+02  0.14762565936E+03  0.12509204318E+03 0.  0.
         23    2    1    2    0    0  0.94638329481E+01  0.24902801803E+01  0.21022647171E+02  0.88482122988E+02  0.85389512031E+02 0.  0.
          5    1    3    3  502    0 -0.55848711892E+02  0.22404192784E+01 -0.83392007253E+02  0.10047784518E+03  0.41800000000E+01 0.  1.
         -5    1    3    3    0  502  0.46384878944E+02 -0.47306994587E+01  0.56131514818E+01  0.47147814176E+02  0.41800000000E+01 0.  1.
        -11    1    4    4    0    0 -0.21966557289E+02  0.26565411807E+01 -0.24595974915E+02  0.33083966391E+02  0.00000000000E+00 0.  1.
         11    1    4    4    0    0  0.31430390237E+02 -0.16626100043E+00  0.45618622087E+02  0.55398156596E+02  0.00000000000E+00 0. -1.
</event>
<event>
 8    1  0.6840032E-009  0.1713025E+03  0.7561462E-02  0.1176496E+00
         -2   -1    0    0    0  501 -0.00000000000E+00  0.00000000000E+00  0.31346424753E+03  0.31346424753E+03  0.00000000000E+00 0.  1.
          2   -1    0    0  501    0  0.00000000000E+00 -0.00000000000E+00 -0.10010525042E+03  0.10010525042E+03  0.00000000000E+00 0. -1.
         25    2    1    2    0    0  0.10199977180E+03 -0.89244801835E+02  0.15766194989E+03  0.24266650888E+03  0.12514454038E+03 0.  0.
         23    2    1    2    0    0 -0.10199977180E+03  0.89244801835E+02  0.55697047228E+02  0.17090298908E+03  0.87960687272E+02 0.  0.
          5    1    3    3  502    0  0.12273617784E+03 -0.10191287706E+03  0.14053465617E+03  0.21264492904E+03  0.41800000000E+01 0. -1.
         -5    1    3    3    0  502 -0.20736406047E+02  0.12668075227E+02  0.17127293716E+02  0.30021579834E+02  0.41800000000E+01 0. -1.
        -11    1    4    4    0    0 -0.12998928029E+02 -0.15944864114E+02  0.19712412764E+02  0.28491929357E+02  0.00000000000E+00 0.  1.
         11    1    4    4    0    0 -0.89000843766E+02  0.10518966595E+03  0.35984634464E+02  0.14241105972E+03  0.00000000000E+00 0. -1.
</event>
<event>
 8    1  0.6840032E-009  0.1131588E+03  0.7561462E-02  0.1254830E+00
          1   -1    0    0  501    0  0.00000000000E+00  0.00000000000E+00  0.38315764946E+02  0.38315764946E+02  0.00000000000E+00 0. -1.
         -1   -1    0    0    0  501 -0.00000000000E+00 -0.00000000000E+00 -0.58064810761E+03  0.58064810761E+03  0.00000000000E+00 0.  1.
         25    2    1    2    0    0 -0.33870917891E+02 -0.91249429227E+02 -0.35468468663E+03  0.38848761833E+03  0.12509078805E+03 0.  0.
         23    2    1    2    0    0  0.33870917891E+02  0.91249429227E+02 -0.18764765604E+03  0.23047625423E+03  0.91836613249E+02 0.  0.
          5    1    3    3  502    0 -0.37999938129E+02 -0.65164105250E+02 -0.35375509360E+03  0.36173262855E+03  0.41800000000E+01 0.  1.
         -5    1    3    3    0  502  0.41290202381E+01 -0.26085323977E+02 -0.92959303186E+00  0.26754989783E+02  0.41800000000E+01 0.  1.
        -11    1    4    4    0    0  0.58935328398E+02  0.63467816705E+02 -0.85552792685E+02  0.12174077800E+03  0.00000000000E+00 0. -1.
         11    1    4    4    0    0 -0.25064410507E+02  0.27781612522E+02 -0.10209486335E+03  0.10873547623E+03  0.00000000000E+00 0.  1.
</event>
<event>
 8    1  0.6840032E-009  0.7258496E+02  0.7561462E-02  0.1351517E+00
         -2   -1    0    0    0  501 -0.00000000000E+00  0.00000000000E+00  0.31131734374E+02  0.31131734374E+02  0.00000000000E+00 0. -1.
          2   -1    0    0  501    0  0.00000000000E+00 -0.00000000000E+00 -0.39512677157E+03  0.39512677157E+03  0.00000000000E+00 0.  1.
         25    2    1    2    0    0  0.23874336649E+02  0.56159962412E+01 -0.20753411493E+03  0.24355661220E+03  0.12509153099E+03 0.  0.
         23    2    1    2    0    0 -0.23874336649E+02 -0.56159962412E+01 -0.15646092227E+03  0.18270189374E+03  0.91095765082E+02 0.  0.
          5    1    3    3  502    0 -0.15660217711E+02 -0.17193035761E+01 -0.20211253292E+03  0.20276870268E+03  0.41800000000E+01 0. -1.
         -5    1    3    3    0  502  0.39534554360E+02  0.73352998173E+01 -0.54215820110E+01  0.40787909524E+02  0.41800000000E+01 0. -1.
        -11    1    4    4    0    0  0.25308468334E+02  0.20671199816E+02 -0.91099095264E+02  0.96782551264E+02  0.00000000000E+00 0.  1.
         11    1    4    4    0    0 -0.49182804983E+02 -0.26287196057E+02 -0.65361827002E+02  0.85919342477E+02  0.00000000000E+00 0. -1.
</event>
<event>
 8    1  0.6840032E-009  0.1474917E+03  0.7561462E-02  0.1203589E+00
         -1   -1    0    0    0  501 -0.00000000000E+00  0.00000000000E+00  0.50569146625E+03  0.50569146625E+03  0.00000000000E+00 0.  1.
          1   -1    0    0  501    0  0.00000000000E+00 -0.00000000000E+00 -0.43640856457E+02  0.43640856457E+02  0.00000000000E+00 0. -1.
         25    2    1    2    0    0  0.20319780255E+02 -0.97262682872E+02  0.21765772994E+03  0.26999203175E+03  0.12509151392E+03 0.  0.
         23    2    1    2    0    0 -0.20319780255E+02  0.97262682872E+02  0.24439287985E+03  0.27934029096E+03  0.91816095983E+02 0.  0.
          5    1    3    3  502    0  0.54555131146E+02  0.18993807686E+01  0.72818078487E+02  0.91103320117E+02  0.41800000000E+01 0. -1.
         -5    1    3    3    0  502 -0.34235350891E+02 -0.99162063640E+02  0.14483965146E+03  0.17888871163E+03  0.41800000000E+01 0. -1.
        -11    1    4    4    0    0  0.34610764783E+02  0.18568518973E+02  0.67831556396E+02  0.78382491532E+02  0.00000000000E+00 0.  1.
         11    1    4    4    0    0 -0.54930545038E+02  0.78694163898E+02  0.17656132346E+03  0.20095779943E+03  0.00000000000E+00 0. -1.
</event>
<event>
 8    1  0.6840032E-009  0.1230070E+03  0.7561462E-02  0.1238217E+00
         -2   -1    0    0    0  501 -0.00000000000E+00  0.00000000000E+00  0.17017877472E+02  0.17017877472E+02  0.00000000000E+00 0.  1.
          2   -1    0    0  501    0  0.00000000000E+00 -0.00000000000E+00 -0.11960766122E+04  0.11960766122E+04  0.00000000000E+00 0. -1.
         25    2    1    2    0    0  0.66911245724E+02 -0.19139711849E+02 -0.90810264230E+03  0.91931548444E+03  0.12508839914E+03 0.  0.
         23    2    1    2    0    0 -0.66911245724E+02  0.19139711849E+02 -0.27095609243E+03  0.29377900523E+03  0.89696468819E+02 0.  0.
          5    1    3    3  502    0 -0.33224323216E+02 -0.20421923920E+02 -0.17169454817E+03  0.17611757692E+03  0.41800000000E+01 0. -1.
         -5    1    3    3    0  502  0.10013556894E+03  0.12822120704E+01 -0.73640809413E+03  0.74319790752E+03  0.41800000000E+01 0. -1.
        -11    1    4    4    0    0 -0.22079627596E+02 -0.31793000922E+02 -0.53861326565E+02  0.66327576179E+02  0.00000000000E+00 0.  1.
         11    1    4    4    0    0 -0.44831618128E+02  0.50932712772E+02 -0.21709476586E+03  0.22745142905E+03  0.00000000000E+00 0. -1.
</event>
<event>
 8    1  0.6840032E-009  0.1357364E+03  0.7561462E-02  0.1219184E+00
          4   -1    0    0  501    0  0.00000000000E+00  0.00000000000E+00  0.43201213273E+02  0.43201213273E+02  0.00000000000E+00 0. -1.
         -4   -1    0    0    0  501 -0.00000000000E+00 -0.00000000000E+00 -0.57130079175E+03  0.57130079175E+03  0.00000000000E+00 0.  1.
         25    2    1    2    0    0  0.65270325286E+02  0.59224002108E+02 -0.42720587682E+03  0.45378389625E+03  0.12508903036E+03 0.  0.
         23    2    1    2    0    0 -0.65270325286E+02 -0.59224002108E+02 -0.10089370166E+03  0.16071810878E+03  0.88786675045E+02 0.  0.
          5    1    3    3  502    0 -0.11206182203E+01  0.78380892267E+02 -0.28515410731E+03  0.29576199448E+03  0.41800000000E+01 0.  1.
         -5    1    3    3    0  502  0.66390943507E+02 -0.19156890159E+02 -0.14205176950E+03  0.15802190177E+03  0.41800000000E+01 0.  1.
        -11    1    4    4    0    0 -0.43772945022E+02  0.15155939098E+02 -0.26610874648E+02  0.53422016579E+02  0.00000000000E+00 0.  1.
         11    1    4    4    0    0 -0.21497380264E+02 -0.74379941206E+02 -0.74282827010E+02  0.10729609220E+03  0.00000000000E+00 0. -1.
</event>
<event>
 8    1  0.6840032E-009  0.1053707E+03  0.7561462E-02  0.1269391E+00
         -2   -1    0    0    0  501 -0.00000000000E+00  0.00000000000E+00  0.17986151639E+03  0.17986151639E+03  0.00000000000E+00 0.  1.
          2   -1    0    0  501    0  0.00000000000E+00 -0.00000000000E+00 -0.10750716398E+03  0.10750716398E+03  0.00000000000E+00 0. -1.
         25    2    1    2    0    0  0.56196464050E+02  0.48063358253E+02  0.86693043674E+02  0.16920439836E+03  0.12508523344E+03 0.  0.
         23    2    1    2    0    0 -0.56196464050E+02 -0.48063358253E+02 -0.14338691261E+02  0.11816428201E+03  0.91044332599E+02 0.  0.
          5    1    3    3  502    0  0.38081133944E+02  0.85459570172E+02  0.29113981058E+02  0.98074498161E+02  0.41800000000E+01 0.  1.
         -5    1    3    3    0  502  0.18115330105E+02 -0.37396211919E+02  0.57579062616E+02  0.71129900200E+02  0.41800000000E+01 0.  1.
        -11    1    4    4    0    0 -0.37333344437E+02 -0.40277366733E+02  0.34759297193E+02  0.64994258356E+02  0.00000000000E+00 0.  1.
         11    1    4    4    0    0 -0.18863119612E+02 -0.77859915192E+01 -0.49097988455E+02  0.53170023658E+02  0.00000000000E+00 0. -1.
</event>
<event>
 8    1  0.6840032E-009  0.1121413E+03  0.7561462E-02  0.1256655E+00
         -1   -1    0    0    0  501 -0.00000000000E+00  0.00000000000E+00  0.60497545256E+02  0.60497545256E+02  0.00000000000E+00 0.  1.
          1   -1    0    0  501    0  0.00000000000E+00 -0.00000000000E+00 -0.42588452401E+03  0.42588452401E+03  0.00000000000E+00 0. -1.
         25    2    1    2    0    0 -0.40364076781E+02 -0.72140905525E+02 -0.64754688087E+02  0.16332055747E+03  0.12508743310E+03 0.  0.
         23    2    1    2    0    0  0.40364076781E+02  0.72140905525E+02 -0.30063229067E+03  0.32306151179E+03  0.84589581306E+02 0.  0.
          5    1    3    3  502    0  0.31709599676E+02 -0.60551379832E+02 -0.45945354393E+01  0.68633450060E+02  0.41800000000E+01 0.  1.
         -5    1    3    3    0  502 -0.72073676457E+02 -0.11589525693E+02 -0.60160152648E+02  0.94687107414E+02  0.41800000000E+01 0.  1.
        -11    1    4    4    0    0  0.31125321386E+02  0.54083041097E+02 -0.29566517336E+03  0.30217818535E+03  0.00000000000E+00 0. -1.
         11    1    4    4    0    0  0.92387553948E+01  0.18057864428E+02 -0.49671173118E+01  0.20883326443E+02  0.00000000000E+00 0.  1.
</event>
<event>
 8    1  0.6840032E-009  0.1505441E+03  0.7561462E-02  0.1199806E+00
         -2   -1    0    0    0  501 -0.00000000000E+00  0.00000000000E+00  0.41901046078E+02  0.41901046078E+02  0.00000000000E+00 0.  1.
          2   -1    0    0  501    0  0.00000000000E+00 -0.00000000000E+00 -0.69977625605E+03  0.69977625605E+03  0.00000000000E+00 0. -1.
         25    2    1    2    0    0  0.54465568810E+02 -0.11432848272E+03 -0.26696695553E+03  0.32086713202E+03  0.12508741309E+03 0.  0.
         23    2    1    2    0    0 -0.54465568810E+02  0.11432848272E+03 -0.39090825443E+03  0.42081017011E+03  0.90743791702E+02 0.  0.
          5    1    3    3  502    0 -0.35086454252E+01  0.20411278065E+02 -0.68458144866E+01  0.22209647475E+02  0.41800000000E+01 0. -1.
         -5    1    3    3    0  502  0.57974214235E+02 -0.13473976079E+03 -0.26012114105E+03  0.29865748454E+03  0.41800000000E+01 0. -1.
        -11    1    4    4    0    0 -0.54746276239E+02  0.69894237948E+02 -0.34760727861E+03  0.35876619044E+03  0.00000000000E+00 0. -1.
         11    1    4    4    0    0  0.28070742895E+00  0.44434244776E+02 -0.43300975825E+02  0.62043979667E+02  0.00000000000E+00 0.  1.
</event>
<event>
 8    1  0.6840032E-009  0.1284418E+03  0.7561462E-02  0.1229786E+00
         -2   -1    0    0    0  501 -0.00000000000E+00  0.00000000000E+00  0.11265767364E+02  0.11265767364E+02  0.00000000000E+00 0.  1.
          2   -1    0    0  501    0  0.00000000000E+00 -0.00000000000E+00 -0.19231581634E+04  0.19231581634E+04  0.00000000000E+00 0. -1.
         25    2    1    2    0    0 -0.73751821665E+02 -0.50063786324E+02 -0.14515957235E+04  0.14596997381E+04  0.12508983593E+03 0.  0.
         23    2    1    2    0    0  0.73751821665E+02  0.50063786324E+02 -0.46029667259E+03  0.47472419271E+03  0.74460180269E+02 0.  0.
          5    1    3    3  502    0 -0.18928612286E+02 -0.85584895739E+02 -0.77947795329E+03  0.78440194977E+03  0.41800000000E+01 0.  1.
         -5    1    3    3    0  502 -0.54823209378E+02  0.35521109415E+02 -0.67211777018E+03  0.67529778830E+03  0.41800000000E+01 0.  1.
        -11    1    4    4    0    0  0.42759890578E+02 -0.23030715477E+01 -0.92543054865E+02  0.10197023774E+03  0.00000000000E+00 0.  1.
         11    1    4    4    0    0  0.30991931087E+02  0.52366857872E+02 -0.36775361773E+03  0.37275395497E+03  0.00000000000E+00 0. -1.
</event>
<event>
 8    1  0.6840032E-009  0.1342868E+03  0.7561462E-02  0.1221230E+00
         -3   -1    0    0    0  501 -0.00000000000E+00  0.00000000000E+00  0.63374694367E+02  0.63374694367E+02  0.00000000000E+00 0.  1.
          3   -1    0    0  501    0  0.00000000000E+00 -0.00000000000E+00 -0.34527106205E+03  0.34527106205E+03  0.00000000000E+00 0. -1.
         25    2    1    2    0    0 -0.77245016647E+00  0.96249160367E+02 -0.20325723205E+03  0.25734249936E+03  0.12508861677E+03 0.  0.
         23    2    1    2    0    0  0.77245016647E+00 -0.96249160367E+02 -0.78639135633E+02  0.15130325706E+03  0.86278991603E+02 0.  0.
          5    1    3    3  502    0 -0.42893663139E+02  0.10141769691E+03 -0.17277819914E+03  0.20492728975E+03  0.41800000000E+01 0.  1.
         -5    1    3    3    0  502  0.42121212972E+02 -0.51685365382E+01 -0.30479032908E+02  0.52415209617E+02  0.41800000000E+01 0.  1.
        -11    1    4    4    0    0 -0.30245806680E+02 -0.30076704166E+02  0.17110130506E+01  0.42688927380E+02  0.00000000000E+00 0. -1.
         11    1    4    4    0    0  0.31018256846E+02 -0.66172456201E+02 -0.80350148683E+02  0.10861432968E+03  0.00000000000E+00 0.  1.
</event>
<event>
 8    1  0.6840032E-009  0.1848498E+03  0.7561462E-02  0.1163190E+00
          2   -1    0    0  501    0  0.00000000000E+00  0.00000000000E+00  0.80803099349E+03  0.80803099349E+03  0.00000000000E+00 0. -1.
         -2   -1    0    0    0  501 -0.00000000000E+00 -0.00000000000E+00 -0.47720853723E+02  0.47720853723E+02  0.00000000000E+00 0.  1.
         25    2    1    2    0    0  0.12417251095E+03  0.10560753774E+03  0.42868600038E+03  0.47538546335E+03  0.12509151584E+03 0.  0.
         23    2    1    2    0    0 -0.12417251095E+03 -0.10560753774E+03  0.33162413939E+03  0.38036638387E+03  0.90178997820E+02 0.  0.
          5    1    3    3  502    0  0.11977635404E+03  0.11904220623E+03  0.42855353727E+03  0.46064414525E+03  0.41800000000E+01 0. -1.
         -5    1    3    3    0  502  0.43961569137E+01 -0.13434668484E+02  0.13246311837E+00  0.14741318101E+02  0.41800000000E+01 0. -1.
        -11    1    4    4    0    0  0.13382750310E+02 -0.19843862532E+02  0.36343063417E+02  0.43516607688E+02  0.00000000000E+00 0.  1.
         11    1    4    4    0    0 -0.13755526126E+03 -0.85763675209E+02  0.29528107597E+03  0.33684977618E+03  0.00000000000E+00 0. -1.
</event>
<event>
 8    1  0.6840032E-009  0.1071748E+03  0.7561462E-02  0.1265893E+00
          2   -1    0    0  501    0  0.00000000000E+00  0.00000000000E+00  0.16853109329E+03  0.16853109329E+03  0.00000000000E+00 0. -1.
         -2   -1    0    0    0  501 -0.00000000000E+00 -0.00000000000E+00 -0.90284071169E+02  0.90284071169E+02  0.00000000000E+00 0.  1.
         25    2    1    2    0    0  0.40291083711E+02 -0.14500921265E+02  0.87901290149E+02  0.15876707332E+03  0.12508676436E+03 0.  0.
         23    2    1    2    0    0 -0.40291083711E+02  0.14500921265E+02 -0.96542680246E+01  0.10004809114E+03  0.89904212948E+02 0.  0.
          5    1    3    3  502    0 -0.24354985265E+01 -0.57449296389E+02  0.78379689721E+02  0.97299545063E+02  0.41800000000E+01 0.  1.
         -5    1    3    3    0  502  0.42726582238E+02  0.42948375124E+02  0.95216004276E+01  0.61467528259E+02  0.41800000000E+01 0.  1.
        -11    1    4    4    0    0 -0.59182444386E+02 -0.14895506433E+02 -0.18926335448E+02  0.63895571121E+02  0.00000000000E+00 0.  1.
         11    1    4    4    0    0  0.18891360674E+02  0.29396427698E+02  0.92720674234E+01  0.36152520020E+02  0.00000000000E+00 0. -1.
</event>
<event>
 8    1  0.6840032E-009  0.9155709E+02  0.7561462E-02  0.1299124E+00
         -1   -1    0    0    0  501 -0.00000000000E+00  0.00000000000E+00  0.16229007203E+02  0.16229007203E+02  0.00000000000E+00 0.  1.
          1   -1    0    0  501    0  0.00000000000E+00 -0.00000000000E+00 -0.99679441214E+03  0.99679441214E+03  0.00000000000E+00 0. -1.
         25    2    1    2    0    0  0.50606447737E+02 -0.29369887832E+02 -0.54886006649E+03  0.56596673129E+03  0.12508942993E+03 0.  0.
         23    2    1    2    0    0 -0.50606447737E+02  0.29369887832E+02 -0.43170533845E+03  0.44705668806E+03  0.10033234883E+03 0.  0.
          5    1    3    3  502    0  0.98602620810E+01 -0.32515240378E+02 -0.50391324906E+03  0.50507474754E+03  0.41800000000E+01 0.  1.
         -5    1    3    3    0  502  0.40746185656E+02  0.31453525461E+01 -0.44946817422E+02  0.60891983747E+02  0.41800000000E+01 0.  1.
        -11    1    4    4    0    0 -0.85657438430E+00 -0.30186334011E+02 -0.58125053556E+02  0.65501681899E+02  0.00000000000E+00 0.  1.
         11    1    4    4    0    0 -0.49749873353E+02  0.59556221844E+02 -0.37358028490E+03  0.38155500616E+03  0.00000000000E+00 0. -1.
</event>
<event>
 8    1  0.6840032E-009  0.9814474E+02  0.7561462E-02  0.1284246E+00
          1   -1    0    0  501    0  0.00000000000E+00  0.00000000000E+00  0.17069800183E+03  0.17069800183E+03  0.00000000000E+00 0. -1.
         -1   -1    0    0    0  501 -0.00000000000E+00 -0.00000000000E+00 -0.78738727607E+02  0.78738727607E+02  0.00000000000E+00 0.  1.
         25    2    1    2    0    0 -0.23143291149E+02 -0.90575935273E+01  0.83987499865E+02  0.15270657802E+03  0.12509095455E+03 0.  0.
         23    2    1    2    0    0  0.23143291149E+02  0.90575935273E+01  0.79717743553E+01  0.96730151417E+02  0.93142477319E+02 0.  0.
          5    1    3    3  502    0 -0.74915044620E+02 -0.15296399922E+01  0.48706884892E+02  0.89467517820E+02  0.41800000000E+01 0.  1.
         -5    1    3    3    0  502  0.51771753471E+02 -0.75279535351E+01  0.35280614972E+02  0.63239060198E+02  0.41800000000E+01 0.  1.
        -11    1    4    4    0    0  0.40622380832E+02 -0.11067923825E+02  0.37902298525E+02  0.56650339767E+02  0.00000000000E+00 0.  1.
         11    1    4    4    0    0 -0.17479089683E+02  0.20125517352E+02 -0.29930524170E+02  0.40079811650E+02  0.00000000000E+00 0. -1.
</event>
<event>
 8    1  0.6840032E-009  0.1042251E+03  0.7561462E-02  0.1271654E+00
         -1   -1    0    0    0  501 -0.00000000000E+00  0.00000000000E+00  0.28849780381E+02  0.28849780381E+02  0.00000000000E+00 0.  1.
          1   -1    0    0  501    0  0.00000000000E+00 -0.00000000000E+00 -0.62399722268E+03  0.62399722268E+03  0.00000000000E+00 0. -1.
         25    2    1    2    0    0 -0.48404066621E+01 -0.60957756592E+02 -0.21079673952E+03  0.25262840006E+03  0.12508623225E+03 0.  0.
         23    2    1    2    0    0  0.48404066621E+01  0.60957756592E+02 -0.38435070278E+03  0.40021860300E+03  0.93328397811E+02 0.  0.
          5    1    3    3  502    0 -0.36912251212E+02 -0.37160113575E+01 -0.63496566584E+01  0.37869691967E+02  0.41800000000E+01 0. -1.
         -5    1    3    3    0  502  0.32071844550E+02 -0.57241745235E+02 -0.20444708287E+03  0.21475870809E+03  0.41800000000E+01 0. -1.
        -11    1    4    4    0    0 -0.40424452851E+02  0.32836618148E+02 -0.12439701391E+03  0.13485917451E+03  0.00000000000E+00 0.  1.
         11    1    4    4    0    0  0.45264859513E+02  0.28121138444E+02 -0.25995368887E+03  0.26535942849E+03  0.00000000000E+00 0. -1.
</event>
<event>
 8    1  0.6840032E-009  0.1115153E+03  0.7561462E-02  0.1257789E+00
          1   -1    0    0  501    0  0.00000000000E+00  0.00000000000E+00  0.52317771908E+03  0.52317771908E+03  0.00000000000E+00 0. -1.
         -1   -1    0    0    0  501 -0.00000000000E+00 -0.00000000000E+00 -0.30408861694E+02  0.30408861694E+02  0.00000000000E+00 0.  1.
         25    2    1    2    0    0 -0.33630866055E+02 -0.33384669563E+02  0.17489545923E+03  0.22018465775E+03  0.12508913037E+03 0.  0.
         23    2    1    2    0    0  0.33630866055E+02  0.33384669563E+02  0.31787339815E+03  0.33340192302E+03  0.88700471853E+02 0.  0.
          5    1    3    3  502    0 -0.28345937806E+01  0.44378675003E+02  0.92416824382E+02  0.10264425725E+03  0.41800000000E+01 0. -1.
         -5    1    3    3    0  502 -0.30796272274E+02 -0.77763344565E+02  0.82478634849E+02  0.11754040050E+03  0.41800000000E+01 0. -1.
        -11    1    4    4    0    0 -0.16616376848E+02  0.40590889927E+02  0.92348227085E+02  0.10223462902E+03  0.00000000000E+00 0.  1.
         11    1    4    4    0    0  0.50247242903E+02 -0.72062203647E+01  0.22552517107E+03  0.23116729400E+03  0.00000000000E+00 0. -1.
</event>
<event>
 8    1  0.6840032E-009  0.1390842E+03  0.7561462E-02  0.1214567E+00
         -1   -1    0    0    0  501 -0.00000000000E+00  0.00000000000E+00  0.70486320590E+02  0.70486320590E+02  0.00000000000E+00 0.  1.
          1   -1    0    0  501    0  0.00000000000E+00 -0.00000000000E+00 -0.32639035714E+03  0.32639035714E+03  0.00000000000E+00 0. -1.
         25    2    1    2    0    0  0.10173863390E+03  0.17640321382E+02 -0.17015366743E+03  0.23507485151E+03  0.12508391066E+03 0.  0.
         23    2    1    2    0    0 -0.10173863390E+03 -0.17640321382E+02 -0.85750369118E+02  0.16180182622E+03  0.90359142298E+02 0.  0.
          5    1    3    3  502    0  0.12388666741E+03  0.86102707167E+01 -0.95922042013E+02  0.15697309855E+03  0.41800000000E+01 0.  1.
         -5    1    3    3    0  502 -0.22148033508E+02  0.90300506651E+01 -0.74231625421E+02  0.78101752963E+02  0.41800000000E+01 0.  1.
        -11    1    4    4    0    0  0.74203317094E+01  0.14116067000E+02 -0.32630968520E+02  0.36319482056E+02  0.00000000000E+00 0. -1.
         11    1    4    4    0    0 -0.10915896561E+03 -0.31756388382E+02 -0.53119400598E+02  0.12548234416E+03  0.00000000000E+00 0.  1.
</event>
<event>
 8    1  0.6840032E-009  0.3396874E+03  0.7561462E-02  0.1066929E+00
          2   -1    0    0  501    0  0.00000000000E+00  0.00000000000E+00  0.14284918935E+04  0.14284918935E+04  0.00000000000E+00 0. -1.
         -2   -1    0    0    0  501 -0.00000000000E+00 -0.00000000000E+00 -0.14084830490E+03  0.14084830490E+03  0.00000000000E+00 0.  1.
         25    2    1    2    0    0  0.32621507684E+03  0.68498684908E+01  0.14640753233E+03  0.37887426300E+03  0.12508934640E+03 0.  0.
         23    2    1    2    0    0 -0.32621507684E+03 -0.68498684908E+01  0.11412360563E+04  0.11904659354E+04  0.91248069418E+02 0.  0.
          5    1    3    3  502    0  0.94326354335E+02  0.48108153020E+02  0.83881912840E+02  0.13514992864E+03  0.41800000000E+01 0. -1.
         -5    1    3    3    0  502  0.23188872250E+03 -0.41258284529E+02  0.62525619492E+02  0.24372433436E+03  0.41800000000E+01 0. -1.
        -11    1    4    4    0    0 -0.19306158845E+03  0.39097190208E+02  0.70919348983E+03  0.73604128501E+03  0.00000000000E+00 0. -1.
         11    1    4    4    0    0 -0.13315348839E+03 -0.45947058699E+02  0.43204256647E+03  0.45442465042E+03  0.00000000000E+00 0.  1.
</event>
<event>
 8    1  0.6840032E-009  0.9496729E+02  0.7561462E-02  0.1291250E+00
         -1   -1    0    0    0  501 -0.00000000000E+00  0.00000000000E+00  0.35855277263E+03  0.35855277263E+03  0.00000000000E+00 0.  1.
          1   -1    0    0  501    0  0.00000000000E+00 -0.00000000000E+00 -0.36448300956E+02  0.36448300956E+02  0.00000000000E+00 0. -1.
         25    2    1    2    0    0 -0.20388507001E+02 -0.85909989181E+01  0.14708443333E+03  0.19434697245E+03  0.12508964262E+03 0.  0.
         23    2    1    2    0    0  0.20388507001E+02  0.85909989181E+01  0.17502003834E+03  0.20065410113E+03  0.95606265495E+02 0.  0.
          5    1    3    3  502    0 -0.62223794413E+02  0.16114089852E+02  0.37820419843E+02  0.74694852835E+02  0.41800000000E+01 0. -1.
         -5    1    3    3    0  502  0.41835287412E+02 -0.24705088770E+02  0.10926401349E+03  0.11965211961E+03  0.41800000000E+01 0. -1.
        -11    1    4    4    0    0  0.13316816956E+02 -0.32468600371E+02  0.14529563284E+03  0.14947363830E+03  0.00000000000E+00 0.  1.
         11    1    4    4    0    0  0.70716900453E+01  0.41059599289E+02  0.29724405500E+02  0.51180462837E+02  0.00000000000E+00 0. -1.
</event>
<event>
 8    1  0.6840032E-009  0.1156078E+03  0.7561462E-02  0.1250524E+00
         -1   -1    0    0    0  501 -0.00000000000E+00  0.00000000000E+00  0.94175761995E+02  0.94175761995E+02  0.00000000000E+00 0.  1.
          1   -1    0    0  501    0  0.00000000000E+00 -0.00000000000E+00 -0.24970780244E+03  0.24970780244E+03  0.00000000000E+00 0. -1.
         25    2    1    2    0    0 -0.97810342489E+02  0.48135289600E+02 -0.59061278293E+02  0.17612465907E+03  0.12509113372E+03 0.  0.
         23    2    1    2    0    0  0.97810342489E+02 -0.48135289600E+02 -0.96470762149E+02  0.16775890536E+03  0.83382091461E+02 0.  0.
          5    1    3    3  502    0 -0.53578084999E+02  0.42909818998E+02 -0.96013306364E+02  0.11810119033E+03  0.41800000000E+01 0. -1.
         -5    1    3    3    0  502 -0.44232257491E+02  0.52254706016E+01  0.36952028072E+02  0.58023468738E+02  0.41800000000E+01 0. -1.
        -11    1    4    4    0    0  0.50718455700E+02 -0.49123191157E+02 -0.97815877475E+02  0.12063745498E+03  0.00000000000E+00 0. -1.
         11    1    4    4    0    0  0.47091886790E+02  0.98790155761E+00  0.13451153261E+01  0.47121450382E+02  0.00000000000E+00 0.  1.
</event>
<event>
 8    1  0.6840032E-009  0.1015077E+03  0.7561462E-02  0.1277157E+00
          1   -1    0    0  501    0  0.00000000000E+00  0.00000000000E+00  0.32704331226E+03  0.32704331226E+03  0.00000000000E+00 0. -1.
         -1   -1    0    0    0  501 -0.00000000000E+00 -0.00000000000E+00 -0.37517369141E+02  0.37517369141E+02  0.00000000000E+00 0.  1.
         25    2    1    2    0    0 -0.16880281852E+02 -0.11021358774E+02  0.18823998113E+03  0.22690687236E+03  0.12508406759E+03 0.  0.
         23    2    1    2    0    0  0.16880281852E+02  0.11021358774E+02  0.10128596199E+03  0.13765380904E+03  0.91012695719E+02 0.  0.
          5    1    3    3  502    0 -0.58597048188E+02 -0.27353987377E+02  0.50954246821E+02  0.82435807456E+02  0.41800000000E+01 0. -1.
         -5    1    3    3    0  502  0.41716766336E+02  0.16332628603E+02  0.13728573431E+03  0.14447106490E+03  0.41800000000E+01 0. -1.
        -11    1    4    4    0    0  0.25624661880E+02 -0.36667819764E+02  0.48459834886E+02  0.65950799085E+02  0.00000000000E+00 0. -1.
         11    1    4    4    0    0 -0.87443800282E+01  0.47689178538E+02  0.52826127105E+02  0.71703009955E+02  0.00000000000E+00 0.  1.
</event>
<event>
 8    1  0.6840032E-009  0.9620140E+02  0.7561462E-02  0.1288493E+00
         -2   -1    0    0    0  501 -0.00000000000E+00  0.00000000000E+00  0.32712887774E+02  0.32712887774E+02  0.00000000000E+00 0.  1.
          2   -1    0    0  501    0  0.00000000000E+00 -0.00000000000E+00 -0.37662873623E+03  0.37662873623E+03  0.00000000000E+00 0. -1.
         25    2    1    2    0    0 -0.80483711776E+01  0.18054486541E+02 -0.21666157238E+03  0.25096204767E+03  0.12509584990E+03 0.  0.
         23    2    1    2    0    0  0.80483711776E+01 -0.18054486541E+02 -0.12725427608E+03  0.15837957634E+03  0.92193810299E+02 0.  0.
          5    1    3    3  502    0 -0.26671423846E+02  0.52424149735E+02 -0.43192584812E+02  0.73093967659E+02  0.41800000000E+01 0.  1.
         -5    1    3    3    0  502  0.18623052668E+02 -0.34369663194E+02 -0.17346898757E+03  0.17786808001E+03  0.41800000000E+01 0.  1.
        -11    1    4    4    0    0  0.43234961438E+02 -0.34470416023E+02 -0.79360392381E+02  0.96724057764E+02  0.00000000000E+00 0. -1.
         11    1    4    4    0    0 -0.35186590260E+02  0.16415929483E+02 -0.47893883696E+02  0.61655518572E+02  0.00000000000E+00 0.  1.
</event>
<event>
 8    1  0.6840032E-009  0.9684797E+02  0.7561462E-02  0.1287067E+00
         -2   -1    0    0    0  501 -0.00000000000E+00  0.00000000000E+00  0.26403011161E+02  0.26403011161E+02  0.00000000000E+00 0. -1.
          2   -1    0    0  501    0  0.00000000000E+00 -0.00000000000E+00 -0.66613944965E+03  0.66613944965E+03  0.00000000000E+00 0.  1.
         25    2    1    2    0    0 -0.37277867701E+02  0.63996891368E+02 -0.36842699476E+03  0.39607009649E+03  0.12509128403E+03 0.  0.
         23    2    1    2    0    0  0.37277867701E+02 -0.63996891368E+02 -0.27130944373E+03  0.29647236432E+03  0.93817946183E+02 0.  0.
          5    1    3    3  502    0 -0.29920542823E+02  0.56176024297E+02 -0.60453326364E+02  0.87880951617E+02  0.41800000000E+01 0. -1.
         -5    1    3    3    0  502 -0.73573248782E+01  0.78208670708E+01 -0.30797366839E+03  0.30818914487E+03  0.41800000000E+01 0. -1.
        -11    1    4    4    0    0  0.62056539027E+02 -0.69326131100E+02 -0.19492546746E+03  0.21599320441E+03  0.00000000000E+00 0. -1.
         11    1    4    4    0    0 -0.24778671326E+02  0.53292397324E+01 -0.76383976270E+02  0.80479159909E+02  0.00000000000E+00 0.  1.
</event>
<event>
 8    1  0.6840032E-009  0.1097626E+03  0.7561462E-02  0.1261010E+00
          2   -1    0    0  501    0  0.00000000000E+00  0.00000000000E+00  0.10103209127E+04  0.10103209127E+04  0.00000000000E+00 0. -1.
         -2   -1    0    0    0  501 -0.00000000000E+00 -0.00000000000E+00 -0.14354444182E+02  0.14354444182E+02  0.00000000000E+00 0.  1.
         25    2    1    2    0    0  0.81712477178E+01  0.47109624839E+02  0.65103801404E+03  0.66466826436E+03  0.12508924769E+03 0.  0.
         23    2    1    2    0    0 -0.81712477178E+01 -0.47109624839E+02  0.34492845444E+03  0.36000709248E+03  0.91342114658E+02 0.  0.
          5    1    3    3  502    0 -0.36144977211E+02  0.69469481831E+02  0.48566743084E+03  0.49195812226E+03  0.41800000000E+01 0. -1.
         -5    1    3    3    0  502  0.44316224929E+02 -0.22359856992E+02  0.16537058320E+03  0.17271014210E+03  0.41800000000E+01 0. -1.
        -11    1    4    4    0    0 -0.42938408606E+02 -0.31076889743E+02  0.27705902423E+03  0.28208364525E+03  0.00000000000E+00 0. -1.
         11    1    4    4    0    0  0.34767160888E+02 -0.16032735095E+02  0.67869430203E+02  0.77923447222E+02  0.00000000000E+00 0.  1.
</event>
<event>
 8    1  0.6840032E-009  0.2073305E+03  0.7561462E-02  0.1143698E+00
          2   -1    0    0  501    0  0.00000000000E+00  0.00000000000E+00  0.70279009835E+03  0.70279009835E+03  0.00000000000E+00 0. -1.
         -2   -1    0    0    0  501 -0.00000000000E+00 -0.00000000000E+00 -0.75118873878E+02  0.75118873878E+02  0.00000000000E+00 0.  1.
         25    2    1    2    0    0 -0.17760380473E+03  0.90843912362E+02  0.26791950948E+03  0.35668532898E+03  0.12509129658E+03 0.  0.
         23    2    1    2    0    0  0.17760380473E+03 -0.90843912362E+02  0.35975171500E+03  0.42122364326E+03  0.90621925183E+02 0.  0.
          5    1    3    3  502    0 -0.27836202015E+02  0.34302179559E+02 -0.21083667263E+00  0.44373533973E+02  0.41800000000E+01 0. -1.
         -5    1    3    3    0  502 -0.14976760272E+03  0.56541732803E+02  0.26813034615E+03  0.31231179500E+03  0.41800000000E+01 0. -1.
        -11    1    4    4    0    0  0.56463366550E+02 -0.65332226855E+02  0.91657660221E+02  0.12592671800E+03  0.00000000000E+00 0.  1.
         11    1    4    4    0    0  0.12114043818E+03 -0.25511685507E+02  0.26809405478E+03  0.29529692526E+03  0.00000000000E+00 0. -1.
</event>
<event>
 8    1  0.6840032E-009  0.1180542E+03  0.7561462E-02  0.1246342E+00
          1   -1    0    0  501    0  0.00000000000E+00  0.00000000000E+00  0.63576900363E+03  0.63576900363E+03  0.00000000000E+00 0. -1.
         -1   -1    0    0    0  501 -0.00000000000E+00 -0.00000000000E+00 -0.29521223969E+02  0.29521223969E+02  0.00000000000E+00 0.  1.
         25    2    1    2    0    0  0.66059809553E+01  0.80720711041E+02  0.29648796701E+03  0.33183146180E+03  0.12509009668E+03 0.  0.
         23    2    1    2    0    0 -0.66059809553E+01 -0.80720711041E+02  0.30975981265E+03  0.33345876579E+03  0.93188705194E+02 0.  0.
          5    1    3    3  502    0  0.31633803841E+02  0.38263655185E+01  0.93136907605E+01  0.33459764705E+02  0.41800000000E+01 0. -1.
         -5    1    3    3    0  502 -0.25027822885E+02  0.76894345522E+02  0.28717427625E+03  0.29837169710E+03  0.41800000000E+01 0. -1.
        -11    1    4    4    0    0  0.40613933904E+02 -0.57448026982E+02  0.19135015818E+03  0.20387410446E+03  0.00000000000E+00 0. -1.
         11    1    4    4    0    0 -0.47219914859E+02 -0.23272684058E+02  0.11840965447E+03  0.12958466134E+03  0.00000000000E+00 0.  1.
</event>
<event>
 8    1  0.6840032E-009  0.2231121E+03  0.7561462E-02  0.1131584E+00
          1   -1    0    0  501    0  0.00000000000E+00  0.00000000000E+00  0.12681623139E+03  0.12681623139E+03  0.00000000000E+00 0.  1.
         -1   -1    0    0    0  501 -0.00000000000E+00 -0.00000000000E+00 -0.97057525239E+03  0.97057525239E+03  0.00000000000E+00 0. -1.
         25    2    1    2    0    0  0.19621775440E+03  0.90609778293E+01 -0.69301881080E+01  0.23297805337E+03  0.12508891791E+03 0.  0.
         23    2    1    2    0    0 -0.19621775440E+03 -0.90609778293E+01 -0.83682883290E+03  0.86441343041E+03  0.91348643332E+02 0.  0.
          5    1    3    3  502    0  0.13898735633E+03  0.64140556509E+02  0.74691043352E-01  0.15313057888E+03  0.41800000000E+01 0. -1.
         -5    1    3    3    0  502  0.57230398070E+02 -0.55079578679E+02 -0.70048791514E+01  0.79847474492E+02  0.41800000000E+01 0. -1.
        -11    1    4    4    0    0 -0.15697208237E+03 -0.41803720597E+02 -0.56815062756E+03  0.59091701727E+03  0.00000000000E+00 0.  1.
         11    1    4    4    0    0 -0.39245672034E+02  0.32742742768E+02 -0.26867820534E+03  0.27349641314E+03  0.00000000000E+00 0. -1.
</event>
<event>
 8    1  0.6840032E-009  0.1368979E+03  0.7561462E-02  0.1217565E+00
          2   -1    0    0  501    0  0.00000000000E+00  0.00000000000E+00  0.25802220070E+03  0.25802220070E+03  0.00000000000E+00 0. -1.
         -2   -1    0    0    0  501 -0.00000000000E+00 -0.00000000000E+00 -0.10531856785E+03  0.10531856785E+03  0.00000000000E+00 0.  1.
         25    2    1    2    0    0  0.90707665131E+01 -0.12127747475E+03  0.71534119468E+02  0.18856233774E+03  0.12509244692E+03 0.  0.
         23    2    1    2    0    0 -0.90707665131E+01  0.12127747475E+03  0.81169513380E+02  0.17477843081E+03  0.95752312169E+02 0.  0.
          5    1    3    3  502    0 -0.17353171562E+02 -0.12395951082E+03  0.15220545941E+02  0.12615954305E+03  0.41800000000E+01 0.  1.
         -5    1    3    3    0  502  0.26423938075E+02  0.26820360610E+01  0.56313573527E+02  0.62402794683E+02  0.41800000000E+01 0.  1.
        -11    1    4    4    0    0 -0.85439334869E+01  0.93729602299E+02  0.55341355065E+01  0.94280771117E+02  0.00000000000E+00 0.  1.
         11    1    4    4    0    0 -0.52683302614E+00  0.27547872455E+02  0.75635377873E+02  0.80497659692E+02  0.00000000000E+00 0. -1.
</event>
<event>
 8    1  0.6840032E-009  0.1213286E+03  0.7561462E-02  0.1240921E+00
         -1   -1    0    0    0  501 -0.00000000000E+00  0.00000000000E+00  0.36476082514E+03  0.36476082514E+03  0.00000000000E+00 0.  1.
          1   -1    0    0  501    0  0.00000000000E+00 -0.00000000000E+00 -0.66876883707E+02  0.66876883707E+02  0.00000000000E+00 0. -1.
         25    2    1    2    0    0  0.36203793195E+02 -0.83540656024E+02  0.24995299826E+03  0.29396209380E+03  0.12508978936E+03 0.  0.
         23    2    1    2    0    0 -0.36203793195E+02  0.83540656024E+02  0.47930943172E+02  0.13767561505E+03  0.91473732919E+02 0.  0.
          5    1    3    3  502    0  0.55176313937E+01 -0.10582150545E+03  0.22395602622E+03  0.24779509550E+03  0.41800000000E+01 0.  1.
         -5    1    3    3    0  502  0.30686161801E+02  0.22280849426E+02  0.25996972043E+02  0.46166998306E+02  0.41800000000E+01 0.  1.
        -11    1    4    4    0    0  0.57244573689E+01  0.29546599920E+02  0.61051071183E+02  0.68066175679E+02  0.00000000000E+00 0.  1.
         11    1    4    4    0    0 -0.41928250563E+02  0.53994056105E+02 -0.13120128011E+02  0.69609439367E+02  0.00000000000E+00 0. -1.
</event>
<event>
 8    1  0.6840032E-009  0.1286682E+03  0.7561462E-02  0.1229445E+00
         -1   -1    0    0    0  501 -0.00000000000E+00  0.00000000000E+00  0.10090516850E+03  0.10090516850E+03  0.00000000000E+00 0.  1.
          1   -1    0    0  501    0  0.00000000000E+00 -0.00000000000E+00 -0.25490073081E+03  0.25490073081E+03  0.00000000000E+00 0. -1.
         25    2    1    2    0    0 -0.55416225714E+02  0.72768734119E+02 -0.16833664591E+03  0.22880353639E+03  0.12509030805E+03 0.  0.
         23    2    1    2    0    0  0.55416225714E+02 -0.72768734119E+02  0.14341083611E+02  0.12700236292E+03  0.86934957126E+02 0.  0.
          5    1    3    3  502    0 -0.56646949102E+02  0.10168838988E+03 -0.96558230771E+02  0.15129563711E+03  0.41800000000E+01 0. -1.
         -5    1    3    3    0  502  0.12307233880E+01 -0.28919655764E+02 -0.71778415144E+02  0.77507899276E+02  0.41800000000E+01 0. -1.
        -11    1    4    4    0    0  0.51507563602E+02 -0.14909140920E+02 -0.22658793689E+02  0.58212820947E+02  0.00000000000E+00 0. -1.
         11    1    4    4    0    0  0.39086621118E+01 -0.57859593199E+02  0.36999877300E+02  0.68789541973E+02  0.00000000000E+00 0.  1.
</event>
<event>
 8    1  0.6840032E-009  0.3967839E+03  0.7561462E-02  0.1044899E+00
         -1   -1    0    0    0  501 -0.00000000000E+00  0.00000000000E+00  0.41460073548E+03  0.41460073548E+03  0.00000000000E+00 0.  1.
          1   -1    0    0  501    0  0.00000000000E+00 -0.00000000000E+00 -0.39990071316E+03  0.39990071316E+03  0.00000000000E+00 0. -1.
         25    2    1    2    0    0 -0.30157043351E+02 -0.38218954891E+03  0.91552178844E+02  0.41353084959E+03  0.12509062135E+03 0.  0.
         23    2    1    2    0    0  0.30157043351E+02  0.38218954891E+03 -0.76852156521E+02  0.40097059905E+03  0.88841818861E+02 0.  0.
          5    1    3    3  502    0 -0.67553831288E+02 -0.32377479996E+03  0.94420240402E+02  0.34398589420E+03  0.41800000000E+01 0. -1.
         -5    1    3    3    0  502  0.37396787938E+02 -0.58414748952E+02 -0.28680615579E+01  0.69544955390E+02  0.41800000000E+01 0. -1.
        -11    1    4    4    0    0 -0.30777527276E+02  0.15893653041E+03 -0.38361007052E+02  0.16637200409E+03  0.00000000000E+00 0.  1.
         11    1    4    4    0    0  0.60934570626E+02  0.22325301851E+03 -0.38491149469E+02  0.23459859496E+03  0.00000000000E+00 0. -1.
</event>
<event>
 8    1  0.6840032E-009  0.1633406E+03  0.7561462E-02  0.1184976E+00
         -3   -1    0    0    0  501 -0.00000000000E+00  0.00000000000E+00  0.53474227666E+02  0.53474227666E+02  0.00000000000E+00 0.  1.
          3   -1    0    0  501    0  0.00000000000E+00 -0.00000000000E+00 -0.59500819231E+03  0.59500819231E+03  0.00000000000E+00 0. -1.
         25    2    1    2    0    0 -0.82965552638E+02 -0.11413139723E+03 -0.28284769586E+03  0.33994991622E+03  0.12511541763E+03 0.  0.
         23    2    1    2    0    0  0.82965552638E+02  0.11413139723E+03 -0.25868626878E+03  0.30853250375E+03  0.91457429743E+02 0.  0.
          5    1    3    3  502    0 -0.28588012238E+02  0.22811384817E+02 -0.89865129901E+02  0.97112551676E+02  0.41800000000E+01 0. -1.
         -5    1    3    3    0  502 -0.54377540399E+02 -0.13694278205E+03 -0.19298256596E+03  0.24283736455E+03  0.41800000000E+01 0. -1.
        -11    1    4    4    0    0  0.57073917356E+02  0.92674274619E+02 -0.10507465680E+03  0.15128329954E+03  0.00000000000E+00 0.  1.
         11    1    4    4    0    0  0.25891635282E+02  0.21457122616E+02 -0.15361161198E+03  0.15724920421E+03  0.00000000000E+00 0. -1.
</event>
<event>
 8    1  0.6840032E-009  0.2044898E+03  0.7561462E-02  0.1146005E+00
          2   -1    0    0  501    0  0.00000000000E+00  0.00000000000E+00  0.75015357389E+03  0.75015357389E+03  0.00000000000E+00 0. -1.
         -2   -1    0    0    0  501 -0.00000000000E+00 -0.00000000000E+00 -0.66876996929E+02  0.66876996929E+02  0.00000000000E+00 0.  1.
         25    2    1    2    0    0  0.16255685323E+03 -0.85857688216E+02  0.23234094402E+03  0.32159891539E+03  0.12508906808E+03 0.  0.
         23    2    1    2    0    0 -0.16255685323E+03  0.85857688216E+02  0.45093563294E+03  0.49543165543E+03  0.91177338112E+02 0.  0.
          5    1    3    3  502    0  0.17026796442E+03 -0.63475699615E+02  0.23535494170E+03  0.29737142622E+03  0.41800000000E+01 0.  1.
         -5    1    3    3    0  502 -0.77111111840E+01 -0.22381988602E+02 -0.30139976843E+01  0.24227489170E+02  0.41800000000E+01 0.  1.
        -11    1    4    4    0    0 -0.10489058995E+03  0.65157027742E+01  0.19836342384E+03  0.22448282375E+03  0.00000000000E+00 0.  1.
         11    1    4    4    0    0 -0.57666263278E+02  0.79341985442E+02  0.25257220911E+03  0.27094883168E+03  0.00000000000E+00 0. -1.
</event>
<event>
 8    1  0.6840032E-009  0.1391820E+03  0.7561462E-02  0.1214434E+00
         -2   -1    0    0    0  501 -0.00000000000E+00  0.00000000000E+00  0.32584283611E+02  0.32584283611E+02  0.00000000000E+00 0.  1.
          2   -1    0    0  501    0  0.00000000000E+00 -0.00000000000E+00 -0.81044849280E+03  0.81044849280E+03  0.00000000000E+00 0. -1.
         25    2    1    2    0    0 -0.88953486942E+02 -0.72065711548E+02 -0.51499548464E+03  0.54219467714E+03  0.12509408100E+03 0.  0.
         23    2    1    2    0    0  0.88953486942E+02  0.72065711548E+02 -0.26286872455E+03  0.30083809927E+03  0.91090098285E+02 0.  0.
          5    1    3    3  502    0 -0.22232007315E+02 -0.60520719394E+02 -0.42291019639E+03  0.42781716450E+03  0.41800000000E+01 0.  1.
         -5    1    3    3    0  502 -0.66721479627E+02 -0.11544992154E+02 -0.92085288247E+02  0.11437751265E+03  0.41800000000E+01 0.  1.
        -11    1    4    4    0    0 -0.91312284426E+01  0.42497308876E+02 -0.88606375793E+02  0.98693922942E+02  0.00000000000E+00 0.  1.
         11    1    4    4    0    0  0.98084715385E+02  0.29568402672E+02 -0.17426234876E+03  0.20214417633E+03  0.00000000000E+00 0. -1.
</event>
<event>
 8    1  0.6840032E-009  0.1219908E+03  0.7561462E-02  0.1239849E+00
         -2   -1    0    0    0  501 -0.00000000000E+00  0.00000000000E+00  0.16014186684E+03  0.16014186684E+03  0.00000000000E+00 0.  1.
          2   -1    0    0  501    0  0.00000000000E+00 -0.00000000000E+00 -0.13406716968E+03  0.13406716968E+03  0.00000000000E+00 0. -1.
         25    2    1    2    0    0  0.63007554969E+02 -0.57398655179E+02  0.63767950097E+02  0.16424928278E+03  0.12508764062E+03 0.  0.
         23    2    1    2    0    0 -0.63007554969E+02  0.57398655179E+02 -0.37693252937E+02  0.12995975374E+03  0.90577031724E+02 0.  0.
          5    1    3    3  502    0 -0.34484895328E+02 -0.29496178082E+02  0.23750446780E+01  0.45632726901E+02  0.41800000000E+01 0.  1.
         -5    1    3    3    0  502  0.97492450297E+02 -0.27902477097E+02  0.61392905419E+02  0.11861655588E+03  0.41800000000E+01 0.  1.
        -11    1    4    4    0    0 -0.66493381538E+02  0.36742371267E+02  0.11178501063E+02  0.76787567488E+02  0.00000000000E+00 0.  1.
         11    1    4    4    0    0  0.34858265695E+01  0.20656283911E+02 -0.48871753999E+02  0.53172186252E+02  0.00000000000E+00 0. -1.
</event>
<event>
 8    1  0.6840032E-009  0.1059468E+03  0.7561462E-02  0.1268265E+00
          3   -1    0    0  501    0  0.00000000000E+00  0.00000000000E+00  0.45167182790E+02  0.45167182790E+02  0.00000000000E+00 0. -1.
         -3   -1    0    0    0  501 -0.00000000000E+00 -0.00000000000E+00 -0.43587919811E+03  0.43587919811E+03  0.00000000000E+00 0.  1.
         25    2    1    2    0    0 -0.66182446506E+01 -0.81084680497E+02 -0.15340096495E+03  0.21400680900E+03  0.12509409130E+03 0.  0.
         23    2    1    2    0    0  0.66182446506E+01  0.81084680497E+02 -0.23731105037E+03  0.26703957190E+03  0.91515418146E+02 0.  0.
          5    1    3    3  502    0 -0.20346241273E+02 -0.26612601333E+02 -0.15401639811E+03  0.15767283650E+03  0.41800000000E+01 0. -1.
         -5    1    3    3    0  502  0.13727996622E+02 -0.54472079164E+02  0.61543316116E+00  0.56333972500E+02  0.41800000000E+01 0. -1.
        -11    1    4    4    0    0 -0.39414808016E+02  0.58474286626E+02 -0.15070283303E+03  0.16638543557E+03  0.00000000000E+00 0.  1.
         11    1    4    4    0    0  0.46033052666E+02  0.22610393871E+02 -0.86608217347E+02  0.10065413633E+03  0.00000000000E+00 0. -1.
</event>
<event>
 8    1  0.6840032E-009  0.9875203E+02  0.7561462E-02  0.1282942E+00
         -1   -1    0    0    0  501 -0.00000000000E+00  0.00000000000E+00  0.63983494182E+02  0.63983494182E+02  0.00000000000E+00 0.  1.
          1   -1    0    0  501    0  0.00000000000E+00 -0.00000000000E+00 -0.20480867554E+03  0.20480867554E+03  0.00000000000E+00 0. -1.
         25    2    1    2    0    0 -0.50346429935E+01 -0.35948566594E+02 -0.78393358031E+02  0.15202427440E+03  0.12509282294E+03 0.  0.
         23    2    1    2    0    0  0.50346429935E+01  0.35948566594E+02 -0.62431823326E+02  0.11676789533E+03  0.91757080079E+02 0.  0.
          5    1    3    3  502    0 -0.41207654788E+02  0.10163087335E+02 -0.82764236588E+02  0.93106124478E+02  0.41800000000E+01 0.  1.
         -5    1    3    3    0  502  0.36173011794E+02 -0.46111653929E+02  0.43708785570E+01  0.58918149917E+02  0.41800000000E+01 0.  1.
        -11    1    4    4    0    0  0.25473645088E+00  0.65834372905E+02 -0.29812659287E+02  0.72270493289E+02  0.00000000000E+00 0.  1.
         11    1    4    4    0    0  0.47799065426E+01 -0.29885806311E+02 -0.32619164038E+02  0.44497402036E+02  0.00000000000E+00 0. -1.
</event>
<event>
 8    1  0.6840032E-009  0.1282859E+03  0.7561462E-02  0.1230022E+00
         -2   -1    0    0    0  501 -0.00000000000E+00  0.00000000000E+00  0.50712321034E+02  0.50712321034E+02  0.00000000000E+00 0.  1.
          2   -1    0    0  501    0  0.00000000000E+00 -0.00000000000E+00 -0.35140569847E+03  0.35140569847E+03  0.00000000000E+00 0. -1.
         25    2    1    2    0    0 -0.16149798937E+02  0.75731264364E+02 -0.14343021137E+03  0.20546430567E+03  0.12508922800E+03 0.  0.
         23    2    1    2    0    0  0.16149798937E+02 -0.75731264364E+02 -0.15726316607E+03  0.19665371384E+03  0.89134389308E+02 0.  0.
          5    1    3    3  502    0  0.49061127587E+02  0.19129223419E+02 -0.88413768847E+02  0.10299217616E+03  0.41800000000E+01 0. -1.
         -5    1    3    3    0  502 -0.65210926524E+02  0.56602040945E+02 -0.55016442523E+02  0.10247212950E+03  0.41800000000E+01 0. -1.
        -11    1    4    4    0    0  0.52493843245E+02 -0.37261372536E+02 -0.75012404269E+02  0.98847732680E+02  0.00000000000E+00 0.  1.
         11    1    4    4    0    0 -0.36344044308E+02 -0.38469891829E+02 -0.82250761801E+02  0.97805981161E+02  0.00000000000E+00 0. -1.
</event>
<event>
 8    1  0.6840032E-009  0.1392314E+03  0.7561462E-02  0.1214367E+00
         -1   -1    0    0    0  501 -0.00000000000E+00  0.00000000000E+00  0.14158331286E+02  0.14158331286E+02  0.00000000000E+00 0.  1.
          1   -1    0    0  501    0  0.00000000000E+00 -0.00000000000E+00 -0.13806777483E+04  0.13806777483E+04  0.00000000000E+00 0. -1.
         25    2    1    2    0    0 -0.69492407655E+02 -0.54188486317E+02 -0.76618769074E+03  0.78131724581E+03  0.12508986526E+03 0.  0.
         23    2    1    2    0    0  0.69492407655E+02  0.54188486317E+02 -0.60033172624E+03  0.61351883374E+03  0.90783209094E+02 0.  0.
          5    1    3    3  502    0 -0.87270780344E+02 -0.81883612200E+02 -0.58836850022E+03  0.60042991223E+03  0.41800000000E+01 0.  1.
         -5    1    3    3    0  502  0.17778372689E+02  0.27695125884E+02 -0.17781919052E+03  0.18088733358E+03  0.41800000000E+01 0.  1.
        -11    1    4    4    0    0  0.24422974692E+02  0.72796690116E+02 -0.40321266607E+03  0.41045863844E+03  0.00000000000E+00 0. -1.
         11    1    4    4    0    0  0.45069432963E+02 -0.18608203800E+02 -0.19711906017E+03  0.20306019530E+03  0.00000000000E+00 0.  1.
</event>
<event>
 8    1  0.6840032E-009  0.1315120E+03  0.7561462E-02  0.1225229E+00
         -1   -1    0    0    0  501 -0.00000000000E+00  0.00000000000E+00  0.23346330977E+02  0.23346330977E+02  0.00000000000E+00 0.  1.
          1   -1    0    0  501    0  0.00000000000E+00 -0.00000000000E+00 -0.10076383779E+04  0.10076383779E+04  0.00000000000E+00 0. -1.
         25    2    1    2    0    0  0.46444906699E+02 -0.92641649015E+02 -0.63564066313E+03  0.65607249375E+03  0.12510979151E+03 0.  0.
         23    2    1    2    0    0 -0.46444906699E+02  0.92641649015E+02 -0.34865138381E+03  0.37491221515E+03  0.90894318555E+02 0.  0.
          5    1    3    3  502    0 -0.34207878488E+02 -0.81905978471E+01 -0.69588989811E+02  0.78085624456E+02  0.41800000000E+01 0.  1.
         -5    1    3    3    0  502  0.80652785187E+02 -0.84451051168E+02 -0.56605167332E+03  0.57798686929E+03  0.41800000000E+01 0.  1.
        -11    1    4    4    0    0  0.67986772491E+01  0.16435710503E+02 -0.43903869984E+01  0.18320209881E+02  0.00000000000E+00 0.  1.
         11    1    4    4    0    0 -0.53243583948E+02  0.76205938511E+02 -0.34426099681E+03  0.35659200527E+03  0.00000000000E+00 0. -1.
</event>
<event>
 8    1  0.6840032E-009  0.1451765E+03  0.7561462E-02  0.1206529E+00
          1   -1    0    0  501    0  0.00000000000E+00  0.00000000000E+00  0.32221378221E+03  0.32221378221E+03  0.00000000000E+00 0. -1.
         -1   -1    0    0    0  501 -0.00000000000E+00 -0.00000000000E+00 -0.75540360521E+02  0.75540360521E+02  0.00000000000E+00 0.  1.
         25    2    1    2    0    0  0.13294303225E+01  0.10970816329E+03  0.15629271957E+03  0.22826992577E+03  0.12506836668E+03 0.  0.
         23    2    1    2    0    0 -0.13294303225E+01 -0.10970816329E+03  0.90380702120E+02  0.16948421696E+03  0.92296153801E+02 0.  0.
          5    1    3    3  502    0  0.58657565170E+02  0.85108009284E+02  0.89649025574E+02  0.13688865323E+03  0.41800000000E+01 0. -1.
         -5    1    3    3    0  502 -0.57328134848E+02  0.24600154003E+02  0.66643693996E+02  0.91381272543E+02  0.41800000000E+01 0. -1.
        -11    1    4    4    0    0  0.13558955248E+02 -0.10860951437E+03  0.10272890099E+03  0.15011028938E+03  0.00000000000E+00 0. -1.
         11    1    4    4    0    0 -0.14888385570E+02 -0.10986489136E+01 -0.12348198873E+02  0.19373927577E+02  0.00000000000E+00 0.  1.
</event>
<event>
 8    1  0.6840032E-009  0.1145198E+03  0.7561462E-02  0.1252422E+00
          3   -1    0    0  501    0  0.00000000000E+00  0.00000000000E+00  0.34754999170E+03  0.34754999170E+03  0.00000000000E+00 0. -1.
         -3   -1    0    0    0  501 -0.00000000000E+00 -0.00000000000E+00 -0.44895124004E+02  0.44895124004E+02  0.00000000000E+00 0.  1.
         25    2    1    2    0    0  0.30567814243E+02  0.56886432528E+02  0.15755337235E+03  0.21128525210E+03  0.12509170693E+03 0.  0.
         23    2    1    2    0    0 -0.30567814243E+02 -0.56886432528E+02  0.14510149534E+03  0.18115986360E+03  0.87143529632E+02 0.  0.
          5    1    3    3  502    0 -0.31881856685E+02  0.59048611396E+02  0.12192058191E+03  0.13923107407E+03  0.41800000000E+01 0.  1.
         -5    1    3    3    0  502  0.62449670928E+02 -0.21621788684E+01  0.35632790438E+02  0.72054178025E+02  0.41800000000E+01 0.  1.
        -11    1    4    4    0    0  0.24600132456E+02 -0.92277683730E+01  0.10920609008E+02  0.28453082911E+02  0.00000000000E+00 0.  1.
         11    1    4    4    0    0 -0.55167946699E+02 -0.47658664155E+02  0.13418088633E+03  0.15270678069E+03  0.00000000000E+00 0. -1.
</event>
<event>
 8    1  0.6840032E-009  0.1183396E+03  0.7561462E-02  0.1245862E+00
          1   -1    0    0  501    0  0.00000000000E+00  0.00000000000E+00  0.23494910817E+03  0.23494910817E+03  0.00000000000E+00 0. -1.
         -1   -1    0    0    0  501 -0.00000000000E+00 -0.00000000000E+00 -0.91889372805E+02  0.91889372805E+02  0.00000000000E+00 0.  1.
         25    2    1    2    0    0 -0.35389049825E+02 -0.31450319815E+02  0.16777950274E+03  0.21456760025E+03  0.12509111110E+03 0.  0.
         23    2    1    2    0    0  0.35389049825E+02  0.31450319815E+02 -0.24719767375E+02  0.11227088072E+03  0.98753107773E+02 0.  0.
          5    1    3    3  502    0 -0.79262349366E+02 -0.20474233878E+02  0.74275615382E+02  0.11061669729E+03  0.41800000000E+01 0.  1.
         -5    1    3    3    0  502  0.43873299542E+02 -0.10976085936E+02  0.93503887357E+02  0.10395090296E+03  0.41800000000E+01 0.  1.
        -11    1    4    4    0    0 -0.34497190101E+02  0.66366616702E+01 -0.46018387084E+01  0.35429907176E+02  0.00000000000E+00 0. -1.
         11    1    4    4    0    0  0.69886239926E+02  0.24813658145E+02 -0.20117928666E+02  0.76840973545E+02  0.00000000000E+00 0.  1.
</event>
<event>
 8    1  0.6840032E-009  0.1807087E+03  0.7561462E-02  0.1167119E+00
          1   -1    0    0  501    0  0.00000000000E+00  0.00000000000E+00  0.55322730381E+03  0.55322730381E+03  0.00000000000E+00 0. -1.
         -1   -1    0    0    0  501 -0.00000000000E+00 -0.00000000000E+00 -0.73766833734E+02  0.73766833734E+02  0.00000000000E+00 0.  1.
         25    2    1    2    0    0  0.14303644004E+03  0.91036122869E+02  0.22544127047E+03  0.30857730574E+03  0.12509671594E+03 0.  0.
         23    2    1    2    0    0 -0.14303644004E+03 -0.91036122869E+02  0.25401919961E+03  0.31841683180E+03  0.90091765220E+02 0.  0.
          5    1    3    3  502    0  0.78742572220E+02  0.41804212335E+01  0.16911953379E+03  0.18664607607E+03  0.41800000000E+01 0. -1.
         -5    1    3    3    0  502  0.64293867824E+02  0.86855701636E+02  0.56321736676E+02  0.12193122967E+03  0.41800000000E+01 0. -1.
        -11    1    4    4    0    0 -0.75534267467E+02 -0.71570640465E+02  0.81604361806E+02  0.13223862524E+03  0.00000000000E+00 0.  1.
         11    1    4    4    0    0 -0.67502172577E+02 -0.19465482405E+02  0.17241483780E+03  0.18617820657E+03  0.00000000000E+00 0. -1.
</event>
<event>
 8    1  0.6840032E-009  0.1943616E+03  0.7561462E-02  0.1154585E+00
          2   -1    0    0  501    0  0.00000000000E+00  0.00000000000E+00  0.60048831884E+03  0.60048831884E+03  0.00000000000E+00 0. -1.
         -2   -1    0    0    0  501 -0.00000000000E+00 -0.00000000000E+00 -0.71156235898E+02  0.71156235898E+02  0.00000000000E+00 0.  1.
         25    2    1    2    0    0  0.17027522181E+03  0.21660784499E+02  0.21597052156E+03  0.30290813684E+03  0.12508889813E+03 0.  0.
         23    2    1    2    0    0 -0.17027522181E+03 -0.21660784499E+02  0.31336156138E+03  0.36873641789E+03  0.91149530890E+02 0.  0.
          5    1    3    3  502    0  0.33613954803E+02 -0.43081696875E+02  0.93033401842E+02  0.10797507500E+03  0.41800000000E+01 0. -1.
         -5    1    3    3    0  502  0.13666126701E+03  0.64742481374E+02  0.12293711972E+03  0.19493306184E+03  0.41800000000E+01 0. -1.
        -11    1    4    4    0    0 -0.14016799284E+03 -0.41978641212E+02  0.18806070310E+03  0.23827736062E+03  0.00000000000E+00 0.  1.
         11    1    4    4    0    0 -0.30107228970E+02  0.20317856712E+02  0.12530085828E+03  0.13045905727E+03  0.00000000000E+00 0. -1.
</event>
<event>
 8    1  0.6840032E-009  0.1023679E+03  0.7561462E-02  0.1275394E+00
          2   -1    0    0  501    0  0.00000000000E+00  0.00000000000E+00  0.11320193779E+04  0.11320193779E+04  0.00000000000E+00 0. -1.
         -2   -1    0    0    0  501 -0.00000000000E+00 -0.00000000000E+00 -0.30990790354E+02  0.30990790354E+02  0.00000000000E+00 0.  1.
         25    2    1    2    0    0  0.31526939145E+02  0.41588162802E+02  0.10270701654E+04  0.10359748776E+04  0.12508916437E+03 0.  0.
         23    2    1    2    0    0 -0.31526939145E+02 -0.41588162802E+02  0.73958422082E+02  0.12703529066E+03  0.89132450313E+02 0.  0.
          5    1    3    3  502    0  0.67579335096E+02  0.42364674151E+02  0.90768937318E+03  0.91119657744E+03  0.41800000000E+01 0. -1.
         -5    1    3    3    0  502 -0.36052395950E+02 -0.77651134916E+00  0.11938079224E+03  0.12477830012E+03  0.41800000000E+01 0. -1.
        -11    1    4    4    0    0 -0.36515121263E+02  0.90988927063E+01  0.65307625042E+02  0.75373933279E+02  0.00000000000E+00 0. -1.
         11    1    4    4    0    0  0.49881821173E+01 -0.50687055508E+02  0.86507970400E+01  0.51661357380E+02  0.00000000000E+00 0.  1.
</event>
<event>
 8    1  0.6840032E-009  0.9287803E+02  0.7561462E-02  0.1296028E+00
          1   -1    0    0  501    0  0.00000000000E+00  0.00000000000E+00  0.44039653068E+03  0.44039653068E+03  0.00000000000E+00 0. -1.
         -1   -1    0    0    0  501 -0.00000000000E+00 -0.00000000000E+00 -0.33096130736E+02  0.33096130736E+02  0.00000000000E+00 0.  1.
         25    2    1    2    0    0 -0.35071124713E+02  0.28159001972E+02  0.17603692362E+03  0.22058777745E+03  0.12508819250E+03 0.  0.
         23    2    1    2    0    0  0.35071124713E+02 -0.28159001972E+02  0.23126347633E+03  0.25290488397E+03  0.91952007438E+02 0.  0.
          5    1    3    3  502    0 -0.73283219208E+02  0.77846144575E+01  0.55240031395E+02  0.92195248838E+02  0.41800000000E+01 0.  1.
         -5    1    3    3    0  502  0.38212094495E+02  0.20374387515E+02  0.12079689223E+03  0.12839252862E+03  0.41800000000E+01 0.  1.
        -11    1    4    4    0    0  0.37365603994E+02 -0.40953293758E+02  0.23325705603E+03  0.23975448863E+03  0.00000000000E+00 0. -1.
         11    1    4    4    0    0 -0.22944792815E+01  0.12794291786E+02 -0.19935797031E+01  0.13150395337E+02  0.00000000000E+00 0.  1.
</event>
<event>
 8    1  0.6840032E-009  0.1362037E+03  0.7561462E-02  0.1218530E+00
         -2   -1    0    0    0  501 -0.00000000000E+00  0.00000000000E+00  0.49760555220E+02  0.49760555220E+02  0.00000000000E+00 0.  1.
          2   -1    0    0  501    0  0.00000000000E+00 -0.00000000000E+00 -0.43537631299E+03  0.43537631299E+03  0.00000000000E+00 0. -1.
         25    2    1    2    0    0  0.95378674431E+02  0.52023311974E+01 -0.24495380090E+03  0.29116080237E+03  0.12509233579E+03 0.  0.
         23    2    1    2    0    0 -0.95378674431E+02 -0.52023311974E+01 -0.14066195687E+03  0.19397606585E+03  0.93363655797E+02 0.  0.
          5    1    3    3  502    0  0.12116418999E+02  0.44762450352E+02 -0.15671188723E+03  0.16348263691E+03  0.41800000000E+01 0.  1.
         -5    1    3    3    0  502  0.83262255432E+02 -0.39560119155E+02 -0.88241913670E+02  0.12767816546E+03  0.41800000000E+01 0.  1.
        -11    1    4    4    0    0 -0.24019552632E+02 -0.45621100704E+02 -0.54659668302E+02  0.75139224624E+02  0.00000000000E+00 0.  1.
         11    1    4    4    0    0 -0.71359121799E+02  0.40418769507E+02 -0.86002288572E+02  0.11883684122E+03  0.00000000000E+00 0. -1.
</event>
<event>
 8    1  0.6840032E-009  0.1010553E+03  0.7561462E-02  0.1278092E+00
         -1   -1    0    0    0  501 -0.00000000000E+00  0.00000000000E+00  0.19418379506E+03  0.19418379506E+03  0.00000000000E+00 0.  1.
          1   -1    0    0  501    0  0.00000000000E+00 -0.00000000000E+00 -0.71325692440E+02  0.71325692440E+02  0.00000000000E+00 0. -1.
         25    2    1    2    0    0  0.20211301609E+02  0.41765666463E+02  0.66655162122E+02  0.14913935206E+03  0.12508704204E+03 0.  0.
         23    2    1    2    0    0 -0.20211301609E+02 -0.41765666463E+02  0.56202940494E+02  0.11637013544E+03  0.90721388295E+02 0.  0.
          5    1    3    3  502    0  0.13836631913E+02 -0.29362839735E+02 -0.18761558652E+02  0.37723960861E+02  0.41800000000E+01 0.  1.
         -5    1    3    3    0  502  0.63746696956E+01  0.71128506198E+02  0.85416720773E+02  0.11141539120E+03  0.41800000000E+01 0.  1.
        -11    1    4    4    0    0 -0.23638250279E+02  0.23005663912E+02  0.35087691041E+02  0.48157798028E+02  0.00000000000E+00 0.  1.
         11    1    4    4    0    0  0.34269486701E+01 -0.64771330375E+02  0.21115249453E+02  0.68212337412E+02  0.00000000000E+00 0. -1.
</event>
<event>
 8    1  0.6840032E-009  0.9826548E+02  0.7561462E-02  0.1283986E+00
         -1   -1    0    0    0  501 -0.00000000000E+00  0.00000000000E+00  0.28025609992E+03  0.28025609992E+03  0.00000000000E+00 0.  1.
          1   -1    0    0  501    0  0.00000000000E+00 -0.00000000000E+00 -0.47536496192E+02  0.47536496192E+02  0.00000000000E+00 0. -1.
         25    2    1    2    0    0 -0.90069068296E+01  0.37841807020E+02  0.11692087237E+03  0.17558833705E+03  0.12509055513E+03 0.  0.
         23    2    1    2    0    0  0.90069068296E+01 -0.37841807020E+02  0.11579873136E+03  0.15220425907E+03  0.90794622993E+02 0.  0.
          5    1    3    3  502    0 -0.56598486322E+02  0.43905246788E+02  0.10287003679E+03  0.12542239122E+03  0.41800000000E+01 0. -1.
         -5    1    3    3    0  502  0.47591579492E+02 -0.60634397676E+01  0.14050835577E+02  0.50165945828E+02  0.41800000000E+01 0. -1.
        -11    1    4    4    0    0 -0.13056864525E+02  0.14683115831E+02  0.85398668632E+02  0.87629950393E+02  0.00000000000E+00 0.  1.
         11    1    4    4    0    0  0.22063771355E+02 -0.52524922852E+02  0.30400062729E+02  0.64574308675E+02  0.00000000000E+00 0. -1.
</event>
<event>
 8    1  0.6840032E-009  0.1583619E+03  0.7561462E-02  0.1190559E+00
          1   -1    0    0  501    0  0.00000000000E+00  0.00000000000E+00  0.20152215155E+03  0.20152215155E+03  0.00000000000E+00 0. -1.
         -1   -1    0    0    0  501 -0.00000000000E+00 -0.00000000000E+00 -0.15271211160E+03  0.15271211160E+03  0.00000000000E+00 0.  1.
         25    2    1    2    0    0 -0.10883984395E+03 -0.83481745858E+02  0.23827060896E+02  0.18716564942E+03  0.12509171824E+03 0.  0.
         23    2    1    2    0    0  0.10883984395E+03  0.83481745858E+02  0.24982979058E+02  0.16706861373E+03  0.92045960952E+02 0.  0.
          5    1    3    3  502    0 -0.12953305722E+03 -0.54440522630E+02 -0.56910512527E+01  0.14068562073E+03  0.41800000000E+01 0.  1.
         -5    1    3    3    0  502  0.20693213273E+02 -0.29041223228E+02  0.29518112148E+02  0.46480028689E+02  0.41800000000E+01 0.  1.
        -11    1    4    4    0    0  0.91246435852E+02  0.81854881848E+02 -0.14865052069E+02  0.12347916225E+03  0.00000000000E+00 0.  1.
         11    1    4    4    0    0  0.17593408096E+02  0.16268640102E+01  0.39848031127E+02  0.43589451472E+02  0.00000000000E+00 0. -1.
</event>
<event>
 8    1  0.6840032E-009  0.1887104E+03  0.7561462E-02  0.1159630E+00
          2   -1    0    0  501    0  0.00000000000E+00  0.00000000000E+00  0.16243136347E+04  0.16243136347E+04  0.00000000000E+00 0. -1.
         -2   -1    0    0    0  501 -0.00000000000E+00 -0.00000000000E+00 -0.24225256922E+02  0.24225256922E+02  0.00000000000E+00 0.  1.
         25    2    1    2    0    0 -0.11022603431E+03 -0.12542446220E+03  0.84189527442E+03  0.86736184472E+03  0.12509133558E+03 0.  0.
         23    2    1    2    0    0  0.11022603431E+03  0.12542446220E+03  0.75819310335E+03  0.78117704689E+03  0.86600936825E+02 0.  0.
          5    1    3    3  502    0 -0.28298855975E+01  0.22251154595E+02  0.15181212057E+03  0.15351714720E+03  0.41800000000E+01 0. -1.
         -5    1    3    3    0  502 -0.10739614872E+03 -0.14767561680E+03  0.69008315385E+03  0.71384469752E+03  0.41800000000E+01 0. -1.
        -11    1    4    4    0    0  0.50387346450E+02  0.28053915262E+02  0.12382687835E+03  0.13659795989E+03  0.00000000000E+00 0. -1.
         11    1    4    4    0    0  0.59838687862E+02  0.97370546939E+02  0.63436622500E+03  0.64457908700E+03  0.00000000000E+00 0.  1.
</event>
<event>
 8    1  0.6840032E-009  0.2168268E+03  0.7561462E-02  0.1136271E+00
         -2   -1    0    0    0  501 -0.00000000000E+00  0.00000000000E+00  0.21077078286E+02  0.21077078286E+02  0.00000000000E+00 0.  1.
          2   -1    0    0  501    0  0.00000000000E+00 -0.00000000000E+00 -0.24558179901E+04  0.24558179901E+04  0.00000000000E+00 0. -1.
         25    2    1    2    0    0 -0.68337755583E+02 -0.17780114803E+03 -0.15908980348E+04  0.16071357529E+04  0.12508186839E+03 0.  0.
         23    2    1    2    0    0  0.68337755583E+02  0.17780114803E+03 -0.84384287704E+03  0.86975931558E+03  0.90150811645E+02 0.  0.
          5    1    3    3  502    0 -0.69125491968E+02 -0.23704998375E+02 -0.46242660435E+03  0.46818382864E+03  0.41800000000E+01 0. -1.
         -5    1    3    3    0  502  0.78773638495E+00 -0.15409614965E+03 -0.11284714305E+04  0.11389519242E+04  0.41800000000E+01 0. -1.
        -11    1    4    4    0    0  0.64798797879E+02  0.59574889028E+02 -0.45045607065E+03  0.45897573269E+03  0.00000000000E+00 0. -1.
         11    1    4    4    0    0  0.35389577041E+01  0.11822625900E+03 -0.39338680638E+03  0.41078358290E+03  0.00000000000E+00 0.  1.
</event>
<event>
 8    1  0.6840032E-009  0.9970526E+02  0.7561462E-02  0.1280917E+00
          2   -1    0    0  501    0  0.00000000000E+00  0.00000000000E+00  0.26777180926E+03  0.26777180926E+03  0.00000000000E+00 0. -1.
         -2   -1    0    0    0  501 -0.00000000000E+00 -0.00000000000E+00 -0.14270434802E+03  0.14270434802E+03  0.00000000000E+00 0.  1.
         25    2    1    2    0    0 -0.63083394956E+02  0.19566681767E+02  0.20304056674E+03  0.24745779579E+03  0.12509004438E+03 0.  0.
         23    2    1    2    0    0  0.63083394956E+02 -0.19566681767E+02 -0.77973105492E+02  0.16301836149E+03  0.12701500403E+03 0.  0.
          5    1    3    3  502    0 -0.23921235964E+02  0.48882279849E+02  0.18851366500E+03  0.19625640654E+03  0.41800000000E+01 0.  1.
         -5    1    3    3    0  502 -0.39162158992E+02 -0.29315598082E+02  0.14526901734E+02  0.51201389256E+02  0.41800000000E+01 0.  1.
        -11    1    4    4    0    0 -0.14477493858E+02 -0.99714354212E+01  0.26956907245E+02  0.32182327464E+02  0.00000000000E+00 0. -1.
         11    1    4    4    0    0  0.77560888814E+02 -0.95952463461E+01 -0.10493001274E+03  0.13083603402E+03  0.00000000000E+00 0.  1.
</event>
<event>
 8    1  0.6840032E-009  0.6245697E+02  0.7561462E-02  0.1387801E+00
          1   -1    0    0  501    0  0.00000000000E+00  0.00000000000E+00  0.60945755301E+03  0.60945755301E+03  0.00000000000E+00 0. -1.
         -1   -1    0    0    0  501 -0.00000000000E+00 -0.00000000000E+00 -0.25088837095E+02  0.25088837095E+02  0.00000000000E+00 0.  1.
         25    2    1    2    0    0 -0.28131148914E+02  0.55858243018E+01  0.46041694896E+03  0.47796856707E+03  0.12509045224E+03 0.  0.
         23    2    1    2    0    0  0.28131148914E+02 -0.55858243018E+01  0.12395176695E+03  0.15657782304E+03  0.91268894831E+02 0.  0.
          5    1    3    3  502    0  0.13454282227E+02  0.95119591513E+00  0.41800549634E+03  0.41824393583E+03  0.41800000000E+01 0. -1.
         -5    1    3    3    0  502 -0.41585431141E+02  0.46346283867E+01  0.42411452618E+02  0.59724631239E+02  0.41800000000E+01 0. -1.
        -11    1    4    4    0    0  0.12195674021E+02  0.28563218908E+02  0.45734057111E+01  0.31392801388E+02  0.00000000000E+00 0.  1.
         11    1    4    4    0    0  0.15935474893E+02 -0.34149043210E+02  0.11937836124E+03  0.12518502165E+03  0.00000000000E+00 0. -1.
</event>
<event>
 8    1  0.6840032E-009  0.2613152E+03  0.7561462E-02  0.1106356E+00
          1   -1    0    0  501    0  0.00000000000E+00  0.00000000000E+00  0.11582958372E+03  0.11582958372E+03  0.00000000000E+00 0. -1.
         -1   -1    0    0    0  501 -0.00000000000E+00 -0.00000000000E+00 -0.60113635311E+03  0.60113635311E+03  0.00000000000E+00 0.  1.
         25    2    1    2    0    0  0.10887217244E+03  0.21320212988E+03 -0.26743406626E+03  0.38009983290E+03  0.12508639039E+03 0.  0.
         23    2    1    2    0    0 -0.10887217244E+03 -0.21320212988E+03 -0.21787270313E+03  0.33686610393E+03  0.93284291760E+02 0.  0.
          5    1    3    3  502    0  0.81258289962E+02  0.22250119303E+03 -0.25522026325E+03  0.34823059280E+03  0.41800000000E+01 0. -1.
         -5    1    3    3    0  502  0.27613882475E+02 -0.92990631529E+01 -0.12213803009E+02  0.31869240104E+02  0.41800000000E+01 0. -1.
        -11    1    4    4    0    0 -0.92859755671E+02 -0.81324509713E+02 -0.93066989250E+02  0.15459002100E+03  0.00000000000E+00 0. -1.
         11    1    4    4    0    0 -0.16012416766E+02 -0.13187762017E+03 -0.12480571388E+03  0.18227608293E+03  0.00000000000E+00 0.  1.
</event>
<event>
 8    1  0.6840032E-009  0.3217452E+03  0.7561462E-02  0.1074849E+00
          2   -1    0    0  501    0  0.00000000000E+00  0.00000000000E+00  0.23163268825E+04  0.23163268825E+04  0.00000000000E+00 0. -1.
         -2   -1    0    0    0  501 -0.00000000000E+00 -0.00000000000E+00 -0.48295042258E+02  0.48295042258E+02  0.00000000000E+00 0.  1.
         25    2    1    2    0    0 -0.28483942280E+03 -0.13652991726E+03  0.10939004220E+04  0.11454427824E+04  0.12508844678E+03 0.  0.
         23    2    1    2    0    0  0.28483942280E+03  0.13652991726E+03  0.11741314183E+04  0.12191791423E+04  0.89662024610E+02 0.  0.
          5    1    3    3  502    0 -0.15707041033E+03 -0.67145509644E+02  0.79339277447E+03  0.81158437654E+03  0.41800000000E+01 0.  1.
         -5    1    3    3    0  502 -0.12776901248E+03 -0.69384407614E+02  0.30050764753E+03  0.33385840590E+03  0.41800000000E+01 0.  1.
        -11    1    4    4    0    0  0.91982127715E+02  0.19656273417E+01  0.37856321740E+03  0.38958270634E+03  0.00000000000E+00 0. -1.
         11    1    4    4    0    0  0.19285729509E+03  0.13456428992E+03  0.79556820085E+03  0.82959643598E+03  0.00000000000E+00 0.  1.
</event>
<event>
 8    1  0.6840032E-009  0.9090870E+02  0.7561462E-02  0.1300666E+00
          2   -1    0    0  501    0  0.00000000000E+00  0.00000000000E+00  0.10232440774E+03  0.10232440774E+03  0.00000000000E+00 0. -1.
         -2   -1    0    0    0  501 -0.00000000000E+00 -0.00000000000E+00 -0.16402445799E+03  0.16402445799E+03  0.00000000000E+00 0.  1.
         25    2    1    2    0    0 -0.21221782145E+01 -0.67506075770E+02 -0.15349758249E+02  0.14298430028E+03  0.12508925270E+03 0.  0.
         23    2    1    2    0    0  0.21221782145E+01  0.67506075770E+02 -0.46350291998E+02  0.12336456545E+03  0.92243658508E+02 0.  0.
          5    1    3    3  502    0 -0.67928723306E+01 -0.52362114266E+02  0.51666998240E+02  0.73992467400E+02  0.41800000000E+01 0.  1.
         -5    1    3    3    0  502  0.46706941161E+01 -0.15143961504E+02 -0.67016756488E+02  0.68991832877E+02  0.41800000000E+01 0.  1.
        -11    1    4    4    0    0  0.45463026405E+02  0.43474082623E+02 -0.36855543022E+02  0.72905512009E+02  0.00000000000E+00 0. -1.
         11    1    4    4    0    0 -0.43340848190E+02  0.24031993146E+02 -0.94947489767E+01  0.50459053445E+02  0.00000000000E+00 0.  1.
</event>
<event>
 8    1  0.6840032E-009  0.1152133E+03  0.7561462E-02  0.1251209E+00
          2   -1    0    0  501    0  0.00000000000E+00  0.00000000000E+00  0.81795248190E+03  0.81795248190E+03  0.00000000000E+00 0. -1.
         -2   -1    0    0    0  501 -0.00000000000E+00 -0.00000000000E+00 -0.22249945236E+02  0.22249945236E+02  0.00000000000E+00 0.  1.
         25    2    1    2    0    0  0.16318185596E+02  0.57979188443E+02  0.59928912745E+03  0.61516110878E+03  0.12509141459E+03 0.  0.
         23    2    1    2    0    0 -0.16318185596E+02 -0.57979188443E+02  0.19641340921E+03  0.22504131835E+03  0.91855855415E+02 0.  0.
          5    1    3    3  502    0  0.44061281746E+02 -0.18564668960E+02  0.33964377303E+03  0.34301808763E+03  0.41800000000E+01 0.  1.
         -5    1    3    3    0  502 -0.27743096150E+02  0.76543857403E+02  0.25964535442E+03  0.27214302115E+03  0.41800000000E+01 0.  1.
        -11    1    4    4    0    0 -0.36577740193E+02  0.29522369344E+01  0.32573871004E+02  0.49068358977E+02  0.00000000000E+00 0.  1.
         11    1    4    4    0    0  0.20259554597E+02 -0.60931425378E+02  0.16383953821E+03  0.17597295938E+03  0.00000000000E+00 0. -1.
</event>
<event>
 8    1  0.6840032E-009  0.1295000E+03  0.7561462E-02  0.1228200E+00
          2   -1    0    0  501    0  0.00000000000E+00  0.00000000000E+00  0.61029914421E+03  0.61029914421E+03  0.00000000000E+00 0. -1.
         -2   -1    0    0    0  501 -0.00000000000E+00 -0.00000000000E+00 -0.45350269391E+02  0.45350269391E+02  0.00000000000E+00 0.  1.
         25    2    1    2    0    0 -0.12333197025E+03  0.77143589195E+01  0.25632325835E+03  0.31083679392E+03  0.12509042114E+03 0.  0.
         23    2    1    2    0    0  0.12333197025E+03 -0.77143589195E+01  0.30862561647E+03  0.34481261968E+03  0.91518770381E+02 0.  0.
          5    1    3    3  502    0 -0.62102873618E+02  0.30246532877E+02  0.30295743400E+02  0.75544186612E+02  0.41800000000E+01 0.  1.
         -5    1    3    3    0  502 -0.61229096636E+02 -0.22532173958E+02  0.22602751495E+03  0.23529260731E+03  0.41800000000E+01 0.  1.
        -11    1    4    4    0    0  0.67787680435E+02  0.29885500550E+01  0.62436419324E+02  0.92208500195E+02  0.00000000000E+00 0.  1.
         11    1    4    4    0    0  0.55544289820E+02 -0.10702908974E+02  0.24618919714E+03  0.25260411949E+03  0.00000000000E+00 0. -1.
</event>
<event>
 8    1  0.6840032E-009  0.1416392E+03  0.7561462E-02  0.1211140E+00
          2   -1    0    0  501    0  0.00000000000E+00  0.00000000000E+00  0.43621729412E+03  0.43621729412E+03  0.00000000000E+00 0. -1.
         -2   -1    0    0    0  501 -0.00000000000E+00 -0.00000000000E+00 -0.13918509767E+03  0.13918509767E+03  0.00000000000E+00 0.  1.
         25    2    1    2    0    0 -0.61898003953E+02 -0.11418763572E+03  0.36244045380E+03  0.40482235398E+03  0.12509147329E+03 0.  0.
         23    2    1    2    0    0  0.61898003953E+02  0.11418763572E+03 -0.65408257355E+02  0.17058003780E+03  0.89157894337E+02 0.  0.
          5    1    3    3  502    0 -0.18205543552E+02 -0.31029236162E+02  0.66591849757E+01  0.36824889102E+02  0.41800000000E+01 0. -1.
         -5    1    3    3    0  502 -0.43692460401E+02 -0.83158399557E+02  0.35578126882E+03  0.36799746488E+03  0.41800000000E+01 0. -1.
        -11    1    4    4    0    0 -0.16726428782E+02  0.46032584985E+02 -0.26117328584E+01  0.49046849529E+02  0.00000000000E+00 0.  1.
         11    1    4    4    0    0  0.78624432735E+02  0.68155050734E+02 -0.62796524497E+02  0.12153318828E+03  0.00000000000E+00 0. -1.
</event>
<event>
 8    1  0.6840032E-009  0.7412450E+02  0.7561462E-02  0.1346604E+00
         -1   -1    0    0    0  501 -0.00000000000E+00  0.00000000000E+00  0.36517865428E+02  0.36517865428E+02  0.00000000000E+00 0.  1.
          1   -1    0    0  501    0  0.00000000000E+00 -0.00000000000E+00 -0.44545651865E+03  0.44545651865E+03  0.00000000000E+00 0. -1.
         25    2    1    2    0    0 -0.22268635493E+01  0.50888104388E+02 -0.31938429940E+03  0.34676824868E+03  0.12508928610E+03 0.  0.
         23    2    1    2    0    0  0.22268635493E+01 -0.50888104388E+02 -0.89554353815E+02  0.13520613539E+03  0.87556602674E+02 0.  0.
          5    1    3    3  502    0  0.55786505030E+01  0.39234023492E+02 -0.15855935098E+02  0.42887212764E+02  0.41800000000E+01 0.  1.
         -5    1    3    3    0  502 -0.78055140523E+01  0.11654080896E+02 -0.30352836431E+03  0.30388103592E+03  0.41800000000E+01 0.  1.
        -11    1    4    4    0    0  0.35364748966E+02 -0.49189795456E+02 -0.31364211376E+02  0.68220343020E+02  0.00000000000E+00 0.  1.
         11    1    4    4    0    0 -0.33137885417E+02 -0.16983089318E+01 -0.58190142438E+02  0.66985792375E+02  0.00000000000E+00 0. -1.
</event>
<event>
 8    1  0.6840032E-009  0.1230922E+03  0.7561462E-02  0.1238081E+00
         -1   -1    0    0    0  501 -0.00000000000E+00  0.00000000000E+00  0.24781457799E+02  0.24781457799E+02  0.00000000000E+00 0.  1.
          1   -1    0    0  501    0  0.00000000000E+00 -0.00000000000E+00 -0.92587189920E+03  0.92587189920E+03  0.00000000000E+00 0. -1.
         25    2    1    2    0    0  0.53076811966E+02  0.54055897534E+02 -0.71554868341E+03  0.73034028669E+03  0.12509127871E+03 0.  0.
         23    2    1    2    0    0 -0.53076811966E+02 -0.54055897534E+02 -0.18554175799E+03  0.22031307031E+03  0.91503644536E+02 0.  0.
          5    1    3    3  502    0  0.91283309126E+02  0.36583520689E+02 -0.39768679933E+03  0.40968678191E+03  0.41800000000E+01 0.  1.
         -5    1    3    3    0  502 -0.38206497160E+02  0.17472376845E+02 -0.31786188408E+03  0.32065350478E+03  0.41800000000E+01 0.  1.
        -11    1    4    4    0    0 -0.56507403914E+02 -0.54075219377E+01 -0.14877732409E+03  0.15923887764E+03  0.00000000000E+00 0.  1.
         11    1    4    4    0    0  0.34305919481E+01 -0.48648375597E+02 -0.36764433904E+02  0.61074192665E+02  0.00000000000E+00 0. -1.
</event>
<event>
 8    1  0.6840032E-009  0.1158859E+03  0.7561462E-02  0.1250042E+00
         -2   -1    0    0    0  501 -0.00000000000E+00  0.00000000000E+00  0.41203110432E+02  0.41203110432E+02  0.00000000000E+00 0.  1.
          2   -1    0    0  501    0  0.00000000000E+00 -0.00000000000E+00 -0.70654686846E+03  0.70654686846E+03  0.00000000000E+00 0. -1.
         25    2    1    2    0    0 -0.18119428016E+01  0.87900319569E+02 -0.57249214801E+03  0.59255909625E+03  0.12509705712E+03 0.  0.
         23    2    1    2    0    0  0.18119428016E+01 -0.87900319569E+02 -0.92851610024E+02  0.15519088265E+03  0.87937700989E+02 0.  0.
          5    1    3    3  502    0  0.54118194361E+02  0.25579151241E+02 -0.34347782204E+03  0.34867973640E+03  0.41800000000E+01 0.  1.
         -5    1    3    3    0  502 -0.55930137163E+02  0.62321168328E+02 -0.22901432596E+03  0.24387935985E+03  0.41800000000E+01 0.  1.
        -11    1    4    4    0    0  0.44487053613E+00 -0.46001412593E+02 -0.10234441525E+03  0.11220832056E+03  0.00000000000E+00 0. -1.
         11    1    4    4    0    0  0.13670722654E+01 -0.41898906976E+02  0.94928052246E+01  0.42982562085E+02  0.00000000000E+00 0.  1.
</event>
<event>
 8    1  0.6840032E-009  0.1142715E+03  0.7561462E-02  0.1252858E+00
          1   -1    0    0  501    0  0.00000000000E+00  0.00000000000E+00  0.56702029773E+03  0.56702029773E+03  0.00000000000E+00 0. -1.
         -1   -1    0    0    0  501 -0.00000000000E+00 -0.00000000000E+00 -0.29954359355E+02  0.29954359355E+02  0.00000000000E+00 0.  1.
         25    2    1    2    0    0  0.17511697283E+01  0.71367960759E+02  0.31295650529E+03  0.34450471301E+03  0.12508105638E+03 0.  0.
         23    2    1    2    0    0 -0.17511697283E+01 -0.71367960759E+02  0.22410943309E+03  0.25246994408E+03  0.91758281618E+02 0.  0.
          5    1    3    3  502    0  0.53623143246E+02  0.10653125722E+02  0.71195540433E+02  0.89862160873E+02  0.41800000000E+01 0.  1.
         -5    1    3    3    0  502 -0.51871973518E+02  0.60714835037E+02  0.24176096485E+03  0.25464255213E+03  0.41800000000E+01 0.  1.
        -11    1    4    4    0    0  0.29420035767E+02 -0.30899016799E+02  0.31051236419E+02  0.52768049299E+02  0.00000000000E+00 0.  1.
         11    1    4    4    0    0 -0.31171205495E+02 -0.40468943960E+02  0.19305819667E+03  0.19970189478E+03  0.00000000000E+00 0. -1.
</event>
<event>
 8    1  0.6840032E-009  0.1016870E+03  0.7561462E-02  0.1276788E+00
          2   -1    0    0  501    0  0.00000000000E+00  0.00000000000E+00  0.16557595444E+03  0.16557595444E+03  0.00000000000E+00 0. -1.
         -2   -1    0    0    0  501 -0.00000000000E+00 -0.00000000000E+00 -0.92355878560E+02  0.92355878560E+02  0.00000000000E+00 0.  1.
         25    2    1    2    0    0  0.10763336424E+02 -0.27264369728E+02 -0.18951911066E+02  0.12986484845E+03  0.12508600506E+03 0.  0.
         23    2    1    2    0    0 -0.10763336424E+02  0.27264369728E+02  0.92171986947E+02  0.12806698456E+03  0.83942135354E+02 0.  0.
          5    1    3    3  502    0 -0.14305337395E+02 -0.71314871586E+02 -0.28295711488E+02  0.78157362263E+02  0.41800000000E+01 0.  1.
         -5    1    3    3    0  502  0.25068673819E+02  0.44050501858E+02  0.93438004222E+01  0.51707486183E+02  0.41800000000E+01 0.  1.
        -11    1    4    4    0    0  0.10970803223E+02  0.48231277159E+02  0.27268464403E+02  0.56481711825E+02  0.00000000000E+00 0.  1.
         11    1    4    4    0    0 -0.21734139647E+02 -0.20966907431E+02  0.64903522543E+02  0.71585272731E+02  0.00000000000E+00 0. -1.
</event>
<event>
 8    1  0.6840032E-009  0.1051697E+03  0.7561462E-02  0.1269786E+00
          1   -1    0    0  501    0  0.00000000000E+00  0.00000000000E+00  0.20531934804E+03  0.20531934804E+03  0.00000000000E+00 0. -1.
         -1   -1    0    0    0  501 -0.00000000000E+00 -0.00000000000E+00 -0.89367067850E+02  0.89367067850E+02  0.00000000000E+00 0.  1.
         25    2    1    2    0    0  0.17703410961E+02 -0.61266367685E+02  0.93083374487E+01  0.14071429592E+03  0.12508752681E+03 0.  0.
         23    2    1    2    0    0 -0.17703410961E+02  0.61266367685E+02  0.10664394274E+03  0.15397211997E+03  0.90925819403E+02 0.  0.
          5    1    3    3  502    0 -0.29169842380E+02 -0.81732471125E+02  0.17834088012E+02  0.88693875978E+02  0.41800000000E+01 0.  1.
         -5    1    3    3    0  502  0.46873253341E+02  0.20466103440E+02 -0.85257505635E+01  0.52020419947E+02  0.41800000000E+01 0.  1.
        -11    1    4    4    0    0 -0.22386654547E+02  0.18287181005E+02  0.10689842361E+03  0.11073778155E+03  0.00000000000E+00 0. -1.
         11    1    4    4    0    0  0.46832435856E+01  0.42979186680E+02 -0.25448086893E+00  0.43234338421E+02  0.00000000000E+00 0.  1.
</event>
<event>
 8    1  0.6840032E-009  0.1150669E+03  0.7561462E-02  0.1251464E+00
         -1   -1    0    0    0  501 -0.00000000000E+00  0.00000000000E+00  0.72668946585E+02  0.72668946585E+02  0.00000000000E+00 0.  1.
          1   -1    0    0  501    0  0.00000000000E+00 -0.00000000000E+00 -0.22489815876E+03  0.22489815876E+03  0.00000000000E+00 0. -1.
         25    2    1    2    0    0  0.14349391206E+02  0.64943965640E+02 -0.84671061728E+02  0.16504591532E+03  0.12508933515E+03 0.  0.
         23    2    1    2    0    0 -0.14349391206E+02 -0.64943965640E+02 -0.67558150447E+02  0.13252119002E+03  0.92596643636E+02 0.  0.
          5    1    3    3  502    0  0.50354495660E+02  0.42876329628E+00 -0.74975293709E+02  0.90413086099E+02  0.41800000000E+01 0. -1.
         -5    1    3    3    0  502 -0.36005104453E+02  0.64515202344E+02 -0.96957680183E+01  0.74632829222E+02  0.41800000000E+01 0. -1.
        -11    1    4    4    0    0  0.33929148437E+02 -0.35242965456E+02 -0.67385513377E+01  0.49382808769E+02  0.00000000000E+00 0.  1.
         11    1    4    4    0    0 -0.48278539643E+02 -0.29701000185E+02 -0.60819599110E+02  0.83138381256E+02  0.00000000000E+00 0. -1.
</event>
<event>
 8    1  0.6840032E-009  0.1325175E+03  0.7561462E-02  0.1223767E+00
          2   -1    0    0  501    0  0.00000000000E+00  0.00000000000E+00  0.22290133533E+03  0.22290133533E+03  0.00000000000E+00 0. -1.
         -2   -1    0    0    0  501 -0.00000000000E+00 -0.00000000000E+00 -0.11123768327E+03  0.11123768327E+03  0.00000000000E+00 0.  1.
         25    2    1    2    0    0 -0.10231970750E+02  0.83710796489E+02  0.14081144209E+03  0.20638014392E+03  0.12511079452E+03 0.  0.
         23    2    1    2    0    0  0.10231970750E+02 -0.83710796489E+02 -0.29147790024E+02  0.12775887468E+03  0.91436019834E+02 0.  0.
          5    1    3    3  502    0 -0.55973607764E+02  0.11301502928E+02  0.90114934685E+02  0.10676583062E+03  0.41800000000E+01 0.  1.
         -5    1    3    3    0  502  0.45741637015E+02  0.72409293561E+02  0.50696507407E+02  0.99614313298E+02  0.41800000000E+01 0.  1.
        -11    1    4    4    0    0  0.82501334626E+01 -0.10265326969E+03 -0.15083597929E+02  0.10408301210E+03  0.00000000000E+00 0.  1.
         11    1    4    4    0    0  0.19818372874E+01  0.18942473202E+02 -0.14064192095E+02  0.23675862589E+02  0.00000000000E+00 0. -1.
</event>
<event>
 8    1  0.6840032E-009  0.4873146E+03  0.7561462E-02  0.1017144E+00
          1   -1    0    0  501    0  0.00000000000E+00  0.00000000000E+00  0.23803675429E+04  0.23803675429E+04  0.00000000000E+00 0. -1.
         -1   -1    0    0    0  501 -0.00000000000E+00 -0.00000000000E+00 -0.10175377862E+03  0.10175377862E+03  0.00000000000E+00 0.  1.
         25    2    1    2    0    0 -0.42818828483E+03  0.21217163633E+03  0.12514889490E+04  0.13454494668E+04  0.12509063817E+03 0.  0.
         23    2    1    2    0    0  0.42818828483E+03 -0.21217163633E+03  0.10271248152E+04  0.11366718547E+04  0.93142410302E+02 0.  0.
          5    1    3    3  502    0 -0.16738838079E+03  0.13691503128E+03  0.45106308662E+03  0.50023991877E+03  0.41800000000E+01 0. -1.
         -5    1    3    3    0  502 -0.26079990405E+03  0.75256605048E+02  0.80042586240E+03  0.84520954807E+03  0.41800000000E+01 0. -1.
        -11    1    4    4    0    0  0.36775695243E+02  0.82005515315E+01  0.79074080838E+02  0.87592300269E+02  0.00000000000E+00 0.  1.
         11    1    4    4    0    0  0.39141258959E+03 -0.22037218786E+03  0.94805073440E+03  0.10490795544E+04  0.00000000000E+00 0. -1.
</event>
<event>
 8    1  0.6840032E-009  0.8812439E+02  0.7561462E-02  0.1307458E+00
         -1   -1    0    0    0  501 -0.00000000000E+00  0.00000000000E+00  0.10109296339E+03  0.10109296339E+03  0.00000000000E+00 0.  1.
          1   -1    0    0  501    0  0.00000000000E+00 -0.00000000000E+00 -0.28429978226E+03  0.28429978226E+03  0.00000000000E+00 0. -1.
         25    2    1    2    0    0  0.20672176731E+02 -0.99015210625E+00 -0.24207394434E+03  0.27326800618E+03  0.12508912574E+03 0.  0.
         23    2    1    2    0    0 -0.20672176731E+02  0.99015210625E+00  0.58867125476E+02  0.11212473947E+03  0.93157390732E+02 0.  0.
          5    1    3    3  502    0  0.52537297479E+02 -0.17323940665E+02 -0.22786000742E+03  0.23451640012E+03  0.41800000000E+01 0. -1.
         -5    1    3    3    0  502 -0.31865120747E+02  0.16333788559E+02 -0.14213936925E+02  0.38751606055E+02  0.41800000000E+01 0. -1.
        -11    1    4    4    0    0 -0.52629790448E+02 -0.16360052990E+01  0.60266497469E+02  0.80028882744E+02  0.00000000000E+00 0.  1.
         11    1    4    4    0    0  0.31957613717E+02  0.26261574053E+01 -0.13993719933E+01  0.32095856729E+02  0.00000000000E+00 0. -1.
</event>
<event>
 8    1  0.6840032E-009  0.1369630E+03  0.7561462E-02  0.1217475E+00
         -2   -1    0    0    0  501 -0.00000000000E+00  0.00000000000E+00  0.42476348945E+03  0.42476348945E+03  0.00000000000E+00 0. -1.
          2   -1    0    0  501    0  0.00000000000E+00 -0.00000000000E+00 -0.53616872041E+02  0.53616872041E+02  0.00000000000E+00 0.  1.
         25    2    1    2    0    0  0.29570260579E+02  0.99301892135E+02  0.22469349824E+03  0.27725350235E+03  0.12508825014E+03 0.  0.
         23    2    1    2    0    0 -0.29570260579E+02 -0.99301892135E+02  0.14645311917E+03  0.20112685914E+03  0.90929815028E+02 0.  0.
          5    1    3    3  502    0 -0.44481206241E+02  0.59166730344E+02  0.75126882909E+02  0.10554999111E+03  0.41800000000E+01 0. -1.
         -5    1    3    3    0  502  0.74051466820E+02  0.40135161791E+02  0.14956661533E+03  0.17170351123E+03  0.41800000000E+01 0. -1.
        -11    1    4    4    0    0 -0.20711866695E+01 -0.83918930207E+02  0.14737330267E+03  0.16960414795E+03  0.00000000000E+00 0. -1.
         11    1    4    4    0    0 -0.27499073909E+02 -0.15382961927E+02 -0.92018349506E+00  0.31522711197E+02  0.00000000000E+00 0.  1.
</event>
<event>
 8    1  0.6840032E-009  0.1161747E+03  0.7561462E-02  0.1249544E+00
          2   -1    0    0  501    0  0.00000000000E+00  0.00000000000E+00  0.57925724201E+03  0.57925724201E+03  0.00000000000E+00 0.  1.
         -2   -1    0    0    0  501 -0.00000000000E+00 -0.00000000000E+00 -0.24811240252E+02  0.24811240252E+02  0.00000000000E+00 0. -1.
         25    2    1    2    0    0  0.37374717214E+02 -0.36650959635E+02  0.35209974728E+03  0.37730997901E+03  0.12509366849E+03 0.  0.
         23    2    1    2    0    0 -0.37374717214E+02  0.36650959635E+02  0.20234625448E+03  0.22675850325E+03  0.87950268711E+02 0.  0.
          5    1    3    3  502    0 -0.56398403145E+01 -0.73139345140E+02  0.14401988183E+03  0.16167983910E+03  0.41800000000E+01 0. -1.
         -5    1    3    3    0  502  0.43014557529E+02  0.36488385504E+02  0.20807986544E+03  0.21563013991E+03  0.41800000000E+01 0. -1.
        -11    1    4    4    0    0  0.21943302490E+02  0.36972855855E+02  0.82057964731E+02  0.92639139515E+02  0.00000000000E+00 0.  1.
         11    1    4    4    0    0 -0.59318019704E+02 -0.32189621968E+00  0.12028828975E+03  0.13411936374E+03  0.00000000000E+00 0. -1.
</event>
<event>
 8    1  0.6840032E-009  0.1352331E+03  0.7561462E-02  0.1219891E+00
         -1   -1    0    0    0  501 -0.00000000000E+00  0.00000000000E+00  0.37206307497E+02  0.37206307497E+02  0.00000000000E+00 0.  1.
          1   -1    0    0  501    0  0.00000000000E+00 -0.00000000000E+00 -0.64645583412E+03  0.64645583412E+03  0.00000000000E+00 0. -1.
         25    2    1    2    0    0  0.19133423865E+02  0.10806352083E+03 -0.36010516866E+03  0.39669511733E+03  0.12508985242E+03 0.  0.
         23    2    1    2    0    0 -0.19133423865E+02 -0.10806352083E+03 -0.24914435796E+03  0.28696702428E+03  0.90737806229E+02 0.  0.
          5    1    3    3  502    0 -0.21593711935E+02  0.13364754451E+02 -0.22617709059E+03  0.22763667052E+03  0.41800000000E+01 0. -1.
         -5    1    3    3    0  502  0.40727135800E+02  0.94698766379E+02 -0.13392807807E+03  0.16905844682E+03  0.41800000000E+01 0. -1.
        -11    1    4    4    0    0 -0.39347031183E+02 -0.88791018004E+01 -0.85673992600E+02  0.94694563306E+02  0.00000000000E+00 0.  1.
         11    1    4    4    0    0  0.20213607318E+02 -0.99184419029E+02 -0.16347036536E+03  0.19227246098E+03  0.00000000000E+00 0. -1.
</event>
<event>
 8    1  0.6840032E-009  0.6969615E+02  0.7561462E-02  0.1361129E+00
         -1   -1    0    0    0  501 -0.00000000000E+00  0.00000000000E+00  0.74107280592E+02  0.74107280592E+02  0.00000000000E+00 0.  1.
          1   -1    0    0  501    0  0.00000000000E+00 -0.00000000000E+00 -0.18830479718E+03  0.18830479718E+03  0.00000000000E+00 0. -1.
         25    2    1    2    0    0  0.41649649460E+02 -0.94741785432E+01 -0.84127663201E+02  0.15668313769E+03  0.12509072133E+03 0.  0.
         23    2    1    2    0    0 -0.41649649460E+02  0.94741785432E+01 -0.30069853384E+02  0.10572894008E+03  0.91923660328E+02 0.  0.
          5    1    3    3  502    0 -0.15300717479E+02 -0.29563236074E+02  0.17917342708E+02  0.38034201086E+02  0.41800000000E+01 0.  1.
         -5    1    3    3    0  502  0.56950366939E+02  0.20089057530E+02 -0.10204500591E+03  0.11864893661E+03  0.41800000000E+01 0.  1.
        -11    1    4    4    0    0 -0.27952294448E+02  0.13486444367E+02  0.30491746711E+02  0.43508178129E+02  0.00000000000E+00 0.  1.
         11    1    4    4    0    0 -0.13697355012E+02 -0.40122658236E+01 -0.60561600095E+02  0.62220761948E+02  0.00000000000E+00 0. -1.
</event>
<event>
 8    1  0.6840032E-009  0.1157998E+03  0.7561462E-02  0.1250191E+00
          2   -1    0    0  501    0  0.00000000000E+00  0.00000000000E+00  0.23452587366E+03  0.23452587366E+03  0.00000000000E+00 0. -1.
         -2   -1    0    0    0  501 -0.00000000000E+00 -0.00000000000E+00 -0.65094730186E+02  0.65094730186E+02  0.00000000000E+00 0.  1.
         25    2    1    2    0    0  0.38752719924E+02  0.29223618988E+02  0.10322575344E+03  0.16928996861E+03  0.12509094328E+03 0.  0.
         23    2    1    2    0    0 -0.38752719924E+02 -0.29223618988E+02  0.66205390032E+02  0.13033063523E+03  0.10122809690E+03 0.  0.
          5    1    3    3  502    0  0.63617072896E+02  0.64573984113E+02  0.68714030280E+02  0.11382452172E+03  0.41800000000E+01 0. -1.
         -5    1    3    3    0  502 -0.24864352971E+02 -0.35350365126E+02  0.34511723159E+02  0.55465446889E+02  0.41800000000E+01 0. -1.
        -11    1    4    4    0    0  0.24170098717E+02 -0.24373538859E+02 -0.55493390140E+01  0.34771514664E+02  0.00000000000E+00 0.  1.
         11    1    4    4    0    0 -0.62922818642E+02 -0.48500801286E+01  0.71754729046E+02  0.95559120567E+02  0.00000000000E+00 0. -1.
</event>
<event>
 7    1  0.6840032E-009  0.1330067E+03  0.7561462E-02  0.1223061E+00
         -2   -1    0    0    0  501 -0.00000000000E+00  0.00000000000E+00  0.22169821035E+02  0.22169821035E+02  0.00000000000E+00 0.  1.
          2   -1    0    0  501    0  0.00000000000E+00 -0.00000000000E+00 -0.89314956031E+03  0.89314956031E+03  0.00000000000E+00 0. -1.
         23    2    1    2    0    0  0.57802682827E+02  0.59288334749E+02 -0.51611887248E+03  0.53026616380E+03  0.89147390077E+02 0.  0.
          5    1    1    2  502    0 -0.28849248980E+01  0.34928740105E+02 -0.49649525727E+02  0.60917054114E+02  0.41800000000E+01 0. -1.
         -5    1    1    2    0  502 -0.54917757929E+02 -0.94217074854E+02 -0.30521134106E+03  0.32413616343E+03  0.41800000000E+01 0. -1.
        -11    1    3    3    0    0  0.16940478504E+01  0.65147317850E+02 -0.28659490422E+03  0.29391101025E+03  0.00000000000E+00 0.  1.
         11    1    3    3    0    0  0.56108634977E+02 -0.58589831019E+01 -0.22952396826E+03  0.23635515355E+03  0.00000000000E+00 0. -1.
</event>
<event>
 8    1  0.6840032E-009  0.1145209E+03  0.7561462E-02  0.1252420E+00
         -2   -1    0    0    0  501 -0.00000000000E+00  0.00000000000E+00  0.11318989019E+03  0.11318989019E+03  0.00000000000E+00 0.  1.
          2   -1    0    0  501    0  0.00000000000E+00 -0.00000000000E+00 -0.18441499502E+03  0.18441499502E+03  0.00000000000E+00 0. -1.
         25    2    1    2    0    0  0.78156756961E+02  0.28668255068E+02 -0.98093553372E+02  0.17944042626E+03  0.12508466675E+03 0.  0.
         23    2    1    2    0    0 -0.78156756961E+02 -0.28668255068E+02  0.26868448542E+02  0.11816445895E+03  0.79439148557E+02 0.  0.
          5    1    3    3  502    0  0.88079245230E+02 -0.24512223506E+02 -0.81898839439E+02  0.12281569461E+03  0.41800000000E+01 0. -1.
         -5    1    3    3    0  502 -0.99224882691E+01  0.53180478574E+02 -0.16194713933E+02  0.56624731648E+02  0.41800000000E+01 0. -1.
        -11    1    4    4    0    0 -0.20882292354E+02 -0.83180922068E+01  0.48654329232E+02  0.53595751184E+02  0.00000000000E+00 0.  1.
         11    1    4    4    0    0 -0.57274464607E+02 -0.20350162862E+02 -0.21785880690E+02  0.64568707761E+02  0.00000000000E+00 0. -1.
</event>
<event>
 8    1  0.6840032E-009  0.3477123E+03  0.7561462E-02  0.1063558E+00
         -1   -1    0    0    0  501 -0.00000000000E+00  0.00000000000E+00  0.33678004935E+02  0.33678004935E+02  0.00000000000E+00 0.  1.
          1   -1    0    0  501    0  0.00000000000E+00 -0.00000000000E+00 -0.37498216051E+04  0.37498216051E+04  0.00000000000E+00 0. -1.
         25    2    1    2    0    0 -0.27832061617E+02  0.33654287262E+03 -0.17710665902E+04  0.18073075665E+04  0.12509214322E+03 0.  0.
         23    2    1    2    0    0  0.27832061617E+02 -0.33654287262E+03 -0.19450770099E+04  0.19761920435E+04  0.89301116515E+02 0.  0.
          5    1    3    3  502    0  0.18574270075E+02  0.25493035530E+02 -0.37031869090E+03  0.37168306876E+03  0.41800000000E+01 0. -1.
         -5    1    3    3    0  502 -0.46406331693E+02  0.31104983709E+03 -0.14007478993E+04  0.14356244978E+04  0.41800000000E+01 0. -1.
        -11    1    4    4    0    0  0.59380777464E+02 -0.25050596890E+03 -0.14643048628E+04  0.14867642881E+04  0.00000000000E+00 0.  1.
         11    1    4    4    0    0 -0.31548715847E+02 -0.86036903722E+02 -0.48077214715E+03  0.48942775540E+03  0.00000000000E+00 0. -1.
</event>
<event>
 8    1  0.6840032E-009  0.1666170E+03  0.7561462E-02  0.1181422E+00
         -1   -1    0    0    0  501 -0.00000000000E+00  0.00000000000E+00  0.51260810950E+02  0.51260810950E+02  0.00000000000E+00 0.  1.
          1   -1    0    0  501    0  0.00000000000E+00 -0.00000000000E+00 -0.89839818554E+03  0.89839818554E+03  0.00000000000E+00 0. -1.
         25    2    1    2    0    0  0.11128506322E+02 -0.14842421782E+03 -0.67567780793E+03  0.70309437996E+03  0.12509042697E+03 0.  0.
         23    2    1    2    0    0 -0.11128506322E+02  0.14842421782E+03 -0.17145956666E+03  0.24656461653E+03  0.96136023617E+02 0.  0.
          5    1    3    3  502    0 -0.28601323447E+02 -0.13670597568E+03 -0.60622369542E+03  0.62211831735E+03  0.41800000000E+01 0.  1.
         -5    1    3    3    0  502  0.39729829770E+02 -0.11718242133E+02 -0.69454112509E+02  0.80976062615E+02  0.41800000000E+01 0.  1.
        -11    1    4    4    0    0 -0.20233819592E+02  0.68321122005E+02 -0.18432002199E+02  0.73599740980E+02  0.00000000000E+00 0.  1.
         11    1    4    4    0    0  0.91053132699E+01  0.80103095811E+02 -0.15302756446E+03  0.17296487555E+03  0.00000000000E+00 0. -1.
</event>
<event>
 8    1  0.6840032E-009  0.1198260E+03  0.7561462E-02  0.1243384E+00
         -2   -1    0    0    0  501 -0.00000000000E+00  0.00000000000E+00  0.31095938993E+02  0.31095938993E+02  0.00000000000E+00 0.  1.
          2   -1    0    0  501    0  0.00000000000E+00 -0.00000000000E+00 -0.59458705962E+03  0.59458705962E+03  0.00000000000E+00 0. -1.
         25    2    1    2    0    0  0.56373894739E+02  0.34639562695E+02 -0.42047924208E+03  0.44365282887E+03  0.12508846564E+03 0.  0.
         23    2    1    2    0    0 -0.56373894739E+02 -0.34639562695E+02 -0.14301187855E+03  0.18203016974E+03  0.91129962022E+02 0.  0.
          5    1    3    3  502    0  0.89337060902E+02  0.13413972276E+02 -0.36198677058E+03  0.37311250257E+03  0.41800000000E+01 0. -1.
         -5    1    3    3    0  502 -0.32963166164E+02  0.21225590419E+02 -0.58492471503E+02  0.70540326301E+02  0.41800000000E+01 0. -1.
        -11    1    4    4    0    0  0.44111585842E+01 -0.47461596543E+02 -0.42455902094E+02  0.63832320098E+02  0.00000000000E+00 0.  1.
         11    1    4    4    0    0 -0.60785053323E+02  0.12822033848E+02 -0.10055597645E+03  0.11819784964E+03  0.00000000000E+00 0. -1.
</event>
<event>
 8    1  0.6840032E-009  0.1266147E+03  0.7561462E-02  0.1232567E+00
         -2   -1    0    0    0  501 -0.00000000000E+00  0.00000000000E+00  0.84260621578E+02  0.84260621578E+02  0.00000000000E+00 0.  1.
          2   -1    0    0  501    0  0.00000000000E+00 -0.00000000000E+00 -0.33440702944E+03  0.33440702944E+03  0.00000000000E+00 0. -1.
         25    2    1    2    0    0  0.91935650762E+02  0.31723241816E+02 -0.24557918496E+03  0.29227882953E+03  0.12513692561E+03 0.  0.
         23    2    1    2    0    0 -0.91935650762E+02 -0.31723241816E+02 -0.45672229040E+01  0.12638882149E+03  0.80589991441E+02 0.  0.
          5    1    3    3  502    0  0.11600609528E+03  0.20403951079E+02 -0.23583151360E+03  0.26364315005E+03  0.41800000000E+01 0.  1.
         -5    1    3    3    0  502 -0.24070444520E+02  0.11319290737E+02 -0.97476713621E+01  0.28635679478E+02  0.41800000000E+01 0.  1.
        -11    1    4    4    0    0 -0.29083294285E+02 -0.34998363174E+02  0.30076421232E+02  0.54546443930E+02  0.00000000000E+00 0.  1.
         11    1    4    4    0    0 -0.62852356478E+02  0.32751213579E+01 -0.34643644135E+02  0.71842377561E+02  0.00000000000E+00 0. -1.
</event>
<event>
 8    1  0.6840032E-009  0.1773793E+03  0.7561462E-02  0.1170364E+00
         -1   -1    0    0    0  501 -0.00000000000E+00  0.00000000000E+00  0.47439953523E+02  0.47439953523E+02  0.00000000000E+00 0.  1.
          1   -1    0    0  501    0  0.00000000000E+00 -0.00000000000E+00 -0.99257761299E+03  0.99257761299E+03  0.00000000000E+00 0. -1.
         25    2    1    2    0    0  0.14892401705E+03 -0.11499317859E+02 -0.21926838187E+03  0.29332053747E+03  0.12509083599E+03 0.  0.
         23    2    1    2    0    0 -0.14892401705E+03  0.11499317859E+02 -0.72586927760E+03  0.74669702904E+03  0.91431109890E+02 0.  0.
          5    1    3    3  502    0  0.74544802458E+02  0.53596450331E+02 -0.76248782120E+02  0.11941882698E+03  0.41800000000E+01 0.  1.
         -5    1    3    3    0  502  0.74379214597E+02 -0.65095768190E+02 -0.14301959975E+03  0.17390171050E+03  0.41800000000E+01 0.  1.
        -11    1    4    4    0    0 -0.13692350004E+02 -0.20784248409E+02 -0.41855085674E+02  0.48696135651E+02  0.00000000000E+00 0.  1.
         11    1    4    4    0    0 -0.13523166705E+03  0.32283566268E+02 -0.68401419192E+03  0.69800089339E+03  0.00000000000E+00 0. -1.
</event>
<event>
 8    1  0.6840032E-009  0.1842374E+03  0.7561462E-02  0.1163764E+00
          2   -1    0    0  501    0  0.00000000000E+00  0.00000000000E+00  0.15710565354E+04  0.15710565354E+04  0.00000000000E+00 0. -1.
         -2   -1    0    0    0  501 -0.00000000000E+00 -0.00000000000E+00 -0.32701300622E+02  0.32701300622E+02  0.00000000000E+00 0.  1.
         25    2    1    2    0    0  0.18226482961E+03  0.70000517657E+01  0.10761118213E+04  0.10986053379E+04  0.12509023841E+03 0.  0.
         23    2    1    2    0    0 -0.18226482961E+03 -0.70000517657E+01  0.46224341351E+03  0.50515249812E+03  0.90777773664E+02 0.  0.
          5    1    3    3  502    0  0.78445770283E+02  0.44806572656E+01  0.17948590236E+03  0.19597570439E+03  0.41800000000E+01 0.  1.
         -5    1    3    3    0  502  0.10381905933E+03  0.25193945001E+01  0.89662591891E+03  0.90262963351E+03  0.41800000000E+01 0.  1.
        -11    1    4    4    0    0 -0.98605507457E+02 -0.21571657395E+02  0.14453913648E+03  0.17629504950E+03  0.00000000000E+00 0.  1.
         11    1    4    4    0    0 -0.83659322155E+02  0.14571605630E+02  0.31770427703E+03  0.32885744862E+03  0.00000000000E+00 0. -1.
</event>
<event>
 8    1  0.6840032E-009  0.1061494E+03  0.7561462E-02  0.1267871E+00
         -2   -1    0    0    0  501 -0.00000000000E+00  0.00000000000E+00  0.50629432243E+02  0.50629432243E+02  0.00000000000E+00 0.  1.
          2   -1    0    0  501    0  0.00000000000E+00 -0.00000000000E+00 -0.25617482004E+03  0.25617482004E+03  0.00000000000E+00 0. -1.
         25    2    1    2    0    0  0.17897093241E+01 -0.24275539948E+02 -0.80184514180E+02  0.15056584657E+03  0.12509201789E+03 0.  0.
         23    2    1    2    0    0 -0.17897093241E+01  0.24275539948E+02 -0.12536087361E+03  0.15623840571E+03  0.90014364890E+02 0.  0.
          5    1    3    3  502    0  0.47673458163E+02  0.28324505046E+02 -0.48534055437E+02  0.73810996040E+02  0.41800000000E+01 0. -1.
         -5    1    3    3    0  502 -0.45883748839E+02 -0.52600044994E+02 -0.31650458743E+02  0.76754850528E+02  0.41800000000E+01 0. -1.
        -11    1    4    4    0    0  0.38183218263E+02  0.26895099967E+02 -0.38287596130E+02  0.60392421515E+02  0.00000000000E+00 0.  1.
         11    1    4    4    0    0 -0.39972927587E+02 -0.26195600184E+01 -0.87073277484E+02  0.95845984195E+02  0.00000000000E+00 0. -1.
</event>
<event>
 8    1  0.6840032E-009  0.1567176E+03  0.7561462E-02  0.1192453E+00
          4   -1    0    0  501    0  0.00000000000E+00  0.00000000000E+00  0.30981817458E+03  0.30981817458E+03  0.00000000000E+00 0. -1.
         -4   -1    0    0    0  501 -0.00000000000E+00 -0.00000000000E+00 -0.10133886094E+03  0.10133886094E+03  0.00000000000E+00 0.  1.
         25    2    1    2    0    0 -0.75522558030E+02  0.87123461898E+02  0.20184216806E+03  0.26397428110E+03  0.12509198971E+03 0.  0.
         23    2    1    2    0    0  0.75522558030E+02 -0.87123461898E+02  0.66371455818E+01  0.14718275442E+03  0.91239010920E+02 0.  0.
          5    1    3    3  502    0  0.26827078257E+02  0.56714113933E+02  0.66238672200E+02  0.91330263012E+02  0.41800000000E+01 0.  1.
         -5    1    3    3    0  502 -0.10234963629E+03  0.30409347964E+02  0.13560349586E+03  0.17264401808E+03  0.41800000000E+01 0.  1.
        -11    1    4    4    0    0  0.27883362049E+02  0.14529193240E+02  0.14544187863E+02  0.34642643316E+02  0.00000000000E+00 0. -1.
         11    1    4    4    0    0  0.47639195982E+02 -0.10165265514E+03 -0.79070422809E+01  0.11254011111E+03  0.00000000000E+00 0.  1.
</event>
<event>
 8    1  0.6840032E-009  0.1254333E+03  0.7561462E-02  0.1234394E+00
         -1   -1    0    0    0  501 -0.00000000000E+00  0.00000000000E+00  0.15608118173E+03  0.15608118173E+03  0.00000000000E+00 0.  1.
          1   -1    0    0  501    0  0.00000000000E+00 -0.00000000000E+00 -0.18886027250E+03  0.18886027250E+03  0.00000000000E+00 0. -1.
         25    2    1    2    0    0  0.50106878247E+02 -0.83648865134E+02  0.64306607470E+02  0.17114586810E+03  0.12509091301E+03 0.  0.
         23    2    1    2    0    0 -0.50106878247E+02  0.83648865134E+02 -0.97085698241E+02  0.17379558614E+03  0.10616704324E+03 0.  0.
          5    1    3    3  502    0 -0.16867878089E+02  0.20774573828E+02 -0.70280870070E+01  0.27981683937E+02  0.41800000000E+01 0. -1.
         -5    1    3    3    0  502  0.66974756336E+02 -0.10442343896E+03  0.71334694477E+02  0.14316418416E+03  0.41800000000E+01 0. -1.
        -11    1    4    4    0    0 -0.81646431585E+01  0.32495796489E+02  0.20212698700E+02  0.39130440530E+02  0.00000000000E+00 0.  1.
         11    1    4    4    0    0 -0.41942235088E+02  0.51153068646E+02 -0.11729839694E+03  0.13466514561E+03  0.00000000000E+00 0. -1.
</event>
<event>
 8    1  0.6840032E-009  0.1137485E+03  0.7561462E-02  0.1253782E+00
         -1   -1    0    0    0  501 -0.00000000000E+00  0.00000000000E+00  0.82522466560E+02  0.82522466560E+02  0.00000000000E+00 0.  1.
          1   -1    0    0  501    0  0.00000000000E+00 -0.00000000000E+00 -0.27098172159E+03  0.27098172159E+03  0.00000000000E+00 0. -1.
         25    2    1    2    0    0  0.27193804497E+02 -0.50065553178E+02 -0.20466070906E+03  0.24653126736E+03  0.12508236220E+03 0.  0.
         23    2    1    2    0    0 -0.27193804497E+02  0.50065553178E+02  0.16201454026E+02  0.10697292080E+03  0.89076686365E+02 0.  0.
          5    1    3    3  502    0 -0.33427768075E+02 -0.50859839210E+02 -0.45324646251E+02  0.75999571583E+02  0.41800000000E+01 0.  1.
         -5    1    3    3    0  502  0.60621572572E+02  0.79428603239E+00 -0.15933606281E+03  0.17053169577E+03  0.41800000000E+01 0.  1.
        -11    1    4    4    0    0  0.29003272500E+02 -0.20534979527E+01  0.35828384629E+01  0.29295791524E+02  0.00000000000E+00 0.  1.
         11    1    4    4    0    0 -0.56197076997E+02  0.52119051131E+02  0.12618615563E+02  0.77677129275E+02  0.00000000000E+00 0. -1.
</event>
<event>
 8    1  0.6840032E-009  0.9646326E+02  0.7561462E-02  0.1287914E+00
         -1   -1    0    0    0  501 -0.00000000000E+00  0.00000000000E+00  0.51654724249E+03  0.51654724249E+03  0.00000000000E+00 0.  1.
          1   -1    0    0  501    0  0.00000000000E+00 -0.00000000000E+00 -0.24549947899E+02  0.24549947899E+02  0.00000000000E+00 0. -1.
         25    2    1    2    0    0  0.25108171505E+02  0.18261861022E+02  0.29945954063E+03  0.32601755747E+03  0.12509002941E+03 0.  0.
         23    2    1    2    0    0 -0.25108171505E+02 -0.18261861022E+02  0.19253775396E+03  0.21507963292E+03  0.90689282457E+02 0.  0.
          5    1    3    3  502    0 -0.25965427273E+02  0.37406903403E+02  0.24351982554E+03  0.24777582139E+03  0.41800000000E+01 0.  1.
         -5    1    3    3    0  502  0.51073598778E+02 -0.19145042381E+02  0.55939715093E+02  0.78241736079E+02  0.41800000000E+01 0.  1.
        -11    1    4    4    0    0 -0.30551729367E+02 -0.50922554237E+02  0.14887532405E+03  0.16028217870E+03  0.00000000000E+00 0. -1.
         11    1    4    4    0    0  0.54435578623E+01  0.32660693215E+02  0.43662429912E+02  0.54797454223E+02  0.00000000000E+00 0.  1.
</event>
<event>
 8    1  0.6840032E-009  0.9711765E+02  0.7561462E-02  0.1286477E+00
         -2   -1    0    0    0  501 -0.00000000000E+00  0.00000000000E+00  0.21774973528E+02  0.21774973528E+02  0.00000000000E+00 0.  1.
          2   -1    0    0  501    0  0.00000000000E+00 -0.00000000000E+00 -0.55573474618E+03  0.55573474618E+03  0.00000000000E+00 0. -1.
         25    2    1    2    0    0  0.22249884387E+01  0.14434244718E+02 -0.26965744743E+03  0.29761543863E+03  0.12508601987E+03 0.  0.
         23    2    1    2    0    0 -0.22249884387E+01 -0.14434244718E+02 -0.26430232523E+03  0.27989428108E+03  0.90949389579E+02 0.  0.
          5    1    3    3  502    0  0.25816229967E+02 -0.38550350466E+02 -0.20681596391E+03  0.21199745890E+03  0.41800000000E+01 0. -1.
         -5    1    3    3    0  502 -0.23591241529E+02  0.52984595183E+02 -0.62841483514E+02  0.85617979735E+02  0.41800000000E+01 0. -1.
        -11    1    4    4    0    0 -0.15851369759E+02 -0.49449642955E+02 -0.11946845759E+03  0.13026605648E+03  0.00000000000E+00 0.  1.
         11    1    4    4    0    0  0.13626381321E+02  0.35015398237E+02 -0.14483386763E+03  0.14962822459E+03  0.00000000000E+00 0. -1.
</event>
<event>
 8    1  0.6840032E-009  0.1268348E+03  0.7561462E-02  0.1232229E+00
         -2   -1    0    0    0  501 -0.00000000000E+00  0.00000000000E+00  0.22999832583E+02  0.22999832583E+02  0.00000000000E+00 0.  1.
          2   -1    0    0  501    0  0.00000000000E+00 -0.00000000000E+00 -0.83796627318E+03  0.83796627318E+03  0.00000000000E+00 0. -1.
         25    2    1    2    0    0  0.34639855840E+02  0.76103515400E+02 -0.37794386273E+03  0.40679505551E+03  0.12509591978E+03 0.  0.
         23    2    1    2    0    0 -0.34639855840E+02 -0.76103515400E+02 -0.43702257787E+03  0.45417105025E+03  0.91054624554E+02 0.  0.
          5    1    3    3  502    0  0.55286213339E+02  0.47252757043E+01 -0.67122697751E+02  0.87188431395E+02  0.41800000000E+01 0. -1.
         -5    1    3    3    0  502 -0.20646357499E+02  0.71378239696E+02 -0.31082116498E+03  0.31960662412E+03  0.41800000000E+01 0. -1.
        -11    1    4    4    0    0 -0.24729610498E+02 -0.97198933028E+02 -0.35136933819E+03  0.36540333610E+03  0.00000000000E+00 0.  1.
         11    1    4    4    0    0 -0.99102453419E+01  0.21095417627E+02 -0.85653239680E+02  0.88767714149E+02  0.00000000000E+00 0. -1.
</event>
<event>
 8    1  0.6840032E-009  0.1907931E+03  0.7561462E-02  0.1157748E+00
         -1   -1    0    0    0  501 -0.00000000000E+00  0.00000000000E+00  0.91036969557E+03  0.91036969557E+03  0.00000000000E+00 0.  1.
          1   -1    0    0  501    0  0.00000000000E+00 -0.00000000000E+00 -0.45882979460E+02  0.45882979460E+02  0.00000000000E+00 0. -1.
         25    2    1    2    0    0 -0.16333612659E+03  0.46659013806E+02  0.38466253821E+03  0.43871203675E+03  0.12508888468E+03 0.  0.
         23    2    1    2    0    0  0.16333612659E+03 -0.46659013806E+02  0.47982417791E+03  0.51754063829E+03  0.93601905727E+02 0.  0.
          5    1    3    3  502    0 -0.15657099970E+03  0.80500731754E+02  0.31636287530E+03  0.36207428385E+03  0.41800000000E+01 0.  1.
         -5    1    3    3    0  502 -0.67651268858E+01 -0.33841717948E+02  0.68299662911E+02  0.76637752898E+02  0.41800000000E+01 0.  1.
        -11    1    4    4    0    0  0.15186352954E+03 -0.38578660734E+02  0.47843549603E+03  0.50343953811E+03  0.00000000000E+00 0.  1.
         11    1    4    4    0    0  0.11472597050E+02 -0.80803530722E+01  0.13886818739E+01  0.14101100177E+02  0.00000000000E+00 0. -1.
</event>
<event>
 8    1  0.6840032E-009  0.1206465E+03  0.7561462E-02  0.1242034E+00
          1   -1    0    0  501    0  0.00000000000E+00  0.00000000000E+00  0.14222202756E+03  0.14222202756E+03  0.00000000000E+00 0. -1.
         -1   -1    0    0    0  501 -0.00000000000E+00 -0.00000000000E+00 -0.12461208444E+03  0.12461208444E+03  0.00000000000E+00 0.  1.
         25    2    1    2    0    0  0.39297397284E+02  0.64275971469E+02 -0.50186309936E+01  0.14610961052E+03  0.12508855138E+03 0.  0.
         23    2    1    2    0    0 -0.39297397284E+02 -0.64275971469E+02  0.22628574116E+02  0.12072450149E+03  0.91578747269E+02 0.  0.
          5    1    3    3  502    0  0.69197716034E+02  0.80911252092E+02 -0.20196917102E+02  0.10844511275E+03  0.41800000000E+01 0. -1.
         -5    1    3    3    0  502 -0.29900318750E+02 -0.16635280623E+02  0.15178286109E+02  0.37664497765E+02  0.41800000000E+01 0. -1.
        -11    1    4    4    0    0  0.17624926321E+02 -0.55245608336E+01 -0.21037962972E+02  0.27995619054E+02  0.00000000000E+00 0.  1.
         11    1    4    4    0    0 -0.56922323605E+02 -0.58751410635E+02  0.43666537087E+02  0.92728882434E+02  0.00000000000E+00 0. -1.
</event>
<event>
 7    1  0.6840032E-009  0.1386575E+03  0.7561462E-02  0.1215147E+00
          1   -1    0    0  501    0  0.00000000000E+00  0.00000000000E+00  0.81385332283E+03  0.81385332283E+03  0.00000000000E+00 0. -1.
         -1   -1    0    0    0  501 -0.00000000000E+00 -0.00000000000E+00 -0.27100710882E+02  0.27100710882E+02  0.00000000000E+00 0.  1.
         23    2    1    2    0    0  0.72685070726E+02 -0.62217936357E+02  0.45242770156E+03  0.47123434093E+03  0.90646499242E+02 0.  0.
          5    1    1    2  502    0  0.32682117095E+02  0.24624390715E+02  0.54112216424E+02  0.67971212747E+02  0.41800000000E+01 0.  1.
         -5    1    1    2    0  502 -0.10536718782E+03  0.37593545642E+02  0.28021269397E+03  0.30174848004E+03  0.41800000000E+01 0.  1.
        -11    1    3    3    0    0  0.10637777347E+02 -0.61259391832E+02  0.30510311387E+03  0.31137402828E+03  0.00000000000E+00 0. -1.
         11    1    3    3    0    0  0.62047293379E+02 -0.95854452538E+00  0.14732458768E+03  0.15986031265E+03  0.00000000000E+00 0.  1.
</event>
<event>
 8    1  0.6840032E-009  0.1064068E+03  0.7561462E-02  0.1267372E+00
         -2   -1    0    0    0  501 -0.00000000000E+00  0.00000000000E+00  0.67836306361E+02  0.67836306361E+02  0.00000000000E+00 0.  1.
          2   -1    0    0  501    0  0.00000000000E+00 -0.00000000000E+00 -0.20933630610E+03  0.20933630610E+03  0.00000000000E+00 0. -1.
         25    2    1    2    0    0  0.46813351162E+02  0.12004199212E+02 -0.65252162544E+02  0.14914009780E+03  0.12509729577E+03 0.  0.
         23    2    1    2    0    0 -0.46813351162E+02 -0.12004199212E+02 -0.76247837192E+02  0.12803251465E+03  0.90790976900E+02 0.  0.
          5    1    3    3  502    0  0.72917763115E+02 -0.29701112877E+02 -0.18168807824E+02  0.80911891967E+02  0.41800000000E+01 0. -1.
         -5    1    3    3    0  502 -0.26104411953E+02  0.41705312090E+02 -0.47083354720E+02  0.68228205836E+02  0.41800000000E+01 0. -1.
        -11    1    4    4    0    0  0.10247395788E+02  0.17554956244E+02 -0.57656507245E+02  0.61134756373E+02  0.00000000000E+00 0. -1.
         11    1    4    4    0    0 -0.57060746950E+02 -0.29559155456E+02 -0.18591329947E+02  0.66897758281E+02  0.00000000000E+00 0.  1.
</event>
<event>
 8    1  0.6840032E-009  0.1432296E+03  0.7561462E-02  0.1209048E+00
          1   -1    0    0  501    0  0.00000000000E+00  0.00000000000E+00  0.22538191833E+02  0.22538191833E+02  0.00000000000E+00 0. -1.
         -1   -1    0    0    0  501 -0.00000000000E+00 -0.00000000000E+00 -0.98603511701E+03  0.98603511701E+03  0.00000000000E+00 0.  1.
         25    2    1    2    0    0 -0.93806803393E+02 -0.70161031228E+01 -0.62787233017E+03  0.64708665086E+03  0.12509407924E+03 0.  0.
         23    2    1    2    0    0  0.93806803393E+02  0.70161031228E+01 -0.33562459501E+03  0.36148665799E+03  0.95811236613E+02 0.  0.
          5    1    3    3  502    0 -0.76524120968E+01 -0.54481909505E+02 -0.28818732730E+03  0.29342161796E+03  0.41800000000E+01 0. -1.
         -5    1    3    3    0  502 -0.86154391296E+02  0.47465806383E+02 -0.33968500288E+03  0.35366503290E+03  0.41800000000E+01 0. -1.
        -11    1    4    4    0    0  0.10934825686E+03  0.21664616020E+02 -0.29880622639E+03  0.31892249496E+03  0.00000000000E+00 0.  1.
         11    1    4    4    0    0 -0.15541453466E+02 -0.14648512897E+02 -0.36818368622E+02  0.42564163024E+02  0.00000000000E+00 0. -1.
</event>
<event>
 8    1  0.6840032E-009  0.1432139E+03  0.7561462E-02  0.1209069E+00
          2   -1    0    0  501    0  0.00000000000E+00  0.00000000000E+00  0.22958036037E+04  0.22958036037E+04  0.00000000000E+00 0.  1.
         -2   -1    0    0    0  501 -0.00000000000E+00 -0.00000000000E+00 -0.12410494361E+02  0.12410494361E+02  0.00000000000E+00 0. -1.
         25    2    1    2    0    0  0.12018435606E+03  0.23185554569E+02  0.15058278397E+04  0.15159637089E+04  0.12508650836E+03 0.  0.
         23    2    1    2    0    0 -0.12018435606E+03 -0.23185554569E+02  0.77756526957E+03  0.79225038907E+03  0.89839196103E+02 0.  0.
          5    1    3    3  502    0  0.17923775136E+02 -0.16624147900E+02  0.89495834965E+03  0.89530192897E+03  0.41800000000E+01 0.  1.
         -5    1    3    3    0  502  0.10226058092E+03  0.39809702468E+02  0.61086949007E+03  0.62066177997E+03  0.41800000000E+01 0.  1.
        -11    1    4    4    0    0 -0.48758141337E+02  0.34723608053E+02  0.30017508685E+03  0.30608523007E+03  0.00000000000E+00 0. -1.
         11    1    4    4    0    0 -0.71426214720E+02 -0.57909162622E+02  0.47739018273E+03  0.48616515900E+03  0.00000000000E+00 0.  1.
</event>
<event>
 8    1  0.6840032E-009  0.1072844E+03  0.7561462E-02  0.1265683E+00
          2   -1    0    0  501    0  0.00000000000E+00  0.00000000000E+00  0.99774061901E+02  0.99774061901E+02  0.00000000000E+00 0. -1.
         -2   -1    0    0    0  501 -0.00000000000E+00 -0.00000000000E+00 -0.15936200776E+03  0.15936200776E+03  0.00000000000E+00 0.  1.
         25    2    1    2    0    0  0.10347625257E+02 -0.29898744717E+02  0.28385856982E+02  0.13211342371E+03  0.12508873476E+03 0.  0.
         23    2    1    2    0    0 -0.10347625257E+02  0.29898744717E+02 -0.87973802836E+02  0.12702264594E+03  0.85990431517E+02 0.  0.
          5    1    3    3  502    0  0.38985230372E+02  0.37926863539E+02  0.51305956658E+01  0.54791336696E+02  0.41800000000E+01 0.  1.
         -5    1    3    3    0  502 -0.28637605116E+02 -0.67825608256E+02  0.23255261316E+02  0.77322087019E+02  0.41800000000E+01 0.  1.
        -11    1    4    4    0    0  0.31432298726E+02  0.31453871130E+02 -0.23812861859E+02  0.50441925044E+02  0.00000000000E+00 0. -1.
         11    1    4    4    0    0 -0.41779923982E+02 -0.15551264130E+01 -0.64160940977E+02  0.76580720898E+02  0.00000000000E+00 0.  1.
</event>
<event>
 8    1  0.6840032E-009  0.1124585E+03  0.7561462E-02  0.1256084E+00
         -1   -1    0    0    0  501 -0.00000000000E+00  0.00000000000E+00  0.18113541389E+03  0.18113541389E+03  0.00000000000E+00 0.  1.
          1   -1    0    0  501    0  0.00000000000E+00 -0.00000000000E+00 -0.10168392699E+03  0.10168392699E+03  0.00000000000E+00 0. -1.
         25    2    1    2    0    0 -0.34469184200E+02  0.73729253442E+02  0.22355181619E+02  0.15089955929E+03  0.12508715113E+03 0.  0.
         23    2    1    2    0    0  0.34469184200E+02 -0.73729253442E+02  0.57096305289E+02  0.13191978159E+03  0.86710513920E+02 0.  0.
          5    1    3    3  502    0 -0.66960017928E+02  0.80864613353E+02  0.40703000538E+02  0.11268068311E+03  0.41800000000E+01 0.  1.
         -5    1    3    3    0  502  0.32490833728E+02 -0.71353599104E+01 -0.18347818919E+02  0.38218876181E+02  0.41800000000E+01 0.  1.
        -11    1    4    4    0    0  0.37861915507E+02 -0.51990004956E+02 -0.64825940367E+01  0.64641389887E+02  0.00000000000E+00 0. -1.
         11    1    4    4    0    0 -0.33927313066E+01 -0.21739248487E+02  0.63578899326E+02  0.67278391701E+02  0.00000000000E+00 0.  1.
</event>
<event>
 8    1  0.6840032E-009  0.7901487E+02  0.7561462E-02  0.1331871E+00
         -1   -1    0    0    0  501 -0.00000000000E+00  0.00000000000E+00  0.47634963832E+02  0.47634963832E+02  0.00000000000E+00 0.  1.
          1   -1    0    0  501    0  0.00000000000E+00 -0.00000000000E+00 -0.32055898977E+03  0.32055898977E+03  0.00000000000E+00 0. -1.
         25    2    1    2    0    0 -0.52578050444E+02  0.77923745983E+01 -0.11484694502E+03  0.17794148244E+03  0.12509267725E+03 0.  0.
         23    2    1    2    0    0  0.52578050444E+02 -0.77923745983E+01 -0.15807708092E+03  0.19025247117E+03  0.91555812395E+02 0.  0.
          5    1    3    3  502    0  0.95613799887E+01  0.20323126837E+02  0.19044993092E+02  0.29742791288E+02  0.41800000000E+01 0.  1.
         -5    1    3    3    0  502 -0.62139430433E+02 -0.12530752239E+02 -0.13389193811E+03  0.14819869115E+03  0.41800000000E+01 0.  1.
        -11    1    4    4    0    0  0.25685043889E+02  0.20320747182E+02 -0.60235616636E+01  0.33300713817E+02  0.00000000000E+00 0.  1.
         11    1    4    4    0    0  0.26893006555E+02 -0.28113121780E+02 -0.15205351925E+03  0.15695175735E+03  0.00000000000E+00 0. -1.
</event>
<event>
 8    1  0.6840032E-009  0.9240193E+02  0.7561462E-02  0.1297137E+00
          2   -1    0    0  501    0  0.00000000000E+00  0.00000000000E+00  0.43968021931E+03  0.43968021931E+03  0.00000000000E+00 0. -1.
         -2   -1    0    0    0  501 -0.00000000000E+00 -0.00000000000E+00 -0.37500907244E+02  0.37500907244E+02  0.00000000000E+00 0.  1.
         25    2    1    2    0    0 -0.21352645600E+02 -0.55185245381E+02  0.16114258468E+03  0.21240298528E+03  0.12508696486E+03 0.  0.
         23    2    1    2    0    0  0.21352645600E+02  0.55185245381E+02  0.24103672738E+03  0.26477814127E+03  0.92235640426E+02 0.  0.
          5    1    3    3  502    0  0.96791718493E+01 -0.65930019954E+02  0.23417581017E+02  0.70755278245E+02  0.41800000000E+01 0.  1.
         -5    1    3    3    0  502 -0.31031817449E+02  0.10744774573E+02  0.13772500366E+03  0.14164770704E+03  0.41800000000E+01 0.  1.
        -11    1    4    4    0    0 -0.58356174632E+01  0.57360604540E+02  0.22679411442E+03  0.23400825567E+03  0.00000000000E+00 0. -1.
         11    1    4    4    0    0  0.27188263063E+02 -0.21753591590E+01  0.14242612957E+02  0.30769885598E+02  0.00000000000E+00 0.  1.
</event>
<event>
 8    1  0.6840032E-009  0.1107481E+03  0.7561462E-02  0.1259191E+00
         -1   -1    0    0    0  501 -0.00000000000E+00  0.00000000000E+00  0.10903520481E+03  0.10903520481E+03  0.00000000000E+00 0.  1.
          1   -1    0    0  501    0  0.00000000000E+00 -0.00000000000E+00 -0.12026754817E+03  0.12026754817E+03  0.00000000000E+00 0. -1.
         25    2    1    2    0    0 -0.32306057867E+02  0.38416486571E+01 -0.14756214755E+02  0.13009176068E+03  0.12509068984E+03 0.  0.
         23    2    1    2    0    0  0.32306057867E+02 -0.38416486571E+01  0.35238714020E+01  0.99210992300E+02  0.93658761919E+02 0.  0.
          5    1    3    3  502    0  0.42244551965E+02  0.27373548356E+02 -0.11111322333E+02  0.51718925012E+02  0.41800000000E+01 0. -1.
         -5    1    3    3    0  502 -0.74550609833E+02 -0.23531899699E+02 -0.36448924215E+01  0.78372835668E+02  0.41800000000E+01 0. -1.
        -11    1    4    4    0    0 -0.26564016710E+02 -0.18075567461E+02  0.18151464049E+02  0.36903235223E+02  0.00000000000E+00 0.  1.
         11    1    4    4    0    0  0.58870074578E+02  0.14233918804E+02 -0.14627592647E+02  0.62307757077E+02  0.00000000000E+00 0. -1.
</event>
<event>
 8    1  0.6840032E-009  0.4988392E+02  0.7561462E-02  0.1445969E+00
         -1   -1    0    0    0  501 -0.00000000000E+00  0.00000000000E+00  0.13380712682E+02  0.13380712682E+02  0.00000000000E+00 0.  1.
          1   -1    0    0  501    0  0.00000000000E+00 -0.00000000000E+00 -0.10570403366E+04  0.10570403366E+04  0.00000000000E+00 0. -1.
         25    2    1    2    0    0 -0.66881955016E+01 -0.12719386613E+02 -0.80462017832E+03  0.81441286889E+03  0.12509266526E+03 0.  0.
         23    2    1    2    0    0  0.66881955016E+01  0.12719386613E+02 -0.23903944557E+03  0.25600818037E+03  0.90519705698E+02 0.  0.
          5    1    3    3  502    0 -0.76219909625E+01  0.73679526080E+00 -0.79926123603E+03  0.79930884734E+03  0.41800000000E+01 0.  1.
         -5    1    3    3    0  502  0.93379546094E+00 -0.13456181873E+02 -0.53589422887E+01  0.15104021551E+02  0.41800000000E+01 0.  1.
        -11    1    4    4    0    0 -0.31349758092E+02 -0.96413129448E+01 -0.38061983333E+02  0.50244172030E+02  0.00000000000E+00 0. -1.
         11    1    4    4    0    0  0.38037953593E+02  0.22360699557E+02 -0.20097746224E+03  0.20576400834E+03  0.00000000000E+00 0.  1.
</event>
<event>
 8    1  0.6840032E-009  0.1114180E+03  0.7561462E-02  0.1257966E+00
          2   -1    0    0  501    0  0.00000000000E+00  0.00000000000E+00  0.14097502599E+03  0.14097502599E+03  0.00000000000E+00 0. -1.
         -2   -1    0    0    0  501 -0.00000000000E+00 -0.00000000000E+00 -0.11244702455E+03  0.11244702455E+03  0.00000000000E+00 0.  1.
         25    2    1    2    0    0  0.27540860717E+02 -0.49915665303E+02  0.47241325259E+02  0.14534846273E+03  0.12507741664E+03 0.  0.
         23    2    1    2    0    0 -0.27540860717E+02  0.49915665303E+02 -0.18713323828E+02  0.10807358781E+03  0.89886813507E+02 0.  0.
          5    1    3    3  502    0 -0.48219124790E+02 -0.34252622988E+02  0.27709510729E+02  0.65449335840E+02  0.41800000000E+01 0. -1.
         -5    1    3    3    0  502  0.75759985507E+02 -0.15663042315E+02  0.19531814530E+02  0.79899126888E+02  0.41800000000E+01 0. -1.
        -11    1    4    4    0    0 -0.41712604234E+02  0.88723390990E+01 -0.41094726007E+02  0.59223612340E+02  0.00000000000E+00 0.  1.
         11    1    4    4    0    0  0.14171743517E+02  0.41043326204E+02  0.22381402179E+02  0.48849975473E+02  0.00000000000E+00 0. -1.
</event>
<event>
 8    1  0.6840032E-009  0.2461570E+03  0.7561462E-02  0.1115758E+00
         -2   -1    0    0    0  501 -0.00000000000E+00  0.00000000000E+00  0.84749927683E+02  0.84749927683E+02  0.00000000000E+00 0.  1.
          2   -1    0    0  501    0  0.00000000000E+00 -0.00000000000E+00 -0.87796072459E+03  0.87796072459E+03  0.00000000000E+00 0. -1.
         25    2    1    2    0    0 -0.91152799206E+02 -0.22765252838E+03 -0.49099931398E+03  0.56290526760E+03  0.12508999756E+03 0.  0.
         23    2    1    2    0    0  0.91152799206E+02  0.22765252838E+03 -0.30221148294E+03  0.39980538468E+03  0.91531736132E+02 0.  0.
          5    1    3    3  502    0 -0.71349040720E+02 -0.19168390950E+03 -0.47750596742E+03  0.51948323177E+03  0.41800000000E+01 0.  1.
         -5    1    3    3    0  502 -0.19803758486E+02 -0.35968618878E+02 -0.13493346557E+02  0.43422035829E+02  0.41800000000E+01 0.  1.
        -11    1    4    4    0    0  0.41962477295E+02  0.73251972658E+02 -0.44630939450E+02  0.95491474778E+02  0.00000000000E+00 0.  1.
         11    1    4    4    0    0  0.49190321911E+02  0.15440055572E+03 -0.25758054349E+03  0.30431390990E+03  0.00000000000E+00 0. -1.
</event>
<event>
 8    1  0.6840032E-009  0.1022774E+03  0.7561462E-02  0.1275579E+00
          2   -1    0    0  501    0  0.00000000000E+00  0.00000000000E+00  0.68710917154E+02  0.68710917154E+02  0.00000000000E+00 0. -1.
         -2   -1    0    0    0  501 -0.00000000000E+00 -0.00000000000E+00 -0.20889530007E+03  0.20889530007E+03  0.00000000000E+00 0.  1.
         25    2    1    2    0    0 -0.41924774410E+01  0.38001559400E+02 -0.76696958921E+02  0.15162594689E+03  0.12508520648E+03 0.  0.
         23    2    1    2    0    0  0.41924774410E+01 -0.38001559400E+02 -0.63487423999E+02  0.12598027033E+03  0.10187580735E+03 0.  0.
          5    1    3    3  502    0 -0.43208931684E+02 -0.12521332706E+02  0.75883569937E+01  0.45813219837E+02  0.41800000000E+01 0.  1.
         -5    1    3    3    0  502  0.39016454243E+02  0.50522892105E+02 -0.84285315915E+02  0.10581272706E+03  0.41800000000E+01 0.  1.
        -11    1    4    4    0    0  0.22307261118E+02 -0.61680144308E+02 -0.69504141426E+02  0.95566101604E+02  0.00000000000E+00 0.  1.
         11    1    4    4    0    0 -0.18114783677E+02  0.23678584908E+02  0.60167174277E+01  0.30414168730E+02  0.00000000000E+00 0. -1.
</event>
<event>
 8    1  0.6840032E-009  0.1044016E+03  0.7561462E-02  0.1271303E+00
         -2   -1    0    0    0  501 -0.00000000000E+00  0.00000000000E+00  0.10839816264E+04  0.10839816264E+04  0.00000000000E+00 0.  1.
          2   -1    0    0  501    0  0.00000000000E+00 -0.00000000000E+00 -0.11294453658E+02  0.11294453658E+02  0.00000000000E+00 0. -1.
         25    2    1    2    0    0  0.85432453579E+01  0.83758170764E+01  0.72555229984E+03  0.73635440650E+03  0.12509408782E+03 0.  0.
         23    2    1    2    0    0 -0.85432453579E+01 -0.83758170764E+01  0.34713487294E+03  0.35892167360E+03  0.90437859424E+02 0.  0.
          5    1    3    3  502    0 -0.21778424341E+02  0.56530798817E+02  0.24441846007E+03  0.25184893687E+03  0.41800000000E+01 0. -1.
         -5    1    3    3    0  502  0.30321669699E+02 -0.48154981741E+02  0.48113383978E+03  0.48450546963E+03  0.41800000000E+01 0. -1.
        -11    1    4    4    0    0 -0.36641361867E+02 -0.36177136573E+02  0.20825366813E+03  0.21452497500E+03  0.00000000000E+00 0.  1.
         11    1    4    4    0    0  0.28098116509E+02  0.27801319496E+02  0.13888120481E+03  0.14439669860E+03  0.00000000000E+00 0. -1.
</event>
<event>
 8    1  0.6840032E-009  0.1066986E+03  0.7561462E-02  0.1266809E+00
         -2   -1    0    0    0  501 -0.00000000000E+00  0.00000000000E+00  0.13927541474E+03  0.13927541474E+03  0.00000000000E+00 0.  1.
          2   -1    0    0  501    0  0.00000000000E+00 -0.00000000000E+00 -0.10423014692E+03  0.10423014692E+03  0.00000000000E+00 0. -1.
         25    2    1    2    0    0  0.47829520482E+02 -0.19570970138E+02  0.14355813780E+02  0.13611013526E+03  0.12509673708E+03 0.  0.
         23    2    1    2    0    0 -0.47829520482E+02  0.19570970138E+02  0.20689454041E+02  0.10739542641E+03  0.91842464053E+02 0.  0.
          5    1    3    3  502    0  0.55373425354E+02  0.35121209063E+02 -0.22666179525E+02  0.69504990150E+02  0.41800000000E+01 0.  1.
         -5    1    3    3    0  502 -0.75439048716E+01 -0.54692179201E+02  0.37021993305E+02  0.66605145107E+02  0.41800000000E+01 0.  1.
        -11    1    4    4    0    0 -0.54428763844E+02  0.42123869097E+02 -0.91318844604E+01  0.69428394732E+02  0.00000000000E+00 0. -1.
         11    1    4    4    0    0  0.65992433612E+01 -0.22552898959E+02  0.29821338501E+02  0.37967031677E+02  0.00000000000E+00 0.  1.
</event>
<event>
 8    1  0.6840032E-009  0.2256002E+03  0.7561462E-02  0.1129775E+00
          1   -1    0    0  501    0  0.00000000000E+00  0.00000000000E+00  0.10597041643E+04  0.10597041643E+04  0.00000000000E+00 0. -1.
         -1   -1    0    0    0  501 -0.00000000000E+00 -0.00000000000E+00 -0.79869815832E+02  0.79869815832E+02  0.00000000000E+00 0.  1.
         25    2    1    2    0    0  0.52459791694E+02 -0.21189148734E+03  0.18556336141E+03  0.31262036112E+03  0.12509075481E+03 0.  0.
         23    2    1    2    0    0 -0.52459791694E+02  0.21189148734E+03  0.79427098706E+03  0.82695361901E+03  0.73046936709E+02 0.  0.
          5    1    3    3  502    0 -0.51275954214E+01 -0.70498780106E+02  0.13376103403E+03  0.15134680986E+03  0.41800000000E+01 0.  1.
         -5    1    3    3    0  502  0.57587387115E+02 -0.14139270723E+03  0.51802327383E+02  0.16127355126E+03  0.41800000000E+01 0.  1.
        -11    1    4    4    0    0  0.77165428518E+01  0.10269523051E+03  0.29934576869E+03  0.31656554556E+03  0.00000000000E+00 0. -1.
         11    1    4    4    0    0 -0.60176334546E+02  0.10919625683E+03  0.49492521837E+03  0.51038807345E+03  0.00000000000E+00 0.  1.
</event>
<event>
 8    1  0.6840032E-009  0.1093549E+03  0.7561462E-02  0.1261769E+00
         -1   -1    0    0    0  501 -0.00000000000E+00  0.00000000000E+00  0.19954403626E+02  0.19954403626E+02  0.00000000000E+00 0.  1.
          1   -1    0    0  501    0  0.00000000000E+00 -0.00000000000E+00 -0.70158090944E+03  0.70158090944E+03  0.00000000000E+00 0. -1.
         25    2    1    2    0    0  0.13139795130E+02  0.29495482998E+02 -0.27627861119E+03  0.30499213341E+03  0.12509073791E+03 0.  0.
         23    2    1    2    0    0 -0.13139795130E+02 -0.29495482998E+02 -0.40534789463E+03  0.41654317965E+03  0.90325340315E+02 0.  0.
          5    1    3    3  502    0 -0.21552562982E+02 -0.41855693855E+02 -0.13317838540E+03  0.14131654828E+03  0.41800000000E+01 0. -1.
         -5    1    3    3    0  502  0.34692358112E+02  0.71351176853E+02 -0.14310022578E+03  0.16367558513E+03  0.41800000000E+01 0. -1.
        -11    1    4    4    0    0  0.36353681918E+02 -0.20364058490E+02 -0.24385861077E+03  0.24739302156E+03  0.00000000000E+00 0. -1.
         11    1    4    4    0    0 -0.49493477048E+02 -0.91314245085E+01 -0.16148928385E+03  0.16915015810E+03  0.00000000000E+00 0.  1.
</event>
<event>
 8    1  0.6840032E-009  0.7110703E+02  0.7561462E-02  0.1356368E+00
          2   -1    0    0  501    0  0.00000000000E+00  0.00000000000E+00  0.63135603231E+03  0.63135603231E+03  0.00000000000E+00 0. -1.
         -2   -1    0    0    0  501 -0.00000000000E+00 -0.00000000000E+00 -0.20010861637E+02  0.20010861637E+02  0.00000000000E+00 0.  1.
         25    2    1    2    0    0  0.18606153947E+02  0.64670960830E+01  0.42643498300E+03  0.44484873280E+03  0.12512229240E+03 0.  0.
         23    2    1    2    0    0 -0.18606153947E+02 -0.64670960830E+01  0.18491018767E+03  0.20651816114E+03  0.89832962103E+02 0.  0.
          5    1    3    3  502    0  0.40080673638E+02  0.28204592431E+02  0.40331717739E+03  0.40630552225E+03  0.41800000000E+01 0. -1.
         -5    1    3    3    0  502 -0.21474519691E+02 -0.21737496348E+02  0.23117805608E+02  0.38543210551E+02  0.41800000000E+01 0. -1.
        -11    1    4    4    0    0 -0.15110741066E+02  0.25708656298E+02  0.14679132091E+02  0.33237725903E+02  0.00000000000E+00 0.  1.
         11    1    4    4    0    0 -0.34954128812E+01 -0.32175752381E+02  0.17023105558E+03  0.17328043524E+03  0.00000000000E+00 0. -1.
</event>
<event>
 8    1  0.6840032E-009  0.1470697E+03  0.7561462E-02  0.1204121E+00
         -1   -1    0    0    0  501 -0.00000000000E+00  0.00000000000E+00  0.58552194271E+02  0.58552194271E+02  0.00000000000E+00 0.  1.
          1   -1    0    0  501    0  0.00000000000E+00 -0.00000000000E+00 -0.11571280975E+04  0.11571280975E+04  0.00000000000E+00 0. -1.
         25    2    1    2    0    0 -0.29461378863E+02  0.10670425874E+03 -0.10313614607E+04  0.10448009678E+04  0.12509527593E+03 0.  0.
         23    2    1    2    0    0  0.29461378863E+02 -0.10670425874E+03 -0.67214442563E+02  0.17087932399E+03  0.11148179402E+03 0.  0.
          5    1    3    3  502    0  0.14877349342E+02  0.88076584652E+02 -0.90702042062E+03  0.91141776157E+03  0.41800000000E+01 0.  1.
         -5    1    3    3    0  502 -0.44338728206E+02  0.18627674089E+02 -0.12434104009E+03  0.13338320626E+03  0.41800000000E+01 0.  1.
        -11    1    4    4    0    0  0.10204980225E+02 -0.12761182474E+03 -0.48765015443E+02  0.13699250405E+03  0.00000000000E+00 0. -1.
         11    1    4    4    0    0  0.19256398638E+02  0.20907565996E+02 -0.18449427121E+02  0.33886819938E+02  0.00000000000E+00 0.  1.
</event>
<event>
 8    1  0.6840032E-009  0.1384537E+03  0.7561462E-02  0.1215425E+00
          3   -1    0    0  501    0  0.00000000000E+00  0.00000000000E+00  0.27550797865E+02  0.27550797865E+02  0.00000000000E+00 0. -1.
         -3   -1    0    0    0  501 -0.00000000000E+00 -0.00000000000E+00 -0.82552669216E+03  0.82552669216E+03  0.00000000000E+00 0.  1.
         25    2    1    2    0    0 -0.38882216168E+02  0.92584289808E+02 -0.51226847762E+03  0.53679589398E+03  0.12508861331E+03 0.  0.
         23    2    1    2    0    0  0.38882216168E+02 -0.92584289808E+02 -0.28570741668E+03  0.31628159605E+03  0.91223037657E+02 0.  0.
          5    1    3    3  502    0 -0.18500815723E+02 -0.26506664649E+02 -0.56117668617E+02  0.64896445081E+02  0.41800000000E+01 0.  1.
         -5    1    3    3    0  502 -0.20381400445E+02  0.11909095446E+03 -0.45615080900E+03  0.47189944890E+03  0.41800000000E+01 0.  1.
        -11    1    4    4    0    0  0.60124771564E+02 -0.72470812830E+02 -0.26269165458E+03  0.27905897630E+03  0.00000000000E+00 0.  1.
         11    1    4    4    0    0 -0.21242555395E+02 -0.20113476978E+02 -0.23015762102E+02  0.37222619749E+02  0.00000000000E+00 0. -1.
</event>
<event>
 8    1  0.6840032E-009  0.1086699E+03  0.7561462E-02  0.1263053E+00
          4   -1    0    0  501    0  0.00000000000E+00  0.00000000000E+00  0.91069701848E+02  0.91069701848E+02  0.00000000000E+00 0.  1.
         -4   -1    0    0    0  501 -0.00000000000E+00 -0.00000000000E+00 -0.20566187481E+03  0.20566187481E+03  0.00000000000E+00 0. -1.
         25    2    1    2    0    0  0.62253529468E+02  0.33282456651E+02 -0.12895442894E+02  0.14421046921E+03  0.12508854117E+03 0.  0.
         23    2    1    2    0    0 -0.62253529468E+02 -0.33282456651E+02 -0.10169673006E+03  0.15252110744E+03  0.89091186195E+02 0.  0.
          5    1    3    3  502    0 -0.17395030307E+02  0.11530102433E+02  0.40530061103E+02  0.45778691490E+02  0.41800000000E+01 0. -1.
         -5    1    3    3    0  502  0.79648559775E+02  0.21752354218E+02 -0.53425503998E+02  0.98431777723E+02  0.41800000000E+01 0. -1.
        -11    1    4    4    0    0  0.11169155439E+02  0.19834453801E+02 -0.16250165086E+02  0.27968258010E+02  0.00000000000E+00 0. -1.
         11    1    4    4    0    0 -0.73422684907E+02 -0.53116910452E+02 -0.85446564977E+02  0.12455284943E+03  0.00000000000E+00 0.  1.
</event>
<event>
 8    1  0.6840032E-009  0.1016873E+03  0.7561462E-02  0.1276787E+00
         -1   -1    0    0    0  501 -0.00000000000E+00  0.00000000000E+00  0.17604180117E+03  0.17604180117E+03  0.00000000000E+00 0.  1.
          1   -1    0    0  501    0  0.00000000000E+00 -0.00000000000E+00 -0.84695343448E+02  0.84695343448E+02  0.00000000000E+00 0. -1.
         25    2    1    2    0    0  0.10958281874E+02 -0.22033759631E+02  0.10582835892E+03  0.16569138365E+03  0.12509365515E+03 0.  0.
         23    2    1    2    0    0 -0.10958281874E+02  0.22033759631E+02 -0.14481901199E+02  0.95045760970E+02  0.90655395377E+02 0.  0.
          5    1    3    3  502    0  0.63815958614E+02  0.18905774495E+01  0.31523135726E+02  0.71324829778E+02  0.41800000000E+01 0. -1.
         -5    1    3    3    0  502 -0.52857676740E+02 -0.23924337081E+02  0.74305223197E+02  0.94366553871E+02  0.41800000000E+01 0. -1.
        -11    1    4    4    0    0  0.30723294552E+02 -0.55786890652E+01  0.17401330251E+02  0.35747012383E+02  0.00000000000E+00 0.  1.
         11    1    4    4    0    0 -0.41681576426E+02  0.27612448696E+02 -0.31883231450E+02  0.59298748587E+02  0.00000000000E+00 0. -1.
</event>
<event>
 8    1  0.6840032E-009  0.9632007E+02  0.7561462E-02  0.1288230E+00
          1   -1    0    0  501    0  0.00000000000E+00  0.00000000000E+00  0.51642882874E+03  0.51642882874E+03  0.00000000000E+00 0. -1.
         -1   -1    0    0    0  501 -0.00000000000E+00 -0.00000000000E+00 -0.28452207538E+02  0.28452207538E+02  0.00000000000E+00 0.  1.
         25    2    1    2    0    0  0.50905216670E-01  0.45221346493E+02  0.20710959924E+03  0.24614526837E+03  0.12509250286E+03 0.  0.
         23    2    1    2    0    0 -0.50905216670E-01 -0.45221346493E+02  0.28086702196E+03  0.29873576791E+03  0.91169085955E+02 0.  0.
          5    1    3    3  502    0  0.39350993248E+02  0.43833860881E+02  0.19652683019E+03  0.20520763976E+03  0.41800000000E+01 0. -1.
         -5    1    3    3    0  502 -0.39300088031E+02  0.13874856126E+01  0.10582769051E+02  0.40937628612E+02  0.41800000000E+01 0. -1.
        -11    1    4    4    0    0  0.14864325626E+02 -0.66451787770E+02  0.14220957612E+03  0.15767165824E+03  0.00000000000E+00 0.  1.
         11    1    4    4    0    0 -0.14915230843E+02  0.21230441277E+02  0.13865744585E+03  0.14106410967E+03  0.00000000000E+00 0. -1.
</event>
<event>
 8    1  0.6840032E-009  0.1228604E+03  0.7561462E-02  0.1238451E+00
          1   -1    0    0  501    0  0.00000000000E+00  0.00000000000E+00  0.43621158441E+02  0.43621158441E+02  0.00000000000E+00 0. -1.
         -1   -1    0    0    0  501 -0.00000000000E+00 -0.00000000000E+00 -0.77646660433E+03  0.77646660433E+03  0.00000000000E+00 0.  1.
         25    2    1    2    0    0 -0.89699205418E+02 -0.58707311179E+01 -0.65652272066E+03  0.67435155571E+03  0.12509006760E+03 0.  0.
         23    2    1    2    0    0  0.89699205418E+02  0.58707311179E+01 -0.76322725239E+02  0.14573620707E+03  0.85635686057E+02 0.  0.
          5    1    3    3  502    0  0.22588530800E+02  0.63454987117E+01 -0.28553771580E+03  0.28653056839E+03  0.41800000000E+01 0.  1.
         -5    1    3    3    0  502 -0.11228773622E+03 -0.12216229830E+02 -0.37098500486E+03  0.38782098732E+03  0.41800000000E+01 0.  1.
        -11    1    4    4    0    0  0.89742502220E+02  0.22267737608E+02 -0.86351474152E+02  0.12651539800E+03  0.00000000000E+00 0.  1.
         11    1    4    4    0    0 -0.43296802720E-01 -0.16397006491E+02  0.10028748913E+02  0.19220809068E+02  0.00000000000E+00 0. -1.
</event>
<event>
 8    1  0.6840032E-009  0.9796437E+02  0.7561462E-02  0.1284636E+00
         -2   -1    0    0    0  501 -0.00000000000E+00  0.00000000000E+00  0.35719569572E+03  0.35719569572E+03  0.00000000000E+00 0. -1.
          2   -1    0    0  501    0  0.00000000000E+00 -0.00000000000E+00 -0.42176545855E+02  0.42176545855E+02  0.00000000000E+00 0.  1.
         25    2    1    2    0    0  0.41869659069E+02 -0.38483891626E+02  0.18351979696E+03  0.22926146443E+03  0.12508886815E+03 0.  0.
         23    2    1    2    0    0 -0.41869659069E+02  0.38483891626E+02  0.13149935291E+03  0.17011077714E+03  0.91714330498E+02 0.  0.
          5    1    3    3  502    0  0.41469744346E+02 -0.58144614554E+02  0.35465915306E+02  0.79848853756E+02  0.41800000000E+01 0. -1.
         -5    1    3    3    0  502  0.39991472327E+00  0.19660722928E+02  0.14805388165E+03  0.14941261068E+03  0.41800000000E+01 0. -1.
        -11    1    4    4    0    0 -0.45897722579E+02  0.63830911516E+02  0.11598918631E+03  0.14012307998E+03  0.00000000000E+00 0.  1.
         11    1    4    4    0    0  0.40280635101E+01 -0.25347019890E+02  0.15510166602E+02  0.29987697160E+02  0.00000000000E+00 0. -1.
</event>
<event>
 7    1  0.6840032E-009  0.1089323E+03  0.7561462E-02  0.1262560E+00
         -1   -1    0    0    0  501 -0.00000000000E+00  0.00000000000E+00  0.12484570241E+03  0.12484570241E+03  0.00000000000E+00 0.  1.
          1   -1    0    0  501    0  0.00000000000E+00 -0.00000000000E+00 -0.12880167274E+03  0.12880167274E+03  0.00000000000E+00 0. -1.
         25    2    1    2    0    0 -0.52753069528E+02  0.41150602495E+02 -0.62868541388E+02  0.15516345074E+03  0.12508790717E+03 0.  0.
          5    1    3    3  502    0 -0.34092809201E+02 -0.43023299003E+02 -0.30781992528E+02  0.63073983228E+02  0.41800000000E+01 0.  1.
         -5    1    3    3    0  502 -0.18660260327E+02  0.84173901498E+02 -0.32086548860E+02  0.92089467512E+02  0.41800000000E+01 0.  1.
        -11    1    1    2    0    0  0.40133837303E+02 -0.78669983359E+01  0.43464875036E+02  0.59680900809E+02  0.00000000000E+00 0. -1.
         11    1    1    2    0    0  0.12619232226E+02 -0.33283604160E+02  0.15447696019E+02  0.38803023595E+02  0.00000000000E+00 0.  1.
</event>
<event>
 8    1  0.6840032E-009  0.7167287E+02  0.7561462E-02  0.1354495E+00
         -2   -1    0    0    0  501 -0.00000000000E+00  0.00000000000E+00  0.52754353850E+03  0.52754353850E+03  0.00000000000E+00 0.  1.
          2   -1    0    0  501    0  0.00000000000E+00 -0.00000000000E+00 -0.28398777434E+02  0.28398777434E+02  0.00000000000E+00 0. -1.
         25    2    1    2    0    0  0.43615781073E+00 -0.29296024819E+02  0.43447610782E+03  0.45307462593E+03  0.12509468851E+03 0.  0.
         23    2    1    2    0    0 -0.43615781073E+00  0.29296024819E+02  0.64668653250E+02  0.10286769000E+03  0.74439771828E+02 0.  0.
          5    1    3    3  502    0 -0.31301954176E+02 -0.39784240430E+01  0.22255283607E+02  0.38838257447E+02  0.41800000000E+01 0.  1.
         -5    1    3    3    0  502  0.31738111987E+02 -0.25317600776E+02  0.41222082421E+03  0.41423636848E+03  0.41800000000E+01 0.  1.
        -11    1    4    4    0    0 -0.23968832342E+02  0.38567982423E+02  0.62810912711E+02  0.77506160707E+02  0.00000000000E+00 0.  1.
         11    1    4    4    0    0  0.23532674531E+02 -0.92719576034E+01  0.18577405392E+01  0.25361529297E+02  0.00000000000E+00 0. -1.
</event>
<event>
 8    1  0.6840032E-009  0.1124974E+03  0.7561462E-02  0.1256014E+00
         -2   -1    0    0    0  501 -0.00000000000E+00  0.00000000000E+00  0.58222394184E+02  0.58222394184E+02  0.00000000000E+00 0. -1.
          2   -1    0    0  501    0  0.00000000000E+00 -0.00000000000E+00 -0.31102581995E+03  0.31102581995E+03  0.00000000000E+00 0.  1.
         25    2    1    2    0    0  0.57233722474E+02 -0.62847150658E+02 -0.14896335627E+03  0.21228217732E+03  0.12509267748E+03 0.  0.
         23    2    1    2    0    0 -0.57233722474E+02  0.62847150658E+02 -0.10384006949E+03  0.15696603682E+03  0.81425507970E+02 0.  0.
          5    1    3    3  502    0  0.57160549066E+02  0.80984577483E+01 -0.12419500114E+03  0.13702110821E+03  0.41800000000E+01 0.  1.
         -5    1    3    3    0  502  0.73173408624E-01 -0.70945608407E+02 -0.24768355133E+02  0.75261069103E+02  0.41800000000E+01 0.  1.
        -11    1    4    4    0    0 -0.26502594104E+02  0.59494087331E+02 -0.10764947831E+03  0.12581869536E+03  0.00000000000E+00 0.  1.
         11    1    4    4    0    0 -0.30731128370E+02  0.33530633272E+01  0.38094088148E+01  0.31147341461E+02  0.00000000000E+00 0. -1.
</event>
<event>
 8    1  0.6840032E-009  0.7476691E+02  0.7561462E-02  0.1344594E+00
         -2   -1    0    0    0  501 -0.00000000000E+00  0.00000000000E+00  0.94023441983E+02  0.94023441983E+02  0.00000000000E+00 0. -1.
          2   -1    0    0  501    0  0.00000000000E+00 -0.00000000000E+00 -0.17826859065E+03  0.17826859065E+03  0.00000000000E+00 0.  1.
         25    2    1    2    0    0 -0.23328081672E+02 -0.25928384457E+02  0.16192840851E+02  0.13086408008E+03  0.12508684521E+03 0.  0.
         23    2    1    2    0    0  0.23328081672E+02  0.25928384457E+02 -0.10043798951E+03  0.14142795255E+03  0.93260900219E+02 0.  0.
          5    1    3    3  502    0 -0.27526583475E+02 -0.31375178789E+02  0.67204545238E+02  0.79221448753E+02  0.41800000000E+01 0. -1.
         -5    1    3    3    0  502  0.41985018032E+01  0.54467943315E+01 -0.51011704387E+02  0.51642631327E+02  0.41800000000E+01 0. -1.
        -11    1    4    4    0    0 -0.29017826971E+02  0.35993455177E+02 -0.48410434532E+02  0.66941267311E+02  0.00000000000E+00 0.  1.
         11    1    4    4    0    0  0.52345908644E+02 -0.10065070720E+02 -0.52027554981E+02  0.74486685238E+02  0.00000000000E+00 0. -1.
</event>
<event>
 8    1  0.6840032E-009  0.2073603E+03  0.7561462E-02  0.1143674E+00
          2   -1    0    0  501    0  0.00000000000E+00  0.00000000000E+00  0.20427369745E+03  0.20427369745E+03  0.00000000000E+00 0. -1.
         -2   -1    0    0    0  501 -0.00000000000E+00 -0.00000000000E+00 -0.24006537797E+03  0.24006537797E+03  0.00000000000E+00 0.  1.
         25    2    1    2    0    0 -0.15393554396E+03 -0.87519094455E+02  0.57460114394E+02  0.22428527769E+03  0.12508588031E+03 0.  0.
         23    2    1    2    0    0  0.15393554396E+03  0.87519094455E+02 -0.93251794922E+02  0.22005379773E+03  0.91498814480E+02 0.  0.
          5    1    3    3  502    0  0.21621223574E+02 -0.12533801933E+02  0.11822310673E+02  0.27960917892E+02  0.41800000000E+01 0. -1.
         -5    1    3    3    0  502 -0.17555676753E+03 -0.74985292522E+02  0.45637803721E+02  0.19632435980E+03  0.41800000000E+01 0. -1.
        -11    1    4    4    0    0  0.33722661286E+02  0.69006661981E+02 -0.26109520868E+02  0.81122403576E+02  0.00000000000E+00 0.  1.
         11    1    4    4    0    0  0.12021288267E+03  0.18512432474E+02 -0.67142274054E+02  0.13893139415E+03  0.00000000000E+00 0. -1.
</event>
<event>
 8    1  0.6840032E-009  0.9787049E+02  0.7561462E-02  0.1284839E+00
         -2   -1    0    0    0  501 -0.00000000000E+00  0.00000000000E+00  0.38549934052E+02  0.38549934052E+02  0.00000000000E+00 0.  1.
          2   -1    0    0  501    0  0.00000000000E+00 -0.00000000000E+00 -0.38227373502E+03  0.38227373502E+03  0.00000000000E+00 0. -1.
         25    2    1    2    0    0 -0.31177491951E+01 -0.60873880985E+01 -0.97352926866E+02  0.15865579337E+03  0.12508913521E+03 0.  0.
         23    2    1    2    0    0  0.31177491951E+01  0.60873880985E+01 -0.24637087410E+03  0.26216787570E+03  0.89367839794E+02 0.  0.
          5    1    3    3  502    0  0.55987681374E+02  0.13819688423E+02 -0.24865754585E+02  0.62939513859E+02  0.41800000000E+01 0. -1.
         -5    1    3    3    0  502 -0.59105430569E+02 -0.19907076522E+02 -0.72487172281E+02  0.95716279512E+02  0.41800000000E+01 0. -1.
        -11    1    4    4    0    0 -0.12461774880E+02  0.37951437293E+02 -0.19911299180E+03  0.20308025736E+03  0.00000000000E+00 0. -1.
         11    1    4    4    0    0  0.15579524075E+02 -0.31864049194E+02 -0.47257882299E+02  0.59087618338E+02  0.00000000000E+00 0.  1.
</event>
<event>
 8    1  0.6840032E-009  0.1112650E+03  0.7561462E-02  0.1258245E+00
          2   -1    0    0  501    0  0.00000000000E+00  0.00000000000E+00  0.10101667291E+03  0.10101667291E+03  0.00000000000E+00 0.  1.
         -2   -1    0    0    0  501 -0.00000000000E+00 -0.00000000000E+00 -0.16334849945E+03  0.16334849945E+03  0.00000000000E+00 0. -1.
         25    2    1    2    0    0  0.67069004358E+02  0.11132231267E+02 -0.23451104100E+02  0.14428842848E+03  0.12508804256E+03 0.  0.
         23    2    1    2    0    0 -0.67069004358E+02 -0.11132231267E+02 -0.38880722444E+02  0.12007674387E+03  0.91019426069E+02 0.  0.
          5    1    3    3  502    0  0.45691875960E+02 -0.54938221759E+02 -0.24529976607E+01  0.71620146162E+02  0.41800000000E+01 0. -1.
         -5    1    3    3    0  502  0.21377128399E+02  0.66070453026E+02 -0.20998106439E+02  0.72668282322E+02  0.41800000000E+01 0. -1.
        -11    1    4    4    0    0 -0.17420347190E+02 -0.24411325108E+02  0.24324104643E+02  0.38614030564E+02  0.00000000000E+00 0.  1.
         11    1    4    4    0    0 -0.49648657169E+02  0.13279093840E+02 -0.63204827087E+02  0.81462713305E+02  0.00000000000E+00 0. -1.
</event>
<event>
 8    1  0.6840032E-009  0.1115436E+03  0.7561462E-02  0.1257738E+00
          1   -1    0    0  501    0  0.00000000000E+00  0.00000000000E+00  0.25429356706E+03  0.25429356706E+03  0.00000000000E+00 0. -1.
         -1   -1    0    0    0  501 -0.00000000000E+00 -0.00000000000E+00 -0.78100607553E+02  0.78100607553E+02  0.00000000000E+00 0.  1.
         25    2    1    2    0    0  0.36015457125E+02  0.40584556988E+00  0.19520025473E+03  0.23462315486E+03  0.12509039726E+03 0.  0.
         23    2    1    2    0    0 -0.36015457125E+02 -0.40584556988E+00 -0.19007295227E+02  0.97771019749E+02  0.88885415948E+02 0.  0.
          5    1    3    3  502    0  0.54295387752E+02 -0.49925674820E+02  0.89448804086E+02  0.11601346081E+03  0.41800000000E+01 0.  1.
         -5    1    3    3    0  502 -0.18279930627E+02  0.50331520390E+02  0.10575145065E+03  0.11860969405E+03  0.41800000000E+01 0.  1.
        -11    1    4    4    0    0  0.58288915942E+01 -0.38482851859E+02 -0.12190157127E+02  0.40786098063E+02  0.00000000000E+00 0.  1.
         11    1    4    4    0    0 -0.41844348719E+02  0.38077006289E+02 -0.68171381002E+01  0.56984921686E+02  0.00000000000E+00 0. -1.
</event>
<event>
 8    1  0.6840032E-009  0.8422400E+02  0.7561462E-02  0.1317474E+00
          1   -1    0    0  501    0  0.00000000000E+00  0.00000000000E+00  0.24890568044E+03  0.24890568044E+03  0.00000000000E+00 0. -1.
         -1   -1    0    0    0  501 -0.00000000000E+00 -0.00000000000E+00 -0.60351924285E+02  0.60351924285E+02  0.00000000000E+00 0.  1.
         25    2    1    2    0    0 -0.49693864352E+02 -0.22796565851E+02  0.12091195604E+03  0.18236485498E+03  0.12509226854E+03 0.  0.
         23    2    1    2    0    0  0.49693864352E+02  0.22796565851E+02  0.67641800115E+02  0.12689274974E+03  0.92396933098E+02 0.  0.
          5    1    3    3  502    0 -0.63603898995E+02 -0.44024703263E+02  0.13302218459E+03  0.15393506572E+03  0.41800000000E+01 0.  1.
         -5    1    3    3    0  502  0.13910034643E+02  0.21228137412E+02 -0.12110228552E+02  0.28429789259E+02  0.41800000000E+01 0.  1.
        -11    1    4    4    0    0  0.23553321870E+02  0.30003356594E+02 -0.14180383182E+02  0.40694516156E+02  0.00000000000E+00 0.  1.
         11    1    4    4    0    0  0.26140542482E+02 -0.72067907434E+01  0.81822183297E+02  0.86198233588E+02  0.00000000000E+00 0. -1.
</event>
<event>
 8    1  0.6840032E-009  0.1594494E+03  0.7561462E-02  0.1189320E+00
          1   -1    0    0  501    0  0.00000000000E+00  0.00000000000E+00  0.76076050195E+03  0.76076050195E+03  0.00000000000E+00 0. -1.
         -1   -1    0    0    0  501 -0.00000000000E+00 -0.00000000000E+00 -0.46811817880E+02  0.46811817880E+02  0.00000000000E+00 0.  1.
         25    2    1    2    0    0  0.14756893233E+03  0.44332843081E+02  0.38856023491E+03  0.43631197530E+03  0.12508834030E+03 0.  0.
         23    2    1    2    0    0 -0.14756893233E+03 -0.44332843081E+02  0.32538844916E+03  0.37126034453E+03  0.90634484646E+02 0.  0.
          5    1    3    3  502    0  0.19375833767E+02 -0.12522160682E+02  0.19954823178E+03  0.20092087161E+03  0.41800000000E+01 0. -1.
         -5    1    3    3    0  502  0.12819309856E+03  0.56855003764E+02  0.18901200313E+03  0.23539110369E+03  0.41800000000E+01 0. -1.
        -11    1    4    4    0    0 -0.96747631433E+02 -0.37993082190E+02  0.29243957584E+03  0.31036185977E+03  0.00000000000E+00 0. -1.
         11    1    4    4    0    0 -0.50821300892E+02 -0.63397608912E+01  0.32948873321E+02  0.60898484756E+02  0.00000000000E+00 0.  1.
</event>
<event>
 8    1  0.6840032E-009  0.1039197E+03  0.7561462E-02  0.1272263E+00
          4   -1    0    0  501    0  0.00000000000E+00  0.00000000000E+00  0.49696038945E+03  0.49696038945E+03  0.00000000000E+00 0. -1.
         -4   -1    0    0    0  501 -0.00000000000E+00 -0.00000000000E+00 -0.52774291771E+02  0.52774291771E+02  0.00000000000E+00 0.  1.
         25    2    1    2    0    0  0.96285245547E+02 -0.22823199530E+01  0.35736856666E+03  0.39068907782E+03  0.12509838368E+03 0.  0.
         23    2    1    2    0    0 -0.96285245547E+02  0.22823199530E+01  0.86817531026E+02  0.15904560341E+03  0.92098657834E+02 0.  0.
          5    1    3    3  502    0  0.31756014895E+02 -0.19915066414E+02  0.30030037890E+03  0.30265961792E+03  0.41800000000E+01 0.  1.
         -5    1    3    3    0  502  0.64529230652E+02  0.17632746461E+02  0.57068187758E+02  0.88029459900E+02  0.41800000000E+01 0.  1.
        -11    1    4    4    0    0 -0.39391775048E+02  0.19089343234E+02 -0.10552000190E+02  0.45027321423E+02  0.00000000000E+00 0.  1.
         11    1    4    4    0    0 -0.56893470499E+02 -0.16807023281E+02  0.97369531216E+02  0.11401828198E+03  0.00000000000E+00 0. -1.
</event>
<event>
 8    1  0.6840032E-009  0.2635530E+03  0.7561462E-02  0.1105027E+00
          1   -1    0    0  501    0  0.00000000000E+00  0.00000000000E+00  0.26366573345E+03  0.26366573345E+03  0.00000000000E+00 0. -1.
         -1   -1    0    0    0  501 -0.00000000000E+00 -0.00000000000E+00 -0.35308106625E+03  0.35308106625E+03  0.00000000000E+00 0.  1.
         25    2    1    2    0    0 -0.15326484983E+03 -0.20261190553E+03  0.84556309054E+02  0.29552689516E+03  0.12507868686E+03 0.  0.
         23    2    1    2    0    0  0.15326484983E+03  0.20261190553E+03 -0.17397164185E+03  0.32121990455E+03  0.91511728487E+02 0.  0.
          5    1    3    3  502    0 -0.15811519892E+03 -0.19538963944E+03  0.10537607811E+03  0.27257864474E+03  0.41800000000E+01 0. -1.
         -5    1    3    3    0  502  0.48503490879E+01 -0.72222660898E+01 -0.20819769059E+02  0.22948250421E+02  0.41800000000E+01 0. -1.
        -11    1    4    4    0    0  0.14006585021E+03  0.12622871459E+03 -0.14721680031E+03  0.23921730096E+03  0.00000000000E+00 0.  1.
         11    1    4    4    0    0  0.13198999616E+02  0.76383190944E+02 -0.26754841542E+02  0.82002603590E+02  0.00000000000E+00 0. -1.
</event>
<event>
 7    1  0.6840032E-009  0.1448160E+03  0.7561462E-02  0.1206992E+00
          2   -1    0    0  501    0  0.00000000000E+00  0.00000000000E+00  0.17151326941E+03  0.17151326941E+03  0.00000000000E+00 0. -1.
         -2   -1    0    0    0  501 -0.00000000000E+00 -0.00000000000E+00 -0.17225015565E+03  0.17225015565E+03  0.00000000000E+00 0.  1.
         23    2    1    2    0    0 -0.22165248120E+02 -0.11463276729E+03 -0.61744906093E+02  0.16221614402E+03  0.94178948772E+02 0.  0.
          5    1    1    2  502    0 -0.34456424389E+02 -0.71565327860E+01  0.43027908768E+01  0.35699405493E+02  0.41800000000E+01 0. -1.
         -5    1    1    2    0  502  0.56621672509E+02  0.12178930007E+03  0.56705228969E+02  0.14584787555E+03  0.41800000000E+01 0. -1.
        -11    1    3    3    0    0 -0.11952187855E+02 -0.12939022712E+02 -0.57264805730E+02  0.59912695471E+02  0.00000000000E+00 0.  1.
         11    1    3    3    0    0 -0.10213060265E+02 -0.10169374457E+03 -0.44801003630E+01  0.10230344855E+03  0.00000000000E+00 0. -1.
</event>
<event>
 8    1  0.6840032E-009  0.2877376E+03  0.7561462E-02  0.1091536E+00
         -2   -1    0    0    0  501 -0.00000000000E+00  0.00000000000E+00  0.69757905912E+02  0.69757905912E+02  0.00000000000E+00 0.  1.
          2   -1    0    0  501    0  0.00000000000E+00 -0.00000000000E+00 -0.12638807145E+04  0.12638807145E+04  0.00000000000E+00 0. -1.
         25    2    1    2    0    0 -0.13120665884E+03 -0.24067348305E+03 -0.53290048227E+03  0.61218455740E+03  0.12509234808E+03 0.  0.
         23    2    1    2    0    0  0.13120665884E+03  0.24067348305E+03 -0.66122232633E+03  0.72145406302E+03  0.90233516213E+02 0.  0.
          5    1    3    3  502    0 -0.10352517027E+03 -0.81873498465E+02 -0.17155612696E+03  0.21649412862E+03  0.41800000000E+01 0. -1.
         -5    1    3    3    0  502 -0.27681488578E+02 -0.15879998458E+03 -0.36134435531E+03  0.39569042878E+03  0.41800000000E+01 0. -1.
        -11    1    4    4    0    0  0.98519439377E+02  0.11087591085E+03 -0.42234532015E+03  0.44763279259E+03  0.00000000000E+00 0.  1.
         11    1    4    4    0    0  0.32687219467E+02  0.12979757219E+03 -0.23887700618E+03  0.27382127044E+03  0.00000000000E+00 0. -1.
</event>
<event>
 8    1  0.6840032E-009  0.1911329E+03  0.7561462E-02  0.1157443E+00
         -1   -1    0    0    0  501 -0.00000000000E+00  0.00000000000E+00  0.49338651418E+02  0.49338651418E+02  0.00000000000E+00 0.  1.
          1   -1    0    0  501    0  0.00000000000E+00 -0.00000000000E+00 -0.10136104863E+04  0.10136104863E+04  0.00000000000E+00 0. -1.
         25    2    1    2    0    0 -0.32471293154E+02  0.16633520200E+03 -0.73147523065E+03  0.76120329522E+03  0.12511058828E+03 0.  0.
         23    2    1    2    0    0  0.32471293154E+02 -0.16633520200E+03 -0.23279660427E+03  0.30174584253E+03  0.90191519676E+02 0.  0.
          5    1    3    3  502    0  0.35967511139E+02  0.81547370654E+02 -0.20534542861E+03  0.22389250316E+03  0.41800000000E+01 0.  1.
         -5    1    3    3    0  502 -0.68438804292E+02  0.84787831349E+02 -0.52612980204E+03  0.53731079206E+03  0.41800000000E+01 0.  1.
        -11    1    4    4    0    0 -0.15887890823E+02 -0.67777923717E+01 -0.56574884025E+02  0.59153030748E+02  0.00000000000E+00 0. -1.
         11    1    4    4    0    0  0.48359183977E+02 -0.15955740963E+03 -0.17622172024E+03  0.24259281178E+03  0.00000000000E+00 0.  1.
</event>
<event>
 8    1  0.6840032E-009  0.2141860E+03  0.7561462E-02  0.1138293E+00
         -1   -1    0    0    0  501 -0.00000000000E+00  0.00000000000E+00  0.18892089019E+03  0.18892089019E+03  0.00000000000E+00 0.  1.
          1   -1    0    0  501    0  0.00000000000E+00 -0.00000000000E+00 -0.30659724343E+03  0.30659724343E+03  0.00000000000E+00 0. -1.
         25    2    1    2    0    0 -0.34128494956E+02  0.19594117927E+03  0.18965697961E+02  0.23572263787E+03  0.12509102446E+03 0.  0.
         23    2    1    2    0    0  0.34128494956E+02 -0.19594117927E+03 -0.13664205120E+03  0.25979549576E+03  0.96254607986E+02 0.  0.
          5    1    3    3  502    0  0.39004767970E+02  0.91063692210E+02 -0.21676039567E+02  0.10149527602E+03  0.41800000000E+01 0.  1.
         -5    1    3    3    0  502 -0.73133262926E+02  0.10487748706E+03  0.40641737527E+02  0.13422736184E+03  0.41800000000E+01 0.  1.
        -11    1    4    4    0    0  0.17052799848E+02 -0.30269853999E+02  0.11803553233E+02  0.36693131683E+02  0.00000000000E+00 0.  1.
         11    1    4    4    0    0  0.17075695108E+02 -0.16567132527E+03 -0.14844560443E+03  0.22310236408E+03  0.00000000000E+00 0. -1.
</event>
<event>
 8    1  0.6840032E-009  0.1091150E+03  0.7561462E-02  0.1262218E+00
          3   -1    0    0  501    0  0.00000000000E+00  0.00000000000E+00  0.60541560581E+03  0.60541560581E+03  0.00000000000E+00 0. -1.
         -3   -1    0    0    0  501 -0.00000000000E+00 -0.00000000000E+00 -0.30856235948E+02  0.30856235948E+02  0.00000000000E+00 0.  1.
         25    2    1    2    0    0  0.14978565268E+02  0.79641873553E+02  0.35761083374E+03  0.38742794474E+03  0.12509084106E+03 0.  0.
         23    2    1    2    0    0 -0.14978565268E+02 -0.79641873553E+02  0.21694853613E+03  0.24884389702E+03  0.91046319619E+02 0.  0.
          5    1    3    3  502    0  0.37117696799E+02  0.59964804740E+02  0.74237487197E+02  0.10248013529E+03  0.41800000000E+01 0.  1.
         -5    1    3    3    0  502 -0.22139131531E+02  0.19677068813E+02  0.28337334654E+03  0.28494780945E+03  0.41800000000E+01 0.  1.
        -11    1    4    4    0    0  0.31164850800E+02 -0.75352287559E+01  0.33322334635E+02  0.46242897653E+02  0.00000000000E+00 0.  1.
         11    1    4    4    0    0 -0.46143416068E+02 -0.72106644797E+02  0.18362620149E+03  0.20260099937E+03  0.00000000000E+00 0. -1.
</event>
<event>
 8    1  0.6840032E-009  0.1433285E+03  0.7561462E-02  0.1208919E+00
         -1   -1    0    0    0  501 -0.00000000000E+00  0.00000000000E+00  0.56984218332E+02  0.56984218332E+02  0.00000000000E+00 0.  1.
          1   -1    0    0  501    0  0.00000000000E+00 -0.00000000000E+00 -0.48659184666E+03  0.48659184666E+03  0.00000000000E+00 0. -1.
         25    2    1    2    0    0  0.91963892688E+02 -0.70652258612E+02 -0.14901561252E+03  0.22649935074E+03  0.12508878409E+03 0.  0.
         23    2    1    2    0    0 -0.91963892688E+02  0.70652258612E+02 -0.28059201581E+03  0.31707671425E+03  0.91414791914E+02 0.  0.
          5    1    3    3  502    0  0.58381150430E+02 -0.86315215688E+02 -0.40708630169E+02  0.11195240129E+03  0.41800000000E+01 0.  1.
         -5    1    3    3    0  502  0.33582742257E+02  0.15662957076E+02 -0.10830698235E+03  0.11454694945E+03  0.41800000000E+01 0.  1.
        -11    1    4    4    0    0 -0.92236357908E+02  0.88145522440E+02 -0.26275712755E+03  0.29209328463E+03  0.00000000000E+00 0. -1.
         11    1    4    4    0    0  0.27246522037E+00 -0.17493263828E+02 -0.17834888261E+02  0.24983429627E+02  0.00000000000E+00 0.  1.
</event>
<event>
 8    1  0.6840032E-009  0.8833749E+02  0.7561462E-02  0.1306928E+00
          2   -1    0    0  501    0  0.00000000000E+00  0.00000000000E+00  0.10626423622E+04  0.10626423622E+04  0.00000000000E+00 0. -1.
         -2   -1    0    0    0  501 -0.00000000000E+00 -0.00000000000E+00 -0.17505033585E+02  0.17505033585E+02  0.00000000000E+00 0.  1.
         25    2    1    2    0    0  0.58754565880E+02  0.12553103777E+02  0.79640868722E+03  0.80840786191E+03  0.12508714839E+03 0.  0.
         23    2    1    2    0    0 -0.58754565880E+02 -0.12553103777E+02  0.24872864141E+03  0.27173953389E+03  0.91469983023E+02 0.  0.
          5    1    3    3  502    0  0.11676047162E+02  0.45361791803E+02  0.64046274099E+03  0.64218690210E+03  0.41800000000E+01 0. -1.
         -5    1    3    3    0  502  0.47078518718E+02 -0.32808688026E+02  0.15594594623E+03  0.16622095981E+03  0.41800000000E+01 0. -1.
        -11    1    4    4    0    0 -0.45306991933E+02  0.94919642546E+01  0.24008724073E+03  0.24450910835E+03  0.00000000000E+00 0. -1.
         11    1    4    4    0    0 -0.13447573947E+02 -0.22045068032E+02  0.86414006836E+01  0.27230425545E+02  0.00000000000E+00 0.  1.
</event>
<event>
 8    1  0.6840032E-009  0.1105110E+03  0.7561462E-02  0.1259627E+00
          3   -1    0    0  501    0  0.00000000000E+00  0.00000000000E+00  0.23732901383E+02  0.23732901383E+02  0.00000000000E+00 0. -1.
         -3   -1    0    0    0  501 -0.00000000000E+00 -0.00000000000E+00 -0.78201740966E+03  0.78201740966E+03  0.00000000000E+00 0.  1.
         25    2    1    2    0    0 -0.41410072192E+02 -0.24805033002E+02 -0.62188250530E+03  0.63617230433E+03  0.12508903490E+03 0.  0.
         23    2    1    2    0    0  0.41410072192E+02  0.24805033002E+02 -0.13640200297E+03  0.16957800671E+03  0.88437040908E+02 0.  0.
          5    1    3    3  502    0 -0.66934994487E+01 -0.65899196745E+02 -0.47649374497E+03  0.48109382501E+03  0.41800000000E+01 0. -1.
         -5    1    3    3    0  502 -0.34716572744E+02  0.41094163743E+02 -0.14538876033E+03  0.15507847932E+03  0.41800000000E+01 0. -1.
        -11    1    4    4    0    0  0.36311692282E+01 -0.32146770300E+02 -0.41141719050E+02  0.52337761483E+02  0.00000000000E+00 0.  1.
         11    1    4    4    0    0  0.37778902964E+02  0.56951803302E+02 -0.95260283924E+02  0.11724024523E+03  0.00000000000E+00 0. -1.
</event>
<event>
 8    1  0.6840032E-009  0.1097829E+03  0.7561462E-02  0.1260972E+00
          1   -1    0    0  501    0  0.00000000000E+00  0.00000000000E+00  0.53877780709E+03  0.53877780709E+03  0.00000000000E+00 0. -1.
         -1   -1    0    0    0  501 -0.00000000000E+00 -0.00000000000E+00 -0.26068919956E+02  0.26068919956E+02  0.00000000000E+00 0.  1.
         25    2    1    2    0    0  0.89645228994E+01 -0.46863417737E+02  0.30109666735E+03  0.32951994514E+03  0.12509056145E+03 0.  0.
         23    2    1    2    0    0 -0.89645228994E+01  0.46863417737E+02  0.21161221978E+03  0.23532678190E+03  0.91227299243E+02 0.  0.
          5    1    3    3  502    0 -0.20296029716E+02  0.29845214074E+02  0.17682217719E+03  0.18051653767E+03  0.41800000000E+01 0. -1.
         -5    1    3    3    0  502  0.29260552616E+02 -0.76708631811E+02  0.12427449016E+03  0.14900340747E+03  0.41800000000E+01 0. -1.
        -11    1    4    4    0    0 -0.42571189307E+02 -0.95192600370E+00  0.67430167318E+02  0.79749857597E+02  0.00000000000E+00 0. -1.
         11    1    4    4    0    0  0.33606666408E+02  0.47815343740E+02  0.14418205246E+03  0.15557692431E+03  0.00000000000E+00 0.  1.
</event>
<event>
 8    1  0.6840032E-009  0.1598223E+03  0.7561462E-02  0.1188898E+00
         -2   -1    0    0    0  501 -0.00000000000E+00  0.00000000000E+00  0.33916401447E+02  0.33916401447E+02  0.00000000000E+00 0.  1.
          2   -1    0    0  501    0  0.00000000000E+00 -0.00000000000E+00 -0.10773969043E+04  0.10773969043E+04  0.00000000000E+00 0. -1.
         25    2    1    2    0    0 -0.54611394513E+01  0.14156356435E+03 -0.71791448825E+03  0.74237336963E+03  0.12508773203E+03 0.  0.
         23    2    1    2    0    0  0.54611394513E+01 -0.14156356435E+03 -0.32556601463E+03  0.36893993614E+03  0.10026654378E+03 0.  0.
          5    1    3    3  502    0 -0.48318689294E+02  0.33811337791E+02 -0.39167437313E+03  0.39611133443E+03  0.41800000000E+01 0.  1.
         -5    1    3    3    0  502  0.42857549843E+02  0.10775222656E+03 -0.32624011512E+03  0.34626203520E+03  0.41800000000E+01 0.  1.
        -11    1    4    4    0    0  0.11677132968E+02 -0.23338897968E+02 -0.41640214988E+01  0.26427233449E+02  0.00000000000E+00 0.  1.
         11    1    4    4    0    0 -0.62159935168E+01 -0.11822466639E+03 -0.32140199313E+03  0.34251270269E+03  0.00000000000E+00 0. -1.
</event>
<event>
 8    1  0.6840032E-009  0.1683227E+03  0.7561462E-02  0.1179608E+00
          2   -1    0    0  501    0  0.00000000000E+00  0.00000000000E+00  0.22619625900E+03  0.22619625900E+03  0.00000000000E+00 0. -1.
         -2   -1    0    0    0  501 -0.00000000000E+00 -0.00000000000E+00 -0.13547258835E+03  0.13547258835E+03  0.00000000000E+00 0.  1.
         25    2    1    2    0    0  0.10719892372E+03  0.83877033599E+02  0.32101306663E+02  0.18762471776E+03  0.12508227217E+03 0.  0.
         23    2    1    2    0    0 -0.10719892372E+03 -0.83877033599E+02  0.58622363994E+02  0.17404412960E+03  0.91256843442E+02 0.  0.
          5    1    3    3  502    0  0.12514822276E+03  0.31215946853E+02  0.23508575662E+02  0.13117407720E+03  0.41800000000E+01 0. -1.
         -5    1    3    3    0  502 -0.17949299046E+02  0.52661086746E+02  0.85927310007E+01  0.56450640559E+02  0.41800000000E+01 0. -1.
        -11    1    4    4    0    0 -0.97250621481E+02 -0.95638344123E+02  0.27249185062E+02  0.13909311389E+03  0.00000000000E+00 0.  1.
         11    1    4    4    0    0 -0.99483022365E+01  0.11761310524E+02  0.31373178931E+02  0.34951015706E+02  0.00000000000E+00 0. -1.
</event>
<event>
 8    1  0.6840032E-009  0.1193081E+03  0.7561462E-02  0.1244243E+00
          2   -1    0    0  501    0  0.00000000000E+00  0.00000000000E+00  0.48661838084E+03  0.48661838084E+03  0.00000000000E+00 0. -1.
         -2   -1    0    0    0  501 -0.00000000000E+00 -0.00000000000E+00 -0.37623364628E+02  0.37623364628E+02  0.00000000000E+00 0.  1.
         25    2    1    2    0    0  0.49867190589E+02  0.51849681766E+02  0.18766469229E+03  0.23673007055E+03  0.12509181977E+03 0.  0.
         23    2    1    2    0    0 -0.49867190589E+02 -0.51849681766E+02  0.26133032392E+03  0.28751167492E+03  0.95886906398E+02 0.  0.
          5    1    3    3  502    0 -0.21150282180E+02  0.57562131231E+02  0.41776150299E+02  0.74319933544E+02  0.41800000000E+01 0. -1.
         -5    1    3    3    0  502  0.71017472769E+02 -0.57124494654E+01  0.14588854199E+03  0.16241013701E+03  0.41800000000E+01 0. -1.
        -11    1    4    4    0    0  0.24045044703E+01 -0.53430140374E+02  0.64184310677E+02  0.83547515099E+02  0.00000000000E+00 0.  1.
         11    1    4    4    0    0 -0.52271695059E+02  0.15804586078E+01  0.19714601324E+03  0.20396415982E+03  0.00000000000E+00 0. -1.
</event>
<event>
 8    1  0.6840032E-009  0.1456457E+03  0.7561462E-02  0.1205928E+00
          2   -1    0    0  501    0  0.00000000000E+00  0.00000000000E+00  0.81344677191E+03  0.81344677191E+03  0.00000000000E+00 0.  1.
         -2   -1    0    0    0  501 -0.00000000000E+00 -0.00000000000E+00 -0.37378061895E+02  0.37378061895E+02  0.00000000000E+00 0. -1.
         25    2    1    2    0    0  0.37028654384E+02 -0.12427610871E+03  0.50887178529E+03  0.53983404870E+03  0.12511847915E+03 0.  0.
         23    2    1    2    0    0 -0.37028654384E+02  0.12427610871E+03  0.26719692472E+03  0.31099078511E+03  0.92224722291E+02 0.  0.
          5    1    3    3  502    0  0.50765251551E+02 -0.20815867469E+02  0.71833933520E+02  0.90487554440E+02  0.41800000000E+01 0. -1.
         -5    1    3    3    0  502 -0.13736597167E+02 -0.10346024124E+03  0.43703785177E+03  0.44934649426E+03  0.41800000000E+01 0. -1.
        -11    1    4    4    0    0 -0.26533706782E+02  0.48234675359E+02  0.20479264943E+03  0.21206284626E+03  0.00000000000E+00 0.  1.
         11    1    4    4    0    0 -0.10494947601E+02  0.76041433346E+02  0.62404275291E+02  0.98927938850E+02  0.00000000000E+00 0. -1.
</event>
<event>
 8    1  0.6840032E-009  0.1155981E+03  0.7561462E-02  0.1250541E+00
         -1   -1    0    0    0  501 -0.00000000000E+00  0.00000000000E+00  0.14838002310E+02  0.14838002310E+02  0.00000000000E+00 0.  1.
          1   -1    0    0  501    0  0.00000000000E+00 -0.00000000000E+00 -0.13576491255E+04  0.13576491255E+04  0.00000000000E+00 0. -1.
         25    2    1    2    0    0 -0.51535637363E+02  0.34897457627E+02 -0.10598402622E+04  0.10690096212E+04  0.12508570826E+03 0.  0.
         23    2    1    2    0    0  0.51535637363E+02 -0.34897457627E+02 -0.28297086105E+03  0.30347750665E+03  0.90290278398E+02 0.  0.
          5    1    3    3  502    0  0.23555982066E+02  0.42218050305E+02 -0.67981993994E+03  0.68154961023E+03  0.41800000000E+01 0.  1.
         -5    1    3    3    0  502 -0.75091619429E+02 -0.73205926777E+01 -0.38002032224E+03  0.38746001097E+03  0.41800000000E+01 0.  1.
        -11    1    4    4    0    0  0.71959788551E+01 -0.57077705687E+02 -0.11902064793E+03  0.13219516342E+03  0.00000000000E+00 0.  1.
         11    1    4    4    0    0  0.44339658507E+02  0.22180248060E+02 -0.16395021313E+03  0.17128234324E+03  0.00000000000E+00 0. -1.
</event>
<event>
 8    1  0.6840032E-009  0.1108701E+03  0.7561462E-02  0.1258967E+00
         -1   -1    0    0    0  501 -0.00000000000E+00  0.00000000000E+00  0.14879956103E+02  0.14879956103E+02  0.00000000000E+00 0.  1.
          1   -1    0    0  501    0  0.00000000000E+00 -0.00000000000E+00 -0.13426516759E+04  0.13426516759E+04  0.00000000000E+00 0. -1.
         25    2    1    2    0    0  0.30343295387E+02 -0.48401156496E+02 -0.10718585244E+04  0.10806438909E+04  0.12508850893E+03 0.  0.
         23    2    1    2    0    0 -0.30343295387E+02  0.48401156496E+02 -0.25591319548E+03  0.27688774119E+03  0.88948693512E+02 0.  0.
          5    1    3    3  502    0 -0.37356705335E+02 -0.24617832663E+02 -0.16713961784E+03  0.17307421925E+03  0.41800000000E+01 0. -1.
         -5    1    3    3    0  502  0.67700000722E+02 -0.23783323834E+02 -0.90471890653E+03  0.90756967161E+03  0.41800000000E+01 0. -1.
        -11    1    4    4    0    0 -0.46033182540E+02  0.66561850720E+02 -0.21053672336E+03  0.22555541614E+03  0.00000000000E+00 0.  1.
         11    1    4    4    0    0  0.15689887153E+02 -0.18160694224E+02 -0.45376472119E+02  0.51332325055E+02  0.00000000000E+00 0. -1.
</event>
<event>
 8    1  0.6840032E-009  0.9086303E+02  0.7561462E-02  0.1300775E+00
          2   -1    0    0  501    0  0.00000000000E+00  0.00000000000E+00  0.14078481011E+04  0.14078481011E+04  0.00000000000E+00 0. -1.
         -2   -1    0    0    0  501 -0.00000000000E+00 -0.00000000000E+00 -0.11286202700E+02  0.11286202700E+02  0.00000000000E+00 0.  1.
         25    2    1    2    0    0 -0.64443542697E+02  0.81442826127E+00  0.84707292775E+03  0.85868114240E+03  0.12508847228E+03 0.  0.
         23    2    1    2    0    0  0.64443542697E+02 -0.81442826127E+00  0.54948897064E+03  0.56045316139E+03  0.89532026493E+02 0.  0.
          5    1    3    3  502    0 -0.57687877967E+02 -0.10276125232E+02  0.84212167752E+03  0.84416815988E+03  0.41800000000E+01 0. -1.
         -5    1    3    3    0  502 -0.67556647295E+01  0.11090553493E+02  0.49512502339E+01  0.14512982519E+02  0.41800000000E+01 0. -1.
        -11    1    4    4    0    0 -0.10362195757E+02  0.27473907747E+02  0.11674227081E+03  0.12037835562E+03  0.00000000000E+00 0. -1.
         11    1    4    4    0    0  0.74805738454E+02 -0.28288336009E+02  0.43274669983E+03  0.44007480577E+03  0.00000000000E+00 0.  1.
</event>
<event>
 8    1  0.6840032E-009  0.1691353E+03  0.7561462E-02  0.1178753E+00
          2   -1    0    0  501    0  0.00000000000E+00  0.00000000000E+00  0.31117226969E+03  0.31117226969E+03  0.00000000000E+00 0.  1.
         -2   -1    0    0    0  501 -0.00000000000E+00 -0.00000000000E+00 -0.12504288918E+03  0.12504288918E+03  0.00000000000E+00 0. -1.
         25    2    1    2    0    0 -0.62964781805E+02 -0.15051369712E+03  0.72814358773E+02  0.21810428138E+03  0.12509440413E+03 0.  0.
         23    2    1    2    0    0  0.62964781805E+02  0.15051369712E+03  0.11331502174E+03  0.21811087749E+03  0.90072881365E+02 0.  0.
          5    1    3    3  502    0  0.75699476479E+01 -0.53844924162E+02 -0.28247852904E+02  0.61416557695E+02  0.41800000000E+01 0. -1.
         -5    1    3    3    0  502 -0.70534729453E+02 -0.96668772960E+02  0.10106221168E+03  0.15668772369E+03  0.41800000000E+01 0. -1.
        -11    1    4    4    0    0  0.30117592082E+02  0.93105986126E+02  0.11619027232E+03  0.15190777922E+03  0.00000000000E+00 0.  1.
         11    1    4    4    0    0  0.32847189723E+02  0.57407710996E+02 -0.28752505820E+01  0.66203098268E+02  0.00000000000E+00 0. -1.
</event>
<event>
 8    1  0.6840032E-009  0.1153464E+03  0.7561462E-02  0.1250978E+00
          1   -1    0    0  501    0  0.00000000000E+00  0.00000000000E+00  0.86910840174E+02  0.86910840174E+02  0.00000000000E+00 0. -1.
         -1   -1    0    0    0  501 -0.00000000000E+00 -0.00000000000E+00 -0.16296037310E+03  0.16296037310E+03  0.00000000000E+00 0.  1.
         25    2    1    2    0    0 -0.40206733787E+01 -0.46360934958E+02 -0.49794234656E+02  0.14245160864E+03  0.12508993922E+03 0.  0.
         23    2    1    2    0    0  0.40206733787E+01  0.46360934958E+02 -0.26255298271E+02  0.10741960464E+03  0.93188672427E+02 0.  0.
          5    1    3    3  502    0 -0.35795766004E+02 -0.79235811436E+02 -0.38441524734E+02  0.95157101162E+02  0.41800000000E+01 0. -1.
         -5    1    3    3    0  502  0.31775092625E+02  0.32874876478E+02 -0.11352709922E+02  0.47294507476E+02  0.41800000000E+01 0. -1.
        -11    1    4    4    0    0 -0.30716687425E+02  0.54038742964E+02  0.16882947667E+01  0.62181596688E+02  0.00000000000E+00 0. -1.
         11    1    4    4    0    0  0.34737360804E+02 -0.76778080058E+01 -0.27943593038E+02  0.45238007949E+02  0.00000000000E+00 0.  1.
</event>
<event>
 8    1  0.6840032E-009  0.1240810E+03  0.7561462E-02  0.1236513E+00
          2   -1    0    0  501    0  0.00000000000E+00  0.00000000000E+00  0.15038111892E+03  0.15038111892E+03  0.00000000000E+00 0. -1.
         -2   -1    0    0    0  501 -0.00000000000E+00 -0.00000000000E+00 -0.16430222679E+03  0.16430222679E+03  0.00000000000E+00 0.  1.
         25    2    1    2    0    0 -0.31014636512E+02 -0.10265034064E+03  0.69485618070E+01  0.16490717454E+03  0.12508834315E+03 0.  0.
         23    2    1    2    0    0  0.31014636512E+02  0.10265034064E+03 -0.20869669678E+02  0.14977617117E+03  0.10246149630E+03 0.  0.
          5    1    3    3  502    0  0.24801436271E+02 -0.13227312587E+02  0.44608332513E+02  0.52890913860E+02  0.41800000000E+01 0. -1.
         -5    1    3    3    0  502 -0.55816072783E+02 -0.89423028053E+02 -0.37659770706E+02  0.11201626068E+03  0.41800000000E+01 0. -1.
        -11    1    4    4    0    0  0.36922711993E+02  0.55065062325E+02 -0.58816103106E+02  0.88627206513E+02  0.00000000000E+00 0.  1.
         11    1    4    4    0    0 -0.59080754808E+01  0.47585278314E+02  0.37946433428E+02  0.61148964652E+02  0.00000000000E+00 0. -1.
</event>
<event>
 8    1  0.6840032E-009  0.1011483E+03  0.7561462E-02  0.1277900E+00
          2   -1    0    0  501    0  0.00000000000E+00  0.00000000000E+00  0.37061625546E+03  0.37061625546E+03  0.00000000000E+00 0. -1.
         -2   -1    0    0    0  501 -0.00000000000E+00 -0.00000000000E+00 -0.49530547889E+02  0.49530547889E+02  0.00000000000E+00 0.  1.
         25    2    1    2    0    0 -0.17870764115E+00 -0.80749659431E+02  0.15947139919E+03  0.21817175413E+03  0.12508895917E+03 0.  0.
         23    2    1    2    0    0  0.17870764115E+00  0.80749659431E+02  0.16161430838E+03  0.20197504922E+03  0.90300589146E+02 0.  0.
          5    1    3    3  502    0  0.13075510468E+01 -0.29127433395E+01 -0.20963780751E+02  0.21613566732E+02  0.41800000000E+01 0.  1.
         -5    1    3    3    0  502 -0.14862586879E+01 -0.77836916091E+02  0.18043517995E+03  0.19655818740E+03  0.41800000000E+01 0.  1.
        -11    1    4    4    0    0  0.43182581094E+02  0.50771790249E+02  0.71696309591E+02  0.97892138622E+02  0.00000000000E+00 0. -1.
         11    1    4    4    0    0 -0.43003873452E+02  0.29977869182E+02  0.89917998786E+02  0.10408291060E+03  0.00000000000E+00 0.  1.
</event>
<event>
 8    1  0.6840032E-009  0.1171776E+03  0.7561462E-02  0.1247827E+00
         -2   -1    0    0    0  501 -0.00000000000E+00  0.00000000000E+00  0.10624525421E+03  0.10624525421E+03  0.00000000000E+00 0. -1.
          2   -1    0    0  501    0  0.00000000000E+00 -0.00000000000E+00 -0.28255504934E+03  0.28255504934E+03  0.00000000000E+00 0.  1.
         25    2    1    2    0    0 -0.42456077758E+02  0.81537519904E+02 -0.21252801712E+03  0.26318335969E+03  0.12508571887E+03 0.  0.
         23    2    1    2    0    0  0.42456077758E+02 -0.81537519904E+02  0.36218221993E+02  0.12561694386E+03  0.77569138769E+02 0.  0.
          5    1    3    3  502    0  0.29764715907E+02  0.15613832912E+02 -0.13248811962E+03  0.13674905605E+03  0.41800000000E+01 0. -1.
         -5    1    3    3    0  502 -0.72220793665E+02  0.65923686992E+02 -0.80039897501E+02  0.12643430364E+03  0.41800000000E+01 0. -1.
        -11    1    4    4    0    0  0.20980333091E+02 -0.30040644113E+01 -0.17993896915E+02  0.27802501790E+02  0.00000000000E+00 0.  1.
         11    1    4    4    0    0  0.21475744667E+02 -0.78533455492E+02  0.54212118908E+02  0.97814442068E+02  0.00000000000E+00 0. -1.
</event>
<event>
 8    1  0.6840032E-009  0.7631014E+02  0.7561462E-02  0.1339861E+00
          1   -1    0    0  501    0  0.00000000000E+00  0.00000000000E+00  0.14711320320E+03  0.14711320320E+03  0.00000000000E+00 0. -1.
         -1   -1    0    0    0  501 -0.00000000000E+00 -0.00000000000E+00 -0.12396536316E+03  0.12396536316E+03  0.00000000000E+00 0.  1.
         25    2    1    2    0    0 -0.17811567326E+01 -0.35693302880E+02  0.84523628586E+02  0.15514149078E+03  0.12508978368E+03 0.  0.
         23    2    1    2    0    0  0.17811567326E+01  0.35693302880E+02 -0.61375788547E+02  0.11593707558E+03  0.91636421174E+02 0.  0.
          5    1    3    3  502    0 -0.29619401519E+02 -0.73546366264E+01 -0.24289702872E+02  0.39228327671E+02  0.41800000000E+01 0.  1.
         -5    1    3    3    0  502  0.27838244787E+02 -0.28338666254E+02  0.10881333146E+03  0.11591316310E+03  0.41800000000E+01 0.  1.
        -11    1    4    4    0    0 -0.35697165191E+02  0.22210537023E+02  0.85501006916E+00  0.42051475595E+02  0.00000000000E+00 0. -1.
         11    1    4    4    0    0  0.37478321923E+02  0.13482765858E+02 -0.62230798616E+02  0.73885599990E+02  0.00000000000E+00 0.  1.
</event>
<event>
 8    1  0.6840032E-009  0.1184016E+03  0.7561462E-02  0.1245757E+00
         -1   -1    0    0    0  501 -0.00000000000E+00  0.00000000000E+00  0.24836146478E+03  0.24836146478E+03  0.00000000000E+00 0.  1.
          1   -1    0    0  501    0  0.00000000000E+00 -0.00000000000E+00 -0.64966992704E+02  0.64966992704E+02  0.00000000000E+00 0. -1.
         25    2    1    2    0    0 -0.54735734886E+02 -0.33376055066E+02  0.12254816424E+03  0.18648477397E+03  0.12509419108E+03 0.  0.
         23    2    1    2    0    0  0.54735734886E+02  0.33376055066E+02  0.60846307836E+02  0.12684368351E+03  0.90978487252E+02 0.  0.
          5    1    3    3  502    0 -0.91252951400E+02 -0.45246080283E+02  0.88781698636E+02  0.13518125363E+03  0.41800000000E+01 0. -1.
         -5    1    3    3    0  502  0.36517216515E+02  0.11870025217E+02  0.33766465600E+02  0.51303520345E+02  0.41800000000E+01 0. -1.
        -11    1    4    4    0    0  0.49040844436E+02 -0.12015171185E+02 -0.28285247315E+00  0.50492066378E+02  0.00000000000E+00 0.  1.
         11    1    4    4    0    0  0.56948904499E+01  0.45391226251E+02  0.61129160309E+02  0.76351617127E+02  0.00000000000E+00 0. -1.
</event>
<event>
 8    1  0.6840032E-009  0.1219539E+03  0.7561462E-02  0.1239908E+00
         -1   -1    0    0    0  501 -0.00000000000E+00  0.00000000000E+00  0.56346846509E+02  0.56346846509E+02  0.00000000000E+00 0.  1.
          1   -1    0    0  501    0  0.00000000000E+00 -0.00000000000E+00 -0.38928867823E+03  0.38928867823E+03  0.00000000000E+00 0. -1.
         25    2    1    2    0    0 -0.45140229865E+02 -0.88299814480E+02 -0.20606651613E+03  0.26066415804E+03  0.12509155298E+03 0.  0.
         23    2    1    2    0    0  0.45140229865E+02  0.88299814480E+02 -0.12687531559E+03  0.18497136670E+03  0.91008588630E+02 0.  0.
          5    1    3    3  502    0  0.21924734154E+02 -0.46127160508E+02 -0.14400337055E+02  0.53228291458E+02  0.41800000000E+01 0.  1.
         -5    1    3    3    0  502 -0.67064964019E+02 -0.42172653973E+02 -0.19166617908E+03  0.20743586658E+03  0.41800000000E+01 0.  1.
        -11    1    4    4    0    0  0.46774501550E+02  0.31238517102E+02 -0.13210629430E+02  0.57777328390E+02  0.00000000000E+00 0.  1.
         11    1    4    4    0    0 -0.16342716853E+01  0.57061297379E+02 -0.11366468616E+03  0.12719403831E+03  0.00000000000E+00 0. -1.
</event>
<event>
 8    1  0.6840032E-009  0.1014281E+03  0.7561462E-02  0.1277321E+00
         -1   -1    0    0    0  501 -0.00000000000E+00  0.00000000000E+00  0.26574674206E+02  0.26574674206E+02  0.00000000000E+00 0.  1.
          1   -1    0    0  501    0  0.00000000000E+00 -0.00000000000E+00 -0.49338564144E+03  0.49338564144E+03  0.00000000000E+00 0. -1.
         25    2    1    2    0    0  0.86293376093E+01  0.43189251648E+01 -0.18418221951E+03  0.22285338122E+03  0.12508965167E+03 0.  0.
         23    2    1    2    0    0 -0.86293376093E+01 -0.43189251648E+01 -0.28262874772E+03  0.29710693443E+03  0.91106546762E+02 0.  0.
          5    1    3    3  502    0  0.61171202107E+02  0.47582614307E+01 -0.14397416045E+03  0.15655857784E+03  0.41800000000E+01 0. -1.
         -5    1    3    3    0  502 -0.52541864498E+02 -0.43933626590E+00 -0.40208059064E+02  0.66294803378E+02  0.41800000000E+01 0. -1.
        -11    1    4    4    0    0  0.33617221961E+02 -0.24725886059E+02 -0.96129240245E+02  0.10479655473E+03  0.00000000000E+00 0.  1.
         11    1    4    4    0    0 -0.42246559570E+02  0.20406960895E+02 -0.18649950748E+03  0.19231037969E+03  0.00000000000E+00 0. -1.
</event>
<event>
 8    1  0.6840032E-009  0.7962115E+02  0.7561462E-02  0.1330130E+00
          2   -1    0    0  501    0  0.00000000000E+00  0.00000000000E+00  0.35190767693E+02  0.35190767693E+02  0.00000000000E+00 0. -1.
         -2   -1    0    0    0  501 -0.00000000000E+00 -0.00000000000E+00 -0.38794803350E+03  0.38794803350E+03  0.00000000000E+00 0.  1.
         25    2    1    2    0    0 -0.18377831724E+02  0.44192162717E+02 -0.18653000241E+03  0.22963462346E+03  0.12509167258E+03 0.  0.
         23    2    1    2    0    0  0.18377831724E+02 -0.44192162717E+02 -0.16622726340E+03  0.19350417773E+03  0.86727572075E+02 0.  0.
          5    1    3    3  502    0 -0.69778357401E+01 -0.23660820902E+02  0.54916855559E+01  0.25615535279E+02  0.41800000000E+01 0.  1.
         -5    1    3    3    0  502 -0.11399995984E+02  0.67852983619E+02 -0.19202168797E+03  0.20401908819E+03  0.41800000000E+01 0.  1.
        -11    1    4    4    0    0 -0.22347760955E+01 -0.44618586354E+02 -0.16700043861E+03  0.17287266692E+03  0.00000000000E+00 0.  1.
         11    1    4    4    0    0  0.20612607819E+02  0.42642363631E+00  0.77317521635E+00  0.20631510806E+02  0.00000000000E+00 0. -1.
</event>
<event>
 8    1  0.6840032E-009  0.1074639E+03  0.7561462E-02  0.1265340E+00
         -1   -1    0    0    0  501 -0.00000000000E+00  0.00000000000E+00  0.96482525278E+02  0.96482525278E+02  0.00000000000E+00 0.  1.
          1   -1    0    0  501    0  0.00000000000E+00 -0.00000000000E+00 -0.14710554510E+03  0.14710554510E+03  0.00000000000E+00 0. -1.
         25    2    1    2    0    0  0.47627320000E+02 -0.49310808544E+02 -0.10319697663E+02  0.14301752307E+03  0.12509036052E+03 0.  0.
         23    2    1    2    0    0 -0.47627320000E+02  0.49310808544E+02 -0.40303322157E+02  0.10057054731E+03  0.61564273396E+02 0.  0.
          5    1    3    3  502    0  0.80449847463E+02 -0.61098088274E+02 -0.26235398019E+02  0.10445536299E+03  0.41800000000E+01 0. -1.
         -5    1    3    3    0  502 -0.32822527463E+02  0.11787279730E+02  0.15915700356E+02  0.38562160084E+02  0.41800000000E+01 0. -1.
        -11    1    4    4    0    0 -0.13557179505E+02  0.41615108093E+02  0.42321861191E+01  0.43971874387E+02  0.00000000000E+00 0.  1.
         11    1    4    4    0    0 -0.34070140495E+02  0.76957004505E+01 -0.44535508276E+02  0.56598672919E+02  0.00000000000E+00 0. -1.
</event>
<event>
 8    1  0.6840032E-009  0.8136287E+02  0.7561462E-02  0.1325228E+00
          1   -1    0    0  501    0  0.00000000000E+00  0.00000000000E+00  0.15693313332E+03  0.15693313332E+03  0.00000000000E+00 0. -1.
         -1   -1    0    0    0  501 -0.00000000000E+00 -0.00000000000E+00 -0.81819380267E+02  0.81819380267E+02  0.00000000000E+00 0.  1.
         25    2    1    2    0    0 -0.24533508024E+02 -0.18678335462E+02  0.16724120275E+02  0.12991818207E+03  0.12509302380E+03 0.  0.
         23    2    1    2    0    0  0.24533508024E+02  0.18678335462E+02  0.58389632774E+02  0.10883433151E+03  0.86514676605E+02 0.  0.
          5    1    3    3  502    0 -0.24343824374E+02 -0.41497942537E+02  0.62271238082E+02  0.78802795079E+02  0.41800000000E+01 0.  1.
         -5    1    3    3    0  502 -0.18968364974E+00  0.22819607075E+02 -0.45547117807E+02  0.51115386993E+02  0.41800000000E+01 0.  1.
        -11    1    4    4    0    0 -0.16891550597E+02  0.40880936267E+02  0.22051416855E+02  0.49425099058E+02  0.00000000000E+00 0.  1.
         11    1    4    4    0    0  0.41425058621E+02 -0.22202600805E+02  0.36338215919E+02  0.59409232451E+02  0.00000000000E+00 0. -1.
</event>
<event>
 8    1  0.6840032E-009  0.1878894E+03  0.7561462E-02  0.1160379E+00
          1   -1    0    0  501    0  0.00000000000E+00  0.00000000000E+00  0.36601569453E+03  0.36601569453E+03  0.00000000000E+00 0.  1.
         -1   -1    0    0    0  501 -0.00000000000E+00 -0.00000000000E+00 -0.12208491501E+03  0.12208491501E+03  0.00000000000E+00 0. -1.
         25    2    1    2    0    0 -0.61621682811E+02 -0.16155586730E+03  0.68023674958E+02  0.22399064875E+03  0.12508821016E+03 0.  0.
         23    2    1    2    0    0  0.61621682811E+02  0.16155586730E+03  0.17590710456E+03  0.26410996078E+03  0.94409914203E+02 0.  0.
          5    1    3    3  502    0 -0.45141550475E+02 -0.11336128946E+02 -0.17968782580E+02  0.50066125736E+02  0.41800000000E+01 0.  1.
         -5    1    3    3    0  502 -0.16480132336E+02 -0.15021973836E+03  0.85992457538E+02  0.17392452302E+03  0.41800000000E+01 0.  1.
        -11    1    4    4    0    0  0.56833728311E+02  0.91932180878E+02  0.15907845103E+03  0.19232148121E+03  0.00000000000E+00 0.  1.
         11    1    4    4    0    0  0.47879544999E+01  0.69623686425E+02  0.16828653530E+02  0.71788479573E+02  0.00000000000E+00 0. -1.
</event>
<event>
 8    1  0.6840032E-009  0.7860564E+02  0.7561462E-02  0.1333056E+00
         -2   -1    0    0    0  501 -0.00000000000E+00  0.00000000000E+00  0.85824364584E+02  0.85824364584E+02  0.00000000000E+00 0.  1.
          2   -1    0    0  501    0  0.00000000000E+00 -0.00000000000E+00 -0.14499028482E+03  0.14499028482E+03  0.00000000000E+00 0. -1.
         25    2    1    2    0    0 -0.18409257256E+02  0.20164550307E+02 -0.38504712351E+02  0.13370114053E+03  0.12509145560E+03 0.  0.
         23    2    1    2    0    0  0.18409257256E+02 -0.20164550307E+02 -0.20661207884E+02  0.97113508871E+02  0.90877050196E+02 0.  0.
          5    1    3    3  502    0 -0.52861993383E+00  0.37727118664E+02 -0.77994833439E+02  0.86742615622E+02  0.41800000000E+01 0.  1.
         -5    1    3    3    0  502 -0.17880637322E+02 -0.17562568357E+02  0.39490121088E+02  0.46958524911E+02  0.41800000000E+01 0.  1.
        -11    1    4    4    0    0  0.46444762128E+02  0.15055765773E+02 -0.35432973651E+01  0.48952497059E+02  0.00000000000E+00 0.  1.
         11    1    4    4    0    0 -0.28035504872E+02 -0.35220316080E+02 -0.17117910519E+02  0.48161011812E+02  0.00000000000E+00 0. -1.
</event>
<event>
 8    1  0.6840032E-009  0.1176671E+03  0.7561462E-02  0.1246996E+00
         -2   -1    0    0    0  501 -0.00000000000E+00  0.00000000000E+00  0.37713718400E+02  0.37713718400E+02  0.00000000000E+00 0.  1.
          2   -1    0    0  501    0  0.00000000000E+00 -0.00000000000E+00 -0.40789974721E+03  0.40789974721E+03  0.00000000000E+00 0. -1.
         25    2    1    2    0    0 -0.49698239438E+02 -0.35715288740E+02 -0.21895149050E+03  0.25948541407E+03  0.12508968010E+03 0.  0.
         23    2    1    2    0    0  0.49698239438E+02  0.35715288740E+02 -0.15123453830E+03  0.18612805154E+03  0.89589447708E+02 0.  0.
          5    1    3    3  502    0  0.32991486209E+02 -0.42370129453E+02 -0.11003344391E+03  0.12250917194E+03  0.41800000000E+01 0. -1.
         -5    1    3    3    0  502 -0.82689725647E+02  0.66548407126E+01 -0.10891804660E+03  0.13697624213E+03  0.41800000000E+01 0. -1.
        -11    1    4    4    0    0 -0.66267616306E+01  0.41281687673E+02 -0.27445879142E+02  0.50013678016E+02  0.00000000000E+00 0. -1.
         11    1    4    4    0    0  0.56325001069E+02 -0.55663989324E+01 -0.12378865916E+03  0.13611437352E+03  0.00000000000E+00 0.  1.
</event>
<event>
 8    1  0.6840032E-009  0.1085190E+03  0.7561462E-02  0.1263337E+00
          2   -1    0    0  501    0  0.00000000000E+00  0.00000000000E+00  0.12102199625E+03  0.12102199625E+03  0.00000000000E+00 0. -1.
         -2   -1    0    0    0  501 -0.00000000000E+00 -0.00000000000E+00 -0.20133612907E+03  0.20133612907E+03  0.00000000000E+00 0.  1.
         25    2    1    2    0    0 -0.10676374417E+03  0.12673624641E+02 -0.70686423040E+02  0.17945337414E+03  0.12509126770E+03 0.  0.
         23    2    1    2    0    0  0.10676374417E+03 -0.12673624641E+02 -0.96277097837E+01  0.14290475118E+03  0.93648050075E+02 0.  0.
          5    1    3    3  502    0 -0.23929728723E+02 -0.43775071711E+01 -0.89392493128E+02  0.92737720014E+02  0.41800000000E+01 0.  1.
         -5    1    3    3    0  502 -0.82834015451E+02  0.17051131812E+02  0.18706070088E+02  0.86715654122E+02  0.41800000000E+01 0.  1.
        -11    1    4    4    0    0  0.54403421816E+02 -0.94778705730E+01 -0.51709800555E+02  0.75653590856E+02  0.00000000000E+00 0.  1.
         11    1    4    4    0    0  0.52360322357E+02 -0.31957540677E+01  0.42082090771E+02  0.67251160325E+02  0.00000000000E+00 0. -1.
</event>
<event>
 8    1  0.6840032E-009  0.9995400E+02  0.7561462E-02  0.1280393E+00
          2   -1    0    0  501    0  0.00000000000E+00  0.00000000000E+00  0.21151134743E+03  0.21151134743E+03  0.00000000000E+00 0. -1.
         -2   -1    0    0    0  501 -0.00000000000E+00 -0.00000000000E+00 -0.72371391124E+02  0.72371391124E+02  0.00000000000E+00 0.  1.
         25    2    1    2    0    0 -0.48427017607E+02 -0.30103453982E+02  0.63802143343E+02  0.15155733263E+03  0.12509003798E+03 0.  0.
         23    2    1    2    0    0  0.48427017607E+02  0.30103453982E+02  0.75337812960E+02  0.13232540592E+03  0.92643580537E+02 0.  0.
          5    1    3    3  502    0 -0.90275956715E+02 -0.20518253095E+02  0.32288618776E+02  0.98136508870E+02  0.41800000000E+01 0. -1.
         -5    1    3    3    0  502  0.41848939107E+02 -0.95852008864E+01  0.31513524567E+02  0.53420823759E+02  0.41800000000E+01 0. -1.
        -11    1    4    4    0    0  0.36011452150E+02  0.35495011346E+02  0.95488936948E+02  0.10805025496E+03  0.00000000000E+00 0. -1.
         11    1    4    4    0    0  0.12415565457E+02 -0.53915573648E+01 -0.20151123988E+02  0.24275150966E+02  0.00000000000E+00 0.  1.
</event>
<event>
 8    1  0.6840032E-009  0.9600359E+02  0.7561462E-02  0.1288932E+00
         -2   -1    0    0    0  501 -0.00000000000E+00  0.00000000000E+00  0.87347189863E+02  0.87347189863E+02  0.00000000000E+00 0.  1.
          2   -1    0    0  501    0  0.00000000000E+00 -0.00000000000E+00 -0.13563334674E+03  0.13563334674E+03  0.00000000000E+00 0. -1.
         25    2    1    2    0    0  0.28738478598E+01 -0.75936108587E+01 -0.28410235227E+02  0.12853086092E+03  0.12508844398E+03 0.  0.
         23    2    1    2    0    0 -0.28738478598E+01  0.75936108587E+01 -0.19875921647E+02  0.94449675675E+02  0.91976991940E+02 0.  0.
          5    1    3    3  502    0 -0.25703449207E+00  0.47410783989E+02  0.23178124296E+02  0.52939081510E+02  0.41800000000E+01 0.  1.
         -5    1    3    3    0  502  0.31308823519E+01 -0.55004394848E+02 -0.51588359523E+02  0.75591779415E+02  0.41800000000E+01 0.  1.
        -11    1    4    4    0    0 -0.21046628875E+02  0.43830432408E+02  0.14515998849E+01  0.48643340081E+02  0.00000000000E+00 0.  1.
         11    1    4    4    0    0  0.18172781015E+02 -0.36236821549E+02 -0.21327521532E+02  0.45806335593E+02  0.00000000000E+00 0. -1.
</event>
<event>
 8    1  0.6840032E-009  0.6987428E+02  0.7561462E-02  0.1360521E+00
          2   -1    0    0  501    0  0.00000000000E+00  0.00000000000E+00  0.10667952257E+03  0.10667952257E+03  0.00000000000E+00 0. -1.
         -2   -1    0    0    0  501 -0.00000000000E+00 -0.00000000000E+00 -0.13709133842E+03  0.13709133842E+03  0.00000000000E+00 0.  1.
         25    2    1    2    0    0  0.48282374359E+02 -0.65570264517E+01 -0.44467394630E+02  0.14142108376E+03  0.12509353092E+03 0.  0.
         23    2    1    2    0    0 -0.48282374359E+02  0.65570264517E+01  0.14055578787E+02  0.10234977722E+03  0.88902954581E+02 0.  0.
          5    1    3    3  502    0  0.78110125971E+01  0.18231225668E+01  0.43345025027E+02  0.44278654997E+02  0.41800000000E+01 0.  1.
         -5    1    3    3    0  502  0.40471361762E+02 -0.83801490185E+01 -0.87812419658E+02  0.97142428766E+02  0.41800000000E+01 0.  1.
        -11    1    4    4    0    0 -0.53912695709E+02  0.32275574965E+02 -0.13467202116E+02  0.64262407602E+02  0.00000000000E+00 0.  1.
         11    1    4    4    0    0  0.56303213497E+01 -0.25718548513E+02  0.27522780903E+02  0.38087369622E+02  0.00000000000E+00 0. -1.
</event>
<event>
 8    1  0.6840032E-009  0.1121980E+03  0.7561462E-02  0.1256553E+00
          3   -1    0    0  501    0  0.00000000000E+00  0.00000000000E+00  0.42612170490E+02  0.42612170490E+02  0.00000000000E+00 0. -1.
         -3   -1    0    0    0  501 -0.00000000000E+00 -0.00000000000E+00 -0.40969799906E+03  0.40969799906E+03  0.00000000000E+00 0.  1.
         25    2    1    2    0    0 -0.24650149923E+02 -0.46047203506E+02 -0.13035025609E+03  0.18806068720E+03  0.12509059903E+03 0.  0.
         23    2    1    2    0    0  0.24650149923E+02  0.46047203506E+02 -0.23673557249E+03  0.26424948235E+03  0.10514790917E+03 0.  0.
          5    1    3    3  502    0  0.28839866808E+02  0.27966443819E+02 -0.20967071701E+02  0.45507695977E+02  0.41800000000E+01 0. -1.
         -5    1    3    3    0  502 -0.53490016731E+02 -0.74013647325E+02 -0.10938318439E+03  0.14255299122E+03  0.41800000000E+01 0. -1.
        -11    1    4    4    0    0  0.90912627085E+01 -0.21464309471E+02 -0.70657292925E+01  0.24357589559E+02  0.00000000000E+00 0. -1.
         11    1    4    4    0    0  0.15558887215E+02  0.67511512977E+02 -0.22966984319E+03  0.23989189280E+03  0.00000000000E+00 0.  1.
</event>
<event>
 8    1  0.6840032E-009  0.1529755E+03  0.7561462E-02  0.1196864E+00
         -1   -1    0    0    0  501 -0.00000000000E+00  0.00000000000E+00  0.13528554213E+03  0.13528554213E+03  0.00000000000E+00 0.  1.
          1   -1    0    0  501    0  0.00000000000E+00 -0.00000000000E+00 -0.72889900522E+03  0.72889900522E+03  0.00000000000E+00 0. -1.
         25    2    1    2    0    0 -0.28365487220E+02 -0.14131905066E+03  0.51748807864E+02  0.19774106138E+03  0.12509161960E+03 0.  0.
         23    2    1    2    0    0  0.28365487220E+02  0.14131905066E+03 -0.64536227095E+03  0.66644348596E+03  0.82938436596E+02 0.  0.
          5    1    3    3  502    0 -0.18885747311E+02 -0.55995771401E+01  0.58087798474E+02  0.61479195239E+02  0.41800000000E+01 0. -1.
         -5    1    3    3    0  502 -0.94797399086E+01 -0.13571947352E+03 -0.63389906100E+01  0.13626186614E+03  0.41800000000E+01 0. -1.
        -11    1    4    4    0    0  0.35135595467E+02  0.72677343983E+02 -0.48795436328E+03  0.49458666282E+03  0.00000000000E+00 0. -1.
         11    1    4    4    0    0 -0.67701082472E+01  0.68641706681E+02 -0.15740790768E+03  0.17185682315E+03  0.00000000000E+00 0.  1.
</event>
<event>
 8    1  0.6840032E-009  0.1149277E+03  0.7561462E-02  0.1251707E+00
          4   -1    0    0  501    0  0.00000000000E+00  0.00000000000E+00  0.28169200761E+02  0.28169200761E+02  0.00000000000E+00 0. -1.
         -4   -1    0    0    0  501 -0.00000000000E+00 -0.00000000000E+00 -0.57530521855E+03  0.57530521855E+03  0.00000000000E+00 0.  1.
         25    2    1    2    0    0 -0.54938652252E+02 -0.25823249396E+02 -0.23771116124E+03  0.27538923793E+03  0.12509012938E+03 0.  0.
         23    2    1    2    0    0  0.54938652252E+02  0.25823249396E+02 -0.30942485654E+03  0.32808518138E+03  0.90614836937E+02 0.  0.
          5    1    3    3  502    0 -0.42546661804E+02  0.37370842666E+02 -0.45903197015E+02  0.73016259891E+02  0.41800000000E+01 0. -1.
         -5    1    3    3    0  502 -0.12391990448E+02 -0.63194092063E+02 -0.19180796423E+03  0.20237297804E+03  0.41800000000E+01 0. -1.
        -11    1    4    4    0    0  0.42356872683E+02 -0.29620390616E+02 -0.16355053410E+03  0.17152332031E+03  0.00000000000E+00 0.  1.
         11    1    4    4    0    0  0.12581779568E+02  0.55443640013E+02 -0.14587432244E+03  0.15656186107E+03  0.00000000000E+00 0. -1.
</event>
<event>
 8    1  0.6840032E-009  0.1226753E+03  0.7561462E-02  0.1238748E+00
         -2   -1    0    0    0  501 -0.00000000000E+00  0.00000000000E+00  0.46179725567E+02  0.46179725567E+02  0.00000000000E+00 0.  1.
          2   -1    0    0  501    0  0.00000000000E+00 -0.00000000000E+00 -0.51995810185E+03  0.51995810185E+03  0.00000000000E+00 0. -1.
         25    2    1    2    0    0  0.23803697727E+02  0.90565498827E+02 -0.35951934588E+03  0.39200795585E+03  0.12508937517E+03 0.  0.
         23    2    1    2    0    0 -0.23803697727E+02 -0.90565498827E+02 -0.11425903040E+03  0.17412987157E+03  0.92181128988E+02 0.  0.
          5    1    3    3  502    0  0.44102893664E+02  0.78230099901E+02 -0.35654754025E+03  0.36770726756E+03  0.41800000000E+01 0.  1.
         -5    1    3    3    0  502 -0.20299195937E+02  0.12335398926E+02 -0.29718056325E+01  0.24300688284E+02  0.41800000000E+01 0.  1.
        -11    1    4    4    0    0 -0.62906531333E+01 -0.10707624251E+03 -0.91068944480E+02  0.14070695319E+03  0.00000000000E+00 0.  1.
         11    1    4    4    0    0 -0.17513044593E+02  0.16510743685E+02 -0.23190085918E+02  0.33422918377E+02  0.00000000000E+00 0. -1.
</event>
<event>
 8    1  0.6840032E-009  0.8667547E+02  0.7561462E-02  0.1311108E+00
         -2   -1    0    0    0  501 -0.00000000000E+00  0.00000000000E+00  0.15838069678E+03  0.15838069678E+03  0.00000000000E+00 0.  1.
          2   -1    0    0  501    0  0.00000000000E+00 -0.00000000000E+00 -0.10857837968E+03  0.10857837968E+03  0.00000000000E+00 0. -1.
         25    2    1    2    0    0 -0.43123984099E+02 -0.61187189937E+02  0.28205115860E+02  0.14847770497E+03  0.12508617067E+03 0.  0.
         23    2    1    2    0    0  0.43123984099E+02  0.61187189937E+02  0.21597201239E+02  0.11848137149E+03  0.89262792200E+02 0.  0.
          5    1    3    3  502    0 -0.47380174057E+02 -0.34311583165E+02  0.74378887747E+02  0.94719886905E+02  0.41800000000E+01 0. -1.
         -5    1    3    3    0  502  0.42561899579E+01 -0.26875606773E+02 -0.46173771886E+02  0.53757818060E+02  0.41800000000E+01 0. -1.
        -11    1    4    4    0    0  0.23803708500E+02  0.85112757972E+00 -0.28910162976E+02  0.37458490090E+02  0.00000000000E+00 0. -1.
         11    1    4    4    0    0  0.19320275599E+02  0.60336062358E+02  0.50507364215E+02  0.81022881398E+02  0.00000000000E+00 0.  1.
</event>
<event>
 8    1  0.6840032E-009  0.1688705E+03  0.7561462E-02  0.1179031E+00
         -2   -1    0    0    0  501 -0.00000000000E+00  0.00000000000E+00  0.47332184018E+03  0.47332184018E+03  0.00000000000E+00 0.  1.
          2   -1    0    0  501    0  0.00000000000E+00 -0.00000000000E+00 -0.97041288263E+02  0.97041288263E+02  0.00000000000E+00 0. -1.
         25    2    1    2    0    0  0.47152547905E+02  0.13056714632E+03  0.35793264394E+03  0.40377521380E+03  0.12508998043E+03 0.  0.
         23    2    1    2    0    0 -0.47152547905E+02 -0.13056714632E+03  0.18347907973E+02  0.16658791465E+03  0.90242701120E+02 0.  0.
          5    1    3    3  502    0  0.86728073001E+02  0.11325370162E+03  0.28908374091E+03  0.32238957991E+03  0.41800000000E+01 0.  1.
         -5    1    3    3    0  502 -0.39575525096E+02  0.17313444704E+02  0.68848903036E+02  0.81385633889E+02  0.41800000000E+01 0.  1.
        -11    1    4    4    0    0 -0.44434563757E+02 -0.36434716754E+02 -0.25308867901E+02  0.62788994543E+02  0.00000000000E+00 0. -1.
         11    1    4    4    0    0 -0.27179841478E+01 -0.94132429571E+02  0.43656775874E+02  0.10379892010E+03  0.00000000000E+00 0.  1.
</event>
<event>
 8    1  0.6840032E-009  0.1178118E+03  0.7561462E-02  0.1246751E+00
          2   -1    0    0  501    0  0.00000000000E+00  0.00000000000E+00  0.26755471714E+03  0.26755471714E+03  0.00000000000E+00 0. -1.
         -2   -1    0    0    0  501 -0.00000000000E+00 -0.00000000000E+00 -0.86719135610E+02  0.86719135610E+02  0.00000000000E+00 0.  1.
         25    2    1    2    0    0  0.10364671692E+03  0.18883269702E+02  0.77144866788E+02  0.18082596886E+03  0.12508989064E+03 0.  0.
         23    2    1    2    0    0 -0.10364671692E+03 -0.18883269702E+02  0.10369071474E+03  0.17344788388E+03  0.90736896002E+02 0.  0.
          5    1    3    3  502    0  0.12975377258E+02  0.28265858472E+02  0.83650426347E+02  0.89343076946E+02  0.41800000000E+01 0.  1.
         -5    1    3    3    0  502  0.90671339665E+02 -0.93825887696E+01 -0.65055595593E+01  0.91482891919E+02  0.41800000000E+01 0.  1.
        -11    1    4    4    0    0 -0.56032104228E+01 -0.13710352891E+02  0.67029691668E+02  0.68646553508E+02  0.00000000000E+00 0. -1.
         11    1    4    4    0    0 -0.98043506500E+02 -0.51729168113E+01  0.36661023069E+02  0.10480133037E+03  0.00000000000E+00 0.  1.
</event>
<event>
 8    1  0.6840032E-009  0.6417298E+02  0.7561462E-02  0.1381110E+00
         -1   -1    0    0    0  501 -0.00000000000E+00  0.00000000000E+00  0.23095708310E+02  0.23095708310E+02  0.00000000000E+00 0.  1.
          1   -1    0    0  501    0  0.00000000000E+00 -0.00000000000E+00 -0.53422719752E+03  0.53422719752E+03  0.00000000000E+00 0. -1.
         25    2    1    2    0    0  0.20651374877E+02 -0.80541770095E+01 -0.32746188049E+03  0.35124314317E+03  0.12509641641E+03 0.  0.
         23    2    1    2    0    0 -0.20651374877E+02  0.80541770095E+01 -0.18366960873E+03  0.20607976267E+03  0.90790937650E+02 0.  0.
          5    1    3    3  502    0 -0.16204693395E+02  0.44441791770E+01  0.37582086640E+01  0.17718333696E+02  0.41800000000E+01 0.  1.
         -5    1    3    3    0  502  0.36856068272E+02 -0.12498356187E+02 -0.33122008915E+03  0.33352480947E+03  0.41800000000E+01 0.  1.
        -11    1    4    4    0    0  0.24657979059E+02 -0.40564814976E+01 -0.11267434631E+02  0.27412151622E+02  0.00000000000E+00 0.  1.
         11    1    4    4    0    0 -0.45309353935E+02  0.12110658507E+02 -0.17240217410E+03  0.17866761105E+03  0.00000000000E+00 0. -1.
</event>
<event>
 8    1  0.6840032E-009  0.8663199E+02  0.7561462E-02  0.1311219E+00
          1   -1    0    0  501    0  0.00000000000E+00  0.00000000000E+00  0.77278936128E+03  0.77278936128E+03  0.00000000000E+00 0. -1.
         -1   -1    0    0    0  501 -0.00000000000E+00 -0.00000000000E+00 -0.20848513644E+02  0.20848513644E+02  0.00000000000E+00 0.  1.
         25    2    1    2    0    0 -0.17095064807E+02 -0.68906383884E+02  0.53771955267E+03  0.55662337400E+03  0.12508769796E+03 0.  0.
         23    2    1    2    0    0  0.17095064807E+02  0.68906383884E+02  0.21422129497E+03  0.23701450093E+03  0.72420849557E+02 0.  0.
          5    1    3    3  502    0 -0.63474143672E+01 -0.53084957922E+02  0.68494533990E+02  0.86990091466E+02  0.41800000000E+01 0. -1.
         -5    1    3    3    0  502 -0.10747650440E+02 -0.15821425961E+02  0.46922501868E+03  0.46963328253E+03  0.41800000000E+01 0. -1.
        -11    1    4    4    0    0  0.18547681933E+02 -0.10046216346E+02  0.62665985666E+02  0.66120864539E+02  0.00000000000E+00 0.  1.
         11    1    4    4    0    0 -0.14526171257E+01  0.78952600230E+02  0.15155530930E+03  0.17089363639E+03  0.00000000000E+00 0. -1.
</event>
<event>
 8    1  0.6840032E-009  0.9063276E+02  0.7561462E-02  0.1301327E+00
          2   -1    0    0  501    0  0.00000000000E+00  0.00000000000E+00  0.19366548073E+03  0.19366548073E+03  0.00000000000E+00 0. -1.
         -2   -1    0    0    0  501 -0.00000000000E+00 -0.00000000000E+00 -0.70813761916E+02  0.70813761916E+02  0.00000000000E+00 0.  1.
         25    2    1    2    0    0  0.86172751781E+01 -0.25100818615E+02  0.27867116064E+02  0.13087471757E+03  0.12508919624E+03 0.  0.
         23    2    1    2    0    0 -0.86172751781E+01  0.25100818615E+02  0.94984602748E+02  0.13360452507E+03  0.90132046648E+02 0.  0.
          5    1    3    3  502    0  0.38612425441E+02  0.34435758369E+02 -0.11741974194E+02  0.53217358173E+02  0.41800000000E+01 0. -1.
         -5    1    3    3    0  502 -0.29995150263E+02 -0.59536576984E+02  0.39609090258E+02  0.77657359402E+02  0.41800000000E+01 0. -1.
        -11    1    4    4    0    0 -0.30276708607E+02  0.27332472602E+02  0.50839885466E+01  0.41104623611E+02  0.00000000000E+00 0. -1.
         11    1    4    4    0    0  0.21659433429E+02 -0.22316539865E+01  0.89900614202E+02  0.92499901458E+02  0.00000000000E+00 0.  1.
</event>
<event>
 8    1  0.6840032E-009  0.1856084E+03  0.7561462E-02  0.1162483E+00
          2   -1    0    0  501    0  0.00000000000E+00  0.00000000000E+00  0.17514951475E+04  0.17514951475E+04  0.00000000000E+00 0.  1.
         -2   -1    0    0    0  501 -0.00000000000E+00 -0.00000000000E+00 -0.23658633719E+02  0.23658633719E+02  0.00000000000E+00 0. -1.
         25    2    1    2    0    0 -0.81830966465E+02  0.13882672363E+03  0.11659786989E+04  0.11836906569E+04  0.12509228079E+03 0.  0.
         23    2    1    2    0    0  0.81830966465E+02 -0.13882672363E+03  0.56185781487E+03  0.59146312430E+03  0.90417127815E+02 0.  0.
          5    1    3    3  502    0 -0.10834444626E+03  0.69242776717E+02  0.78654367016E+03  0.79699529398E+03  0.41800000000E+01 0.  1.
         -5    1    3    3    0  502  0.26513479793E+02  0.69583946911E+02  0.37943502876E+03  0.38669536295E+03  0.41800000000E+01 0.  1.
        -11    1    4    4    0    0  0.32682611420E+02 -0.10044098363E+03  0.22095651606E+03  0.24490472897E+03  0.00000000000E+00 0. -1.
         11    1    4    4    0    0  0.49148355045E+02 -0.38385739995E+02  0.34090129881E+03  0.34655839533E+03  0.00000000000E+00 0.  1.
</event>
<event>
 8    1  0.6840032E-009  0.1176483E+03  0.7561462E-02  0.1247028E+00
          1   -1    0    0  501    0  0.00000000000E+00  0.00000000000E+00  0.67053225947E+03  0.67053225947E+03  0.00000000000E+00 0. -1.
         -1   -1    0    0    0  501 -0.00000000000E+00 -0.00000000000E+00 -0.24294711371E+02  0.24294711371E+02  0.00000000000E+00 0.  1.
         25    2    1    2    0    0  0.30422771488E+02  0.46732473040E+02  0.46424506692E+03  0.48402550286E+03  0.12509091176E+03 0.  0.
         23    2    1    2    0    0 -0.30422771488E+02 -0.46732473040E+02  0.18199248118E+03  0.21080146797E+03  0.90589881510E+02 0.  0.
          5    1    3    3  502    0 -0.13167017272E+02  0.75835186062E+02  0.19476750808E+03  0.20946646604E+03  0.41800000000E+01 0. -1.
         -5    1    3    3    0  502  0.43589788760E+02 -0.29102713022E+02  0.26947755883E+03  0.27455903683E+03  0.41800000000E+01 0. -1.
        -11    1    4    4    0    0  0.30368184197E+02 -0.25321225608E+01  0.64312918931E+02  0.71167336592E+02  0.00000000000E+00 0. -1.
         11    1    4    4    0    0 -0.60790955685E+02 -0.44200350480E+02  0.11767956225E+03  0.13963413138E+03  0.00000000000E+00 0.  1.
</event>
<event>
 8    1  0.6840032E-009  0.1824654E+03  0.7561462E-02  0.1165438E+00
          3   -1    0    0  501    0  0.00000000000E+00  0.00000000000E+00  0.53233093151E+03  0.53233093151E+03  0.00000000000E+00 0. -1.
         -3   -1    0    0    0  501 -0.00000000000E+00 -0.00000000000E+00 -0.64353174057E+02  0.64353174057E+02  0.00000000000E+00 0.  1.
         25    2    1    2    0    0 -0.63368336147E+02 -0.12871560908E+03  0.21815211372E+03  0.28952455610E+03  0.12510343648E+03 0.  0.
         23    2    1    2    0    0  0.63368336147E+02  0.12871560908E+03  0.24982564373E+03  0.30715954947E+03  0.10654052053E+03 0.  0.
          5    1    3    3  502    0  0.32444995256E+02 -0.10094424942E+02  0.20676890479E+02  0.39994766307E+02  0.41800000000E+01 0.  1.
         -5    1    3    3    0  502 -0.95813331403E+02 -0.11862118414E+03  0.19747522324E+03  0.24952978980E+03  0.41800000000E+01 0.  1.
        -11    1    4    4    0    0 -0.14980462053E+02  0.89117870344E+02  0.13871017822E+03  0.16555036273E+03  0.00000000000E+00 0.  1.
         11    1    4    4    0    0  0.78348798201E+02  0.39597738735E+02  0.11111546552E+03  0.14160918674E+03  0.00000000000E+00 0. -1.
</event>
<event>
 8    1  0.6840032E-009  0.2636003E+02  0.7561462E-02  0.1642202E+00
          1   -1    0    0  501    0  0.00000000000E+00  0.00000000000E+00  0.27060392645E+03  0.27060392645E+03  0.00000000000E+00 0. -1.
         -1   -1    0    0    0  501 -0.00000000000E+00 -0.00000000000E+00 -0.50276027202E+02  0.50276027202E+02  0.00000000000E+00 0.  1.
         25    2    1    2    0    0  0.91606647706E+01 -0.70711514850E+01  0.19013942493E+03  0.22789040277E+03  0.12508843193E+03 0.  0.
         23    2    1    2    0    0 -0.91606647706E+01  0.70711514850E+01  0.30188474318E+02  0.92989550874E+02  0.87188265425E+02 0.  0.
          5    1    3    3  502    0  0.68987709876E+01 -0.86507889280E+01  0.20851210679E+03  0.20884731329E+03  0.41800000000E+01 0. -1.
         -5    1    3    3    0  502  0.22618937830E+01  0.15796374430E+01 -0.18372681868E+02  0.19043089480E+02  0.41800000000E+01 0. -1.
        -11    1    4    4    0    0 -0.20362191977E+02 -0.32884879718E+01 -0.26899883928E+02  0.33897444898E+02  0.00000000000E+00 0.  1.
         11    1    4    4    0    0  0.11201527206E+02  0.10359639457E+02  0.57088358247E+02  0.59092105976E+02  0.00000000000E+00 0. -1.
</event>
<event>
 8    1  0.6840032E-009  0.8719940E+02  0.7561462E-02  0.1309779E+00
         -2   -1    0    0    0  501 -0.00000000000E+00  0.00000000000E+00  0.67476463259E+03  0.67476463259E+03  0.00000000000E+00 0.  1.
          2   -1    0    0  501    0  0.00000000000E+00 -0.00000000000E+00 -0.21877678236E+02  0.21877678236E+02  0.00000000000E+00 0. -1.
         25    2    1    2    0    0 -0.28489808335E+02 -0.43393788942E+02  0.33275212541E+03  0.35925736025E+03  0.12508870383E+03 0.  0.
         23    2    1    2    0    0  0.28489808335E+02  0.43393788942E+02  0.32013482894E+03  0.33738495058E+03  0.92992505502E+02 0.  0.
          5    1    3    3  502    0 -0.22779972090E+02  0.10159931823E+02  0.34160464358E+01  0.25520445066E+02  0.41800000000E+01 0.  1.
         -5    1    3    3    0  502 -0.57098362452E+01 -0.53553720766E+02  0.32933607898E+03  0.33373691518E+03  0.41800000000E+01 0.  1.
        -11    1    4    4    0    0 -0.88356390612E+00 -0.22723363593E+02  0.26271003426E+02  0.34746187692E+02  0.00000000000E+00 0.  1.
         11    1    4    4    0    0  0.29373372242E+02  0.66117152535E+02  0.29386382552E+03  0.30263876289E+03  0.00000000000E+00 0. -1.
</event>
<event>
 8    1  0.6840032E-009  0.1012820E+03  0.7561462E-02  0.1277623E+00
          2   -1    0    0  501    0  0.00000000000E+00  0.00000000000E+00  0.68571846676E+03  0.68571846676E+03  0.00000000000E+00 0. -1.
         -2   -1    0    0    0  501 -0.00000000000E+00 -0.00000000000E+00 -0.18169088559E+02  0.18169088559E+02  0.00000000000E+00 0.  1.
         25    2    1    2    0    0  0.68134469942E+01  0.24073056196E+02  0.34186244515E+03  0.36488782489E+03  0.12508900132E+03 0.  0.
         23    2    1    2    0    0 -0.68134469942E+01 -0.24073056196E+02  0.32568693305E+03  0.33899973043E+03  0.90680228164E+02 0.  0.
          5    1    3    3  502    0 -0.11252148303E+02 -0.40369705928E+02  0.23488215117E+03  0.23862820733E+03  0.41800000000E+01 0. -1.
         -5    1    3    3    0  502  0.18065595297E+02  0.64442762124E+02  0.10698029399E+03  0.12625961755E+03  0.41800000000E+01 0. -1.
        -11    1    4    4    0    0  0.30157886726E+02 -0.42474734364E+02  0.16121094288E+03  0.16941832633E+03  0.00000000000E+00 0.  1.
         11    1    4    4    0    0 -0.36971333721E+02  0.18401678168E+02  0.16447599017E+03  0.16958140410E+03  0.00000000000E+00 0. -1.
</event>
<event>
 8    1  0.6840032E-009  0.1195203E+03  0.7561462E-02  0.1243890E+00
         -1   -1    0    0    0  501 -0.00000000000E+00  0.00000000000E+00  0.11411912971E+03  0.11411912971E+03  0.00000000000E+00 0.  1.
          1   -1    0    0  501    0  0.00000000000E+00 -0.00000000000E+00 -0.14026916679E+03  0.14026916679E+03  0.00000000000E+00 0. -1.
         25    2    1    2    0    0 -0.47413305794E+02 -0.59277140390E+01 -0.52429430373E+02  0.14381780355E+03  0.12510617926E+03 0.  0.
         23    2    1    2    0    0  0.47413305794E+02  0.59277140390E+01  0.26279393289E+02  0.11057049295E+03  0.96187670934E+02 0.  0.
          5    1    3    3  502    0  0.36072105643E+02  0.23531527973E+02 -0.57625430293E+01  0.43653280707E+02  0.41800000000E+01 0. -1.
         -5    1    3    3    0  502 -0.83485411438E+02 -0.29459242012E+02 -0.46666887343E+02  0.10016452285E+03  0.41800000000E+01 0. -1.
        -11    1    4    4    0    0  0.27071174261E+02  0.50972457545E+02  0.17999247357E+02  0.60456701940E+02  0.00000000000E+00 0. -1.
         11    1    4    4    0    0  0.20342131533E+02 -0.45044743506E+02  0.82801459324E+01  0.50113791011E+02  0.00000000000E+00 0.  1.
</event>
<event>
 8    1  0.6840032E-009  0.1358442E+03  0.7561462E-02  0.1219033E+00
          2   -1    0    0  501    0  0.00000000000E+00  0.00000000000E+00  0.85987218947E+03  0.85987218947E+03  0.00000000000E+00 0. -1.
         -2   -1    0    0    0  501 -0.00000000000E+00 -0.00000000000E+00 -0.21783743269E+02  0.21783743269E+02  0.00000000000E+00 0.  1.
         25    2    1    2    0    0 -0.56667222324E+02 -0.57343704609E+02  0.44585308853E+03  0.47003391633E+03  0.12508969344E+03 0.  0.
         23    2    1    2    0    0  0.56667222324E+02  0.57343704609E+02  0.39223535767E+03  0.41162201641E+03  0.95313346605E+02 0.  0.
          5    1    3    3  502    0  0.47768859859E+01  0.35157857503E+02  0.78655832875E+02  0.86389270336E+02  0.41800000000E+01 0.  1.
         -5    1    3    3    0  502 -0.61444108310E+02 -0.92501562112E+02  0.36719725566E+03  0.38364464600E+03  0.41800000000E+01 0.  1.
        -11    1    4    4    0    0 -0.14577147530E+02 -0.16641606737E+02  0.70392268127E+02  0.73786907491E+02  0.00000000000E+00 0. -1.
         11    1    4    4    0    0  0.71244369854E+02  0.73985311346E+02  0.32184308954E+03  0.33783510892E+03  0.00000000000E+00 0.  1.
</event>
<event>
 8    1  0.6840032E-009  0.1678176E+03  0.7561462E-02  0.1180143E+00
         -3   -1    0    0    0  501 -0.00000000000E+00  0.00000000000E+00  0.28764677756E+03  0.28764677756E+03  0.00000000000E+00 0.  1.
          3   -1    0    0  501    0  0.00000000000E+00 -0.00000000000E+00 -0.13221216925E+03  0.13221216925E+03  0.00000000000E+00 0. -1.
         25    2    1    2    0    0 -0.13884171959E+03  0.79676935150E+02  0.75722014817E+02  0.21680934959E+03  0.12508810274E+03 0.  0.
         23    2    1    2    0    0  0.13884171959E+03 -0.79676935150E+02  0.79712593489E+02  0.20304959722E+03  0.96174863031E+02 0.  0.
          5    1    3    3  502    0 -0.78665279303E+02  0.77510029641E+01  0.92182580554E+02  0.12150475206E+03  0.41800000000E+01 0. -1.
         -5    1    3    3    0  502 -0.60176440284E+02  0.71925932186E+02 -0.16460565737E+02  0.95304597531E+02  0.41800000000E+01 0. -1.
        -11    1    4    4    0    0  0.10388449983E+03 -0.73124604131E+02  0.13327326162E+02  0.12773728765E+03  0.00000000000E+00 0. -1.
         11    1    4    4    0    0  0.34957219761E+02 -0.65523310190E+01  0.66385267327E+02  0.75312309574E+02  0.00000000000E+00 0.  1.
</event>
<event>
 8    1  0.6840032E-009  0.1192429E+03  0.7561462E-02  0.1244351E+00
          2   -1    0    0  501    0  0.00000000000E+00  0.00000000000E+00  0.10906512511E+04  0.10906512511E+04  0.00000000000E+00 0. -1.
         -2   -1    0    0    0  501 -0.00000000000E+00 -0.00000000000E+00 -0.24258733726E+02  0.24258733726E+02  0.00000000000E+00 0.  1.
         25    2    1    2    0    0  0.50249834284E+02 -0.77493995650E+02  0.83910704173E+03  0.85339232029E+03  0.12508980627E+03 0.  0.
         23    2    1    2    0    0 -0.50249834284E+02  0.77493995650E+02  0.22728547562E+03  0.26151766451E+03  0.90567302155E+02 0.  0.
          5    1    3    3  502    0  0.11163503807E+02 -0.76995947370E+02  0.76963434684E+03  0.77356803189E+03  0.41800000000E+01 0. -1.
         -5    1    3    3    0  502  0.39086330477E+02 -0.49804828007E+00  0.69472694893E+02  0.79824288396E+02  0.41800000000E+01 0. -1.
        -11    1    4    4    0    0 -0.54632934213E+02  0.12404591875E+02  0.60640473038E+02  0.82558454265E+02  0.00000000000E+00 0.  1.
         11    1    4    4    0    0  0.43830999294E+01  0.65089403775E+02  0.16664500258E+03  0.17895921025E+03  0.00000000000E+00 0. -1.
</event>
<event>
 8    1  0.6840032E-009  0.1212891E+03  0.7561462E-02  0.1240985E+00
         -2   -1    0    0    0  501 -0.00000000000E+00  0.00000000000E+00  0.10552816182E+03  0.10552816182E+03  0.00000000000E+00 0.  1.
          2   -1    0    0  501    0  0.00000000000E+00 -0.00000000000E+00 -0.28370850917E+03  0.28370850917E+03  0.00000000000E+00 0. -1.
         25    2    1    2    0    0  0.81802236327E+02 -0.45357138327E+02  0.14617810388E+02  0.15687702244E+03  0.12509134233E+03 0.  0.
         23    2    1    2    0    0 -0.81802236327E+02  0.45357138327E+02 -0.19279815774E+03  0.23235964855E+03  0.89838748771E+02 0.  0.
          5    1    3    3  502    0 -0.11606937169E+02 -0.11895777231E+02  0.48900414513E+02  0.51816536414E+02  0.41800000000E+01 0. -1.
         -5    1    3    3    0  502  0.93409173496E+02 -0.33461361096E+02 -0.34282604124E+02  0.10506048603E+03  0.41800000000E+01 0. -1.
        -11    1    4    4    0    0  0.17267388866E+02  0.13961438357E+02 -0.16330722955E+02  0.27564052522E+02  0.00000000000E+00 0. -1.
         11    1    4    4    0    0 -0.99069625192E+02  0.31395699971E+02 -0.17646743478E+03  0.20479559602E+03  0.00000000000E+00 0.  1.
</event>
<event>
 7    1  0.6840032E-009  0.1011383E+03  0.7561462E-02  0.1277920E+00
          1   -1    0    0  501    0  0.00000000000E+00  0.00000000000E+00  0.17438188074E+02  0.17438188074E+02  0.00000000000E+00 0. -1.
         -1   -1    0    0    0  501 -0.00000000000E+00 -0.00000000000E+00 -0.72629352992E+03  0.72629352992E+03  0.00000000000E+00 0.  1.
         25    2    1    2    0    0 -0.33608717513E+02  0.46495486149E+02 -0.56124933581E+03  0.57787737108E+03  0.12510021160E+03 0.  0.
          5    1    3    3  502    0 -0.69972408391E+02  0.11471848401E+01 -0.40684563115E+03  0.41284172991E+03  0.41800000000E+01 0.  1.
         -5    1    3    3    0  502  0.36363690878E+02  0.45348301309E+02 -0.15440370465E+03  0.16503564117E+03  0.41800000000E+01 0.  1.
        -11    1    1    2    0    0  0.15716714125E+02 -0.52670156880E+02 -0.92616382030E+02  0.10769844358E+03  0.00000000000E+00 0. -1.
         11    1    1    2    0    0  0.17892003388E+02  0.61746707310E+01 -0.54989624006E+02  0.58155903330E+02  0.00000000000E+00 0.  1.
</event>
<event>
 8    1  0.6840032E-009  0.1113646E+03  0.7561462E-02  0.1258064E+00
         -1   -1    0    0    0  501 -0.00000000000E+00  0.00000000000E+00  0.23826782970E+02  0.23826782970E+02  0.00000000000E+00 0.  1.
          1   -1    0    0  501    0  0.00000000000E+00 -0.00000000000E+00 -0.63800848815E+03  0.63800848815E+03  0.00000000000E+00 0. -1.
         25    2    1    2    0    0  0.48579712247E+02 -0.32771643819E+02 -0.32047537782E+03  0.34897519087E+03  0.12508096166E+03 0.  0.
         23    2    1    2    0    0 -0.48579712247E+02  0.32771643819E+02 -0.29370632736E+03  0.31286008025E+03  0.90465761510E+02 0.  0.
          5    1    3    3  502    0  0.70241403028E+02  0.14754962535E+02 -0.25594315604E+03  0.26584945955E+03  0.41800000000E+01 0.  1.
         -5    1    3    3    0  502 -0.21661690781E+02 -0.47526606354E+02 -0.64532221782E+02  0.83125731318E+02  0.41800000000E+01 0.  1.
        -11    1    4    4    0    0 -0.67889465109E+02  0.10069387385E+02 -0.25461778704E+03  0.26370549769E+03  0.00000000000E+00 0. -1.
         11    1    4    4    0    0  0.19309752862E+02  0.22702256433E+02 -0.39088540318E+02  0.49154582563E+02  0.00000000000E+00 0.  1.
</event>
<event>
 8    1  0.6840032E-009  0.9356363E+02  0.7561462E-02  0.1294444E+00
         -1   -1    0    0    0  501 -0.00000000000E+00  0.00000000000E+00  0.47486543912E+03  0.47486543912E+03  0.00000000000E+00 0.  1.
          1   -1    0    0  501    0  0.00000000000E+00 -0.00000000000E+00 -0.53990041596E+02  0.53990041596E+02  0.00000000000E+00 0. -1.
         25    2    1    2    0    0 -0.17139841926E+02 -0.34463938551E+01  0.34739566757E+02  0.13099914585E+03  0.12509311294E+03 0.  0.
         23    2    1    2    0    0  0.17139841926E+02  0.34463938551E+01  0.38613583077E+03  0.39785633486E+03  0.94250366453E+02 0.  0.
          5    1    3    3  502    0 -0.29205791184E+02  0.37955206345E+02  0.63018050749E+02  0.79261106777E+02  0.41800000000E+01 0. -1.
         -5    1    3    3    0  502  0.12065949258E+02 -0.41401600200E+02 -0.28278483992E+02  0.51738039077E+02  0.41800000000E+01 0. -1.
        -11    1    4    4    0    0  0.34956689744E+02  0.41169803360E+02  0.22807113828E+03  0.23437868286E+03  0.00000000000E+00 0.  1.
         11    1    4    4    0    0 -0.17816847818E+02 -0.37723409505E+02  0.15806469249E+03  0.16347765200E+03  0.00000000000E+00 0. -1.
</event>
<event>
 8    1  0.6840032E-009  0.6803873E+02  0.7561462E-02  0.1366892E+00
          3   -1    0    0  501    0  0.00000000000E+00  0.00000000000E+00  0.76283712185E+02  0.76283712185E+02  0.00000000000E+00 0. -1.
         -3   -1    0    0    0  501 -0.00000000000E+00 -0.00000000000E+00 -0.15864140120E+03  0.15864140120E+03  0.00000000000E+00 0.  1.
         25    2    1    2    0    0  0.49785195821E+00 -0.15559703115E+02 -0.48898334214E+02  0.13520529098E+03  0.12508825445E+03 0.  0.
         23    2    1    2    0    0 -0.49785195821E+00  0.15559703115E+02 -0.33459354800E+02  0.99719822404E+02  0.92639960811E+02 0.  0.
          5    1    3    3  502    0  0.16704525846E+02 -0.26878653582E+02  0.35896280907E+02  0.48036637945E+02  0.41800000000E+01 0.  1.
         -5    1    3    3    0  502 -0.16206673887E+02  0.11318950467E+02 -0.84794615121E+02  0.87168653033E+02  0.41800000000E+01 0.  1.
        -11    1    4    4    0    0  0.40839942705E+02  0.11418852463E+02 -0.39238637563E+02  0.57775096621E+02  0.00000000000E+00 0. -1.
         11    1    4    4    0    0 -0.41337794664E+02  0.41408506515E+01  0.57792827632E+01  0.41944725783E+02  0.00000000000E+00 0.  1.
</event>
<event>
 8    1  0.6840032E-009  0.1037179E+03  0.7561462E-02  0.1272666E+00
          2   -1    0    0  501    0  0.00000000000E+00  0.00000000000E+00  0.55496500535E+03  0.55496500535E+03  0.00000000000E+00 0. -1.
         -2   -1    0    0    0  501 -0.00000000000E+00 -0.00000000000E+00 -0.29558704409E+02  0.29558704409E+02  0.00000000000E+00 0.  1.
         25    2    1    2    0    0  0.66343163486E+02 -0.11548190230E+02  0.27156338816E+03  0.30648009536E+03  0.12509436048E+03 0.  0.
         23    2    1    2    0    0 -0.66343163486E+02  0.11548190230E+02  0.25384291278E+03  0.27804361440E+03  0.91308548887E+02 0.  0.
          5    1    3    3  502    0 -0.35494741176E+01 -0.33185980485E+02  0.20415819441E+03  0.20691048502E+03  0.41800000000E+01 0.  1.
         -5    1    3    3    0  502  0.69892637604E+02  0.21637790256E+02  0.67405193748E+02  0.99569610336E+02  0.41800000000E+01 0.  1.
        -11    1    4    4    0    0  0.17699402005E+01 -0.23738480343E+02  0.13152236245E+03  0.13365919333E+03  0.00000000000E+00 0.  1.
         11    1    4    4    0    0 -0.68113103687E+02  0.35286670573E+02  0.12232055033E+03  0.14438442107E+03  0.00000000000E+00 0. -1.
</event>
<event>
 8    1  0.6840032E-009  0.1095535E+03  0.7561462E-02  0.1261399E+00
         -2   -1    0    0    0  501 -0.00000000000E+00  0.00000000000E+00  0.34059653140E+02  0.34059653140E+02  0.00000000000E+00 0.  1.
          2   -1    0    0  501    0  0.00000000000E+00 -0.00000000000E+00 -0.77694286471E+03  0.77694286471E+03  0.00000000000E+00 0. -1.
         25    2    1    2    0    0  0.46344447930E+02  0.57237140161E+02 -0.63981578463E+03  0.65607570975E+03  0.12508877085E+03 0.  0.
         23    2    1    2    0    0 -0.46344447930E+02 -0.57237140161E+02 -0.10306742694E+03  0.15492680810E+03  0.89193740278E+02 0.  0.
          5    1    3    3  502    0  0.76916437945E+02  0.17861425059E+02 -0.22989840161E+03  0.24311708372E+03  0.41800000000E+01 0.  1.
         -5    1    3    3    0  502 -0.30571990015E+02  0.39375715103E+02 -0.40991738302E+03  0.41295862603E+03  0.41800000000E+01 0.  1.
        -11    1    4    4    0    0  0.30275299061E+01 -0.36223518564E+02 -0.93639061560E+02  0.10044691675E+03  0.00000000000E+00 0. -1.
         11    1    4    4    0    0 -0.49371977836E+02 -0.21013621597E+02 -0.94283653794E+01  0.54479891353E+02  0.00000000000E+00 0.  1.
</event>
<event>
 8    1  0.6840032E-009  0.1337328E+03  0.7561462E-02  0.1222020E+00
          1   -1    0    0  501    0  0.00000000000E+00  0.00000000000E+00  0.94863140751E+03  0.94863140751E+03  0.00000000000E+00 0. -1.
         -1   -1    0    0    0  501 -0.00000000000E+00 -0.00000000000E+00 -0.23229888677E+02  0.23229888677E+02  0.00000000000E+00 0.  1.
         25    2    1    2    0    0 -0.41536215786E+02  0.88684331909E+02  0.59602309272E+03  0.61683123724E+03  0.12508828974E+03 0.  0.
         23    2    1    2    0    0  0.41536215786E+02 -0.88684331909E+02  0.32937842611E+03  0.35503005895E+03  0.89252603437E+02 0.  0.
          5    1    3    3  502    0 -0.43453148799E+01  0.97954211772E+02  0.53985767744E+03  0.54870547078E+03  0.41800000000E+01 0. -1.
         -5    1    3    3    0  502 -0.37190900906E+02 -0.92698798634E+01  0.56165415280E+02  0.68125766465E+02  0.41800000000E+01 0. -1.
        -11    1    4    4    0    0  0.47465186044E+02 -0.10401475102E+03  0.26551218346E+03  0.28908256932E+03  0.00000000000E+00 0.  1.
         11    1    4    4    0    0 -0.59289702578E+01  0.15330419111E+02  0.63866242646E+02  0.65947489627E+02  0.00000000000E+00 0. -1.
</event>
<event>
 8    1  0.6840032E-009  0.9735552E+02  0.7561462E-02  0.1285957E+00
          1   -1    0    0  501    0  0.00000000000E+00  0.00000000000E+00  0.53853067120E+03  0.53853067120E+03  0.00000000000E+00 0. -1.
         -1   -1    0    0    0  501 -0.00000000000E+00 -0.00000000000E+00 -0.30647223318E+02  0.30647223318E+02  0.00000000000E+00 0.  1.
         25    2    1    2    0    0  0.33464832232E+02  0.22995475250E+02  0.41770914515E+03  0.43792570467E+03  0.12509718617E+03 0.  0.
         23    2    1    2    0    0 -0.33464832232E+02 -0.22995475250E+02  0.90174302737E+02  0.13125218985E+03  0.86296266369E+02 0.  0.
          5    1    3    3  502    0  0.69272931800E+02 -0.78168844247E+01  0.14287823685E+03  0.15903303345E+03  0.41800000000E+01 0. -1.
         -5    1    3    3    0  502 -0.35808099568E+02  0.30812359674E+02  0.27483090830E+03  0.27889267122E+03  0.41800000000E+01 0. -1.
        -11    1    4    4    0    0 -0.14627227257E+01  0.22101926233E+02  0.68270170418E+02  0.71773608449E+02  0.00000000000E+00 0. -1.
         11    1    4    4    0    0 -0.32002109507E+02 -0.45097401482E+02  0.21904132319E+02  0.59478581405E+02  0.00000000000E+00 0.  1.
</event>
<event>
 8    1  0.6840032E-009  0.1002346E+03  0.7561462E-02  0.1279803E+00
          2   -1    0    0  501    0  0.00000000000E+00  0.00000000000E+00  0.46479312505E+03  0.46479312505E+03  0.00000000000E+00 0.  1.
         -2   -1    0    0    0  501 -0.00000000000E+00 -0.00000000000E+00 -0.32799341513E+02  0.32799341513E+02  0.00000000000E+00 0. -1.
         25    2    1    2    0    0  0.31042676135E+02  0.33396422679E+02  0.16819769505E+03  0.21451700758E+03  0.12509241836E+03 0.  0.
         23    2    1    2    0    0 -0.31042676135E+02 -0.33396422679E+02  0.26379608849E+03  0.28307545898E+03  0.92002012957E+02 0.  0.
          5    1    3    3  502    0  0.48257071818E+02 -0.18929881721E+02  0.14599103606E+03  0.15497722547E+03  0.41800000000E+01 0. -1.
         -5    1    3    3    0  502 -0.17214395683E+02  0.52326304400E+02  0.22206658990E+02  0.59539782116E+02  0.41800000000E+01 0. -1.
        -11    1    4    4    0    0 -0.51278718924E+02  0.32247263773E+01  0.83938405704E+02  0.98415252003E+02  0.00000000000E+00 0. -1.
         11    1    4    4    0    0  0.20236042789E+02 -0.36621149056E+02  0.17985768278E+03  0.18466020698E+03  0.00000000000E+00 0.  1.
</event>
<event>
 8    1  0.6840032E-009  0.1641763E+03  0.7561462E-02  0.1184061E+00
          2   -1    0    0  501    0  0.00000000000E+00  0.00000000000E+00  0.45958900869E+03  0.45958900869E+03  0.00000000000E+00 0.  1.
         -2   -1    0    0    0  501 -0.00000000000E+00 -0.00000000000E+00 -0.80013083906E+02  0.80013083906E+02  0.00000000000E+00 0. -1.
         25    2    1    2    0    0 -0.11564344935E+03  0.97902103130E+02  0.13495473675E+03  0.23836758562E+03  0.12509234880E+03 0.  0.
         23    2    1    2    0    0  0.11564344935E+03 -0.97902103130E+02  0.24462118803E+03  0.30123450697E+03  0.89131775367E+02 0.  0.
          5    1    3    3  502    0 -0.49085439409E+02  0.63551131842E+02 -0.39443818060E+01  0.80505635009E+02  0.41800000000E+01 0. -1.
         -5    1    3    3    0  502 -0.66558009944E+02  0.34350971288E+02  0.13889911856E+03  0.15786195061E+03  0.41800000000E+01 0. -1.
        -11    1    4    4    0    0  0.12855359636E+03 -0.94577296993E+02  0.20739820280E+03  0.26169621084E+03  0.00000000000E+00 0. -1.
         11    1    4    4    0    0 -0.12910147003E+02 -0.33248061367E+01  0.37222985228E+02  0.39538296129E+02  0.00000000000E+00 0.  1.
</event>
<event>
 8    1  0.6840032E-009  0.1591053E+03  0.7561462E-02  0.1189711E+00
         -1   -1    0    0    0  501 -0.00000000000E+00  0.00000000000E+00  0.45534915893E+02  0.45534915893E+02  0.00000000000E+00 0.  1.
          1   -1    0    0  501    0  0.00000000000E+00 -0.00000000000E+00 -0.81072855691E+03  0.81072855691E+03  0.00000000000E+00 0. -1.
         25    2    1    2    0    0  0.14151796360E+03  0.53407295602E+02 -0.29837942129E+03  0.35715233802E+03  0.12509132768E+03 0.  0.
         23    2    1    2    0    0 -0.14151796360E+03 -0.53407295602E+02 -0.46681421973E+03  0.49911113478E+03  0.91196139576E+02 0.  0.
          5    1    3    3  502    0  0.69819238931E+02  0.35383300783E+02 -0.39273135150E+02  0.87673004076E+02  0.41800000000E+01 0.  1.
         -5    1    3    3    0  502  0.71698724672E+02  0.18023994819E+02 -0.25910628614E+03  0.26947933395E+03  0.41800000000E+01 0.  1.
        -11    1    4    4    0    0 -0.46070364959E+02 -0.53140105928E+02 -0.28748401110E+03  0.29596183204E+03  0.00000000000E+00 0. -1.
         11    1    4    4    0    0 -0.95447598644E+02 -0.26718967385E+00 -0.17933020863E+03  0.20314930274E+03  0.00000000000E+00 0.  1.
</event>
<event>
 8    1  0.6840032E-009  0.2732255E+03  0.7561462E-02  0.1099448E+00
         -1   -1    0    0    0  501 -0.00000000000E+00  0.00000000000E+00  0.80803369160E+02  0.80803369160E+02  0.00000000000E+00 0.  1.
          1   -1    0    0  501    0  0.00000000000E+00 -0.00000000000E+00 -0.12048456930E+04  0.12048456930E+04  0.00000000000E+00 0. -1.
         25    2    1    2    0    0  0.89204853474E+02 -0.24309667355E+03 -0.29298981790E+03  0.41054263543E+03  0.12509485815E+03 0.  0.
         23    2    1    2    0    0 -0.89204853474E+02  0.24309667355E+03 -0.83105250595E+03  0.87510642674E+03  0.90052717355E+02 0.  0.
          5    1    3    3  502    0  0.63099730662E+02 -0.40111704648E+02 -0.12509289370E+03  0.14579516218E+03  0.41800000000E+01 0. -1.
         -5    1    3    3    0  502  0.26105122811E+02 -0.20298496890E+03 -0.16789692420E+03  0.26474747325E+03  0.41800000000E+01 0. -1.
        -11    1    4    4    0    0 -0.71222610184E+02  0.10072434039E+03 -0.28582476364E+03  0.31130989136E+03  0.00000000000E+00 0. -1.
         11    1    4    4    0    0 -0.17982243290E+02  0.14237233316E+03 -0.54522774232E+03  0.56379653539E+03  0.00000000000E+00 0.  1.
</event>
<event>
 8    1  0.6840032E-009  0.9014280E+02  0.7561462E-02  0.1302506E+00
          2   -1    0    0  501    0  0.00000000000E+00  0.00000000000E+00  0.10569231872E+04  0.10569231872E+04  0.00000000000E+00 0. -1.
         -2   -1    0    0    0  501 -0.00000000000E+00 -0.00000000000E+00 -0.13085182000E+02  0.13085182000E+02  0.00000000000E+00 0.  1.
         25    2    1    2    0    0  0.26287824310E+02 -0.26521004376E+02  0.72641807357E+03  0.73805518833E+03  0.12509128681E+03 0.  0.
         23    2    1    2    0    0 -0.26287824310E+02  0.26521004376E+02  0.31741993163E+03  0.33195318087E+03  0.89683264395E+02 0.  0.
          5    1    3    3  502    0 -0.34731582763E+01  0.28342496661E+02  0.43037975188E+02  0.51817947216E+02  0.41800000000E+01 0.  1.
         -5    1    3    3    0  502  0.29760982587E+02 -0.54863501037E+02  0.68338009838E+03  0.68623724112E+03  0.41800000000E+01 0.  1.
        -11    1    4    4    0    0 -0.55504877080E+02  0.19414699567E+02  0.26568814039E+03  0.27211745604E+03  0.00000000000E+00 0.  1.
         11    1    4    4    0    0  0.29217052770E+02  0.71063048091E+01  0.51731791242E+02  0.59835724828E+02  0.00000000000E+00 0. -1.
</event>
<event>
 7    1  0.6840032E-009  0.2027488E+03  0.7561462E-02  0.1147440E+00
         -2   -1    0    0    0  501 -0.00000000000E+00  0.00000000000E+00  0.15697370991E+03  0.15697370991E+03  0.00000000000E+00 0.  1.
          2   -1    0    0  501    0  0.00000000000E+00 -0.00000000000E+00 -0.31252728516E+03  0.31252728516E+03  0.00000000000E+00 0. -1.
         25    2    1    2    0    0  0.17348395769E+03 -0.53316569053E+02 -0.17446910109E+03  0.28111938179E+03  0.12509716013E+03 0.  0.
          5    1    3    3  502    0  0.19222918736E+03 -0.57633255613E+02 -0.15787884980E+03  0.25537591163E+03  0.41800000000E+01 0. -1.
         -5    1    3    3    0  502 -0.18745229671E+02  0.43166865597E+01 -0.16590251289E+02  0.25743470164E+02  0.41800000000E+01 0. -1.
        -11    1    1    2    0    0 -0.73935268283E+02  0.41337587591E+01 -0.69407654747E+01  0.74375305599E+02  0.00000000000E+00 0. -1.
         11    1    1    2    0    0 -0.99548689404E+02  0.49182810294E+02  0.25856291314E+02  0.11400630768E+03  0.00000000000E+00 0.  1.
</event>
<event>
 8    1  0.6840032E-009  0.6407277E+02  0.7561462E-02  0.1381494E+00
          2   -1    0    0  501    0  0.00000000000E+00  0.00000000000E+00  0.41643185135E+03  0.41643185135E+03  0.00000000000E+00 0. -1.
         -2   -1    0    0    0  501 -0.00000000000E+00 -0.00000000000E+00 -0.29974832574E+02  0.29974832574E+02  0.00000000000E+00 0.  1.
         25    2    1    2    0    0 -0.24257542661E+02 -0.44408247037E+02  0.23090829829E+03  0.26744568429E+03  0.12509209025E+03 0.  0.
         23    2    1    2    0    0  0.24257542661E+02  0.44408247037E+02  0.15554872048E+03  0.17896099963E+03  0.72602439115E+02 0.  0.
          5    1    3    3  502    0 -0.51367317285E+01 -0.23295852252E+02 -0.89844303609E+01  0.25831669205E+02  0.41800000000E+01 0.  1.
         -5    1    3    3    0  502 -0.19120810932E+02 -0.21112394785E+02  0.23989272866E+03  0.24161401509E+03  0.41800000000E+01 0.  1.
        -11    1    4    4    0    0 -0.17600745975E+02  0.68088598717E+01  0.70252823279E+01  0.20137065909E+02  0.00000000000E+00 0.  1.
         11    1    4    4    0    0  0.41858288636E+02  0.37599387165E+02  0.14852343815E+03  0.15882393373E+03  0.00000000000E+00 0. -1.
</event>
<event>
 8    1  0.6840032E-009  0.1152256E+03  0.7561462E-02  0.1251188E+00
          1   -1    0    0  501    0  0.00000000000E+00  0.00000000000E+00  0.19821078746E+03  0.19821078746E+03  0.00000000000E+00 0. -1.
         -1   -1    0    0    0  501 -0.00000000000E+00 -0.00000000000E+00 -0.81682808310E+02  0.81682808310E+02  0.00000000000E+00 0.  1.
         25    2    1    2    0    0 -0.14381614042E+02  0.61974805908E+02  0.29127038352E+02  0.14333005224E+03  0.12508961637E+03 0.  0.
         23    2    1    2    0    0  0.14381614042E+02 -0.61974805908E+02  0.87400940795E+02  0.13656354352E+03  0.83444410106E+02 0.  0.
          5    1    3    3  502    0  0.22109325915E+02  0.82033202537E+02  0.47721859151E+02  0.97535208267E+02  0.41800000000E+01 0. -1.
         -5    1    3    3    0  502 -0.36490939957E+02 -0.20058396629E+02 -0.18594820799E+02  0.45794843976E+02  0.41800000000E+01 0. -1.
        -11    1    4    4    0    0  0.46573100620E+02 -0.20113742524E+02  0.31758678091E+02  0.59851733256E+02  0.00000000000E+00 0. -1.
         11    1    4    4    0    0 -0.32191486577E+02 -0.41861063384E+02  0.55642262703E+02  0.76711810267E+02  0.00000000000E+00 0.  1.
</event>
<event>
 8    1  0.6840032E-009  0.1365743E+03  0.7561462E-02  0.1218014E+00
         -2   -1    0    0    0  501 -0.00000000000E+00  0.00000000000E+00  0.46938168119E+02  0.46938168119E+02  0.00000000000E+00 0.  1.
          2   -1    0    0  501    0  0.00000000000E+00 -0.00000000000E+00 -0.47633764899E+03  0.47633764899E+03  0.00000000000E+00 0. -1.
         25    2    1    2    0    0 -0.79149408485E+02  0.53218011736E+02 -0.16702647334E+03  0.22943874907E+03  0.12509001215E+03 0.  0.
         23    2    1    2    0    0  0.79149408485E+02 -0.53218011736E+02 -0.26237300753E+03  0.29383706804E+03  0.91672470459E+02 0.  0.
          5    1    3    3  502    0 -0.29078112367E+02  0.85492901641E+02 -0.65439822622E+02  0.11159935320E+03  0.41800000000E+01 0.  1.
         -5    1    3    3    0  502 -0.50071296118E+02 -0.32274889905E+02 -0.10158665072E+03  0.11783939587E+03  0.41800000000E+01 0.  1.
        -11    1    4    4    0    0  0.78505362496E+02 -0.92388994009E+01 -0.11145735979E+03  0.13664257116E+03  0.00000000000E+00 0.  1.
         11    1    4    4    0    0  0.64404598978E+00 -0.43979112335E+02 -0.15091564774E+03  0.15719449688E+03  0.00000000000E+00 0. -1.
</event>
<event>
 8    1  0.6840032E-009  0.1040363E+03  0.7561462E-02  0.1272030E+00
          3   -1    0    0  501    0  0.00000000000E+00  0.00000000000E+00  0.76681849895E+02  0.76681849895E+02  0.00000000000E+00 0. -1.
         -3   -1    0    0    0  501 -0.00000000000E+00 -0.00000000000E+00 -0.25438603477E+03  0.25438603477E+03  0.00000000000E+00 0.  1.
         25    2    1    2    0    0  0.17215940370E+02 -0.62803783576E+02 -0.16321724996E+03  0.21570618640E+03  0.12509430176E+03 0.  0.
         23    2    1    2    0    0 -0.17215940370E+02  0.62803783576E+02 -0.14486934915E+02  0.11536169827E+03  0.94115600777E+02 0.  0.
          5    1    3    3  502    0 -0.22260580523E+02 -0.69991443994E+02 -0.15893779849E+03  0.17513718014E+03  0.41800000000E+01 0. -1.
         -5    1    3    3    0  502  0.39476520892E+02  0.71876604179E+01 -0.42794514694E+01  0.40569006260E+02  0.41800000000E+01 0. -1.
        -11    1    4    4    0    0  0.24387354975E+02  0.86512445153E+01 -0.35484882639E+02  0.43917695867E+02  0.00000000000E+00 0.  1.
         11    1    4    4    0    0 -0.41603295345E+02  0.54152539061E+02  0.20997947725E+02  0.71444002400E+02  0.00000000000E+00 0. -1.
</event>
<event>
 7    1  0.6840032E-009  0.1648803E+03  0.7561462E-02  0.1183295E+00
         -1   -1    0    0    0  501 -0.00000000000E+00  0.00000000000E+00  0.35943985791E+02  0.35943985791E+02  0.00000000000E+00 0.  1.
          1   -1    0    0  501    0  0.00000000000E+00 -0.00000000000E+00 -0.11401636202E+04  0.11401636202E+04  0.00000000000E+00 0. -1.
         25    2    1    2    0    0 -0.62587916051E+02 -0.14205087395E+03 -0.51333555045E+03  0.55068745476E+03  0.12509031714E+03 0.  0.
          5    1    3    3  502    0 -0.62336777469E+02 -0.15155188554E+03 -0.34428220011E+03  0.38131555639E+03  0.41800000000E+01 0.  1.
         -5    1    3    3    0  502 -0.25113858133E+00  0.95010115974E+01 -0.16905335034E+03  0.16937189836E+03  0.41800000000E+01 0.  1.
        -11    1    1    2    0    0  0.19418894601E+02  0.54082406998E+02 -0.51362372996E+02  0.77072002531E+02  0.00000000000E+00 0.  1.
         11    1    1    2    0    0  0.43169021449E+02  0.87968466948E+02 -0.53952171091E+03  0.54834814866E+03  0.00000000000E+00 0. -1.
</event>
<event>
 8    1  0.6840032E-009  0.1368773E+03  0.7561462E-02  0.1217594E+00
         -2   -1    0    0    0  501 -0.00000000000E+00  0.00000000000E+00  0.63504938745E+02  0.63504938745E+02  0.00000000000E+00 0.  1.
          2   -1    0    0  501    0  0.00000000000E+00 -0.00000000000E+00 -0.33073510154E+03  0.33073510154E+03  0.00000000000E+00 0. -1.
         25    2    1    2    0    0 -0.17673750896E+02  0.92069321168E+02 -0.14146574183E+03  0.21084089994E+03  0.12510878308E+03 0.  0.
         23    2    1    2    0    0  0.17673750896E+02 -0.92069321168E+02 -0.12576442096E+03  0.18339914035E+03  0.95023332548E+02 0.  0.
          5    1    3    3  502    0 -0.60552289857E+02  0.87065808709E+02 -0.12611805886E+03  0.16483407422E+03  0.41800000000E+01 0. -1.
         -5    1    3    3    0  502  0.42878538961E+02  0.50035124587E+01 -0.15347682975E+02  0.46006825722E+02  0.41800000000E+01 0. -1.
        -11    1    4    4    0    0 -0.28239673993E+02 -0.95398202093E+01 -0.52139835592E+01  0.30260088920E+02  0.00000000000E+00 0.  1.
         11    1    4    4    0    0  0.45913424889E+02 -0.82529500959E+02 -0.12055043740E+03  0.15313905143E+03  0.00000000000E+00 0. -1.
</event>
<event>
 8    1  0.6840032E-009  0.2239780E+03  0.7561462E-02  0.1130952E+00
          2   -1    0    0  501    0  0.00000000000E+00  0.00000000000E+00  0.14223617356E+04  0.14223617356E+04  0.00000000000E+00 0. -1.
         -2   -1    0    0    0  501 -0.00000000000E+00 -0.00000000000E+00 -0.51958895281E+02  0.51958895281E+02  0.00000000000E+00 0.  1.
         25    2    1    2    0    0  0.13616626316E+03  0.16550713462E+03  0.10382134065E+04  0.10674589527E+04  0.12509066901E+03 0.  0.
         23    2    1    2    0    0 -0.13616626316E+03 -0.16550713462E+03  0.33218943382E+03  0.40686167816E+03  0.96191176221E+02 0.  0.
          5    1    3    3  502    0  0.10293700232E+03  0.15780773384E+03  0.99269152630E+03  0.10104223108E+04  0.41800000000E+01 0.  1.
         -5    1    3    3    0  502  0.33229260833E+02  0.76994007790E+01  0.45521880180E+02  0.57036641933E+02  0.41800000000E+01 0.  1.
        -11    1    4    4    0    0 -0.73941356877E+02 -0.37734694956E+02  0.69811110824E+02  0.10846576720E+03  0.00000000000E+00 0. -1.
         11    1    4    4    0    0 -0.62224906278E+02 -0.12777243966E+03  0.26237832300E+03  0.29839591096E+03  0.00000000000E+00 0.  1.
</event>
<event>
 8    1  0.6840032E-009  0.6680552E+02  0.7561462E-02  0.1371306E+00
          1   -1    0    0  501    0  0.00000000000E+00  0.00000000000E+00  0.12147633892E+03  0.12147633892E+03  0.00000000000E+00 0. -1.
         -1   -1    0    0    0  501 -0.00000000000E+00 -0.00000000000E+00 -0.11262662675E+03  0.11262662675E+03  0.00000000000E+00 0.  1.
         25    2    1    2    0    0 -0.18589100778E+02 -0.16739870065E+02 -0.24288590828E+02  0.12986027806E+03  0.12509187926E+03 0.  0.
         23    2    1    2    0    0  0.18589100778E+02  0.16739870065E+02  0.33138302999E+02  0.10424268762E+03  0.95617011450E+02 0.  0.
          5    1    3    3  502    0  0.61855013944E+01 -0.65306948621E+01 -0.73234587075E+02  0.73903230964E+02  0.41800000000E+01 0. -1.
         -5    1    3    3    0  502 -0.24774602173E+02 -0.10209175203E+02  0.48945996247E+02  0.55957047097E+02  0.41800000000E+01 0. -1.
        -11    1    4    4    0    0 -0.36976071725E+02  0.17710856666E+02  0.32140855621E+01  0.41124623646E+02  0.00000000000E+00 0.  1.
         11    1    4    4    0    0  0.55565172503E+02 -0.97098660092E+00  0.29924217436E+02  0.63118063971E+02  0.00000000000E+00 0. -1.
</event>
<event>
 8    1  0.6840032E-009  0.1135696E+03  0.7561462E-02  0.1254099E+00
          1   -1    0    0  501    0  0.00000000000E+00  0.00000000000E+00  0.10943381795E+03  0.10943381795E+03  0.00000000000E+00 0.  1.
         -1   -1    0    0    0  501 -0.00000000000E+00 -0.00000000000E+00 -0.22492367290E+03  0.22492367290E+03  0.00000000000E+00 0. -1.
         25    2    1    2    0    0  0.13197668964E+02 -0.59103741316E+02 -0.16687195604E+03  0.21717196796E+03  0.12509989309E+03 0.  0.
         23    2    1    2    0    0 -0.13197668964E+02  0.59103741316E+02  0.51382101085E+02  0.11718552289E+03  0.86167834825E+02 0.  0.
          5    1    3    3  502    0  0.55158699989E+02 -0.64162825550E+01 -0.27036205677E+02  0.61903793774E+02  0.41800000000E+01 0.  1.
         -5    1    3    3    0  502 -0.41961031025E+02 -0.52687458761E+02 -0.13983575036E+03  0.15526817418E+03  0.41800000000E+01 0.  1.
        -11    1    4    4    0    0  0.28066439020E+02  0.55934576902E+02  0.21623691467E+02  0.66211675142E+02  0.00000000000E+00 0. -1.
         11    1    4    4    0    0 -0.41264107984E+02  0.31691644134E+01  0.29758409618E+02  0.50973847744E+02  0.00000000000E+00 0.  1.
</event>
<event>
 8    1  0.6840032E-009  0.9176624E+02  0.7561462E-02  0.1298630E+00
          1   -1    0    0  501    0  0.00000000000E+00  0.00000000000E+00  0.49080209584E+02  0.49080209584E+02  0.00000000000E+00 0. -1.
         -1   -1    0    0    0  501 -0.00000000000E+00 -0.00000000000E+00 -0.27520339079E+03  0.27520339079E+03  0.00000000000E+00 0.  1.
         25    2    1    2    0    0 -0.87406353802E+01 -0.97193484277E+01 -0.71653523290E+02  0.14474920393E+03  0.12508892916E+03 0.  0.
         23    2    1    2    0    0  0.87406353802E+01  0.97193484277E+01 -0.15446965791E+03  0.17953439644E+03  0.90558598975E+02 0.  0.
          5    1    3    3  502    0  0.27928451400E+02 -0.58280061642E+02 -0.35785643793E+02  0.73990868925E+02  0.41800000000E+01 0. -1.
         -5    1    3    3    0  502 -0.36669086780E+02  0.48560713214E+02 -0.35867879496E+02  0.70758335006E+02  0.41800000000E+01 0. -1.
        -11    1    4    4    0    0  0.36435374142E+01 -0.23696513671E+02 -0.27933662551E+01  0.24137170921E+02  0.00000000000E+00 0. -1.
         11    1    4    4    0    0  0.50970979660E+01  0.33415862099E+02 -0.15167629166E+03  0.15539722552E+03  0.00000000000E+00 0.  1.
</event>
<event>
 8    1  0.6840032E-009  0.1094094E+03  0.7561462E-02  0.1261668E+00
         -3   -1    0    0    0  501 -0.00000000000E+00  0.00000000000E+00  0.40251563747E+02  0.40251563747E+02  0.00000000000E+00 0.  1.
          3   -1    0    0  501    0  0.00000000000E+00 -0.00000000000E+00 -0.43789177503E+03  0.43789177503E+03  0.00000000000E+00 0. -1.
         25    2    1    2    0    0 -0.42314607940E+02  0.63414021383E+02 -0.23882985533E+03  0.28017735775E+03  0.12509111817E+03 0.  0.
         23    2    1    2    0    0  0.42314607940E+02 -0.63414021383E+02 -0.15881035595E+03  0.19796598103E+03  0.90321295020E+02 0.  0.
          5    1    3    3  502    0 -0.60203486271E+02  0.51818545067E+02 -0.24500404464E+03  0.25759284862E+03  0.41800000000E+01 0. -1.
         -5    1    3    3    0  502  0.17888878331E+02  0.11595476316E+02  0.61741893066E+01  0.22584509127E+02  0.41800000000E+01 0. -1.
        -11    1    4    4    0    0  0.70325705979E+02 -0.39126716801E+02 -0.98820107523E+02  0.12744417813E+03  0.00000000000E+00 0. -1.
         11    1    4    4    0    0 -0.28011098039E+02 -0.24287304582E+02 -0.59990248430E+02  0.70521802898E+02  0.00000000000E+00 0.  1.
</event>
<event>
 8    1  0.6840032E-009  0.1204723E+03  0.7561462E-02  0.1242320E+00
          1   -1    0    0  501    0  0.00000000000E+00  0.00000000000E+00  0.13878547952E+03  0.13878547952E+03  0.00000000000E+00 0. -1.
         -1   -1    0    0    0  501 -0.00000000000E+00 -0.00000000000E+00 -0.16477483935E+03  0.16477483935E+03  0.00000000000E+00 0.  1.
         25    2    1    2    0    0  0.66984886393E+02 -0.62463229153E+02  0.37023279167E+02  0.15940127580E+03  0.12509761599E+03 0.  0.
         23    2    1    2    0    0 -0.66984886393E+02  0.62463229153E+02 -0.63012638993E+02  0.14415904307E+03  0.91774762464E+02 0.  0.
          5    1    3    3  502    0  0.70741927618E+02 -0.79410921276E+02  0.66093804825E+02  0.12528518738E+03  0.41800000000E+01 0.  1.
         -5    1    3    3    0  502 -0.37570412250E+01  0.16947692122E+02 -0.29070525658E+02  0.34116088420E+02  0.41800000000E+01 0.  1.
        -11    1    4    4    0    0 -0.81293900910E+02  0.41497181202E+02 -0.73006668635E+02  0.11687894609E+03  0.00000000000E+00 0.  1.
         11    1    4    4    0    0  0.14309014517E+02  0.20966047951E+02  0.99940296416E+01  0.27280096987E+02  0.00000000000E+00 0. -1.
</event>
<event>
 8    1  0.6840032E-009  0.1303711E+03  0.7561462E-02  0.1226906E+00
         -2   -1    0    0    0  501 -0.00000000000E+00  0.00000000000E+00  0.15827280295E+03  0.15827280295E+03  0.00000000000E+00 0.  1.
          2   -1    0    0  501    0  0.00000000000E+00 -0.00000000000E+00 -0.16963562818E+03  0.16963562818E+03  0.00000000000E+00 0. -1.
         25    2    1    2    0    0 -0.85324120240E+02  0.53799534681E+02  0.64045016547E+02  0.17298595598E+03  0.12509109239E+03 0.  0.
         23    2    1    2    0    0  0.85324120240E+02 -0.53799534681E+02 -0.75407841771E+02  0.15492247514E+03  0.90222144050E+02 0.  0.
          5    1    3    3  502    0 -0.77331654608E+02 -0.42986805755E+01  0.80646603832E+02  0.11189285307E+03  0.41800000000E+01 0.  1.
         -5    1    3    3    0  502 -0.79924656318E+01  0.58098215257E+02 -0.16601587285E+02  0.61093102911E+02  0.41800000000E+01 0.  1.
        -11    1    4    4    0    0  0.88028803941E+02 -0.19736795023E+02 -0.79835210879E+02  0.12046689295E+03  0.00000000000E+00 0.  1.
         11    1    4    4    0    0 -0.27046837010E+01 -0.34062739658E+02  0.44273691080E+01  0.34455582192E+02  0.00000000000E+00 0. -1.
</event>
<event>
 8    1  0.6840032E-009  0.9459004E+02  0.7561462E-02  0.1292102E+00
         -1   -1    0    0    0  501 -0.00000000000E+00  0.00000000000E+00  0.11300282542E+02  0.11300282542E+02  0.00000000000E+00 0. -1.
          1   -1    0    0  501    0  0.00000000000E+00 -0.00000000000E+00 -0.13721401273E+04  0.13721401273E+04  0.00000000000E+00 0.  1.
         25    2    1    2    0    0  0.20420846815E+02  0.40347225838E+02 -0.99823004639E+03  0.10070531011E+04  0.12509122008E+03 0.  0.
         23    2    1    2    0    0 -0.20420846815E+02 -0.40347225838E+02 -0.36260979836E+03  0.37638730872E+03  0.90203274202E+02 0.  0.
          5    1    3    3  502    0 -0.21122843753E+01  0.59047462024E+02 -0.93882205093E+03  0.94068877969E+03  0.41800000000E+01 0.  1.
         -5    1    3    3    0  502  0.22533131190E+02 -0.18700236186E+02 -0.59407995457E+02  0.66364321430E+02  0.41800000000E+01 0.  1.
        -11    1    4    4    0    0 -0.49211455609E+02  0.18947978437E+01 -0.19731561675E+03  0.20336865598E+03  0.00000000000E+00 0.  1.
         11    1    4    4    0    0  0.28790608794E+02 -0.42242023682E+02 -0.16529418161E+03  0.17301865273E+03  0.00000000000E+00 0. -1.
</event>
<event>
 8    1  0.6840032E-009  0.7196983E+02  0.7561462E-02  0.1353520E+00
         -1   -1    0    0    0  501 -0.00000000000E+00  0.00000000000E+00  0.65145322241E+02  0.65145322241E+02  0.00000000000E+00 0.  1.
          1   -1    0    0  501    0  0.00000000000E+00 -0.00000000000E+00 -0.19967346269E+03  0.19967346269E+03  0.00000000000E+00 0. -1.
         25    2    1    2    0    0  0.37313765531E+01 -0.17634999072E+02 -0.11123283234E+03  0.16835877022E+03  0.12508803363E+03 0.  0.
         23    2    1    2    0    0 -0.37313765531E+01  0.17634999072E+02 -0.23295308109E+02  0.96460014704E+02  0.91852853486E+02 0.  0.
          5    1    3    3  502    0 -0.29590308025E+02  0.30844532547E+02 -0.55701430853E+00  0.42950601649E+02  0.41800000000E+01 0.  1.
         -5    1    3    3    0  502  0.33321684578E+02 -0.48479531619E+02 -0.11067581803E+03  0.12540816857E+03  0.41800000000E+01 0.  1.
        -11    1    4    4    0    0 -0.18156337270E+02  0.20421743330E+02  0.30350181323E+02  0.40839119604E+02  0.00000000000E+00 0.  1.
         11    1    4    4    0    0  0.14424960717E+02 -0.27867442582E+01 -0.53645489433E+02  0.55620895100E+02  0.00000000000E+00 0. -1.
</event>
<event>
 7    1  0.6840032E-009  0.1257720E+03  0.7561462E-02  0.1233868E+00
          1   -1    0    0  501    0  0.00000000000E+00  0.00000000000E+00  0.53357872227E+02  0.53357872227E+02  0.00000000000E+00 0. -1.
         -1   -1    0    0    0  501 -0.00000000000E+00 -0.00000000000E+00 -0.50060020328E+03  0.50060020328E+03  0.00000000000E+00 0.  1.
         23    2    1    2    0    0 -0.97043266866E+02  0.21109818325E+02 -0.31952006714E+03  0.34737950303E+03  0.93361800277E+02 0.  0.
          5    1    1    2  502    0  0.12264985989E+03 -0.23113424949E+02 -0.13023791648E+03  0.18043449180E+03  0.41800000000E+01 0.  1.
         -5    1    1    2    0  502 -0.25606593028E+02  0.20036066239E+01  0.25156525627E+01  0.26144080665E+02  0.41800000000E+01 0.  1.
        -11    1    3    3    0    0 -0.54801004937E+02  0.36127914832E+01 -0.28459097039E+03  0.28984172031E+03  0.00000000000E+00 0.  1.
         11    1    3    3    0    0 -0.42242261929E+02  0.17497026842E+02 -0.34929096745E+02  0.57537782722E+02  0.00000000000E+00 0. -1.
</event>
<event>
 8    1  0.6840032E-009  0.9367415E+02  0.7561462E-02  0.1294190E+00
          1   -1    0    0  501    0  0.00000000000E+00  0.00000000000E+00  0.11220648325E+03  0.11220648325E+03  0.00000000000E+00 0.  1.
         -1   -1    0    0    0  501 -0.00000000000E+00 -0.00000000000E+00 -0.12291071123E+03  0.12291071123E+03  0.00000000000E+00 0. -1.
         25    2    1    2    0    0 -0.38812526388E+02 -0.22668687661E+02 -0.58249017311E+01  0.13304665304E+03  0.12508877168E+03 0.  0.
         23    2    1    2    0    0  0.38812526388E+02  0.22668687661E+02 -0.48793262536E+01  0.10207054144E+03  0.91511234283E+02 0.  0.
          5    1    3    3  502    0 -0.19967864229E+02  0.26738316329E+02  0.47257935725E+02  0.58003776178E+02  0.41800000000E+01 0. -1.
         -5    1    3    3    0  502 -0.18844662160E+02 -0.49407003989E+02 -0.53082837456E+02  0.75042876861E+02  0.41800000000E+01 0. -1.
        -11    1    4    4    0    0 -0.29551213996E+02  0.41212683388E+01 -0.88565269097E+01  0.31123900306E+02  0.00000000000E+00 0.  1.
         11    1    4    4    0    0  0.68363740385E+02  0.18547419322E+02  0.39772006561E+01  0.70946641132E+02  0.00000000000E+00 0. -1.
</event>
<event>
 8    1  0.6840032E-009  0.1018769E+03  0.7561462E-02  0.1276398E+00
         -1   -1    0    0    0  501 -0.00000000000E+00  0.00000000000E+00  0.12977721632E+03  0.12977721632E+03  0.00000000000E+00 0.  1.
          1   -1    0    0  501    0  0.00000000000E+00 -0.00000000000E+00 -0.14727592832E+03  0.14727592832E+03  0.00000000000E+00 0. -1.
         25    2    1    2    0    0  0.26166596288E+02 -0.13588421709E+01 -0.91287973822E+02  0.15705982437E+03  0.12509099509E+03 0.  0.
         23    2    1    2    0    0 -0.26166596288E+02  0.13588421709E+01  0.73789261824E+02  0.11999332026E+03  0.90923069317E+02 0.  0.
          5    1    3    3  502    0  0.24731485304E+02  0.57658094911E+02 -0.70176757454E+02  0.94225007089E+02  0.41800000000E+01 0.  1.
         -5    1    3    3    0  502  0.14351109836E+01 -0.59016937082E+02 -0.21111216367E+02  0.62834817280E+02  0.41800000000E+01 0.  1.
        -11    1    4    4    0    0  0.27747881644E+02 -0.40612898699E+00  0.57167611800E+02  0.63547192820E+02  0.00000000000E+00 0.  1.
         11    1    4    4    0    0 -0.53914477931E+02  0.17649711579E+01  0.16621650024E+02  0.56446127443E+02  0.00000000000E+00 0. -1.
</event>
<event>
 8    1  0.6840032E-009  0.1604571E+03  0.7561462E-02  0.1188182E+00
         -2   -1    0    0    0  501 -0.00000000000E+00  0.00000000000E+00  0.93192024413E+02  0.93192024413E+02  0.00000000000E+00 0.  1.
          2   -1    0    0  501    0  0.00000000000E+00 -0.00000000000E+00 -0.32372477093E+03  0.32372477093E+03  0.00000000000E+00 0. -1.
         25    2    1    2    0    0 -0.11333703524E+03 -0.71558577170E+02 -0.13985992528E+03  0.23059622204E+03  0.12509158803E+03 0.  0.
         23    2    1    2    0    0  0.11333703524E+03  0.71558577170E+02 -0.90672821241E+02  0.18632057331E+03  0.92346532158E+02 0.  0.
          5    1    3    3  502    0 -0.11479351084E+02 -0.80059640906E+02 -0.64661471280E+02  0.10363348818E+03  0.41800000000E+01 0. -1.
         -5    1    3    3    0  502 -0.10185768416E+03  0.85010637360E+01 -0.75198453996E+02  0.12696273386E+03  0.41800000000E+01 0. -1.
        -11    1    4    4    0    0  0.83054939082E+02  0.67605359006E+02 -0.19472912078E+02  0.10884760804E+03  0.00000000000E+00 0.  1.
         11    1    4    4    0    0  0.30282096158E+02  0.39532181643E+01 -0.71199909163E+02  0.77472965261E+02  0.00000000000E+00 0. -1.
</event>
<event>
 8    1  0.6840032E-009  0.1142391E+03  0.7561462E-02  0.1252915E+00
          2   -1    0    0  501    0  0.00000000000E+00  0.00000000000E+00  0.30419862169E+03  0.30419862169E+03  0.00000000000E+00 0. -1.
         -2   -1    0    0    0  501 -0.00000000000E+00 -0.00000000000E+00 -0.48542420371E+02  0.48542420371E+02  0.00000000000E+00 0.  1.
         25    2    1    2    0    0 -0.38749811261E+02 -0.22348379973E+02  0.19731497514E+03  0.23786937893E+03  0.12509054345E+03 0.  0.
         23    2    1    2    0    0  0.38749811261E+02  0.22348379973E+02  0.58341226186E+02  0.11487166313E+03  0.88265521906E+02 0.  0.
          5    1    3    3  502    0  0.16272355106E+02 -0.61653469537E+02  0.11176009609E+03  0.12873900467E+03  0.41800000000E+01 0. -1.
         -5    1    3    3    0  502 -0.55022166367E+02  0.39305089564E+02  0.85554879050E+02  0.10913037426E+03  0.41800000000E+01 0. -1.
        -11    1    4    4    0    0 -0.59116056565E+01 -0.28525823258E+02  0.28949239464E+02  0.41069795953E+02  0.00000000000E+00 0.  1.
         11    1    4    4    0    0  0.44661416918E+02  0.50874203232E+02  0.29391986722E+02  0.73801867178E+02  0.00000000000E+00 0. -1.
</event>
<event>
 8    1  0.6840032E-009  0.9619388E+02  0.7561462E-02  0.1288510E+00
          1   -1    0    0  501    0  0.00000000000E+00  0.00000000000E+00  0.35833178496E+02  0.35833178496E+02  0.00000000000E+00 0. -1.
         -1   -1    0    0    0  501 -0.00000000000E+00 -0.00000000000E+00 -0.41611595532E+03  0.41611595532E+03  0.00000000000E+00 0.  1.
         25    2    1    2    0    0  0.12093527848E+02 -0.76198797175E+01 -0.31774013483E+03  0.34177663769E+03  0.12509260894E+03 0.  0.
         23    2    1    2    0    0 -0.12093527848E+02  0.76198797175E+01 -0.62542641997E+02  0.11017249612E+03  0.89566069754E+02 0.  0.
          5    1    3    3  502    0 -0.47650331145E+02 -0.34067366697E+02 -0.12242963975E+03  0.13578522976E+03  0.41800000000E+01 0.  1.
         -5    1    3    3    0  502  0.59743858993E+02  0.26447486979E+02 -0.19531049507E+03  0.20599140793E+03  0.41800000000E+01 0.  1.
        -11    1    4    4    0    0 -0.33936234052E+02 -0.14682520843E+02  0.34820867343E+01  0.37139861711E+02  0.00000000000E+00 0. -1.
         11    1    4    4    0    0  0.21842706204E+02  0.22302400560E+02 -0.66024728731E+02  0.73032634411E+02  0.00000000000E+00 0.  1.
</event>
<event>
 8    1  0.6840032E-009  0.1205091E+03  0.7561462E-02  0.1242260E+00
          1   -1    0    0  501    0  0.00000000000E+00  0.00000000000E+00  0.41673252517E+03  0.41673252517E+03  0.00000000000E+00 0. -1.
         -1   -1    0    0    0  501 -0.00000000000E+00 -0.00000000000E+00 -0.37968314961E+02  0.37968314961E+02  0.00000000000E+00 0.  1.
         25    2    1    2    0    0  0.59250088261E+02  0.14966667248E+02  0.24282812241E+03  0.27990243300E+03  0.12508117716E+03 0.  0.
         23    2    1    2    0    0 -0.59250088261E+02 -0.14966667248E+02  0.13593608780E+03  0.17479840714E+03  0.91330657954E+02 0.  0.
          5    1    3    3  502    0 -0.25851733779E+02  0.35462380927E+02  0.12849774007E+03  0.13584930697E+03  0.41800000000E+01 0.  1.
         -5    1    3    3    0  502  0.85101822040E+02 -0.20495713679E+02  0.11433038234E+03  0.14405312603E+03  0.41800000000E+01 0.  1.
        -11    1    4    4    0    0 -0.10913661475E+02 -0.48989201431E+02  0.71499496430E+02  0.87356899289E+02  0.00000000000E+00 0.  1.
         11    1    4    4    0    0 -0.48336426786E+02  0.34022534183E+02  0.64436591374E+02  0.87441507847E+02  0.00000000000E+00 0. -1.
</event>
<event>
 8    1  0.6840032E-009  0.5383224E+02  0.7561462E-02  0.1425703E+00
         -2   -1    0    0    0  501 -0.00000000000E+00  0.00000000000E+00  0.25779499817E+03  0.25779499817E+03  0.00000000000E+00 0.  1.
          2   -1    0    0  501    0  0.00000000000E+00 -0.00000000000E+00 -0.50745462953E+02  0.50745462953E+02  0.00000000000E+00 0. -1.
         25    2    1    2    0    0  0.36951178340E+01 -0.31686792848E+02  0.13303323850E+03  0.18537461598E+03  0.12509276145E+03 0.  0.
         23    2    1    2    0    0 -0.36951178340E+01  0.31686792848E+02  0.74016296715E+02  0.12316584514E+03  0.93132735885E+02 0.  0.
          5    1    3    3  502    0 -0.29297296233E+01  0.63354083194E+01 -0.23098278769E+02  0.24489254712E+02  0.41800000000E+01 0.  1.
         -5    1    3    3    0  502  0.66248474573E+01 -0.38022201167E+02  0.15613151727E+03  0.16088536127E+03  0.41800000000E+01 0.  1.
        -11    1    4    4    0    0  0.23911217301E+02  0.11661857137E+02  0.83607871114E+02  0.87738368670E+02  0.00000000000E+00 0.  1.
         11    1    4    4    0    0 -0.27606335135E+02  0.20024935710E+02 -0.95915743986E+01  0.35427476473E+02  0.00000000000E+00 0. -1.
</event>
<event>
 8    1  0.6840032E-009  0.1900098E+03  0.7561462E-02  0.1158453E+00
         -1   -1    0    0    0  501 -0.00000000000E+00  0.00000000000E+00  0.15803967462E+03  0.15803967462E+03  0.00000000000E+00 0.  1.
          1   -1    0    0  501    0  0.00000000000E+00 -0.00000000000E+00 -0.40565037532E+03  0.40565037532E+03  0.00000000000E+00 0. -1.
         25    2    1    2    0    0 -0.10634060046E+03  0.15101952051E+03  0.22109059794E+02  0.22416911806E+03  0.12509102321E+03 0.  0.
         23    2    1    2    0    0  0.10634060046E+03 -0.15101952051E+03 -0.26971976050E+03  0.33952093188E+03  0.91708751479E+02 0.  0.
          5    1    3    3  502    0 -0.72270364606E+02  0.11695205107E+03  0.71522125619E+02  0.15502798039E+03  0.41800000000E+01 0. -1.
         -5    1    3    3    0  502 -0.34070235850E+02  0.34067469435E+02 -0.49413065826E+02  0.69141137674E+02  0.41800000000E+01 0. -1.
        -11    1    4    4    0    0  0.85186385210E+02 -0.69637201942E+02 -0.20767596520E+03  0.23502205565E+03  0.00000000000E+00 0.  1.
         11    1    4    4    0    0  0.21154215246E+02 -0.81382318566E+02 -0.62043795305E+02  0.10449887623E+03  0.00000000000E+00 0. -1.
</event>
<event>
 8    1  0.6840032E-009  0.1378302E+03  0.7561462E-02  0.1216279E+00
          1   -1    0    0  501    0  0.00000000000E+00  0.00000000000E+00  0.88777300754E+03  0.88777300754E+03  0.00000000000E+00 0. -1.
         -1   -1    0    0    0  501 -0.00000000000E+00 -0.00000000000E+00 -0.39743346891E+02  0.39743346891E+02  0.00000000000E+00 0.  1.
         25    2    1    2    0    0  0.50483880921E+02 -0.97174438014E+02  0.70971153538E+03  0.72892467436E+03  0.12509685771E+03 0.  0.
         23    2    1    2    0    0 -0.50483880921E+02  0.97174438014E+02  0.13831812527E+03  0.19859168007E+03  0.91188036373E+02 0.  0.
          5    1    3    3  502    0  0.38031239505E+02 -0.10990726803E+03  0.69699827537E+03  0.70664704840E+03  0.41800000000E+01 0. -1.
         -5    1    3    3    0  502  0.12452641416E+02  0.12732830016E+02  0.12713260006E+02  0.22277625961E+02  0.41800000000E+01 0. -1.
        -11    1    4    4    0    0  0.13046767411E+02  0.71149182820E+02  0.85346351939E+02  0.11187682577E+03  0.00000000000E+00 0. -1.
         11    1    4    4    0    0 -0.63530648332E+02  0.26025255195E+02  0.52971773331E+02  0.86714854295E+02  0.00000000000E+00 0.  1.
</event>
<event>
 8    1  0.6840032E-009  0.1392185E+03  0.7561462E-02  0.1214384E+00
         -1   -1    0    0    0  501 -0.00000000000E+00  0.00000000000E+00  0.15973803565E+03  0.15973803565E+03  0.00000000000E+00 0.  1.
          1   -1    0    0  501    0  0.00000000000E+00 -0.00000000000E+00 -0.19952032266E+03  0.19952032266E+03  0.00000000000E+00 0. -1.
         25    2    1    2    0    0 -0.26761592608E+02  0.11354971459E+03  0.58610290606E+02  0.18081108296E+03  0.12509101100E+03 0.  0.
         23    2    1    2    0    0  0.26761592608E+02 -0.11354971459E+03 -0.98392577617E+02  0.17844727535E+03  0.92480323462E+02 0.  0.
          5    1    3    3  502    0 -0.37975198846E+02  0.11488384706E+03  0.87588225888E+02  0.14943086615E+03  0.41800000000E+01 0. -1.
         -5    1    3    3    0  502  0.11213606238E+02 -0.13341324663E+01 -0.28977935282E+02  0.31380216817E+02  0.41800000000E+01 0. -1.
        -11    1    4    4    0    0 -0.29197468641E+01 -0.11554091266E+03 -0.92697732362E+02  0.14815902606E+03  0.00000000000E+00 0. -1.
         11    1    4    4    0    0  0.29681339472E+02  0.19911980615E+01 -0.56948452547E+01  0.30288249290E+02  0.00000000000E+00 0.  1.
</event>
<event>
 8    1  0.6840032E-009  0.7049689E+02  0.7561462E-02  0.1358411E+00
         -1   -1    0    0    0  501 -0.00000000000E+00  0.00000000000E+00  0.29166725340E+03  0.29166725340E+03  0.00000000000E+00 0.  1.
          1   -1    0    0  501    0  0.00000000000E+00 -0.00000000000E+00 -0.62550211181E+02  0.62550211181E+02  0.00000000000E+00 0. -1.
         25    2    1    2    0    0  0.50579620650E+02 -0.42611753232E+02  0.18882852240E+03  0.23596009280E+03  0.12508754926E+03 0.  0.
         23    2    1    2    0    0 -0.50579620650E+02  0.42611753232E+02  0.40288519818E+02  0.11825737179E+03  0.89373271252E+02 0.  0.
          5    1    3    3  502    0  0.17417798003E+02 -0.23034128220E+02 -0.11911593736E+02  0.31516808459E+02  0.41800000000E+01 0. -1.
         -5    1    3    3    0  502  0.33161822647E+02 -0.19577625012E+02  0.20074011614E+03  0.20444328434E+03  0.41800000000E+01 0. -1.
        -11    1    4    4    0    0 -0.37757661189E+02  0.11565832295E+02  0.65345968707E+02  0.76351195678E+02  0.00000000000E+00 0.  1.
         11    1    4    4    0    0 -0.12821959461E+02  0.31045920936E+02 -0.25057448890E+02  0.41906176109E+02  0.00000000000E+00 0. -1.
</event>
<event>
 8    1  0.6840032E-009  0.9104919E+02  0.7561462E-02  0.1300331E+00
          2   -1    0    0  501    0  0.00000000000E+00  0.00000000000E+00  0.17960636157E+03  0.17960636157E+03  0.00000000000E+00 0. -1.
         -2   -1    0    0    0  501 -0.00000000000E+00 -0.00000000000E+00 -0.79158402131E+02  0.79158402131E+02  0.00000000000E+00 0.  1.
         25    2    1    2    0    0  0.47249434411E+02  0.20647360059E+01  0.36776250927E+02  0.13869746783E+03  0.12509085803E+03 0.  0.
         23    2    1    2    0    0 -0.47249434411E+02 -0.20647360059E+01  0.63671708508E+02  0.12006729587E+03  0.90140428699E+02 0.  0.
          5    1    3    3  502    0 -0.95739709020E+01  0.28366377842E+02  0.63624721926E+02  0.70440683919E+02  0.41800000000E+01 0. -1.
         -5    1    3    3    0  502  0.56823405314E+02 -0.26301641836E+02 -0.26848470999E+02  0.68256783910E+02  0.41800000000E+01 0. -1.
        -11    1    4    4    0    0 -0.17901897927E+02  0.36499758349E+02  0.76785390010E+00  0.40660790801E+02  0.00000000000E+00 0.  1.
         11    1    4    4    0    0 -0.29347536485E+02 -0.38564494355E+02  0.62903854608E+02  0.79406505068E+02  0.00000000000E+00 0. -1.
</event>
<event>
 8    1  0.6840032E-009  0.1646721E+03  0.7561462E-02  0.1183521E+00
         -2   -1    0    0    0  501 -0.00000000000E+00  0.00000000000E+00  0.92848347105E+02  0.92848347105E+02  0.00000000000E+00 0.  1.
          2   -1    0    0  501    0  0.00000000000E+00 -0.00000000000E+00 -0.33338510771E+03  0.33338510771E+03  0.00000000000E+00 0. -1.
         25    2    1    2    0    0  0.91886175244E+01 -0.13760286628E+03 -0.10972181908E+03  0.21611586073E+03  0.12509279825E+03 0.  0.
         23    2    1    2    0    0 -0.91886175244E+01  0.13760286628E+03 -0.13081494152E+03  0.21011759409E+03  0.89542587173E+02 0.  0.
          5    1    3    3  502    0  0.64374556648E+02 -0.51257955738E+02 -0.61321163263E+02  0.10270939117E+03  0.41800000000E+01 0.  1.
         -5    1    3    3    0  502 -0.55185939123E+02 -0.86344910547E+02 -0.48400655816E+02  0.11340646956E+03  0.41800000000E+01 0.  1.
        -11    1    4    4    0    0 -0.21400165333E+02  0.12508450544E+03 -0.66107158717E+02  0.14308828398E+03  0.00000000000E+00 0.  1.
         11    1    4    4    0    0  0.12211547808E+02  0.12518360843E+02 -0.64707782808E+02  0.67029310111E+02  0.00000000000E+00 0. -1.
</event>
<event>
 8    1  0.6840032E-009  0.1288559E+03  0.7561462E-02  0.1229163E+00
          2   -1    0    0  501    0  0.00000000000E+00  0.00000000000E+00  0.36259790925E+02  0.36259790925E+02  0.00000000000E+00 0. -1.
         -2   -1    0    0    0  501 -0.00000000000E+00 -0.00000000000E+00 -0.50465056629E+03  0.50465056629E+03  0.00000000000E+00 0.  1.
         25    2    1    2    0    0 -0.17808119671E+02 -0.84489402482E+02 -0.25740664807E+03  0.29893337173E+03  0.12508952796E+03 0.  0.
         23    2    1    2    0    0  0.17808119671E+02  0.84489402482E+02 -0.21098412729E+03  0.24197698548E+03  0.81135511805E+02 0.  0.
          5    1    3    3  502    0  0.45740195500E+02 -0.49417364055E+02 -0.66845271660E+02  0.94973702138E+02  0.41800000000E+01 0.  1.
         -5    1    3    3    0  502 -0.63548315171E+02 -0.35072038428E+02 -0.19056137641E+03  0.20395966960E+03  0.41800000000E+01 0.  1.
        -11    1    4    4    0    0  0.39743005422E+02  0.11568148510E+02 -0.60227645047E+02  0.73080077776E+02  0.00000000000E+00 0. -1.
         11    1    4    4    0    0 -0.21934885751E+02  0.72921253972E+02 -0.15075648224E+03  0.16889690770E+03  0.00000000000E+00 0.  1.
</event>
<event>
 8    1  0.6840032E-009  0.7309776E+02  0.7561462E-02  0.1349865E+00
         -2   -1    0    0    0  501 -0.00000000000E+00  0.00000000000E+00  0.45162656631E+03  0.45162656631E+03  0.00000000000E+00 0.  1.
          2   -1    0    0  501    0  0.00000000000E+00 -0.00000000000E+00 -0.25267089798E+02  0.25267089798E+02  0.00000000000E+00 0. -1.
         25    2    1    2    0    0 -0.42628867540E+02  0.15251453332E+02  0.25365247870E+03  0.28641357732E+03  0.12507329907E+03 0.  0.
         23    2    1    2    0    0  0.42628867540E+02 -0.15251453332E+02  0.17270699781E+03  0.19048007879E+03  0.66371124358E+02 0.  0.
          5    1    3    3  502    0 -0.19099433159E+02  0.33016840282E+02  0.82977418695E+01  0.39258438702E+02  0.41800000000E+01 0.  1.
         -5    1    3    3    0  502 -0.23529434382E+02 -0.17765386950E+02  0.24535473683E+03  0.24715513861E+03  0.41800000000E+01 0.  1.
        -11    1    4    4    0    0  0.41065681276E+02 -0.37578543134E+02  0.14168083664E+03  0.15222350855E+03  0.00000000000E+00 0.  1.
         11    1    4    4    0    0  0.15631862650E+01  0.22327089802E+02  0.31026161167E+02  0.38256570247E+02  0.00000000000E+00 0. -1.
</event>
<event>
 8    1  0.6840032E-009  0.6221823E+02  0.7561462E-02  0.1388752E+00
          2   -1    0    0  501    0  0.00000000000E+00  0.00000000000E+00  0.97018782267E+02  0.97018782267E+02  0.00000000000E+00 0. -1.
         -2   -1    0    0    0  501 -0.00000000000E+00 -0.00000000000E+00 -0.14560332602E+03  0.14560332602E+03  0.00000000000E+00 0.  1.
         25    2    1    2    0    0 -0.24484914615E+02 -0.41897501903E+02 -0.36245965936E+02  0.13896526241E+03  0.12507062964E+03 0.  0.
         23    2    1    2    0    0  0.24484914615E+02  0.41897501903E+02 -0.12338577821E+02  0.10365684588E+03  0.90761167283E+02 0.  0.
          5    1    3    3  502    0  0.90443214735E+01  0.21412134071E+01 -0.72144569431E+02  0.72860797718E+02  0.41800000000E+01 0.  1.
         -5    1    3    3    0  502 -0.33529236089E+02 -0.44038715310E+02  0.35898603494E+02  0.66104464688E+02  0.41800000000E+01 0.  1.
        -11    1    4    4    0    0  0.29171423017E+02  0.17766140652E+02  0.35877520734E+02  0.49535887683E+02  0.00000000000E+00 0. -1.
         11    1    4    4    0    0 -0.46865084021E+01  0.24131361251E+02 -0.48216098554E+02  0.54120958201E+02  0.00000000000E+00 0.  1.
</event>
<event>
 8    1  0.6840032E-009  0.1072959E+03  0.7561462E-02  0.1265661E+00
         -1   -1    0    0    0  501 -0.00000000000E+00  0.00000000000E+00  0.12222102264E+03  0.12222102264E+03  0.00000000000E+00 0.  1.
          1   -1    0    0  501    0  0.00000000000E+00 -0.00000000000E+00 -0.25915220757E+03  0.25915220757E+03  0.00000000000E+00 0. -1.
         25    2    1    2    0    0  0.78483870664E+02 -0.70331339541E+02  0.27099206812E+02  0.16580461299E+03  0.12510230775E+03 0.  0.
         23    2    1    2    0    0 -0.78483870664E+02  0.70331339541E+02 -0.16403039175E+03  0.21556861722E+03  0.91965450225E+02 0.  0.
          5    1    3    3  502    0  0.59539872441E+02 -0.46089098100E+02  0.76523975325E+02  0.10743645831E+03  0.41800000000E+01 0. -1.
         -5    1    3    3    0  502  0.18943998224E+02 -0.24242241441E+02 -0.49424768513E+02  0.58368154685E+02  0.41800000000E+01 0. -1.
        -11    1    4    4    0    0 -0.47366085951E+02  0.26186358948E+02 -0.15043329440E+03  0.15987322339E+03  0.00000000000E+00 0. -1.
         11    1    4    4    0    0 -0.31117784713E+02  0.44144980593E+02 -0.13597097348E+02  0.55695393825E+02  0.00000000000E+00 0.  1.
</event>
<event>
 8    1  0.6840032E-009  0.1301439E+03  0.7561462E-02  0.1227242E+00
          3   -1    0    0  501    0  0.00000000000E+00  0.00000000000E+00  0.34758360388E+03  0.34758360388E+03  0.00000000000E+00 0. -1.
         -3   -1    0    0    0  501 -0.00000000000E+00 -0.00000000000E+00 -0.13726733679E+03  0.13726733679E+03  0.00000000000E+00 0.  1.
         25    2    1    2    0    0 -0.63594089349E+02  0.56770312966E+02 -0.75983922875E+02  0.16937767879E+03  0.12509262530E+03 0.  0.
         23    2    1    2    0    0  0.63594089349E+02 -0.56770312966E+02  0.28630018997E+03  0.31547326188E+03  0.10143226089E+03 0.  0.
          5    1    3    3  502    0 -0.29977602001E+02 -0.26246617137E+02 -0.68561701678E+02  0.79408569247E+02  0.41800000000E+01 0.  1.
         -5    1    3    3    0  502 -0.33616487347E+02  0.83016930103E+02 -0.74222211972E+01  0.89969109548E+02  0.41800000000E+01 0.  1.
        -11    1    4    4    0    0  0.57032635611E+02 -0.84567421658E+02  0.24369049841E+03  0.26417689026E+03  0.00000000000E+00 0. -1.
         11    1    4    4    0    0  0.65614537379E+01  0.27797108692E+02  0.42609691554E+02  0.51296371617E+02  0.00000000000E+00 0.  1.
</event>
<event>
 8    1  0.6840032E-009  0.1095787E+03  0.7561462E-02  0.1261352E+00
         -1   -1    0    0    0  501 -0.00000000000E+00  0.00000000000E+00  0.12613258178E+02  0.12613258178E+02  0.00000000000E+00 0.  1.
          1   -1    0    0  501    0  0.00000000000E+00 -0.00000000000E+00 -0.11551158802E+04  0.11551158802E+04  0.00000000000E+00 0. -1.
         25    2    1    2    0    0 -0.85017055720E+01 -0.31294666738E+02 -0.83082461586E+03  0.84081409157E+03  0.12508860502E+03 0.  0.
         23    2    1    2    0    0  0.85017055720E+01  0.31294666738E+02 -0.31167800614E+03  0.32691504678E+03  0.93159181709E+02 0.  0.
          5    1    3    3  502    0 -0.51991754082E+02  0.21444557889E+02 -0.27025889967E+03  0.27608034484E+03  0.41800000000E+01 0. -1.
         -5    1    3    3    0  502  0.43490048510E+02 -0.52739224627E+02 -0.56056571619E+03  0.56473374673E+03  0.41800000000E+01 0. -1.
        -11    1    4    4    0    0 -0.18224915672E+02  0.55377711691E+02 -0.14270028520E+03  0.15414995913E+03  0.00000000000E+00 0.  1.
         11    1    4    4    0    0  0.26726621244E+02 -0.24083044953E+02 -0.16897772094E+03  0.17276508765E+03  0.00000000000E+00 0. -1.
</event>
<event>
 8    1  0.6840032E-009  0.1277304E+03  0.7561462E-02  0.1230863E+00
          1   -1    0    0  501    0  0.00000000000E+00  0.00000000000E+00  0.46605692336E+03  0.46605692336E+03  0.00000000000E+00 0. -1.
         -1   -1    0    0    0  501 -0.00000000000E+00 -0.00000000000E+00 -0.96576886654E+02  0.96576886654E+02  0.00000000000E+00 0.  1.
         25    2    1    2    0    0 -0.38028956144E+02 -0.10650647812E+03  0.36501895218E+01  0.16867236243E+03  0.12508881076E+03 0.  0.
         23    2    1    2    0    0  0.38028956144E+02  0.10650647812E+03  0.36582984719E+03  0.39396144758E+03  0.92651571490E+02 0.  0.
          5    1    3    3  502    0  0.43904537181E+01 -0.24043874605E+02 -0.53985197355E+02  0.59407557797E+02  0.41800000000E+01 0. -1.
         -5    1    3    3    0  502 -0.42419409862E+02 -0.82462603519E+02  0.57635386877E+02  0.10926480464E+03  0.41800000000E+01 0. -1.
        -11    1    4    4    0    0 -0.13451664153E+02  0.77677954320E+02  0.27136370121E+03  0.28258285544E+03  0.00000000000E+00 0.  1.
         11    1    4    4    0    0  0.51480620297E+02  0.28828523804E+02  0.94466145975E+02  0.11137859214E+03  0.00000000000E+00 0. -1.
</event>
<event>
 8    1  0.6840032E-009  0.1822661E+03  0.7561462E-02  0.1165628E+00
          2   -1    0    0  501    0  0.00000000000E+00  0.00000000000E+00  0.12440749684E+03  0.12440749684E+03  0.00000000000E+00 0. -1.
         -2   -1    0    0    0  501 -0.00000000000E+00 -0.00000000000E+00 -0.35078918082E+03  0.35078918082E+03  0.00000000000E+00 0.  1.
         25    2    1    2    0    0  0.17474273583E+03 -0.61286885272E+01 -0.15614578372E+03  0.26571162690E+03  0.12509427785E+03 0.  0.
         23    2    1    2    0    0 -0.17474273583E+03  0.61286885272E+01 -0.70235900253E+02  0.20948505076E+03  0.91533164804E+02 0.  0.
          5    1    3    3  502    0  0.12951998039E+02 -0.22395220040E+02 -0.83592481337E+02  0.87604083638E+02  0.41800000000E+01 0.  1.
         -5    1    3    3    0  502  0.16179073779E+03  0.16266531513E+02 -0.72553302382E+02  0.17810754327E+03  0.41800000000E+01 0.  1.
        -11    1    4    4    0    0 -0.62468298386E+02 -0.59127423959E+01  0.19002031783E+02  0.65561620158E+02  0.00000000000E+00 0. -1.
         11    1    4    4    0    0 -0.11227443744E+03  0.12041430923E+02 -0.89237932035E+02  0.14392343060E+03  0.00000000000E+00 0.  1.
</event>
<event>
 8    1  0.6840032E-009  0.8986375E+02  0.7561462E-02  0.1303182E+00
         -2   -1    0    0    0  501 -0.00000000000E+00  0.00000000000E+00  0.25525378133E+02  0.25525378133E+02  0.00000000000E+00 0.  1.
          2   -1    0    0  501    0  0.00000000000E+00 -0.00000000000E+00 -0.48333061293E+03  0.48333061293E+03  0.00000000000E+00 0. -1.
         25    2    1    2    0    0  0.38581820063E+01 -0.28541640545E+02 -0.20144071132E+03  0.23886185915E+03  0.12508843579E+03 0.  0.
         23    2    1    2    0    0 -0.38581820063E+01  0.28541640545E+02 -0.25636452348E+03  0.26999413191E+03  0.79652693316E+02 0.  0.
          5    1    3    3  502    0 -0.41218766179E+02  0.21939546490E+02 -0.33128940579E+02  0.57404960495E+02  0.41800000000E+01 0.  1.
         -5    1    3    3    0  502  0.45076948185E+02 -0.50481187035E+02 -0.16831177074E+03  0.18145689866E+03  0.41800000000E+01 0.  1.
        -11    1    4    4    0    0 -0.15898615607E+02  0.43222166443E+02 -0.24157919001E+03  0.24592971902E+03  0.00000000000E+00 0. -1.
         11    1    4    4    0    0  0.12040433601E+02 -0.14680525898E+02 -0.14785333469E+02  0.24064412890E+02  0.00000000000E+00 0.  1.
</event>
<event>
 8    1  0.6840032E-009  0.1050727E+03  0.7561462E-02  0.1269976E+00
          1   -1    0    0  501    0  0.00000000000E+00  0.00000000000E+00  0.14450589009E+02  0.14450589009E+02  0.00000000000E+00 0. -1.
         -1   -1    0    0    0  501 -0.00000000000E+00 -0.00000000000E+00 -0.84286503622E+03  0.84286503622E+03  0.00000000000E+00 0.  1.
         25    2    1    2    0    0 -0.77303451269E+01 -0.28915968576E+02 -0.49640087846E+03  0.51279502435E+03  0.12509601668E+03 0.  0.
         23    2    1    2    0    0  0.77303451269E+01  0.28915968576E+02 -0.33201356875E+03  0.34452060088E+03  0.86980130598E+02 0.  0.
          5    1    3    3  502    0 -0.60167741766E+02 -0.47873132116E+01 -0.15258643183E+03  0.16414373913E+03  0.41800000000E+01 0.  1.
         -5    1    3    3    0  502  0.52437396639E+02 -0.24128655364E+02 -0.34381444663E+03  0.34865128522E+03  0.41800000000E+01 0.  1.
        -11    1    4    4    0    0 -0.17285824542E+01  0.59618125927E+02 -0.22682453148E+03  0.23453502300E+03  0.00000000000E+00 0.  1.
         11    1    4    4    0    0  0.94589275811E+01 -0.30702157351E+02 -0.10518903728E+03  0.10998557787E+03  0.00000000000E+00 0. -1.
</event>
<event>
 8    1  0.6840032E-009  0.1634517E+03  0.7561462E-02  0.1184854E+00
         -1   -1    0    0    0  501 -0.00000000000E+00  0.00000000000E+00  0.31346230046E+03  0.31346230046E+03  0.00000000000E+00 0.  1.
          1   -1    0    0  501    0  0.00000000000E+00 -0.00000000000E+00 -0.97943164439E+02  0.97943164439E+02  0.00000000000E+00 0. -1.
         25    2    1    2    0    0  0.13148460476E+03 -0.89861923590E+01  0.16311472267E+03  0.24417745581E+03  0.12508902524E+03 0.  0.
         23    2    1    2    0    0 -0.13148460476E+03  0.89861923590E+01  0.52404413359E+02  0.16722800909E+03  0.88600403734E+02 0.  0.
          5    1    3    3  502    0  0.10065224184E+03  0.51822302233E+02  0.10585622242E+03  0.15504656404E+03  0.41800000000E+01 0.  1.
         -5    1    3    3    0  502  0.30832362925E+02 -0.60808494592E+02  0.57258500243E+02  0.89130891773E+02  0.41800000000E+01 0.  1.
        -11    1    4    4    0    0 -0.55725843117E+02  0.34297869556E+02  0.57612270678E+02  0.87183067048E+02  0.00000000000E+00 0.  1.
         11    1    4    4    0    0 -0.75758761645E+02 -0.25311677197E+02 -0.52078573191E+01  0.80044942041E+02  0.00000000000E+00 0. -1.
</event>
<event>
 8    1  0.6840032E-009  0.2104189E+03  0.7561462E-02  0.1141235E+00
          1   -1    0    0  501    0  0.00000000000E+00  0.00000000000E+00  0.53076413350E+03  0.53076413350E+03  0.00000000000E+00 0. -1.
         -1   -1    0    0    0  501 -0.00000000000E+00 -0.00000000000E+00 -0.10132554374E+03  0.10132554374E+03  0.00000000000E+00 0.  1.
         25    2    1    2    0    0 -0.87215417393E+02  0.17754959623E+03  0.15263821525E+03  0.27942240820E+03  0.12509224315E+03 0.  0.
         23    2    1    2    0    0  0.87215417393E+02 -0.17754959623E+03  0.27680037451E+03  0.35266726905E+03  0.92872854885E+02 0.  0.
          5    1    3    3  502    0 -0.31824770322E+02  0.15388002102E+03  0.58786397577E+02  0.16782487841E+03  0.41800000000E+01 0.  1.
         -5    1    3    3    0  502 -0.55390647071E+02  0.23669575209E+02  0.93851817670E+02  0.11159752978E+03  0.41800000000E+01 0.  1.
        -11    1    4    4    0    0  0.12179125152E+02 -0.76166469111E+02  0.17263828127E+03  0.18908632490E+03  0.00000000000E+00 0. -1.
         11    1    4    4    0    0  0.75036292242E+02 -0.10138312712E+03  0.10416209324E+03  0.16358094414E+03  0.00000000000E+00 0.  1.
</event>
<event>
 8    1  0.6840032E-009  0.1375261E+03  0.7561462E-02  0.1216697E+00
         -2   -1    0    0    0  501 -0.00000000000E+00  0.00000000000E+00  0.24484948084E+02  0.24484948084E+02  0.00000000000E+00 0.  1.
          2   -1    0    0  501    0  0.00000000000E+00 -0.00000000000E+00 -0.78422108557E+03  0.78422108557E+03  0.00000000000E+00 0. -1.
         25    2    1    2    0    0  0.69912942303E+02 -0.45718529257E+02 -0.45546896176E+03  0.47966429377E+03  0.12509139128E+03 0.  0.
         23    2    1    2    0    0 -0.69912942303E+02  0.45718529257E+02 -0.30426717573E+03  0.32904173988E+03  0.93337821604E+02 0.  0.
          5    1    3    3  502    0  0.29247353614E+02 -0.86902027136E+02 -0.25771609915E+03  0.27357344567E+03  0.41800000000E+01 0. -1.
         -5    1    3    3    0  502  0.40665588689E+02  0.41183497879E+02 -0.19775286261E+03  0.20609084810E+03  0.41800000000E+01 0. -1.
        -11    1    4    4    0    0 -0.24476757170E+01  0.56813145627E+02 -0.14125042762E+03  0.15226755379E+03  0.00000000000E+00 0. -1.
         11    1    4    4    0    0 -0.67465266586E+02 -0.11094616369E+02 -0.16301674810E+03  0.17677418610E+03  0.00000000000E+00 0.  1.
</event>
<event>
 7    1  0.6840032E-009  0.1806358E+03  0.7561462E-02  0.1167189E+00
          3   -1    0    0  501    0  0.00000000000E+00  0.00000000000E+00  0.10197536283E+04  0.10197536283E+04  0.00000000000E+00 0. -1.
         -3   -1    0    0    0  501 -0.00000000000E+00 -0.00000000000E+00 -0.35992741843E+02  0.35992741843E+02  0.00000000000E+00 0.  1.
         23    2    1    2    0    0 -0.18287239965E+02  0.14758838432E+03  0.60939052715E+03  0.63391782986E+03  0.91532759664E+02 0.  0.
          5    1    1    2  502    0 -0.38450217076E+02 -0.12874387053E+03  0.26219628833E+03  0.29464855236E+03  0.41800000000E+01 0. -1.
         -5    1    1    2    0  502  0.56737457041E+02 -0.18844513786E+02  0.11217407099E+03  0.12717998794E+03  0.41800000000E+01 0. -1.
        -11    1    3    3    0    0  0.26054209284E+02  0.93020642202E+02  0.25642574717E+03  0.27401792918E+03  0.00000000000E+00 0.  1.
         11    1    3    3    0    0 -0.44341449248E+02  0.54567742116E+02  0.35296477998E+03  0.35989990068E+03  0.00000000000E+00 0. -1.
</event>
<event>
 8    1  0.6840032E-009  0.1288749E+03  0.7561462E-02  0.1229135E+00
         -1   -1    0    0    0  501 -0.00000000000E+00  0.00000000000E+00  0.65021796031E+02  0.65021796031E+02  0.00000000000E+00 0.  1.
          1   -1    0    0  501    0  0.00000000000E+00 -0.00000000000E+00 -0.25913583109E+03  0.25913583109E+03  0.00000000000E+00 0. -1.
         25    2    1    2    0    0  0.53481405916E+02 -0.47750885610E+02 -0.97476791868E+02  0.17403881360E+03  0.12508947130E+03 0.  0.
         23    2    1    2    0    0 -0.53481405916E+02  0.47750885610E+02 -0.96637243186E+02  0.15011881352E+03  0.89757972048E+02 0.  0.
          5    1    3    3  502    0  0.85937998036E+02 -0.63724408471E+02 -0.79952971580E+02  0.13362668074E+03  0.41800000000E+01 0.  1.
         -5    1    3    3    0  502 -0.32456592120E+02  0.15973522861E+02 -0.17523820288E+02  0.40412132858E+02  0.41800000000E+01 0.  1.
        -11    1    4    4    0    0 -0.56301214035E+02 -0.93703724519E+01 -0.40537430899E+02  0.70006527450E+02  0.00000000000E+00 0.  1.
         11    1    4    4    0    0  0.28198081190E+01  0.57121258062E+02 -0.56099812287E+02  0.80112286068E+02  0.00000000000E+00 0. -1.
</event>
<event>
 8    1  0.6840032E-009  0.1073291E+03  0.7561462E-02  0.1265597E+00
          2   -1    0    0  501    0  0.00000000000E+00  0.00000000000E+00  0.23336893262E+04  0.23336893262E+04  0.00000000000E+00 0. -1.
         -2   -1    0    0    0  501 -0.00000000000E+00 -0.00000000000E+00 -0.13356162651E+02  0.13356162651E+02  0.00000000000E+00 0.  1.
         25    2    1    2    0    0 -0.39647241347E+02  0.53608867008E+02  0.20299984778E+04  0.20349441815E+04  0.12513268029E+03 0.  0.
         23    2    1    2    0    0  0.39647241347E+02 -0.53608867008E+02  0.29033468581E+03  0.31210130739E+03  0.93097700948E+02 0.  0.
          5    1    3    3  502    0 -0.69523147631E+02  0.69828928582E+01  0.15772578325E+04  0.15788103026E+04  0.41800000000E+01 0.  1.
         -5    1    3    3    0  502  0.29875906285E+02  0.46625974150E+02  0.45274064524E+03  0.45613387892E+03  0.41800000000E+01 0.  1.
        -11    1    4    4    0    0  0.36297553744E+02 -0.89754286996E+00  0.31921633557E+02  0.48345720389E+02  0.00000000000E+00 0.  1.
         11    1    4    4    0    0  0.33496876029E+01 -0.52711324138E+02  0.25841305226E+03  0.26375558701E+03  0.00000000000E+00 0. -1.
</event>
<event>
 8    1  0.6840032E-009  0.1534332E+03  0.7561462E-02  0.1196317E+00
         -1   -1    0    0    0  501 -0.00000000000E+00  0.00000000000E+00  0.51826813695E+02  0.51826813695E+02  0.00000000000E+00 0.  1.
          1   -1    0    0  501    0  0.00000000000E+00 -0.00000000000E+00 -0.10635754184E+04  0.10635754184E+04  0.00000000000E+00 0. -1.
         25    2    1    2    0    0  0.82151359063E+02 -0.10404220667E+03 -0.90832859149E+03  0.92643549117E+03  0.12509301582E+03 0.  0.
         23    2    1    2    0    0 -0.82151359063E+02  0.10404220667E+03 -0.10342001324E+03  0.18896674096E+03  0.86250237585E+02 0.  0.
          5    1    3    3  502    0  0.14875197770E+02 -0.77942445302E+02 -0.72547578549E+03  0.72981428050E+03  0.41800000000E+01 0. -1.
         -5    1    3    3    0  502  0.67276161293E+02 -0.26099761372E+02 -0.18285280600E+03  0.19662121067E+03  0.41800000000E+01 0. -1.
        -11    1    4    4    0    0 -0.92293163731E+01  0.76687398198E+02 -0.33099597408E+02  0.84034044718E+02  0.00000000000E+00 0.  1.
         11    1    4    4    0    0 -0.72922042690E+02  0.27354808475E+02 -0.70320415836E+02  0.10493269624E+03  0.00000000000E+00 0. -1.
</event>
<event>
 8    1  0.6840032E-009  0.7872308E+02  0.7561462E-02  0.1332715E+00
          2   -1    0    0  501    0  0.00000000000E+00  0.00000000000E+00  0.62482386691E+03  0.62482386691E+03  0.00000000000E+00 0. -1.
         -2   -1    0    0    0  501 -0.00000000000E+00 -0.00000000000E+00 -0.23888269792E+02  0.23888269792E+02  0.00000000000E+00 0.  1.
         25    2    1    2    0    0 -0.59564751191E+02  0.25773656830E+01  0.30442359912E+03  0.33447834569E+03  0.12508970236E+03 0.  0.
         23    2    1    2    0    0  0.59564751191E+02 -0.25773656830E+01  0.29651199799E+03  0.31423379101E+03  0.85257891475E+02 0.  0.
          5    1    3    3  502    0 -0.26746215766E+02  0.10683937391E+01  0.29982037393E+03  0.30104190829E+03  0.41800000000E+01 0.  1.
         -5    1    3    3    0  502 -0.32818535425E+02  0.15089719439E+01  0.46032251891E+01  0.33436437399E+02  0.41800000000E+01 0.  1.
        -11    1    4    4    0    0 -0.18282309544E+02 -0.61996002724E+01  0.11632628373E+03  0.11791726834E+03  0.00000000000E+00 0. -1.
         11    1    4    4    0    0  0.77847060735E+02  0.36222345895E+01  0.18018571426E+03  0.19631652267E+03  0.00000000000E+00 0.  1.
</event>
<event>
 8    1  0.6840032E-009  0.1297285E+03  0.7561462E-02  0.1227859E+00
         -2   -1    0    0    0  501 -0.00000000000E+00  0.00000000000E+00  0.59650813533E+02  0.59650813533E+02  0.00000000000E+00 0.  1.
          2   -1    0    0  501    0  0.00000000000E+00 -0.00000000000E+00 -0.61210940132E+03  0.61210940132E+03  0.00000000000E+00 0. -1.
         25    2    1    2    0    0  0.69662782114E+02 -0.42610232998E+02 -0.51254114380E+03  0.53386707234E+03  0.12508833547E+03 0.  0.
         23    2    1    2    0    0 -0.69662782114E+02  0.42610232998E+02 -0.39917443987E+02  0.13789314252E+03  0.10369465392E+03 0.  0.
          5    1    3    3  502    0  0.34506456704E+02  0.37619359945E+02 -0.10287623381E+03  0.11492129341E+03  0.41800000000E+01 0. -1.
         -5    1    3    3    0  502  0.35156325410E+02 -0.80229592944E+02 -0.40966491000E+03  0.41894577893E+03  0.41800000000E+01 0. -1.
        -11    1    4    4    0    0 -0.90684721668E+02  0.27875476728E+02 -0.56017833613E+01  0.95037576377E+02  0.00000000000E+00 0.  1.
         11    1    4    4    0    0  0.21021939554E+02  0.14734756270E+02 -0.34315660626E+02  0.42855566140E+02  0.00000000000E+00 0. -1.
</event>
<event>
 8    1  0.6840032E-009  0.4592966E+03  0.7561462E-02  0.1024985E+00
         -2   -1    0    0    0  501 -0.00000000000E+00  0.00000000000E+00  0.19392261891E+03  0.19392261891E+03  0.00000000000E+00 0. -1.
          2   -1    0    0  501    0  0.00000000000E+00 -0.00000000000E+00 -0.13234380344E+04  0.13234380344E+04  0.00000000000E+00 0.  1.
         25    2    1    2    0    0 -0.28936960443E+03 -0.34170645795E+03 -0.88319449625E+03  0.99808797242E+03  0.12509600753E+03 0.  0.
         23    2    1    2    0    0  0.28936960443E+03  0.34170645795E+03 -0.24632091927E+03  0.51927268093E+03  0.92043742405E+02 0.  0.
          5    1    3    3  502    0  0.12486826036E+02 -0.12779435178E+02 -0.30909921182E+02  0.35946215592E+02  0.41800000000E+01 0.  1.
         -5    1    3    3    0  502 -0.30185643046E+03 -0.32892702278E+03 -0.85228457507E+03  0.96214175683E+03  0.41800000000E+01 0.  1.
        -11    1    4    4    0    0  0.20597447553E+03  0.18781537416E+03 -0.12033987610E+03  0.30361453378E+03  0.00000000000E+00 0.  1.
         11    1    4    4    0    0  0.83395128893E+02  0.15389108380E+03 -0.12598104316E+03  0.21565814715E+03  0.00000000000E+00 0. -1.
</event>
<event>
 8    1  0.6840032E-009  0.1286087E+03  0.7561462E-02  0.1229535E+00
          3   -1    0    0  501    0  0.00000000000E+00  0.00000000000E+00  0.40685333040E+02  0.40685333040E+02  0.00000000000E+00 0. -1.
         -3   -1    0    0    0  501 -0.00000000000E+00 -0.00000000000E+00 -0.44425534821E+03  0.44425534821E+03  0.00000000000E+00 0.  1.
         25    2    1    2    0    0  0.70703426446E+02  0.12573381592E+02 -0.28332862829E+03  0.31792542099E+03  0.12507756500E+03 0.  0.
         23    2    1    2    0    0 -0.70703426446E+02 -0.12573381592E+02 -0.12024138688E+03  0.16701526026E+03  0.90989238953E+02 0.  0.
          5    1    3    3  502    0  0.98102375120E+02 -0.19114634960E+02 -0.17302970221E+03  0.19986544354E+03  0.41800000000E+01 0. -1.
         -5    1    3    3    0  502 -0.27398948674E+02  0.31688016551E+02 -0.11029892608E+03  0.11805997745E+03  0.41800000000E+01 0. -1.
        -11    1    4    4    0    0  0.20442057645E+02 -0.12456857414E+02 -0.33640815148E+02  0.41288684421E+02  0.00000000000E+00 0.  1.
         11    1    4    4    0    0 -0.91145484091E+02 -0.11652417784E+00 -0.86600571732E+02  0.12572657584E+03  0.00000000000E+00 0. -1.
</event>
<event>
 8    1  0.6840032E-009  0.1060959E+03  0.7561462E-02  0.1267975E+00
         -2   -1    0    0    0  501 -0.00000000000E+00  0.00000000000E+00  0.12090193120E+02  0.12090193120E+02  0.00000000000E+00 0.  1.
          2   -1    0    0  501    0  0.00000000000E+00 -0.00000000000E+00 -0.15419441984E+04  0.15419441984E+04  0.00000000000E+00 0. -1.
         25    2    1    2    0    0  0.25629122676E+02 -0.39140988165E+02 -0.12130785008E+04  0.12204119107E+04  0.12512759025E+03 0.  0.
         23    2    1    2    0    0 -0.25629122676E+02  0.39140988165E+02 -0.31677550453E+03  0.33362248085E+03  0.93639578032E+02 0.  0.
          5    1    3    3  502    0 -0.38145453923E+02 -0.36237425439E+02 -0.85756631497E+03  0.85918896852E+03  0.41800000000E+01 0.  1.
         -5    1    3    3    0  502  0.63774576599E+02 -0.29035627266E+01 -0.35551218578E+03  0.36122294215E+03  0.41800000000E+01 0.  1.
        -11    1    4    4    0    0  0.30628790653E+02  0.11121727585E+02 -0.18224385777E+03  0.18513411176E+03  0.00000000000E+00 0. -1.
         11    1    4    4    0    0 -0.56257913329E+02  0.28019260580E+02 -0.13453164676E+03  0.14848836909E+03  0.00000000000E+00 0.  1.
</event>
<event>
 8    1  0.6840032E-009  0.8367762E+02  0.7561462E-02  0.1318927E+00
          1   -1    0    0  501    0  0.00000000000E+00  0.00000000000E+00  0.66590863449E+02  0.66590863449E+02  0.00000000000E+00 0. -1.
         -1   -1    0    0    0  501 -0.00000000000E+00 -0.00000000000E+00 -0.19146096078E+03  0.19146096078E+03  0.00000000000E+00 0.  1.
         25    2    1    2    0    0 -0.26156039177E+02 -0.17766907751E+02 -0.75522626915E+02  0.14950449276E+03  0.12509246494E+03 0.  0.
         23    2    1    2    0    0  0.26156039177E+02  0.17766907751E+02 -0.49347470419E+02  0.10854733147E+03  0.91364921801E+02 0.  0.
          5    1    3    3  502    0 -0.53193011140E+02 -0.38654110534E+01  0.13640312018E+02  0.55208408315E+02  0.41800000000E+01 0.  1.
         -5    1    3    3    0  502  0.27036971963E+02 -0.13901496697E+02 -0.89162938934E+02  0.94296084450E+02  0.41800000000E+01 0.  1.
        -11    1    4    4    0    0 -0.27318366739E+02  0.10215790114E+02 -0.45963888021E+02  0.54436518358E+02  0.00000000000E+00 0.  1.
         11    1    4    4    0    0  0.53474405916E+02  0.75511176364E+01 -0.33835823986E+01  0.54110813110E+02  0.00000000000E+00 0. -1.
</event>
<event>
 8    1  0.6840032E-009  0.1194270E+03  0.7561462E-02  0.1244045E+00
         -1   -1    0    0    0  501 -0.00000000000E+00  0.00000000000E+00  0.15288580275E+03  0.15288580275E+03  0.00000000000E+00 0.  1.
          1   -1    0    0  501    0  0.00000000000E+00 -0.00000000000E+00 -0.10708222027E+03  0.10708222027E+03  0.00000000000E+00 0. -1.
         25    2    1    2    0    0  0.16433077352E+02  0.58499246516E+02  0.55285605587E+02  0.14965429158E+03  0.12509077076E+03 0.  0.
         23    2    1    2    0    0 -0.16433077352E+02 -0.58499246516E+02 -0.94820231050E+01  0.11031373145E+03  0.91580580417E+02 0.  0.
          5    1    3    3  502    0  0.62623338455E+02  0.87129105448E+01  0.22844750362E+01  0.63405745447E+02  0.41800000000E+01 0.  1.
         -5    1    3    3    0  502 -0.46190261103E+02  0.49786335971E+02  0.53001130551E+02  0.86248546132E+02  0.41800000000E+01 0.  1.
        -11    1    4    4    0    0  0.33879623332E+02 -0.54167114236E+01  0.77480247546E+01  0.35173875637E+02  0.00000000000E+00 0. -1.
         11    1    4    4    0    0 -0.50312700684E+02 -0.53082535092E+02 -0.17230047860E+02  0.75139855810E+02  0.00000000000E+00 0.  1.
</event>
<event>
 8    1  0.6840032E-009  0.1014748E+03  0.7561462E-02  0.1277225E+00
          4   -1    0    0  501    0  0.00000000000E+00  0.00000000000E+00  0.28834018353E+03  0.28834018353E+03  0.00000000000E+00 0.  1.
         -4   -1    0    0    0  501 -0.00000000000E+00 -0.00000000000E+00 -0.51575937177E+02  0.51575937177E+02  0.00000000000E+00 0. -1.
         25    2    1    2    0    0  0.23747996927E+02 -0.31856722317E+02  0.76540123313E+02  0.15193374671E+03  0.12508658920E+03 0.  0.
         23    2    1    2    0    0 -0.23747996927E+02  0.31856722317E+02  0.16022412304E+03  0.18798237399E+03  0.89926554559E+02 0.  0.
          5    1    3    3  502    0 -0.35394450682E+02 -0.53773008242E+02  0.21156795663E+02  0.67892458765E+02  0.41800000000E+01 0.  1.
         -5    1    3    3    0  502  0.59142447609E+02  0.21916285925E+02  0.55383327650E+02  0.84041287945E+02  0.41800000000E+01 0.  1.
        -11    1    4    4    0    0 -0.38710315202E+02  0.42024815140E+02  0.15999446221E+03  0.16989055750E+03  0.00000000000E+00 0.  1.
         11    1    4    4    0    0  0.14962318275E+02 -0.10168092824E+02  0.22966082488E+00  0.18091816490E+02  0.00000000000E+00 0. -1.
</event>
<event>
 8    1  0.6840032E-009  0.1226209E+03  0.7561462E-02  0.1238835E+00
          1   -1    0    0  501    0  0.00000000000E+00  0.00000000000E+00  0.95919762535E+02  0.95919762535E+02  0.00000000000E+00 0. -1.
         -1   -1    0    0    0  501 -0.00000000000E+00 -0.00000000000E+00 -0.19031612194E+03  0.19031612194E+03  0.00000000000E+00 0.  1.
         25    2    1    2    0    0  0.71957238876E+02 -0.12060877974E+02 -0.88021234168E+02  0.16947444911E+03  0.12510212721E+03 0.  0.
         23    2    1    2    0    0 -0.71957238876E+02  0.12060877974E+02 -0.63751252377E+01  0.11676143537E+03  0.90935590190E+02 0.  0.
          5    1    3    3  502    0  0.41221183376E+02 -0.60664565500E+02 -0.12596125827E+02  0.74535295344E+02  0.41800000000E+01 0.  1.
         -5    1    3    3    0  502  0.30736055500E+02  0.48603687526E+02 -0.75425108341E+02  0.94939153762E+02  0.41800000000E+01 0.  1.
        -11    1    4    4    0    0  0.11094282891E+02 -0.21776708404E+02 -0.11342753175E+02  0.26943759785E+02  0.00000000000E+00 0.  1.
         11    1    4    4    0    0 -0.83051521768E+02  0.33837586378E+02  0.49676279369E+01  0.89817675583E+02  0.00000000000E+00 0. -1.
</event>
<event>
 8    1  0.6840032E-009  0.6921175E+02  0.7561462E-02  0.1362794E+00
         -2   -1    0    0    0  501 -0.00000000000E+00  0.00000000000E+00  0.38312474536E+02  0.38312474536E+02  0.00000000000E+00 0.  1.
          2   -1    0    0  501    0  0.00000000000E+00 -0.00000000000E+00 -0.34029989386E+03  0.34029989386E+03  0.00000000000E+00 0. -1.
         25    2    1    2    0    0 -0.22851526190E+02 -0.15161759442E+02 -0.20768707636E+03  0.24399540649E+03  0.12509102886E+03 0.  0.
         23    2    1    2    0    0  0.22851526190E+02  0.15161759442E+02 -0.94300342969E+02  0.13461696191E+03  0.92071171121E+02 0.  0.
          5    1    3    3  502    0  0.14560267621E+02  0.22532566837E+02 -0.18348480245E+03  0.18548278381E+03  0.41800000000E+01 0.  1.
         -5    1    3    3    0  502 -0.37411793811E+02 -0.37694326279E+02 -0.24202273909E+02  0.58512622674E+02  0.41800000000E+01 0.  1.
        -11    1    4    4    0    0  0.30004355220E+02 -0.10167084854E+02  0.48353231161E+01  0.32047016963E+02  0.00000000000E+00 0.  1.
         11    1    4    4    0    0 -0.71528290299E+01  0.25328844297E+02 -0.99135666085E+02  0.10256994495E+03  0.00000000000E+00 0. -1.
</event>
<event>
 8    1  0.6840032E-009  0.9405945E+02  0.7561462E-02  0.1293309E+00
         -2   -1    0    0    0  501 -0.00000000000E+00  0.00000000000E+00  0.27345605440E+02  0.27345605440E+02  0.00000000000E+00 0.  1.
          2   -1    0    0  501    0  0.00000000000E+00 -0.00000000000E+00 -0.62681446533E+03  0.62681446533E+03  0.00000000000E+00 0. -1.
         25    2    1    2    0    0 -0.14934908063E+02 -0.20611356132E+02 -0.15969539326E+03  0.20444523450E+03  0.12508939125E+03 0.  0.
         23    2    1    2    0    0  0.14934908063E+02  0.20611356132E+02 -0.43977346662E+03  0.44971483626E+03  0.90525424753E+02 0.  0.
          5    1    3    3  502    0  0.19475709233E+02  0.28060006933E+02 -0.51067173052E+00  0.34415119131E+02  0.41800000000E+01 0. -1.
         -5    1    3    3    0  502 -0.34410617295E+02 -0.48671363064E+02 -0.15918472153E+03  0.17003011537E+03  0.41800000000E+01 0. -1.
        -11    1    4    4    0    0 -0.22936515238E+02  0.43874782799E+02 -0.24106543957E+03  0.24609678269E+03  0.00000000000E+00 0. -1.
         11    1    4    4    0    0  0.37871423301E+02 -0.23263426667E+02 -0.19870802706E+03  0.20361805357E+03  0.00000000000E+00 0.  1.
</event>
<event>
 8    1  0.6840032E-009  0.1194465E+03  0.7561462E-02  0.1244013E+00
          2   -1    0    0  501    0  0.00000000000E+00  0.00000000000E+00  0.21306617852E+02  0.21306617852E+02  0.00000000000E+00 0. -1.
         -2   -1    0    0    0  501 -0.00000000000E+00 -0.00000000000E+00 -0.70272503100E+03  0.70272503100E+03  0.00000000000E+00 0.  1.
         25    2    1    2    0    0 -0.56870917623E+02 -0.87260371164E+01 -0.43513139665E+03  0.45639215976E+03  0.12507608143E+03 0.  0.
         23    2    1    2    0    0  0.56870917623E+02  0.87260371164E+01 -0.24628701649E+03  0.26763948909E+03  0.87539457557E+02 0.  0.
          5    1    3    3  502    0 -0.72047327117E+02  0.41697358889E+02 -0.29807114938E+03  0.30950503966E+03  0.41800000000E+01 0.  1.
         -5    1    3    3    0  502  0.15176409494E+02 -0.50423396006E+02 -0.13706024727E+03  0.14688712010E+03  0.41800000000E+01 0.  1.
        -11    1    4    4    0    0  0.67022039915E+02  0.34240194277E+02 -0.20159560155E+03  0.21518627117E+03  0.00000000000E+00 0. -1.
         11    1    4    4    0    0 -0.10151122292E+02 -0.25514157160E+02 -0.44691414948E+02  0.52453217913E+02  0.00000000000E+00 0.  1.
</event>
<event>
 8    1  0.6840032E-009  0.1635839E+03  0.7561462E-02  0.1184709E+00
          2   -1    0    0  501    0  0.00000000000E+00  0.00000000000E+00  0.23389998340E+04  0.23389998340E+04  0.00000000000E+00 0. -1.
         -2   -1    0    0    0  501 -0.00000000000E+00 -0.00000000000E+00 -0.18931860386E+02  0.18931860386E+02  0.00000000000E+00 0.  1.
         25    2    1    2    0    0  0.94737185493E+02  0.12056460496E+03  0.17379091915E+04  0.17491388034E+04  0.12508891813E+03 0.  0.
         23    2    1    2    0    0 -0.94737185493E+02 -0.12056460496E+03  0.58215878206E+03  0.60879289091E+03  0.90603411704E+02 0.  0.
          5    1    3    3  502    0  0.67769207900E+02  0.10175341226E+03  0.16596225632E+04  0.16641246790E+04  0.41800000000E+01 0.  1.
         -5    1    3    3    0  502  0.26967977593E+02  0.18811192704E+02  0.78286628286E+02  0.85014124443E+02  0.41800000000E+01 0.  1.
        -11    1    4    4    0    0 -0.65315845380E+02 -0.22137735495E+02  0.15844714365E+03  0.17280548695E+03  0.00000000000E+00 0. -1.
         11    1    4    4    0    0 -0.29421340113E+02 -0.98426869470E+02  0.42371163841E+03  0.43598740396E+03  0.00000000000E+00 0.  1.
</event>
<event>
 8    1  0.6840032E-009  0.9001229E+02  0.7561462E-02  0.1302822E+00
          2   -1    0    0  501    0  0.00000000000E+00  0.00000000000E+00  0.91664204699E+03  0.91664204699E+03  0.00000000000E+00 0. -1.
         -2   -1    0    0    0  501 -0.00000000000E+00 -0.00000000000E+00 -0.14590522520E+02  0.14590522520E+02  0.00000000000E+00 0.  1.
         25    2    1    2    0    0  0.40470730439E+02 -0.40990152163E+01  0.54962360001E+03  0.56514443094E+03  0.12508974452E+03 0.  0.
         23    2    1    2    0    0 -0.40470730439E+02  0.40990152163E+01  0.35242792447E+03  0.36608813858E+03  0.90334939618E+02 0.  0.
          5    1    3    3  502    0  0.16898812544E+01  0.35210188069E+02  0.44806606932E+03  0.44947000781E+03  0.41800000000E+01 0. -1.
         -5    1    3    3    0  502  0.38780849185E+02 -0.39309203286E+02  0.10155753068E+03  0.11567442312E+03  0.41800000000E+01 0. -1.
        -11    1    4    4    0    0 -0.30910626964E+02  0.40820947124E+02  0.27655710939E+03  0.28125726895E+03  0.00000000000E+00 0. -1.
         11    1    4    4    0    0 -0.95601034754E+01 -0.36721931907E+02  0.75870815079E+02  0.84830869631E+02  0.00000000000E+00 0.  1.
</event>
<event>
 8    1  0.6840032E-009  0.1579135E+03  0.7561462E-02  0.1191073E+00
         -1   -1    0    0    0  501 -0.00000000000E+00  0.00000000000E+00  0.72687344620E+02  0.72687344620E+02  0.00000000000E+00 0.  1.
          1   -1    0    0  501    0  0.00000000000E+00 -0.00000000000E+00 -0.46899614306E+03  0.46899614306E+03  0.00000000000E+00 0. -1.
         25    2    1    2    0    0 -0.13609658395E+03 -0.62803683590E+02 -0.20450587345E+03  0.28272678284E+03  0.12508076841E+03 0.  0.
         23    2    1    2    0    0  0.13609658395E+03  0.62803683590E+02 -0.19180292500E+03  0.25895670484E+03  0.88338157729E+02 0.  0.
          5    1    3    3  502    0 -0.80818711015E+02 -0.73366737853E+02 -0.53722479071E+02  0.12172887673E+03  0.41800000000E+01 0. -1.
         -5    1    3    3    0  502 -0.55277872933E+02  0.10563054264E+02 -0.15078339438E+03  0.16099790611E+03  0.41800000000E+01 0. -1.
        -11    1    4    4    0    0  0.75843153967E+02  0.30037973778E+02 -0.36867295122E+02  0.89519055636E+02  0.00000000000E+00 0.  1.
         11    1    4    4    0    0  0.60253429981E+02  0.32765709811E+02 -0.15493562988E+03  0.16943764921E+03  0.00000000000E+00 0. -1.
</event>
<event>
 8    1  0.6840032E-009  0.1187930E+03  0.7561462E-02  0.1245102E+00
          2   -1    0    0  501    0  0.00000000000E+00  0.00000000000E+00  0.42759672833E+03  0.42759672833E+03  0.00000000000E+00 0. -1.
         -2   -1    0    0    0  501 -0.00000000000E+00 -0.00000000000E+00 -0.48295529265E+02  0.48295529265E+02  0.00000000000E+00 0.  1.
         25    2    1    2    0    0  0.64484464909E+02 -0.27939709917E+02  0.10462180296E+03  0.17757336682E+03  0.12509078841E+03 0.  0.
         23    2    1    2    0    0 -0.64484464909E+02  0.27939709917E+02  0.27467939610E+03  0.29831889077E+03  0.92771312081E+02 0.  0.
          5    1    3    3  502    0  0.63449438156E+02  0.39688645390E+02  0.64023728960E+02  0.98577533167E+02  0.41800000000E+01 0.  1.
         -5    1    3    3    0  502  0.10350267526E+01 -0.67628355308E+02  0.40598074004E+02  0.78995833655E+02  0.41800000000E+01 0.  1.
        -11    1    4    4    0    0  0.12484655025E+02  0.95770939937E+01  0.38952320343E+01  0.16209878872E+02  0.00000000000E+00 0.  1.
         11    1    4    4    0    0 -0.76969119933E+02  0.18362615924E+02  0.27078416407E+03  0.28210901190E+03  0.00000000000E+00 0. -1.
</event>
<event>
 8    1  0.6840032E-009  0.9118609E+02  0.7561462E-02  0.1300005E+00
          2   -1    0    0  501    0  0.00000000000E+00  0.00000000000E+00  0.18099892840E+02  0.18099892840E+02  0.00000000000E+00 0.  1.
         -2   -1    0    0    0  501 -0.00000000000E+00 -0.00000000000E+00 -0.15115400465E+04  0.15115400465E+04  0.00000000000E+00 0. -1.
         25    2    1    2    0    0  0.69907775582E+01  0.24586758164E+02 -0.13466491670E+04  0.13526889897E+04  0.12510053683E+03 0.  0.
         23    2    1    2    0    0 -0.69907775582E+01 -0.24586758164E+02 -0.14679098674E+03  0.17695094968E+03  0.95449804396E+02 0.  0.
          5    1    3    3  502    0  0.60064154383E+02 -0.36285815509E+01 -0.45104779369E+03  0.45506313171E+03  0.41800000000E+01 0.  1.
         -5    1    3    3    0  502 -0.53073376824E+02  0.28215339715E+02 -0.89560137327E+03  0.89762585798E+03  0.41800000000E+01 0.  1.
        -11    1    4    4    0    0 -0.32328500817E+01 -0.42942774023E+02 -0.15160745311E+03  0.15760505385E+03  0.00000000000E+00 0. -1.
         11    1    4    4    0    0 -0.37579274766E+01  0.18356015859E+02  0.48164663776E+01  0.19345895831E+02  0.00000000000E+00 0.  1.
</event>
<event>
 8    1  0.6840032E-009  0.2676191E+03  0.7561462E-02  0.1102650E+00
         -1   -1    0    0    0  501 -0.00000000000E+00  0.00000000000E+00  0.38199169877E+03  0.38199169877E+03  0.00000000000E+00 0.  1.
          1   -1    0    0  501    0  0.00000000000E+00 -0.00000000000E+00 -0.20937515256E+03  0.20937515256E+03  0.00000000000E+00 0. -1.
         25    2    1    2    0    0  0.14374388422E+03  0.21604417851E+03  0.12361145371E+03  0.31347307517E+03  0.12509270982E+03 0.  0.
         23    2    1    2    0    0 -0.14374388422E+03 -0.21604417851E+03  0.49005092503E+02  0.27789377615E+03  0.86522022704E+02 0.  0.
          5    1    3    3  502    0  0.27658904655E+02  0.18576690269E+02  0.70808491956E+02  0.78367233977E+02  0.41800000000E+01 0. -1.
         -5    1    3    3    0  502  0.11608497957E+03  0.19746748825E+03  0.52802961757E+02  0.23510584120E+03  0.41800000000E+01 0. -1.
        -11    1    4    4    0    0 -0.63084631746E+02 -0.30147770214E+02  0.23838363365E+01  0.69958855673E+02  0.00000000000E+00 0. -1.
         11    1    4    4    0    0 -0.80659252476E+02 -0.18589640830E+03  0.46621256167E+02  0.20793492048E+03  0.00000000000E+00 0.  1.
</event>
<event>
 8    1  0.6840032E-009  0.1271655E+03  0.7561462E-02  0.1231723E+00
         -1   -1    0    0    0  501 -0.00000000000E+00  0.00000000000E+00  0.28877300996E+02  0.28877300996E+02  0.00000000000E+00 0.  1.
          1   -1    0    0  501    0  0.00000000000E+00 -0.00000000000E+00 -0.75253471478E+03  0.75253471478E+03  0.00000000000E+00 0. -1.
         25    2    1    2    0    0 -0.43811452949E+02 -0.87724203964E+02 -0.42749204123E+03  0.45608305824E+03  0.12508929342E+03 0.  0.
         23    2    1    2    0    0  0.43811452949E+02  0.87724203964E+02 -0.29616537256E+03  0.32532895754E+03  0.92249787755E+02 0.  0.
          5    1    3    3  502    0 -0.44757601250E+02 -0.10940078572E+02 -0.40385944041E+02  0.61411929337E+02  0.41800000000E+01 0. -1.
         -5    1    3    3    0  502  0.94614830072E+00 -0.76784125392E+02 -0.38710609719E+03  0.39467112890E+03  0.41800000000E+01 0. -1.
        -11    1    4    4    0    0 -0.15956377702E+02  0.65469891128E+02 -0.11529022457E+03  0.13353931449E+03  0.00000000000E+00 0.  1.
         11    1    4    4    0    0  0.59767830651E+02  0.22254312836E+02 -0.18087514799E+03  0.19178964305E+03  0.00000000000E+00 0. -1.
</event>
<event>
 8    1  0.6840032E-009  0.1432796E+03  0.7561462E-02  0.1208983E+00
          1   -1    0    0  501    0  0.00000000000E+00  0.00000000000E+00  0.65181373411E+02  0.65181373411E+02  0.00000000000E+00 0. -1.
         -1   -1    0    0    0  501 -0.00000000000E+00 -0.00000000000E+00 -0.39636682990E+03  0.39636682990E+03  0.00000000000E+00 0.  1.
         25    2    1    2    0    0  0.97089453653E+02 -0.29484400612E+02 -0.92274112360E+02  0.18562798849E+03  0.12509015312E+03 0.  0.
         23    2    1    2    0    0 -0.97089453653E+02  0.29484400612E+02 -0.23891134413E+03  0.27592021482E+03  0.93582277732E+02 0.  0.
          5    1    3    3  502    0  0.76280176868E+02  0.40289618178E+02 -0.63619241679E+02  0.10726974889E+03  0.41800000000E+01 0. -1.
         -5    1    3    3    0  502  0.20809276785E+02 -0.69774018789E+02 -0.28654870681E+02  0.78358239593E+02  0.41800000000E+01 0. -1.
        -11    1    4    4    0    0 -0.43147816410E+02 -0.25594041036E+02 -0.15037871762E+03  0.15852617358E+03  0.00000000000E+00 0.  1.
         11    1    4    4    0    0 -0.53941637242E+02  0.55078441648E+02 -0.88532626506E+02  0.11739404124E+03  0.00000000000E+00 0. -1.
</event>
<event>
 8    1  0.6840032E-009  0.1201501E+03  0.7561462E-02  0.1242850E+00
         -2   -1    0    0    0  501 -0.00000000000E+00  0.00000000000E+00  0.15291595080E+02  0.15291595080E+02  0.00000000000E+00 0.  1.
          2   -1    0    0  501    0  0.00000000000E+00 -0.00000000000E+00 -0.10353202625E+04  0.10353202625E+04  0.00000000000E+00 0. -1.
         25    2    1    2    0    0 -0.54747047290E+01  0.60927685947E+02 -0.55686238964E+03  0.57400878576E+03  0.12509280487E+03 0.  0.
         23    2    1    2    0    0  0.54747047290E+01 -0.60927685947E+02 -0.46316627780E+03  0.47660307184E+03  0.94262038421E+02 0.  0.
          5    1    3    3  502    0  0.58269135304E+02  0.43447432741E+02 -0.27559833917E+03  0.28505243114E+03  0.41800000000E+01 0. -1.
         -5    1    3    3    0  502 -0.63743840033E+02  0.17480253207E+02 -0.28126405047E+03  0.28895635463E+03  0.41800000000E+01 0. -1.
        -11    1    4    4    0    0 -0.91634213379E+01  0.18423658307E+02 -0.32669854279E+02  0.38609828472E+02  0.00000000000E+00 0.  1.
         11    1    4    4    0    0  0.14638126067E+02 -0.79351344254E+02 -0.43049642352E+03  0.43799324337E+03  0.00000000000E+00 0. -1.
</event>
<event>
 8    1  0.6840032E-009  0.8937522E+02  0.7561462E-02  0.1304372E+00
          2   -1    0    0  501    0  0.00000000000E+00  0.00000000000E+00  0.35477328861E+02  0.35477328861E+02  0.00000000000E+00 0. -1.
         -2   -1    0    0    0  501 -0.00000000000E+00 -0.00000000000E+00 -0.36270530460E+03  0.36270530460E+03  0.00000000000E+00 0.  1.
         25    2    1    2    0    0 -0.83719421388E+01 -0.67095424648E+01 -0.24426102588E+03  0.27464093764E+03  0.12509631685E+03 0.  0.
         23    2    1    2    0    0  0.83719421388E+01  0.67095424648E+01 -0.82966949855E+02  0.12354169582E+03  0.90906151947E+02 0.  0.
          5    1    3    3  502    0  0.16468649145E+02  0.34814934514E+02 -0.17099904058E+02  0.42345899313E+02  0.41800000000E+01 0. -1.
         -5    1    3    3    0  502 -0.24840591284E+02 -0.41524476979E+02 -0.22716112182E+03  0.23229503833E+03  0.41800000000E+01 0. -1.
        -11    1    4    4    0    0  0.19039562947E+00 -0.42025580671E+02 -0.40926305961E+02  0.58661300708E+02  0.00000000000E+00 0.  1.
         11    1    4    4    0    0  0.81815465094E+01  0.48735123136E+02 -0.42040643894E+02  0.64880395108E+02  0.00000000000E+00 0. -1.
</event>
<event>
 8    1  0.6840032E-009  0.1134014E+03  0.7561462E-02  0.1254398E+00
          1   -1    0    0  501    0  0.00000000000E+00  0.00000000000E+00  0.61491507940E+02  0.61491507940E+02  0.00000000000E+00 0. -1.
         -1   -1    0    0    0  501 -0.00000000000E+00 -0.00000000000E+00 -0.33176346685E+03  0.33176346685E+03  0.00000000000E+00 0.  1.
         25    2    1    2    0    0 -0.29596111271E+02  0.78116923007E+02 -0.89692018589E+02  0.17513666998E+03  0.12510000604E+03 0.  0.
         23    2    1    2    0    0  0.29596111271E+02 -0.78116923007E+02 -0.18057994032E+03  0.21811830481E+03  0.89377271068E+02 0.  0.
          5    1    3    3  502    0 -0.56968155017E+02 -0.17006111677E+01 -0.81584982014E+01  0.57726044878E+02  0.41800000000E+01 0.  1.
         -5    1    3    3    0  502  0.27372043745E+02  0.79817534175E+02 -0.81533520388E+02  0.11741062510E+03  0.41800000000E+01 0.  1.
        -11    1    4    4    0    0  0.31385630544E+01 -0.30809586798E+02 -0.15521394888E+03  0.15827334313E+03  0.00000000000E+00 0.  1.
         11    1    4    4    0    0  0.26457548217E+02 -0.47307336209E+02 -0.25365991436E+02  0.59844961679E+02  0.00000000000E+00 0. -1.
</event>
<event>
 8    1  0.6840032E-009  0.1194820E+03  0.7561462E-02  0.1243954E+00
         -1   -1    0    0    0  501 -0.00000000000E+00  0.00000000000E+00  0.11522007545E+03  0.11522007545E+03  0.00000000000E+00 0.  1.
          1   -1    0    0  501    0  0.00000000000E+00 -0.00000000000E+00 -0.17547664045E+03  0.17547664045E+03  0.00000000000E+00 0. -1.
         25    2    1    2    0    0  0.26040724523E+02  0.76073448807E+02  0.14384517967E+02  0.14939629297E+03  0.12508816510E+03 0.  0.
         23    2    1    2    0    0 -0.26040724523E+02 -0.76073448807E+02 -0.74641082963E+02  0.14130042293E+03  0.89046220066E+02 0.  0.
          5    1    3    3  502    0  0.53357803864E+02 -0.12264521076E+02  0.14676628600E+02  0.56836163993E+02  0.41800000000E+01 0. -1.
         -5    1    3    3    0  502 -0.27317079341E+02  0.88337969883E+02 -0.29211063339E+00  0.92560128972E+02  0.41800000000E+01 0. -1.
        -11    1    4    4    0    0 -0.65126204654E+01 -0.71028549672E+02 -0.90794152146E+02  0.11546015398E+03  0.00000000000E+00 0. -1.
         11    1    4    4    0    0 -0.19528104057E+02 -0.50448991347E+01  0.16153069183E+02  0.25840268949E+02  0.00000000000E+00 0.  1.
</event>
<event>
 8    1  0.6840032E-009  0.9985435E+02  0.7561462E-02  0.1280603E+00
         -4   -1    0    0    0  501 -0.00000000000E+00  0.00000000000E+00  0.75826119633E+02  0.75826119633E+02  0.00000000000E+00 0.  1.
          4   -1    0    0  501    0  0.00000000000E+00 -0.00000000000E+00 -0.23289241064E+03  0.23289241064E+03  0.00000000000E+00 0. -1.
         25    2    1    2    0    0 -0.74982610233E+02  0.65009656447E+01 -0.73848640422E+02  0.16360112130E+03  0.12508817213E+03 0.  0.
         23    2    1    2    0    0  0.74982610233E+02 -0.65009656447E+01 -0.83217650582E+02  0.14511740897E+03  0.92028422926E+02 0.  0.
          5    1    3    3  502    0 -0.88082390735E+01  0.32251032546E+02  0.24904337235E+02  0.41897644194E+02  0.41800000000E+01 0. -1.
         -5    1    3    3    0  502 -0.66174371159E+02 -0.25750066901E+02 -0.98752977657E+02  0.12170347711E+03  0.41800000000E+01 0. -1.
        -11    1    4    4    0    0  0.20196619123E+02  0.24646200041E+02  0.92827480481E+01  0.33188974250E+02  0.00000000000E+00 0.  1.
         11    1    4    4    0    0  0.54785991109E+02 -0.31147165686E+02 -0.92500398630E+02  0.11192843472E+03  0.00000000000E+00 0. -1.
</event>
<event>
 8    1  0.6840032E-009  0.1160434E+03  0.7561462E-02  0.1249771E+00
         -2   -1    0    0    0  501 -0.00000000000E+00  0.00000000000E+00  0.11215946649E+03  0.11215946649E+03  0.00000000000E+00 0.  1.
          2   -1    0    0  501    0  0.00000000000E+00 -0.00000000000E+00 -0.15361227512E+03  0.15361227512E+03  0.00000000000E+00 0. -1.
         25    2    1    2    0    0 -0.58028853199E+02 -0.26277250128E+02  0.15272919403E+02  0.14120552128E+03  0.12509154845E+03 0.  0.
         23    2    1    2    0    0  0.58028853199E+02  0.26277250128E+02 -0.56725728026E+02  0.12456622033E+03  0.90780467882E+02 0.  0.
          5    1    3    3  502    0 -0.76275351972E+02 -0.49760623243E+02 -0.21559225521E+02  0.93682023617E+02  0.41800000000E+01 0.  1.
         -5    1    3    3    0  502  0.18246498774E+02  0.23483373115E+02  0.36832144923E+02  0.47523497662E+02  0.41800000000E+01 0.  1.
        -11    1    4    4    0    0  0.80111229562E+02  0.34633920303E+02 -0.43874559167E+02  0.97684668600E+02  0.00000000000E+00 0. -1.
         11    1    4    4    0    0 -0.22082376363E+02 -0.83566701752E+01 -0.12851168859E+02  0.26881551728E+02  0.00000000000E+00 0.  1.
</event>
<event>
 8    1  0.6840032E-009  0.7318764E+02  0.7561462E-02  0.1349577E+00
         -1   -1    0    0    0  501 -0.00000000000E+00  0.00000000000E+00  0.16289808384E+03  0.16289808384E+03  0.00000000000E+00 0.  1.
          1   -1    0    0  501    0  0.00000000000E+00 -0.00000000000E+00 -0.75425487319E+02  0.75425487319E+02  0.00000000000E+00 0. -1.
         25    2    1    2    0    0  0.23632155903E+02  0.77243037434E+01  0.25369766333E+02  0.13003264716E+03  0.12508685232E+03 0.  0.
         23    2    1    2    0    0 -0.23632155903E+02 -0.77243037434E+01  0.62102830185E+02  0.10829092399E+03  0.85158787224E+02 0.  0.
          5    1    3    3  502    0  0.60607354966E+02  0.26151269142E+01 -0.26218987689E+02  0.66219318028E+02  0.41800000000E+01 0.  1.
         -5    1    3    3    0  502 -0.36975199063E+02  0.51091768292E+01  0.51588754022E+02  0.63813329133E+02  0.41800000000E+01 0.  1.
        -11    1    4    4    0    0 -0.22465047024E+02  0.13857023972E+02  0.77423223089E+02  0.81798844275E+02  0.00000000000E+00 0.  1.
         11    1    4    4    0    0 -0.11671088787E+01 -0.21581327716E+02 -0.15320392904E+02  0.26492079719E+02  0.00000000000E+00 0. -1.
</event>
<event>
 8    1  0.6840032E-009  0.9961860E+02  0.7561462E-02  0.1281100E+00
          3   -1    0    0  501    0  0.00000000000E+00  0.00000000000E+00  0.54566277627E+02  0.54566277627E+02  0.00000000000E+00 0. -1.
         -3   -1    0    0    0  501 -0.00000000000E+00 -0.00000000000E+00 -0.33940378705E+03  0.33940378705E+03  0.00000000000E+00 0.  1.
         25    2    1    2    0    0  0.95999043082E+00 -0.78733208884E+02 -0.19520530762E+03  0.24485368928E+03  0.12509347412E+03 0.  0.
         23    2    1    2    0    0 -0.95999043082E+00  0.78733208884E+02 -0.89632201803E+02  0.14911637540E+03  0.89453463036E+02 0.  0.
          5    1    3    3  502    0  0.54111745898E+01 -0.59389937797E+02 -0.21089829690E+03  0.21920768590E+03  0.41800000000E+01 0.  1.
         -5    1    3    3    0  502 -0.44511841590E+01 -0.19343271086E+02  0.15692989280E+02  0.25646003378E+02  0.41800000000E+01 0.  1.
        -11    1    4    4    0    0 -0.44964905859E+02  0.46003617263E+02 -0.48568002041E+02  0.80604133780E+02  0.00000000000E+00 0.  1.
         11    1    4    4    0    0  0.44004915428E+02  0.32729591621E+02 -0.41064199762E+02  0.68512241619E+02  0.00000000000E+00 0. -1.
</event>
<event>
 8    1  0.6840032E-009  0.3354146E+03  0.7561462E-02  0.1068766E+00
         -1   -1    0    0    0  501 -0.00000000000E+00  0.00000000000E+00  0.15839240901E+04  0.15839240901E+04  0.00000000000E+00 0.  1.
          1   -1    0    0  501    0  0.00000000000E+00 -0.00000000000E+00 -0.18915722210E+03  0.18915722210E+03  0.00000000000E+00 0. -1.
         25    2    1    2    0    0  0.28461752349E+03  0.15237943797E+03  0.13955911426E+04  0.14378975104E+04  0.12509190676E+03 0.  0.
         23    2    1    2    0    0 -0.28461752349E+03 -0.15237943797E+03 -0.82427465905E+00  0.33518380180E+03  0.90115890766E+02 0.  0.
          5    1    3    3  502    0  0.11916042500E+03  0.11973942847E+02  0.66648161880E+03  0.67716896177E+03  0.41800000000E+01 0.  1.
         -5    1    3    3    0  502  0.16545709848E+03  0.14040549513E+03  0.72910952383E+03  0.76072854859E+03  0.41800000000E+01 0.  1.
        -11    1    4    4    0    0 -0.26400729081E+03 -0.16349955132E+03  0.66348587655E+01  0.31060581809E+03  0.00000000000E+00 0.  1.
         11    1    4    4    0    0 -0.20610232672E+02  0.11120113344E+02 -0.74591334246E+01  0.24577983705E+02  0.00000000000E+00 0. -1.
</event>
<event>
 8    1  0.6840032E-009  0.1033659E+03  0.7561462E-02  0.1273373E+00
         -2   -1    0    0    0  501 -0.00000000000E+00  0.00000000000E+00  0.58889398829E+02  0.58889398829E+02  0.00000000000E+00 0.  1.
          2   -1    0    0  501    0  0.00000000000E+00 -0.00000000000E+00 -0.25615875370E+03  0.25615875370E+03  0.00000000000E+00 0. -1.
         25    2    1    2    0    0  0.48457431937E+02  0.13202734298E+02 -0.76724147670E+02  0.15511063375E+03  0.12510107499E+03 0.  0.
         23    2    1    2    0    0 -0.48457431937E+02 -0.13202734298E+02 -0.12054520720E+03  0.15993751878E+03  0.92338659466E+02 0.  0.
          5    1    3    3  502    0  0.30921851785E+01  0.58365150861E+02 -0.68960217145E+02  0.90493294740E+02  0.41800000000E+01 0.  1.
         -5    1    3    3    0  502  0.45365246758E+02 -0.45162416563E+02 -0.77639305254E+01  0.64617339007E+02  0.41800000000E+01 0.  1.
        -11    1    4    4    0    0 -0.17891138869E+02  0.27668721844E+02 -0.99355564358E+02  0.10467654555E+03  0.00000000000E+00 0. -1.
         11    1    4    4    0    0 -0.30566293068E+02 -0.40871456142E+02 -0.21189642842E+02  0.55260973235E+02  0.00000000000E+00 0.  1.
</event>
<event>
 8    1  0.6840032E-009  0.1231827E+03  0.7561462E-02  0.1237937E+00
         -2   -1    0    0    0  501 -0.00000000000E+00  0.00000000000E+00  0.27326615280E+02  0.27326615280E+02  0.00000000000E+00 0.  1.
          2   -1    0    0  501    0  0.00000000000E+00 -0.00000000000E+00 -0.70664791274E+03  0.70664791274E+03  0.00000000000E+00 0. -1.
         25    2    1    2    0    0 -0.77571589907E+02 -0.18942616675E+02 -0.44900974361E+03  0.47290377302E+03  0.12510817077E+03 0.  0.
         23    2    1    2    0    0  0.77571589907E+02  0.18942616675E+02 -0.23031155385E+03  0.26107075500E+03  0.93479158058E+02 0.  0.
          5    1    3    3  502    0 -0.10938097638E+03 -0.76422852068E+01 -0.38607382815E+03  0.40136401894E+03  0.41800000000E+01 0.  1.
         -5    1    3    3    0  502  0.31809386474E+02 -0.11300331468E+02 -0.62935915461E+02  0.71539754082E+02  0.41800000000E+01 0.  1.
        -11    1    4    4    0    0  0.45659965938E+02  0.42952733880E+02 -0.62307477931E+02  0.88385471902E+02  0.00000000000E+00 0.  1.
         11    1    4    4    0    0  0.31911623969E+02 -0.24010117205E+02 -0.16800407592E+03  0.17268528309E+03  0.00000000000E+00 0. -1.
</event>
<event>
 8    1  0.6840032E-009  0.4137055E+03  0.7561462E-02  0.1039135E+00
          1   -1    0    0  501    0  0.00000000000E+00  0.00000000000E+00  0.78064045101E+03  0.78064045101E+03  0.00000000000E+00 0. -1.
         -1   -1    0    0    0  501 -0.00000000000E+00 -0.00000000000E+00 -0.47638021077E+03  0.47638021077E+03  0.00000000000E+00 0.  1.
         25    2    1    2    0    0  0.27125244781E+03  0.29846160817E+03 -0.30523623557E+03  0.52103180912E+03  0.12509102535E+03 0.  0.
         23    2    1    2    0    0 -0.27125244781E+03 -0.29846160817E+03  0.60949647580E+03  0.73598885266E+03  0.86812529260E+02 0.  0.
          5    1    3    3  502    0  0.24533186693E+03  0.19593605416E+03 -0.20315395389E+03  0.37398885496E+03  0.41800000000E+01 0. -1.
         -5    1    3    3    0  502  0.25920580879E+02  0.10252555401E+03 -0.10208228167E+03  0.14704295417E+03  0.41800000000E+01 0. -1.
        -11    1    4    4    0    0 -0.19786712702E+03 -0.17602815130E+03  0.33946178441E+03  0.43054803806E+03  0.00000000000E+00 0.  1.
         11    1    4    4    0    0 -0.73385320785E+02 -0.12243345687E+03  0.27003469139E+03  0.30544081460E+03  0.00000000000E+00 0. -1.
</event>
<event>
 8    1  0.6840032E-009  0.1714420E+03  0.7561462E-02  0.1176352E+00
          1   -1    0    0  501    0  0.00000000000E+00  0.00000000000E+00  0.25709415170E+03  0.25709415170E+03  0.00000000000E+00 0. -1.
         -1   -1    0    0    0  501 -0.00000000000E+00 -0.00000000000E+00 -0.42303375840E+03  0.42303375840E+03  0.00000000000E+00 0.  1.
         25    2    1    2    0    0 -0.87267646577E+02  0.11781497277E+03 -0.36699660584E+03  0.41452384389E+03  0.12508996165E+03 0.  0.
         23    2    1    2    0    0  0.87267646577E+02 -0.11781497277E+03  0.20105699914E+03  0.26560406621E+03  0.92874071394E+02 0.  0.
          5    1    3    3  502    0 -0.18690958425E+02 -0.25201298269E+02 -0.88660443359E+02  0.94141404164E+02  0.41800000000E+01 0. -1.
         -5    1    3    3    0  502 -0.68576688151E+02  0.14301627104E+03 -0.27833616248E+03  0.32038243972E+03  0.41800000000E+01 0. -1.
        -11    1    4    4    0    0  0.15725804493E+02 -0.55524267409E+02  0.14344948049E+03  0.15462211566E+03  0.00000000000E+00 0. -1.
         11    1    4    4    0    0  0.71541842084E+02 -0.62290705361E+02  0.57607518647E+02  0.11098195055E+03  0.00000000000E+00 0.  1.
</event>
<event>
 8    1  0.6840032E-009  0.6728166E+02  0.7561462E-02  0.1369589E+00
         -2   -1    0    0    0  501 -0.00000000000E+00  0.00000000000E+00  0.63656445468E+02  0.63656445468E+02  0.00000000000E+00 0.  1.
          2   -1    0    0  501    0  0.00000000000E+00 -0.00000000000E+00 -0.22310093932E+03  0.22310093932E+03  0.00000000000E+00 0. -1.
         25    2    1    2    0    0 -0.12653567864E+02 -0.37537996035E+02 -0.13643303353E+03  0.18929076953E+03  0.12509120219E+03 0.  0.
         23    2    1    2    0    0  0.12653567864E+02  0.37537996035E+02 -0.23011460319E+02  0.97466615255E+02  0.86029064026E+02 0.  0.
          5    1    3    3  502    0 -0.93317746986E+01  0.83180317415E+01 -0.14216117641E+03  0.14277094995E+03  0.41800000000E+01 0.  1.
         -5    1    3    3    0  502 -0.33217931652E+01 -0.45856027776E+02  0.57281428775E+01  0.46519819583E+02  0.41800000000E+01 0.  1.
        -11    1    4    4    0    0  0.29139883897E+02  0.47666010582E+02  0.12296376122E+02  0.57204739874E+02  0.00000000000E+00 0.  1.
         11    1    4    4    0    0 -0.16486316033E+02 -0.10128014547E+02 -0.35307836441E+02  0.40261875380E+02  0.00000000000E+00 0. -1.
</event>
<event>
 8    1  0.6840032E-009  0.9860398E+02  0.7561462E-02  0.1283259E+00
          2   -1    0    0  501    0  0.00000000000E+00  0.00000000000E+00  0.30611296701E+03  0.30611296701E+03  0.00000000000E+00 0.  1.
         -2   -1    0    0    0  501 -0.00000000000E+00 -0.00000000000E+00 -0.68110669657E+02  0.68110669657E+02  0.00000000000E+00 0. -1.
         25    2    1    2    0    0 -0.58511331777E+02  0.48424969429E+02  0.20215574176E+03  0.24956565381E+03  0.12509003967E+03 0.  0.
         23    2    1    2    0    0  0.58511331777E+02 -0.48424969429E+02  0.35846555592E+02  0.12465798285E+03  0.92119941004E+02 0.  0.
          5    1    3    3  502    0 -0.17704071212E+02  0.67200734828E+01 -0.15096347856E+02  0.24575712475E+02  0.41800000000E+01 0. -1.
         -5    1    3    3    0  502 -0.40807260565E+02  0.41704895947E+02  0.21725208961E+03  0.22498994134E+03  0.41800000000E+01 0. -1.
        -11    1    4    4    0    0  0.33129138991E+02 -0.75352066422E+02  0.26766322910E+02  0.86555819021E+02  0.00000000000E+00 0.  1.
         11    1    4    4    0    0  0.25382192787E+02  0.26927096993E+02  0.90802326824E+01  0.38102163832E+02  0.00000000000E+00 0. -1.
</event>
<event>
 8    1  0.6840032E-009  0.1059779E+03  0.7561462E-02  0.1268205E+00
          3   -1    0    0  501    0  0.00000000000E+00  0.00000000000E+00  0.15028058934E+03  0.15028058934E+03  0.00000000000E+00 0.  1.
         -3   -1    0    0    0  501 -0.00000000000E+00 -0.00000000000E+00 -0.91389531285E+02  0.91389531285E+02  0.00000000000E+00 0. -1.
         25    2    1    2    0    0  0.25007291000E+02  0.35205767760E+02  0.30272994916E+02  0.13575728877E+03  0.12509507003E+03 0.  0.
         23    2    1    2    0    0 -0.25007291000E+02 -0.35205767760E+02  0.28618063137E+02  0.10591283185E+03  0.92378156111E+02 0.  0.
          5    1    3    3  502    0  0.41832975133E+01  0.75104053621E+02 -0.90093888492E+01  0.75873317680E+02  0.41800000000E+01 0. -1.
         -5    1    3    3    0  502  0.20823993487E+02 -0.39898285860E+02  0.39282383765E+02  0.59883971091E+02  0.41800000000E+01 0. -1.
        -11    1    4    4    0    0  0.15653633011E+02  0.18387139417E+02 -0.12375872655E+02  0.27134578426E+02  0.00000000000E+00 0. -1.
         11    1    4    4    0    0 -0.40660924011E+02 -0.53592907178E+02  0.40993935792E+02  0.78778253426E+02  0.00000000000E+00 0.  1.
</event>
<event>
 8    1  0.6840032E-009  0.1284507E+03  0.7561462E-02  0.1229773E+00
         -2   -1    0    0    0  501 -0.00000000000E+00  0.00000000000E+00  0.21926133608E+03  0.21926133608E+03  0.00000000000E+00 0.  1.
          2   -1    0    0  501    0  0.00000000000E+00 -0.00000000000E+00 -0.10072106850E+03  0.10072106850E+03  0.00000000000E+00 0. -1.
         25    2    1    2    0    0 -0.31064916694E+02 -0.86320033378E+02  0.15276701151E+02  0.15587962455E+03  0.12509557362E+03 0.  0.
         23    2    1    2    0    0  0.31064916694E+02  0.86320033378E+02  0.10326356643E+03  0.16410278003E+03  0.88601247455E+02 0.  0.
          5    1    3    3  502    0 -0.46628252825E+02 -0.57053915748E+01  0.48096576423E+02  0.67360956927E+02  0.41800000000E+01 0.  1.
         -5    1    3    3    0  502  0.15563336132E+02 -0.80614641803E+02 -0.32819875271E+02  0.88518667621E+02  0.41800000000E+01 0.  1.
        -11    1    4    4    0    0 -0.46761219255E+01  0.91321329839E+02  0.74935602257E+02  0.11822349972E+03  0.00000000000E+00 0.  1.
         11    1    4    4    0    0  0.35741038619E+02 -0.50012964616E+01  0.28327964174E+02  0.45879280314E+02  0.00000000000E+00 0. -1.
</event>
<event>
 8    1  0.6840032E-009  0.1035963E+03  0.7561462E-02  0.1272910E+00
         -2   -1    0    0    0  501 -0.00000000000E+00  0.00000000000E+00  0.13060954003E+03  0.13060954003E+03  0.00000000000E+00 0.  1.
          2   -1    0    0  501    0  0.00000000000E+00 -0.00000000000E+00 -0.14791729438E+03  0.14791729438E+03  0.00000000000E+00 0. -1.
         25    2    1    2    0    0  0.52871364502E+02  0.59139642632E+02  0.24694912340E+02  0.15016522749E+03  0.12508748273E+03 0.  0.
         23    2    1    2    0    0 -0.52871364502E+02 -0.59139642632E+02 -0.42002666685E+02  0.12836160692E+03  0.91758376225E+02 0.  0.
          5    1    3    3  502    0  0.41497021097E+02  0.20462824863E+02  0.73359964759E+02  0.86832521504E+02  0.41800000000E+01 0. -1.
         -5    1    3    3    0  502  0.11374343405E+02  0.38676817769E+02 -0.48665052419E+02  0.63332705987E+02  0.41800000000E+01 0. -1.
        -11    1    4    4    0    0 -0.43709283300E+02  0.14458934933E+02 -0.78254723463E+01  0.46699039213E+02  0.00000000000E+00 0.  1.
         11    1    4    4    0    0 -0.91620812025E+01 -0.73598577566E+02 -0.34177194339E+02  0.81662567707E+02  0.00000000000E+00 0. -1.
</event>
<event>
 8    1  0.6840032E-009  0.8220084E+02  0.7561462E-02  0.1322919E+00
          2   -1    0    0  501    0  0.00000000000E+00  0.00000000000E+00  0.14588754604E+04  0.14588754604E+04  0.00000000000E+00 0. -1.
         -2   -1    0    0    0  501 -0.00000000000E+00 -0.00000000000E+00 -0.90695514869E+01  0.90695514869E+01  0.00000000000E+00 0.  1.
         25    2    1    2    0    0 -0.40305370305E+01 -0.19348255492E+01  0.10529875627E+04  0.10604009944E+04  0.12508985906E+03 0.  0.
         23    2    1    2    0    0  0.40305370305E+01  0.19348255492E+01  0.39681834614E+03  0.40754401747E+03  0.92775737987E+02 0.  0.
          5    1    3    3  502    0 -0.24080426389E+02  0.27988423793E+02  0.99301879919E+02  0.10602619750E+03  0.41800000000E+01 0.  1.
         -5    1    3    3    0  502  0.20049889359E+02 -0.29923249342E+02  0.95368568282E+03  0.95437479688E+03  0.41800000000E+01 0.  1.
        -11    1    4    4    0    0 -0.20176161568E+01 -0.44304120990E+02  0.15263448450E+03  0.15894719806E+03  0.00000000000E+00 0.  1.
         11    1    4    4    0    0  0.60481531873E+01  0.46238946539E+02  0.24418386164E+03  0.24859681941E+03  0.00000000000E+00 0. -1.
</event>
<event>
 8    1  0.6840032E-009  0.9341128E+02  0.7561462E-02  0.1294795E+00
          2   -1    0    0  501    0  0.00000000000E+00  0.00000000000E+00  0.21284740084E+03  0.21284740084E+03  0.00000000000E+00 0.  1.
         -2   -1    0    0    0  501 -0.00000000000E+00 -0.00000000000E+00 -0.88314016520E+02  0.88314016520E+02  0.00000000000E+00 0. -1.
         25    2    1    2    0    0 -0.50718439681E+02  0.14650706143E+01  0.14517054923E+03  0.19823434565E+03  0.12509141008E+03 0.  0.
         23    2    1    2    0    0  0.50718439681E+02 -0.14650706143E+01 -0.20637164907E+02  0.10292707172E+03  0.87141166855E+02 0.  0.
          5    1    3    3  502    0  0.26589972101E+02  0.39037087489E+02  0.37846482530E+02  0.60669180445E+02  0.41800000000E+01 0.  1.
         -5    1    3    3    0  502 -0.77308411782E+02 -0.37572016875E+02  0.10732406670E+03  0.13756516520E+03  0.41800000000E+01 0.  1.
        -11    1    4    4    0    0  0.29894064203E+02  0.72720324325E+01 -0.54288698947E+02  0.62400323425E+02  0.00000000000E+00 0. -1.
         11    1    4    4    0    0  0.20824375478E+02 -0.87371030468E+01  0.33651534040E+02  0.40526748290E+02  0.00000000000E+00 0.  1.
</event>
<event>
 8    1  0.6840032E-009  0.1062969E+03  0.7561462E-02  0.1267585E+00
         -1   -1    0    0    0  501 -0.00000000000E+00  0.00000000000E+00  0.14223954285E+02  0.14223954285E+02  0.00000000000E+00 0.  1.
          1   -1    0    0  501    0  0.00000000000E+00 -0.00000000000E+00 -0.11515512994E+04  0.11515512994E+04  0.00000000000E+00 0. -1.
         25    2    1    2    0    0  0.48061575960E+02  0.17698249754E+02 -0.83860342375E+03  0.84942690877E+03  0.12508887998E+03 0.  0.
         23    2    1    2    0    0 -0.48061575960E+02 -0.17698249754E+02 -0.29872392139E+03  0.31634834494E+03  0.90648502500E+02 0.  0.
          5    1    3    3  502    0  0.57398586480E+02 -0.30705114286E+02 -0.23761574252E+03  0.24640640265E+03  0.41800000000E+01 0.  1.
         -5    1    3    3    0  502 -0.93370105201E+01  0.48403364039E+02 -0.60098768123E+03  0.60302050613E+03  0.41800000000E+01 0.  1.
        -11    1    4    4    0    0 -0.45097302891E+02  0.27352326347E+02 -0.10587857770E+03  0.11828858651E+03  0.00000000000E+00 0.  1.
         11    1    4    4    0    0 -0.29642730685E+01 -0.45050576101E+02 -0.19284534369E+03  0.19805975842E+03  0.00000000000E+00 0. -1.
</event>
<event>
 8    1  0.6840032E-009  0.1097666E+03  0.7561462E-02  0.1261003E+00
          2   -1    0    0  501    0  0.00000000000E+00  0.00000000000E+00  0.91627868745E+02  0.91627868745E+02  0.00000000000E+00 0. -1.
         -2   -1    0    0    0  501 -0.00000000000E+00 -0.00000000000E+00 -0.19654150971E+03  0.19654150971E+03  0.00000000000E+00 0.  1.
         25    2    1    2    0    0 -0.89830930155E+01 -0.74990550494E+02 -0.63447245744E+02  0.15930120720E+03  0.12508814092E+03 0.  0.
         23    2    1    2    0    0  0.89830930155E+01  0.74990550494E+02 -0.41466395220E+02  0.12886817126E+03  0.95829353576E+02 0.  0.
          5    1    3    3  502    0 -0.27895513534E+02  0.77352103265E+01 -0.68198199387E+02  0.74205525090E+02  0.41800000000E+01 0. -1.
         -5    1    3    3    0  502  0.18912420519E+02 -0.82725760820E+02  0.47509536436E+01  0.85095682109E+02  0.41800000000E+01 0. -1.
        -11    1    4    4    0    0 -0.32409574997E+02  0.36291589432E+02 -0.52019593858E+02  0.71228492614E+02  0.00000000000E+00 0.  1.
         11    1    4    4    0    0  0.41392668012E+02  0.38698961062E+02  0.10553198637E+02  0.57639678642E+02  0.00000000000E+00 0. -1.
</event>
<event>
 8    1  0.6840032E-009  0.1154261E+03  0.7561462E-02  0.1250839E+00
          3   -1    0    0  501    0  0.00000000000E+00  0.00000000000E+00  0.75412826181E+03  0.75412826181E+03  0.00000000000E+00 0. -1.
         -3   -1    0    0    0  501 -0.00000000000E+00 -0.00000000000E+00 -0.22544066332E+02  0.22544066332E+02  0.00000000000E+00 0.  1.
         25    2    1    2    0    0 -0.35797799926E+02 -0.48416797702E+02  0.53098927047E+03  0.54883655639E+03  0.12508513701E+03 0.  0.
         23    2    1    2    0    0  0.35797799926E+02  0.48416797702E+02  0.20059492500E+03  0.22783577174E+03  0.89694738806E+02 0.  0.
          5    1    3    3  502    0 -0.79027791286E+02 -0.83979347429E+01  0.29075837913E+03  0.30145285624E+03  0.41800000000E+01 0.  1.
         -5    1    3    3    0  502  0.43229991360E+02 -0.40018862959E+02  0.24023089134E+03  0.24738370015E+03  0.41800000000E+01 0.  1.
        -11    1    4    4    0    0  0.53135466916E+02  0.16071330142E+02  0.56763546869E+02  0.79396257784E+02  0.00000000000E+00 0.  1.
         11    1    4    4    0    0 -0.17337666991E+02  0.32345467560E+02  0.14383137813E+03  0.14843951396E+03  0.00000000000E+00 0. -1.
</event>
<event>
 8    1  0.6840032E-009  0.1181350E+03  0.7561462E-02  0.1246206E+00
          2   -1    0    0  501    0  0.00000000000E+00  0.00000000000E+00  0.33706534166E+03  0.33706534166E+03  0.00000000000E+00 0. -1.
         -2   -1    0    0    0  501 -0.00000000000E+00 -0.00000000000E+00 -0.59890503843E+02  0.59890503843E+02  0.00000000000E+00 0.  1.
         25    2    1    2    0    0 -0.39031685823E+02 -0.51351058447E+02  0.23866671540E+03  0.27707369732E+03  0.12509048328E+03 0.  0.
         23    2    1    2    0    0  0.39031685823E+02  0.51351058447E+02  0.38508122422E+02  0.11988214818E+03  0.93426175448E+02 0.  0.
          5    1    3    3  502    0 -0.47789702572E+02 -0.88823075848E+02  0.15631711393E+03  0.18608037775E+03  0.41800000000E+01 0. -1.
         -5    1    3    3    0  502  0.87580167489E+01  0.37472017400E+02  0.82349601461E+02  0.90993319570E+02  0.41800000000E+01 0. -1.
        -11    1    4    4    0    0  0.54492716655E+02  0.14111330129E+02 -0.96084934785E+01  0.57104368951E+02  0.00000000000E+00 0.  1.
         11    1    4    4    0    0 -0.15461030832E+02  0.37239728318E+02  0.48116615901E+02  0.62777779232E+02  0.00000000000E+00 0. -1.
</event>
<event>
 8    1  0.6840032E-009  0.1076527E+03  0.7561462E-02  0.1264979E+00
          3   -1    0    0  501    0  0.00000000000E+00  0.00000000000E+00  0.41249183194E+03  0.41249183194E+03  0.00000000000E+00 0. -1.
         -3   -1    0    0    0  501 -0.00000000000E+00 -0.00000000000E+00 -0.47200104113E+02  0.47200104113E+02  0.00000000000E+00 0.  1.
         25    2    1    2    0    0 -0.36110234657E+02  0.56019649483E+02  0.28986966962E+03  0.32266610277E+03  0.12508732285E+03 0.  0.
         23    2    1    2    0    0  0.36110234657E+02 -0.56019649483E+02  0.75422058209E+02  0.13702583328E+03  0.92980868716E+02 0.  0.
          5    1    3    3  502    0 -0.29682944812E+02  0.85597936421E+02  0.27319630273E+03  0.28785721488E+03  0.41800000000E+01 0. -1.
         -5    1    3    3    0  502 -0.64272898448E+01 -0.29578286938E+02  0.16673366891E+02  0.34808887894E+02  0.41800000000E+01 0. -1.
        -11    1    4    4    0    0  0.39208441016E+02 -0.69730729986E+02  0.87453356642E+02  0.11852327256E+03  0.00000000000E+00 0. -1.
         11    1    4    4    0    0 -0.30982063590E+01  0.13711080503E+02 -0.12031298432E+02  0.18502560719E+02  0.00000000000E+00 0.  1.
</event>
<event>
 8    1  0.6840032E-009  0.1320348E+03  0.7561462E-02  0.1224467E+00
         -1   -1    0    0    0  501 -0.00000000000E+00  0.00000000000E+00  0.65705631536E+02  0.65705631536E+02  0.00000000000E+00 0.  1.
          1   -1    0    0  501    0  0.00000000000E+00 -0.00000000000E+00 -0.35932156397E+03  0.35932156397E+03  0.00000000000E+00 0. -1.
         25    2    1    2    0    0  0.83727026479E+02  0.47756298646E+02 -0.22538134784E+03  0.27519917884E+03  0.12508779739E+03 0.  0.
         23    2    1    2    0    0 -0.83727026479E+02 -0.47756298646E+02 -0.68234584591E+02  0.14982801666E+03  0.92204105221E+02 0.  0.
          5    1    3    3  502    0 -0.24529222819E+02  0.39728738962E+02 -0.91312295070E+02  0.10264240402E+03  0.41800000000E+01 0.  1.
         -5    1    3    3    0  502  0.10825624930E+03  0.80275596837E+01 -0.13406905278E+03  0.17255677483E+03  0.41800000000E+01 0.  1.
        -11    1    4    4    0    0 -0.54032255963E+01 -0.26993197788E+02 -0.62856643135E+02  0.68620588455E+02  0.00000000000E+00 0. -1.
         11    1    4    4    0    0 -0.78323800883E+02 -0.20763100858E+02 -0.53779414554E+01  0.81207428209E+02  0.00000000000E+00 0.  1.
</event>
<event>
 8    1  0.6840032E-009  0.2685051E+03  0.7561462E-02  0.1102138E+00
         -2   -1    0    0    0  501 -0.00000000000E+00  0.00000000000E+00  0.12172767667E+03  0.12172767667E+03  0.00000000000E+00 0. -1.
          2   -1    0    0  501    0  0.00000000000E+00 -0.00000000000E+00 -0.60579118749E+03  0.60579118749E+03  0.00000000000E+00 0.  1.
         25    2    1    2    0    0 -0.23101059704E+03 -0.91555807272E+02 -0.26462732800E+03  0.38395663222E+03  0.12508681348E+03 0.  0.
         23    2    1    2    0    0  0.23101059704E+03  0.91555807272E+02 -0.21943618282E+03  0.34356223195E+03  0.90190947989E+02 0.  0.
          5    1    3    3  502    0 -0.24259657370E+02 -0.64672714158E+02 -0.56533034695E+02  0.89356294374E+02  0.41800000000E+01 0.  1.
         -5    1    3    3    0  502 -0.20675093967E+03 -0.26883093114E+02 -0.20809429331E+03  0.29460033784E+03  0.41800000000E+01 0.  1.
        -11    1    4    4    0    0  0.13499960235E+03  0.91820261584E+02 -0.16949468017E+03  0.23533869142E+03  0.00000000000E+00 0.  1.
         11    1    4    4    0    0  0.96010994691E+02 -0.26445431181E+00 -0.49941502646E+02  0.10822354053E+03  0.00000000000E+00 0. -1.
</event>
<event>
 8    1  0.6840032E-009  0.1388523E+03  0.7561462E-02  0.1214882E+00
         -1   -1    0    0    0  501 -0.00000000000E+00  0.00000000000E+00  0.36048640522E+02  0.36048640522E+02  0.00000000000E+00 0.  1.
          1   -1    0    0  501    0  0.00000000000E+00 -0.00000000000E+00 -0.56119593345E+03  0.56119593345E+03  0.00000000000E+00 0. -1.
         25    2    1    2    0    0  0.89144525327E+02 -0.24788175664E+02 -0.28985717744E+03  0.32897758029E+03  0.12509142645E+03 0.  0.
         23    2    1    2    0    0 -0.89144525327E+02  0.24788175664E+02 -0.23529011549E+03  0.26826699369E+03  0.89691367499E+02 0.  0.
          5    1    3    3  502    0 -0.29607625943E+02  0.80297371312E+01 -0.42238495717E+02  0.52370326644E+02  0.41800000000E+01 0. -1.
         -5    1    3    3    0  502  0.11875215127E+03 -0.32817912795E+02 -0.24761868172E+03  0.27660725364E+03  0.41800000000E+01 0. -1.
        -11    1    4    4    0    0 -0.71816448969E+02  0.53761429164E+02 -0.13199488314E+03  0.15959493345E+03  0.00000000000E+00 0.  1.
         11    1    4    4    0    0 -0.17328076358E+02 -0.28973253500E+02 -0.10329523235E+03  0.10867206024E+03  0.00000000000E+00 0. -1.
</event>
<event>
 8    1  0.6840032E-009  0.1032344E+03  0.7561462E-02  0.1273638E+00
          2   -1    0    0  501    0  0.00000000000E+00  0.00000000000E+00  0.99307247892E+02  0.99307247892E+02  0.00000000000E+00 0. -1.
         -2   -1    0    0    0  501 -0.00000000000E+00 -0.00000000000E+00 -0.14813406781E+03  0.14813406781E+03  0.00000000000E+00 0.  1.
         25    2    1    2    0    0 -0.29329336984E+02  0.72065439350E+01  0.20108342164E+02  0.13024547936E+03  0.12508954867E+03 0.  0.
         23    2    1    2    0    0  0.29329336984E+02 -0.72065439350E+01 -0.68935162084E+02  0.11719583634E+03  0.89836869940E+02 0.  0.
          5    1    3    3  502    0 -0.70030625299E+02  0.24725888355E+02  0.36445353472E+02  0.82833533212E+02  0.41800000000E+01 0.  1.
         -5    1    3    3    0  502  0.40701288315E+02 -0.17519344420E+02 -0.16337011308E+02  0.47411946152E+02  0.41800000000E+01 0.  1.
        -11    1    4    4    0    0 -0.17030592090E+02  0.25624470390E+02 -0.47261070299E+02  0.56393823381E+02  0.00000000000E+00 0.  1.
         11    1    4    4    0    0  0.46359929074E+02 -0.32831014325E+02 -0.21674091785E+02  0.60802012960E+02  0.00000000000E+00 0. -1.
</event>
<event>
 8    1  0.6840032E-009  0.7224330E+02  0.7561462E-02  0.1352627E+00
          1   -1    0    0  501    0  0.00000000000E+00  0.00000000000E+00  0.31851912230E+03  0.31851912230E+03  0.00000000000E+00 0. -1.
         -1   -1    0    0    0  501 -0.00000000000E+00 -0.00000000000E+00 -0.43767708250E+02  0.43767708250E+02  0.00000000000E+00 0.  1.
         25    2    1    2    0    0  0.13481004789E+02 -0.26475977806E+01  0.14859841343E+03  0.19472583400E+03  0.12509162518E+03 0.  0.
         23    2    1    2    0    0 -0.13481004789E+02  0.26475977806E+01  0.12615300062E+03  0.16756099655E+03  0.10942285289E+03 0.  0.
          5    1    3    3  502    0 -0.33431850802E+02 -0.14714795699E+01  0.14341656459E+03  0.14732833163E+03  0.41800000000E+01 0. -1.
         -5    1    3    3    0  502  0.46912855591E+02 -0.11761182107E+01  0.51818488330E+01  0.47397502372E+02  0.41800000000E+01 0. -1.
        -11    1    4    4    0    0  0.25035131572E+02 -0.94571133532E-01 -0.93036803078E+01  0.26708149014E+02  0.00000000000E+00 0.  1.
         11    1    4    4    0    0 -0.38516136361E+02  0.27421689142E+01  0.13545668093E+03  0.14085284754E+03  0.00000000000E+00 0. -1.
</event>
<event>
 8    1  0.6840032E-009  0.1327128E+03  0.7561462E-02  0.1223485E+00
          1   -1    0    0  501    0  0.00000000000E+00  0.00000000000E+00  0.68128667744E+03  0.68128667744E+03  0.00000000000E+00 0. -1.
         -1   -1    0    0    0  501 -0.00000000000E+00 -0.00000000000E+00 -0.39934124934E+02  0.39934124934E+02  0.00000000000E+00 0.  1.
         25    2    1    2    0    0  0.52640251131E+02 -0.11211218902E+03  0.35139427616E+03  0.39301334094E+03  0.12506562228E+03 0.  0.
         23    2    1    2    0    0 -0.52640251131E+02  0.11211218902E+03  0.28995827635E+03  0.32820746143E+03  0.91127365534E+02 0.  0.
          5    1    3    3  502    0  0.41438764530E+02 -0.78409268956E+02  0.80739632292E+02  0.12000643852E+03  0.41800000000E+01 0. -1.
         -5    1    3    3    0  502  0.11201486600E+02 -0.33702920068E+02  0.27065464387E+03  0.27300690242E+03  0.41800000000E+01 0. -1.
        -11    1    4    4    0    0 -0.60204480326E+02  0.49859685508E+02  0.92904767808E+02  0.12141607625E+03  0.00000000000E+00 0.  1.
         11    1    4    4    0    0  0.75642291953E+01  0.62252503517E+02  0.19705350854E+03  0.20679138518E+03  0.00000000000E+00 0. -1.
</event>
<event>
 8    1  0.6840032E-009  0.1188687E+03  0.7561462E-02  0.1244975E+00
         -2   -1    0    0    0  501 -0.00000000000E+00  0.00000000000E+00  0.22032041657E+03  0.22032041657E+03  0.00000000000E+00 0.  1.
          2   -1    0    0  501    0  0.00000000000E+00 -0.00000000000E+00 -0.78004677991E+02  0.78004677991E+02  0.00000000000E+00 0. -1.
         25    2    1    2    0    0 -0.50123630019E+02 -0.37350207248E+02  0.11979689364E+03  0.18412537453E+03  0.12507374446E+03 0.  0.
         23    2    1    2    0    0  0.50123630019E+02  0.37350207248E+02  0.22518844935E+02  0.11419972002E+03  0.92881975693E+02 0.  0.
          5    1    3    3  502    0  0.17810830245E+02  0.34573444653E+02  0.47422661939E+02  0.61473002322E+02  0.41800000000E+01 0. -1.
         -5    1    3    3    0  502 -0.67934460264E+02 -0.71923651901E+02  0.72374231702E+02  0.12265237221E+03  0.41800000000E+01 0. -1.
        -11    1    4    4    0    0 -0.15102943666E+02  0.30473557084E+02 -0.16585252820E+02  0.37839228320E+02  0.00000000000E+00 0. -1.
         11    1    4    4    0    0  0.65226573685E+02  0.68766501645E+01  0.39104097755E+02  0.76360491705E+02  0.00000000000E+00 0.  1.
</event>
<event>
 8    1  0.6840032E-009  0.9447629E+02  0.7561462E-02  0.1292360E+00
         -1   -1    0    0    0  501 -0.00000000000E+00  0.00000000000E+00  0.40374360958E+02  0.40374360958E+02  0.00000000000E+00 0.  1.
          1   -1    0    0  501    0  0.00000000000E+00 -0.00000000000E+00 -0.33474468879E+03  0.33474468879E+03  0.00000000000E+00 0. -1.
         25    2    1    2    0    0 -0.34188508755E+02  0.16472486069E+02 -0.20232879571E+03  0.24088280247E+03  0.12508951204E+03 0.  0.
         23    2    1    2    0    0  0.34188508755E+02 -0.16472486069E+02 -0.92041532118E+02  0.13423624727E+03  0.90041820947E+02 0.  0.
          5    1    3    3  502    0 -0.75897482425E+02  0.36198711280E+02 -0.13680169815E+03  0.16063297157E+03  0.41800000000E+01 0.  1.
         -5    1    3    3    0  502  0.41708973670E+02 -0.19726225210E+02 -0.65527097558E+02  0.80249830904E+02  0.41800000000E+01 0.  1.
        -11    1    4    4    0    0 -0.10528562556E+02  0.65386524880E+00  0.14207393017E+02  0.17695428381E+02  0.00000000000E+00 0.  1.
         11    1    4    4    0    0  0.44717071310E+02 -0.17126351318E+02 -0.10624892513E+03  0.11654081889E+03  0.00000000000E+00 0. -1.
</event>
<event>
 8    1  0.6840032E-009  0.2551467E+03  0.7561462E-02  0.1110095E+00
         -2   -1    0    0    0  501 -0.00000000000E+00  0.00000000000E+00  0.19647840068E+04  0.19647840068E+04  0.00000000000E+00 0.  1.
          2   -1    0    0  501    0  0.00000000000E+00 -0.00000000000E+00 -0.34460535459E+02  0.34460535459E+02  0.00000000000E+00 0. -1.
         25    2    1    2    0    0  0.17830666535E+03 -0.15383557193E+03  0.98836675730E+03  0.10237064951E+04  0.12508993177E+03 0.  0.
         23    2    1    2    0    0 -0.17830666535E+03  0.15383557193E+03  0.94195671406E+03  0.97553804720E+03  0.94516560839E+02 0.  0.
          5    1    3    3  502    0  0.89060076299E+02 -0.14024706938E+03  0.49560530569E+03  0.52272653376E+03  0.41800000000E+01 0. -1.
         -5    1    3    3    0  502  0.89246589049E+02 -0.13588502549E+02  0.49276145160E+03  0.50097996132E+03  0.41800000000E+01 0. -1.
        -11    1    4    4    0    0 -0.24886282586E+02  0.79401737832E+02  0.30288538009E+03  0.31410749196E+03  0.00000000000E+00 0.  1.
         11    1    4    4    0    0 -0.15342038276E+03  0.74433834096E+02  0.63907133397E+03  0.66143055524E+03  0.00000000000E+00 0. -1.
</event>
<event>
 8    1  0.6840032E-009  0.1179588E+03  0.7561462E-02  0.1246503E+00
         -2   -1    0    0    0  501 -0.00000000000E+00  0.00000000000E+00  0.21343814224E+03  0.21343814224E+03  0.00000000000E+00 0.  1.
          2   -1    0    0  501    0  0.00000000000E+00 -0.00000000000E+00 -0.70605836804E+02  0.70605836804E+02  0.00000000000E+00 0. -1.
         25    2    1    2    0    0 -0.36542280461E+02  0.45333223689E+02  0.58452362846E+02  0.14984605411E+03  0.12508685694E+03 0.  0.
         23    2    1    2    0    0  0.36542280461E+02 -0.45333223689E+02  0.84379942592E+02  0.13419792493E+03  0.86594855007E+02 0.  0.
          5    1    3    3  502    0  0.39792003167E+02  0.45601321833E+02  0.17605635698E+02  0.63168939181E+02  0.41800000000E+01 0.  1.
         -5    1    3    3    0  502 -0.76334283629E+02 -0.26809814399E+00  0.40846727148E+02  0.86677114929E+02  0.41800000000E+01 0.  1.
        -11    1    4    4    0    0  0.26204321183E+01 -0.61268352772E+02  0.72335215944E+02  0.94831751969E+02  0.00000000000E+00 0.  1.
         11    1    4    4    0    0  0.33921848343E+02  0.15935129084E+02  0.12044726647E+02  0.39366172965E+02  0.00000000000E+00 0. -1.
</event>
<event>
 8    1  0.6840032E-009  0.1786360E+03  0.7561462E-02  0.1169130E+00
          2   -1    0    0  501    0  0.00000000000E+00  0.00000000000E+00  0.52854471412E+03  0.52854471412E+03  0.00000000000E+00 0. -1.
         -2   -1    0    0    0  501 -0.00000000000E+00 -0.00000000000E+00 -0.79299249837E+02  0.79299249837E+02  0.00000000000E+00 0.  1.
         25    2    1    2    0    0  0.13143365545E+03 -0.10475920712E+03  0.28605114423E+03  0.35456757220E+03  0.12507441336E+03 0.  0.
         23    2    1    2    0    0 -0.13143365545E+03  0.10475920712E+03  0.16319432005E+03  0.25327639176E+03  0.96266542811E+02 0.  0.
          5    1    3    3  502    0  0.11374262580E+03 -0.54670502368E+02  0.27135219910E+03  0.29929205988E+03  0.41800000000E+01 0.  1.
         -5    1    3    3    0  502  0.17691029654E+02 -0.50088704750E+02  0.14698945133E+02  0.55275512315E+02  0.41800000000E+01 0.  1.
        -11    1    4    4    0    0 -0.43473420164E+02  0.71502176595E+02  0.27306673248E+02  0.88023598668E+02  0.00000000000E+00 0.  1.
         11    1    4    4    0    0 -0.87960235287E+02  0.33257030523E+02  0.13588764680E+03  0.16525279309E+03  0.00000000000E+00 0. -1.
</event>
<event>
 8    1  0.6840032E-009  0.4447387E+02  0.7561462E-02  0.1477653E+00
          1   -1    0    0  501    0  0.00000000000E+00  0.00000000000E+00  0.89702786981E+02  0.89702786981E+02  0.00000000000E+00 0. -1.
         -1   -1    0    0    0  501 -0.00000000000E+00 -0.00000000000E+00 -0.15770919106E+03  0.15770919106E+03  0.00000000000E+00 0.  1.
         25    2    1    2    0    0 -0.27533425784E+02  0.18321239113E+02 -0.61932183809E+00  0.12941773157E+03  0.12511917658E+03 0.  0.
         23    2    1    2    0    0  0.27533425784E+02 -0.18321239113E+02 -0.67387082244E+02  0.11799424647E+03  0.91037717510E+02 0.  0.
          5    1    3    3  502    0  0.64104744175E+01  0.20216926317E+02  0.57792851567E+02  0.61703357966E+02  0.41800000000E+01 0. -1.
         -5    1    3    3    0  502 -0.33943900202E+02 -0.18956872043E+01 -0.58412173405E+02  0.67714373606E+02  0.41800000000E+01 0. -1.
        -11    1    4    4    0    0  0.17648523318E+02 -0.12106379082E+02 -0.90018826186E+02  0.92527962571E+02  0.00000000000E+00 0.  1.
         11    1    4    4    0    0  0.98849024658E+01 -0.62148600316E+01  0.22631743941E+02  0.25466283902E+02  0.00000000000E+00 0. -1.
</event>
<event>
 8    1  0.6840032E-009  0.2087324E+03  0.7561462E-02  0.1142574E+00
         -1   -1    0    0    0  501 -0.00000000000E+00  0.00000000000E+00  0.87731387552E+02  0.87731387552E+02  0.00000000000E+00 0.  1.
          1   -1    0    0  501    0  0.00000000000E+00 -0.00000000000E+00 -0.60490251168E+03  0.60490251168E+03  0.00000000000E+00 0. -1.
         25    2    1    2    0    0  0.16873156588E+03 -0.76564521923E+02 -0.39297664502E+03  0.45211818688E+03  0.12509094305E+03 0.  0.
         23    2    1    2    0    0 -0.16873156588E+03  0.76564521923E+02 -0.12419447911E+03  0.24051571236E+03  0.89950385818E+02 0.  0.
          5    1    3    3  502    0  0.75323027409E+02  0.19995496282E+02 -0.81313722630E+02  0.11270657575E+03  0.41800000000E+01 0. -1.
         -5    1    3    3    0  502  0.93408538466E+02 -0.96560018205E+02 -0.31166292239E+03  0.33941161113E+03  0.41800000000E+01 0. -1.
        -11    1    4    4    0    0 -0.17344889417E+02  0.47885629443E+02 -0.41184402838E+02  0.65498349087E+02  0.00000000000E+00 0.  1.
         11    1    4    4    0    0 -0.15138667646E+03  0.28678892481E+02 -0.83010076270E+02  0.17501736327E+03  0.00000000000E+00 0. -1.
</event>
<event>
 8    1  0.6840032E-009  0.8453154E+02  0.7561462E-02  0.1316662E+00
         -1   -1    0    0    0  501 -0.00000000000E+00  0.00000000000E+00  0.10558130068E+03  0.10558130068E+03  0.00000000000E+00 0.  1.
          1   -1    0    0  501    0  0.00000000000E+00 -0.00000000000E+00 -0.13370299924E+03  0.13370299924E+03  0.00000000000E+00 0. -1.
         25    2    1    2    0    0 -0.27570225100E+02  0.28721088008E+02 -0.44992745414E+02  0.13876782645E+03  0.12508854588E+03 0.  0.
         23    2    1    2    0    0  0.27570225100E+02 -0.28721088008E+02  0.16871046850E+02  0.10051647347E+03  0.90740900421E+02 0.  0.
          5    1    3    3  502    0 -0.70331619193E+02  0.19697404372E+02 -0.57576965791E+02  0.93097281309E+02  0.41800000000E+01 0.  1.
         -5    1    3    3    0  502  0.42761394093E+02  0.90236836351E+01  0.12584220377E+02  0.45670545143E+02  0.41800000000E+01 0.  1.
        -11    1    4    4    0    0 -0.78104805326E+01 -0.69905947439E+01  0.47676748006E+02  0.48815410696E+02  0.00000000000E+00 0.  1.
         11    1    4    4    0    0  0.35380705632E+02 -0.21730493264E+02 -0.30805701155E+02  0.51701062776E+02  0.00000000000E+00 0. -1.
</event>
<event>
 8    1  0.6840032E-009  0.9716938E+02  0.7561462E-02  0.1286364E+00
          2   -1    0    0  501    0  0.00000000000E+00  0.00000000000E+00  0.99984672405E+02  0.99984672405E+02  0.00000000000E+00 0. -1.
         -2   -1    0    0    0  501 -0.00000000000E+00 -0.00000000000E+00 -0.20153381015E+03  0.20153381015E+03  0.00000000000E+00 0.  1.
         25    2    1    2    0    0  0.82491340509E+02 -0.39453414992E+02 -0.60298479672E+02  0.16626557781E+03  0.12508773921E+03 0.  0.
         23    2    1    2    0    0 -0.82491340509E+02  0.39453414992E+02 -0.41250658076E+02  0.13525290475E+03  0.90721211618E+02 0.  0.
          5    1    3    3  502    0 -0.45230138244E+01 -0.83028967845E+01 -0.72244958344E+02  0.72980834164E+02  0.41800000000E+01 0. -1.
         -5    1    3    3    0  502  0.87014354334E+02 -0.31150518207E+02  0.11946478672E+02  0.93284743647E+02  0.41800000000E+01 0. -1.
        -11    1    4    4    0    0 -0.71434770920E+02  0.33079078611E+02  0.12764817952E+02  0.79750188185E+02  0.00000000000E+00 0. -1.
         11    1    4    4    0    0 -0.11056569589E+02  0.63743363811E+01 -0.54015476027E+02  0.55502716563E+02  0.00000000000E+00 0.  1.
</event>
<event>
 8    1  0.6840032E-009  0.1226052E+03  0.7561462E-02  0.1238860E+00
          1   -1    0    0  501    0  0.00000000000E+00  0.00000000000E+00  0.23958884217E+03  0.23958884217E+03  0.00000000000E+00 0. -1.
         -1   -1    0    0    0  501 -0.00000000000E+00 -0.00000000000E+00 -0.27245144796E+03  0.27245144796E+03  0.00000000000E+00 0.  1.
         25    2    1    2    0    0  0.66029321736E+02 -0.30874963717E+02  0.20332051470E+03  0.24960058192E+03  0.12509230225E+03 0.  0.
         23    2    1    2    0    0 -0.66029321736E+02  0.30874963717E+02 -0.23618312049E+03  0.26243970821E+03  0.88198635634E+02 0.  0.
          5    1    3    3  502    0  0.41913461111E+02  0.44172644999E+02  0.12115028256E+03  0.13565700923E+03  0.41800000000E+01 0. -1.
         -5    1    3    3    0  502  0.24115860626E+02 -0.75047608715E+02  0.82170232140E+02  0.11394357269E+03  0.41800000000E+01 0. -1.
        -11    1    4    4    0    0 -0.75459815295E+02  0.26817061250E+01 -0.20875492243E+03  0.22199097484E+03  0.00000000000E+00 0. -1.
         11    1    4    4    0    0  0.94304935585E+01  0.28193257592E+02 -0.27428198060E+02  0.40448733370E+02  0.00000000000E+00 0.  1.
</event>
<event>
 8    1  0.6840032E-009  0.1062204E+03  0.7561462E-02  0.1267734E+00
          4   -1    0    0  501    0  0.00000000000E+00  0.00000000000E+00  0.40555349386E+03  0.40555349386E+03  0.00000000000E+00 0. -1.
         -4   -1    0    0    0  501 -0.00000000000E+00 -0.00000000000E+00 -0.43037290163E+02  0.43037290163E+02  0.00000000000E+00 0.  1.
         25    2    1    2    0    0  0.40695233931E+02 -0.54267086416E+02  0.14528967608E+03  0.20336544877E+03  0.12508955609E+03 0.  0.
         23    2    1    2    0    0 -0.40695233931E+02  0.54267086416E+02  0.21722652762E+03  0.24522533526E+03  0.91362366537E+02 0.  0.
          5    1    3    3  502    0  0.55012523865E+02 -0.62371562204E+02  0.32632802941E+02  0.89436915094E+02  0.41800000000E+01 0. -1.
         -5    1    3    3    0  502 -0.14317289934E+02  0.81044757874E+01  0.11265687314E+03  0.11392853367E+03  0.41800000000E+01 0. -1.
        -11    1    4    4    0    0 -0.48752726173E+01 -0.24862316146E+02  0.33503988278E+02  0.42005003009E+02  0.00000000000E+00 0.  1.
         11    1    4    4    0    0 -0.35819961314E+02  0.79129402563E+02  0.18372253934E+03  0.20322033225E+03  0.00000000000E+00 0. -1.
</event>
<event>
 8    1  0.6840032E-009  0.2053419E+03  0.7561462E-02  0.1145309E+00
          2   -1    0    0  501    0  0.00000000000E+00  0.00000000000E+00  0.34293783210E+03  0.34293783210E+03  0.00000000000E+00 0.  1.
         -2   -1    0    0    0  501 -0.00000000000E+00 -0.00000000000E+00 -0.14758889177E+03  0.14758889177E+03  0.00000000000E+00 0. -1.
         25    2    1    2    0    0  0.17861055811E+03  0.82144376670E+02  0.99912360871E+02  0.25353461590E+03  0.12509153256E+03 0.  0.
         23    2    1    2    0    0 -0.17861055811E+03 -0.82144376670E+02  0.95436579463E+02  0.23699210797E+03  0.91693448260E+02 0.  0.
          5    1    3    3  502    0  0.40693382969E+01  0.30694767556E+02  0.59325540631E+02  0.67050133785E+02  0.41800000000E+01 0.  1.
         -5    1    3    3    0  502  0.17454121981E+03  0.51449609114E+02  0.40586820240E+02  0.18648448211E+03  0.41800000000E+01 0.  1.
        -11    1    4    4    0    0 -0.10826820415E+03 -0.59428213778E+02  0.98426810887E+01  0.12389751811E+03  0.00000000000E+00 0. -1.
         11    1    4    4    0    0 -0.70342353965E+02 -0.22716162892E+02  0.85593898374E+02  0.11309458987E+03  0.00000000000E+00 0.  1.
</event>
<event>
 8    1  0.6840032E-009  0.2091169E+03  0.7561462E-02  0.1142267E+00
          1   -1    0    0  501    0  0.00000000000E+00  0.00000000000E+00  0.23468690178E+04  0.23468690178E+04  0.00000000000E+00 0. -1.
         -1   -1    0    0    0  501 -0.00000000000E+00 -0.00000000000E+00 -0.24495495109E+02  0.24495495109E+02  0.00000000000E+00 0.  1.
         25    2    1    2    0    0 -0.11956474504E+03  0.14716112921E+03  0.16883721556E+04  0.17035864573E+04  0.12511656685E+03 0.  0.
         23    2    1    2    0    0  0.11956474504E+03 -0.14716112921E+03  0.63400136704E+03  0.66777805561E+03  0.89541453763E+02 0.  0.
          5    1    3    3  502    0 -0.45700986204E+02 -0.15507050864E+02  0.34929611553E+03  0.35263904704E+03  0.41800000000E+01 0. -1.
         -5    1    3    3    0  502 -0.73863758839E+02  0.16266818007E+03  0.13390760401E+04  0.13509474102E+04  0.41800000000E+01 0. -1.
        -11    1    4    4    0    0  0.38805166037E+02 -0.66214163873E+02  0.40045037117E+03  0.40773846542E+03  0.00000000000E+00 0. -1.
         11    1    4    4    0    0  0.80759579006E+02 -0.80946965335E+02  0.23355099586E+03  0.26003959019E+03  0.00000000000E+00 0.  1.
</event>
<event>
 8    1  0.6840032E-009  0.7565120E+02  0.7561462E-02  0.1341866E+00
         -2   -1    0    0    0  501 -0.00000000000E+00  0.00000000000E+00  0.38460443671E+02  0.38460443671E+02  0.00000000000E+00 0.  1.
          2   -1    0    0  501    0  0.00000000000E+00 -0.00000000000E+00 -0.62315346116E+03  0.62315346116E+03  0.00000000000E+00 0. -1.
         25    2    1    2    0    0  0.99683284455E+01  0.32586653579E+02 -0.54053681807E+03  0.55586857225E+03  0.12509420595E+03 0.  0.
         23    2    1    2    0    0 -0.99683284455E+01 -0.32586653579E+02 -0.44156199421E+02  0.10574533258E+03  0.89839010750E+02 0.  0.
          5    1    3    3  502    0  0.26088801469E+02  0.73841263659E+01 -0.51659658773E+03  0.51732451879E+03  0.41800000000E+01 0.  1.
         -5    1    3    3    0  502 -0.16120473023E+02  0.25202527214E+02 -0.23940230336E+02  0.38544053458E+02  0.41800000000E+01 0.  1.
        -11    1    4    4    0    0 -0.48800342115E+02 -0.21089380580E+02 -0.13215719788E+02  0.54780385297E+02  0.00000000000E+00 0. -1.
         11    1    4    4    0    0  0.38832013670E+02 -0.11497273000E+02 -0.30940479633E+02  0.50964947287E+02  0.00000000000E+00 0.  1.
</event>
<event>
 8    1  0.6840032E-009  0.2550424E+03  0.7561462E-02  0.1110159E+00
         -1   -1    0    0    0  501 -0.00000000000E+00  0.00000000000E+00  0.10169579136E+03  0.10169579136E+03  0.00000000000E+00 0.  1.
          1   -1    0    0  501    0  0.00000000000E+00 -0.00000000000E+00 -0.75595746196E+03  0.75595746196E+03  0.00000000000E+00 0. -1.
         25    2    1    2    0    0 -0.25011453824E+03 -0.38611188046E+02 -0.28897718653E+03  0.40398482390E+03  0.12509123678E+03 0.  0.
         23    2    1    2    0    0  0.25011453824E+03  0.38611188046E+02 -0.36528448406E+03  0.45366842942E+03  0.91291749208E+02 0.  0.
          5    1    3    3  502    0 -0.85038864494E+02 -0.97749821005E+01 -0.19216473426E+03  0.21040892625E+03  0.41800000000E+01 0.  1.
         -5    1    3    3    0  502 -0.16507567375E+03 -0.28836205945E+02 -0.96812452271E+02  0.19357589765E+03  0.41800000000E+01 0.  1.
        -11    1    4    4    0    0  0.65994537184E+02  0.29841036858E+02 -0.48526192842E+02  0.87181178075E+02  0.00000000000E+00 0.  1.
         11    1    4    4    0    0  0.18412000106E+03  0.87701511882E+01 -0.31675829122E+03  0.36648725134E+03  0.00000000000E+00 0. -1.
</event>
<event>
 7    1  0.6840032E-009  0.9035388E+02  0.7561462E-02  0.1301997E+00
         -2   -1    0    0    0  501 -0.00000000000E+00  0.00000000000E+00  0.12575134557E+03  0.12575134557E+03  0.00000000000E+00 0.  1.
          2   -1    0    0  501    0  0.00000000000E+00 -0.00000000000E+00 -0.10941801186E+03  0.10941801186E+03  0.00000000000E+00 0. -1.
         23    2    1    2    0    0 -0.13425609869E+02  0.25769138230E+02 -0.31117792007E+02  0.98330089549E+02  0.88635173864E+02 0.  0.
          5    1    1    2  502    0  0.48455406180E+01  0.39314590840E+02 -0.18298384048E+02  0.43834000223E+02  0.41800000000E+01 0. -1.
         -5    1    1    2    0  502  0.85800692510E+01 -0.65083729070E+02  0.65749509766E+02  0.93005267659E+02  0.41800000000E+01 0. -1.
        -11    1    3    3    0    0 -0.31240400030E+02 -0.11897260515E+02  0.14595751809E+02  0.36476614052E+02  0.00000000000E+00 0.  1.
         11    1    3    3    0    0  0.17814790161E+02  0.37666398745E+02 -0.45713543816E+02  0.61853475497E+02  0.00000000000E+00 0. -1.
</event>
<event>
 8    1  0.6840032E-009  0.1198316E+03  0.7561462E-02  0.1243375E+00
          1   -1    0    0  501    0  0.00000000000E+00  0.00000000000E+00  0.10089981124E+04  0.10089981124E+04  0.00000000000E+00 0. -1.
         -1   -1    0    0    0  501 -0.00000000000E+00 -0.00000000000E+00 -0.25994163066E+02  0.25994163066E+02  0.00000000000E+00 0.  1.
         25    2    1    2    0    0 -0.68478523681E+02 -0.55296896862E+02  0.78087283381E+03  0.79571206552E+03  0.12509297994E+03 0.  0.
         23    2    1    2    0    0  0.68478523681E+02  0.55296896862E+02  0.20213111552E+03  0.23928020994E+03  0.93010623043E+02 0.  0.
          5    1    3    3  502    0 -0.28456455714E+02  0.14136691111E+02  0.43743547000E+02  0.54227172261E+02  0.41800000000E+01 0.  1.
         -5    1    3    3    0  502 -0.40022067967E+02 -0.69433587973E+02  0.73712928681E+03  0.74148489326E+03  0.41800000000E+01 0.  1.
        -11    1    4    4    0    0  0.80792089178E+02  0.70897781881E+02  0.16078818427E+03  0.19340811087E+03  0.00000000000E+00 0.  1.
         11    1    4    4    0    0 -0.12313565497E+02 -0.15600885019E+02  0.41342931251E+02  0.45872099070E+02  0.00000000000E+00 0. -1.
</event>
<event>
 8    1  0.6840032E-009  0.2414438E+03  0.7561462E-02  0.1118835E+00
          2   -1    0    0  501    0  0.00000000000E+00  0.00000000000E+00  0.19564367621E+04  0.19564367621E+04  0.00000000000E+00 0. -1.
         -2   -1    0    0    0  501 -0.00000000000E+00 -0.00000000000E+00 -0.38098049647E+02  0.38098049647E+02  0.00000000000E+00 0.  1.
         25    2    1    2    0    0 -0.18196128536E+03  0.12398986599E+03  0.14167655079E+04  0.14392182501E+04  0.12506506660E+03 0.  0.
         23    2    1    2    0    0  0.18196128536E+03 -0.12398986599E+03  0.50157320460E+03  0.55531656167E+03  0.91199823740E+02 0.  0.
          5    1    3    3  502    0 -0.44137088226E+02  0.94310291584E+02  0.43135463168E+03  0.44376435675E+03  0.41800000000E+01 0.  1.
         -5    1    3    3    0  502 -0.13782419714E+03  0.29679574404E+02  0.98541087622E+03  0.99545389337E+03  0.41800000000E+01 0.  1.
        -11    1    4    4    0    0  0.15956101343E+03 -0.61080560523E+02  0.37908792863E+03  0.41581030473E+03  0.00000000000E+00 0.  1.
         11    1    4    4    0    0  0.22400271929E+02 -0.62909305466E+02  0.12248527597E+03  0.13950625694E+03  0.00000000000E+00 0. -1.
</event>
<event>
 8    1  0.6840032E-009  0.1002763E+03  0.7561462E-02  0.1279716E+00
          1   -1    0    0  501    0  0.00000000000E+00  0.00000000000E+00  0.10214418790E+03  0.10214418790E+03  0.00000000000E+00 0. -1.
         -1   -1    0    0    0  501 -0.00000000000E+00 -0.00000000000E+00 -0.15248464614E+03  0.15248464614E+03  0.00000000000E+00 0.  1.
         25    2    1    2    0    0  0.48097890460E+01  0.12479451300E+02  0.32490825898E+02  0.12993159675E+03  0.12509074822E+03 0.  0.
         23    2    1    2    0    0 -0.48097890460E+01 -0.12479451300E+02 -0.82831284142E+02  0.12469723730E+03  0.92246997682E+02 0.  0.
          5    1    3    3  502    0 -0.31082934144E+02 -0.41361111688E+02  0.38766722364E+02  0.64785966983E+02  0.41800000000E+01 0.  1.
         -5    1    3    3    0  502  0.35892723190E+02  0.53840562988E+02 -0.62758964660E+01  0.65145629764E+02  0.41800000000E+01 0.  1.
        -11    1    4    4    0    0  0.20720166419E+02 -0.40747206613E+02 -0.71667051941E+02  0.85004861491E+02  0.00000000000E+00 0.  1.
         11    1    4    4    0    0 -0.25529955465E+02  0.28267755313E+02 -0.11164232201E+02  0.39692375806E+02  0.00000000000E+00 0. -1.
</event>
<event>
 8    1  0.6840032E-009  0.1289254E+03  0.7561462E-02  0.1229059E+00
          2   -1    0    0  501    0  0.00000000000E+00  0.00000000000E+00  0.12351481298E+04  0.12351481298E+04  0.00000000000E+00 0. -1.
         -2   -1    0    0    0  501 -0.00000000000E+00 -0.00000000000E+00 -0.16642131809E+02  0.16642131809E+02  0.00000000000E+00 0.  1.
         25    2    1    2    0    0 -0.82953441149E+02  0.48192094818E+02  0.68637752056E+03  0.70424871771E+03  0.12509358199E+03 0.  0.
         23    2    1    2    0    0  0.82953441149E+02 -0.48192094818E+02  0.53212847745E+03  0.54754154393E+03  0.86239633635E+02 0.  0.
          5    1    3    3  502    0  0.18603858497E+02 -0.10547272148E+01  0.17500295550E+02  0.25902678333E+02  0.41800000000E+01 0. -1.
         -5    1    3    3    0  502 -0.10155729965E+03  0.49246822033E+02  0.66887722501E+03  0.67834603937E+03  0.41800000000E+01 0. -1.
        -11    1    4    4    0    0 -0.26974547590E+01 -0.39640355208E+02  0.11636415105E+03  0.12296035814E+03  0.00000000000E+00 0.  1.
         11    1    4    4    0    0  0.85650895908E+02 -0.85517396103E+01  0.41576432640E+03  0.42458118579E+03  0.00000000000E+00 0. -1.
</event>
<event>
 8    1  0.6840032E-009  0.9446618E+02  0.7561462E-02  0.1292383E+00
         -2   -1    0    0    0  501 -0.00000000000E+00  0.00000000000E+00  0.94093474589E+02  0.94093474589E+02  0.00000000000E+00 0. -1.
          2   -1    0    0  501    0  0.00000000000E+00 -0.00000000000E+00 -0.16099407771E+03  0.16099407771E+03  0.00000000000E+00 0.  1.
         25    2    1    2    0    0 -0.22411291468E+02 -0.39121567366E+02 -0.73950563901E+02  0.15214635530E+03  0.12508822691E+03 0.  0.
         23    2    1    2    0    0  0.22411291468E+02  0.39121567366E+02  0.70499607783E+01  0.10294119700E+03  0.92273642361E+02 0.  0.
          5    1    3    3  502    0  0.18593564051E+02 -0.60205998974E+02  0.20175046639E+01  0.63182479071E+02  0.41800000000E+01 0. -1.
         -5    1    3    3    0  502 -0.41004855518E+02  0.21084431607E+02 -0.75968068565E+02  0.88963876229E+02  0.41800000000E+01 0. -1.
        -11    1    4    4    0    0 -0.19768907888E+02  0.30634616493E+02 -0.29175929495E+02  0.46696084511E+02  0.00000000000E+00 0.  1.
         11    1    4    4    0    0  0.42180199356E+02  0.84869508735E+01  0.36225890274E+02  0.56245112489E+02  0.00000000000E+00 0. -1.
</event>
<event>
 8    1  0.6840032E-009  0.2383052E+03  0.7561462E-02  0.1120927E+00
          3   -1    0    0  501    0  0.00000000000E+00  0.00000000000E+00  0.69301395827E+03  0.69301395827E+03  0.00000000000E+00 0. -1.
         -3   -1    0    0    0  501 -0.00000000000E+00 -0.00000000000E+00 -0.99825173137E+02  0.99825173137E+02  0.00000000000E+00 0.  1.
         25    2    1    2    0    0 -0.89248211939E+02  0.21569932740E+03  0.38283051530E+03  0.46550664638E+03  0.12508313716E+03 0.  0.
         23    2    1    2    0    0  0.89248211939E+02 -0.21569932740E+03  0.21035826983E+03  0.32733248503E+03  0.91676119526E+02 0.  0.
          5    1    3    3  502    0 -0.70040108154E+02  0.81530053307E+02  0.26449695884E+03  0.28553262507E+03  0.41800000000E+01 0. -1.
         -5    1    3    3    0  502 -0.19208103785E+02  0.13416927410E+03  0.11833355646E+03  0.17997402131E+03  0.41800000000E+01 0. -1.
        -11    1    4    4    0    0  0.19069091776E+02 -0.48390889752E+02  0.10588935569E+03  0.11797399765E+03  0.00000000000E+00 0. -1.
         11    1    4    4    0    0  0.70179120163E+02 -0.16730843765E+03  0.10446891414E+03  0.20935848738E+03  0.00000000000E+00 0.  1.
</event>
<event>
 8    1  0.6840032E-009  0.7243818E+02  0.7561462E-02  0.1351993E+00
         -1   -1    0    0    0  501 -0.00000000000E+00  0.00000000000E+00  0.12465575153E+02  0.12465575153E+02  0.00000000000E+00 0.  1.
          1   -1    0    0  501    0  0.00000000000E+00 -0.00000000000E+00 -0.11229108194E+04  0.11229108194E+04  0.00000000000E+00 0. -1.
         25    2    1    2    0    0  0.42336440047E+02 -0.88707152502E+01 -0.76637064035E+03  0.77771626524E+03  0.12509023578E+03 0.  0.
         23    2    1    2    0    0 -0.42336440047E+02  0.88707152502E+01 -0.34407460391E+03  0.35766012933E+03  0.87534971911E+02 0.  0.
          5    1    3    3  502    0  0.92944855512E+01 -0.11306880937E+02 -0.56095492349E+01  0.16222591063E+02  0.41800000000E+01 0.  1.
         -5    1    3    3    0  502  0.33041954496E+02  0.24361656870E+01 -0.76076109111E+03  0.76149367418E+03  0.41800000000E+01 0.  1.
        -11    1    4    4    0    0  0.17267448002E+02  0.28657613717E+02 -0.92497610610E+02  0.98362754907E+02  0.00000000000E+00 0. -1.
         11    1    4    4    0    0 -0.59603888049E+02 -0.19786898466E+02 -0.25157699330E+03  0.25929737442E+03  0.00000000000E+00 0.  1.
</event>
<event>
 8    1  0.6840032E-009  0.1793950E+03  0.7561462E-02  0.1168390E+00
         -1   -1    0    0    0  501 -0.00000000000E+00  0.00000000000E+00  0.25066628529E+03  0.25066628529E+03  0.00000000000E+00 0.  1.
          1   -1    0    0  501    0  0.00000000000E+00 -0.00000000000E+00 -0.14988421359E+03  0.14988421359E+03  0.00000000000E+00 0. -1.
         25    2    1    2    0    0  0.11334180255E+03 -0.11087689224E+03  0.80930672794E+02  0.21757110553E+03  0.12508941893E+03 0.  0.
         23    2    1    2    0    0 -0.11334180255E+03  0.11087689224E+03  0.19851398903E+02  0.18297939334E+03  0.89147803751E+02 0.  0.
          5    1    3    3  502    0  0.63010173857E+02 -0.12354417803E+03  0.89059455512E+02  0.16487117684E+03  0.41800000000E+01 0.  1.
         -5    1    3    3    0  502  0.50331628689E+02  0.12667285798E+02 -0.81287827181E+01  0.52699928695E+02  0.41800000000E+01 0.  1.
        -11    1    4    4    0    0 -0.60070852175E+02  0.21266181038E+02  0.42109780768E+02  0.76380569343E+02  0.00000000000E+00 0.  1.
         11    1    4    4    0    0 -0.53270950372E+02  0.89610711199E+02 -0.22258381864E+02  0.10659882400E+03  0.00000000000E+00 0. -1.
</event>
<event>
 8    1  0.6840032E-009  0.1009929E+03  0.7561462E-02  0.1278222E+00
          1   -1    0    0  501    0  0.00000000000E+00  0.00000000000E+00  0.50110281499E+02  0.50110281499E+02  0.00000000000E+00 0. -1.
         -1   -1    0    0    0  501 -0.00000000000E+00 -0.00000000000E+00 -0.25309516653E+03  0.25309516653E+03  0.00000000000E+00 0.  1.
         25    2    1    2    0    0 -0.30468249685E+02 -0.31066083055E+01 -0.12960719200E+03  0.18270792828E+03  0.12508476159E+03 0.  0.
         23    2    1    2    0    0  0.30468249685E+02  0.31066083055E+01 -0.73377693026E+02  0.12049751975E+03  0.90539500653E+02 0.  0.
          5    1    3    3  502    0 -0.71463126950E+02 -0.62839148773E+01 -0.12063376875E+03  0.14041525794E+03  0.41800000000E+01 0.  1.
         -5    1    3    3    0  502  0.40994877265E+02  0.31773065718E+01 -0.89734232520E+01  0.42292670333E+02  0.41800000000E+01 0.  1.
        -11    1    4    4    0    0  0.57827263849E+02  0.13749297483E+02 -0.26257060142E+02  0.64980526567E+02  0.00000000000E+00 0. -1.
         11    1    4    4    0    0 -0.27359014165E+02 -0.10642689177E+02 -0.47120632884E+02  0.55516993185E+02  0.00000000000E+00 0.  1.
</event>
<event>
 8    1  0.6840032E-009  0.1301139E+03  0.7561462E-02  0.1227287E+00
          2   -1    0    0  501    0  0.00000000000E+00  0.00000000000E+00  0.27704617370E+03  0.27704617370E+03  0.00000000000E+00 0. -1.
         -2   -1    0    0    0  501 -0.00000000000E+00 -0.00000000000E+00 -0.22268128150E+03  0.22268128150E+03  0.00000000000E+00 0.  1.
         25    2    1    2    0    0  0.68536868641E+02 -0.85532197388E+02 -0.16786347307E+03  0.23630153603E+03  0.12508881320E+03 0.  0.
         23    2    1    2    0    0 -0.68536868641E+02  0.85532197388E+02  0.22222836527E+03  0.26342591916E+03  0.89413138874E+02 0.  0.
          5    1    3    3  502    0  0.58320992459E+02 -0.11768165345E+02 -0.14732493853E+03  0.15894004464E+03  0.41800000000E+01 0.  1.
         -5    1    3    3    0  502  0.10215876182E+02 -0.73764032044E+02 -0.20538534536E+02  0.77361491392E+02  0.41800000000E+01 0.  1.
        -11    1    4    4    0    0 -0.79987598502E+02  0.67621385243E+02  0.21784982646E+03  0.24172135724E+03  0.00000000000E+00 0. -1.
         11    1    4    4    0    0  0.11450729861E+02  0.17910812146E+02  0.43785388029E+01  0.21704561920E+02  0.00000000000E+00 0.  1.
</event>
<event>
 8    1  0.6840032E-009  0.8781969E+02  0.7561462E-02  0.1308219E+00
          4   -1    0    0  501    0  0.00000000000E+00  0.00000000000E+00  0.21221662681E+03  0.21221662681E+03  0.00000000000E+00 0. -1.
         -4   -1    0    0    0  501 -0.00000000000E+00 -0.00000000000E+00 -0.54918430939E+02  0.54918430939E+02  0.00000000000E+00 0.  1.
         25    2    1    2    0    0 -0.27056609508E+02 -0.84863075748E+01  0.10331266465E+03  0.16469745311E+03  0.12509063454E+03 0.  0.
         23    2    1    2    0    0  0.27056609508E+02  0.84863075748E+01  0.53985531215E+02  0.10243760464E+03  0.82310070641E+02 0.  0.
          5    1    3    3  502    0  0.83649665664E+01 -0.40131383395E+02 -0.94427844378E+01  0.42274568913E+02  0.41800000000E+01 0. -1.
         -5    1    3    3    0  502 -0.35421576074E+02  0.31645075820E+02  0.11275544909E+03  0.12242288420E+03  0.41800000000E+01 0. -1.
        -11    1    4    4    0    0  0.41128914964E+02  0.36764121029E+02  0.30143161579E+02  0.62863331372E+02  0.00000000000E+00 0.  1.
         11    1    4    4    0    0 -0.14072305456E+02 -0.28277813454E+02  0.23842369636E+02  0.39574273265E+02  0.00000000000E+00 0. -1.
</event>
<event>
 8    1  0.6840032E-009  0.1180464E+03  0.7561462E-02  0.1246355E+00
         -2   -1    0    0    0  501 -0.00000000000E+00  0.00000000000E+00  0.26708297642E+02  0.26708297642E+02  0.00000000000E+00 0.  1.
          2   -1    0    0  501    0  0.00000000000E+00 -0.00000000000E+00 -0.65777271591E+03  0.65777271591E+03  0.00000000000E+00 0. -1.
         25    2    1    2    0    0 -0.31277705331E+01 -0.68877989574E+02 -0.30440901403E+03  0.33625396159E+03  0.12509164027E+03 0.  0.
         23    2    1    2    0    0  0.31277705331E+01  0.68877989574E+02 -0.32665540424E+03  0.34822705196E+03  0.99016999573E+02 0.  0.
          5    1    3    3  502    0  0.46853417590E+02 -0.45422825148E+02 -0.25080105478E+03  0.25918548814E+03  0.41800000000E+01 0.  1.
         -5    1    3    3    0  502 -0.49981188123E+02 -0.23455164427E+02 -0.53607959246E+02  0.77068473444E+02  0.41800000000E+01 0.  1.
        -11    1    4    4    0    0  0.26029962849E+02  0.83965512310E+02 -0.28584939755E+03  0.29906127182E+03  0.00000000000E+00 0.  1.
         11    1    4    4    0    0 -0.22902192316E+02 -0.15087522735E+02 -0.40806006688E+02  0.49165780142E+02  0.00000000000E+00 0. -1.
</event>
<event>
 8    1  0.6840032E-009  0.1231286E+03  0.7561462E-02  0.1238023E+00
          3   -1    0    0  501    0  0.00000000000E+00  0.00000000000E+00  0.88609628214E+03  0.88609628214E+03  0.00000000000E+00 0. -1.
         -3   -1    0    0    0  501 -0.00000000000E+00 -0.00000000000E+00 -0.26173866434E+02  0.26173866434E+02  0.00000000000E+00 0.  1.
         25    2    1    2    0    0  0.76468870038E+02 -0.62476683200E+02  0.58463322117E+03  0.60596722783E+03  0.12509777731E+03 0.  0.
         23    2    1    2    0    0 -0.76468870038E+02  0.62476683200E+02  0.27528919454E+03  0.30630292074E+03  0.91030294930E+02 0.  0.
          5    1    3    3  502    0  0.47682527794E+02 -0.90049329167E+02  0.26695704361E+03  0.28577270807E+03  0.41800000000E+01 0.  1.
         -5    1    3    3    0  502  0.28786342245E+02  0.27572645966E+02  0.31767617755E+03  0.32019451977E+03  0.41800000000E+01 0.  1.
        -11    1    4    4    0    0 -0.85408751302E+01  0.25425369741E+02  0.79255911418E+01  0.27968034779E+02  0.00000000000E+00 0.  1.
         11    1    4    4    0    0 -0.67927994908E+02  0.37051313460E+02  0.26736360340E+03  0.27833488596E+03  0.00000000000E+00 0. -1.
</event>
<event>
 8    1  0.6840032E-009  0.3095987E+02  0.7561462E-02  0.1587715E+00
         -1   -1    0    0    0  501 -0.00000000000E+00  0.00000000000E+00  0.15546128420E+03  0.15546128420E+03  0.00000000000E+00 0. -1.
          1   -1    0    0  501    0  0.00000000000E+00 -0.00000000000E+00 -0.76145830549E+02  0.76145830549E+02  0.00000000000E+00 0.  1.
         25    2    1    2    0    0 -0.64666121019E+01  0.46539513057E+01  0.41442335564E+02  0.13201488348E+03  0.12508791288E+03 0.  0.
         23    2    1    2    0    0  0.64666121019E+01 -0.46539513057E+01  0.37873118084E+02  0.99592231267E+02  0.91764716098E+02 0.  0.
          5    1    3    3  502    0  0.94272060324E+01  0.63107411303E+01  0.84779202589E+02  0.85636926958E+02  0.41800000000E+01 0.  1.
         -5    1    3    3    0  502 -0.15893818134E+02 -0.16567898246E+01 -0.43336867025E+02  0.46377956520E+02  0.41800000000E+01 0.  1.
        -11    1    4    4    0    0  0.19331543101E+02  0.77842842198E+00 -0.27009432386E+02  0.33223846064E+02  0.00000000000E+00 0.  1.
         11    1    4    4    0    0 -0.12864930999E+02 -0.54323797277E+01  0.64882550470E+02  0.66368385204E+02  0.00000000000E+00 0. -1.
</event>
<event>
 8    1  0.6840032E-009  0.1320033E+03  0.7561462E-02  0.1224513E+00
         -2   -1    0    0    0  501 -0.00000000000E+00  0.00000000000E+00  0.35249744045E+02  0.35249744045E+02  0.00000000000E+00 0.  1.
          2   -1    0    0  501    0  0.00000000000E+00 -0.00000000000E+00 -0.85651559810E+03  0.85651559810E+03  0.00000000000E+00 0. -1.
         25    2    1    2    0    0  0.10291084313E+03  0.11675509324E+02 -0.21222266961E+03  0.26723187419E+03  0.12508978350E+03 0.  0.
         23    2    1    2    0    0 -0.10291084313E+03 -0.11675509324E+02 -0.60904318445E+03  0.62453346796E+03  0.91550493856E+02 0.  0.
          5    1    3    3  502    0  0.50708032987E+02  0.49517997412E+02 -0.36136523893E+02  0.79665911381E+02  0.41800000000E+01 0. -1.
         -5    1    3    3    0  502  0.52202810141E+02 -0.37842488087E+02 -0.17608614571E+03  0.18756596281E+03  0.41800000000E+01 0. -1.
        -11    1    4    4    0    0 -0.81214806542E+02 -0.41746127337E+02 -0.52191175093E+03  0.52984003218E+03  0.00000000000E+00 0.  1.
         11    1    4    4    0    0 -0.21696036586E+02  0.30070618013E+02 -0.87131433527E+02  0.94693435779E+02  0.00000000000E+00 0. -1.
</event>
<event>
 8    1  0.6840032E-009  0.8709943E+02  0.7561462E-02  0.1310032E+00
          2   -1    0    0  501    0  0.00000000000E+00  0.00000000000E+00  0.45463981972E+03  0.45463981972E+03  0.00000000000E+00 0. -1.
         -2   -1    0    0    0  501 -0.00000000000E+00 -0.00000000000E+00 -0.30280798680E+02  0.30280798680E+02  0.00000000000E+00 0.  1.
         25    2    1    2    0    0 -0.29825552506E+02  0.18363732484E+02  0.29044514488E+03  0.31817054810E+03  0.12508926907E+03 0.  0.
         23    2    1    2    0    0  0.29825552506E+02 -0.18363732484E+02  0.13391387616E+03  0.16675007031E+03  0.92983167649E+02 0.  0.
          5    1    3    3  502    0  0.22207212443E+02 -0.24242966469E+02  0.21279890208E+03  0.21536417259E+03  0.41800000000E+01 0. -1.
         -5    1    3    3    0  502 -0.52032764949E+02  0.42606698953E+02  0.77646242805E+02  0.10280637551E+03  0.41800000000E+01 0. -1.
        -11    1    4    4    0    0  0.50571776752E+02 -0.14037186615E+02  0.29498132379E+02  0.60205373729E+02  0.00000000000E+00 0.  1.
         11    1    4    4    0    0 -0.20746224246E+02 -0.43265458689E+01  0.10441574378E+03  0.10654469658E+03  0.00000000000E+00 0. -1.
</event>
<event>
 8    1  0.6840032E-009  0.1099304E+03  0.7561462E-02  0.1260699E+00
          1   -1    0    0  501    0  0.00000000000E+00  0.00000000000E+00  0.13393306111E+03  0.13393306111E+03  0.00000000000E+00 0. -1.
         -1   -1    0    0    0  501 -0.00000000000E+00 -0.00000000000E+00 -0.13468694144E+03  0.13468694144E+03  0.00000000000E+00 0.  1.
         25    2    1    2    0    0 -0.77380181488E+02 -0.11417035040E+02 -0.69014505766E+01  0.14769614447E+03  0.12509388432E+03 0.  0.
         23    2    1    2    0    0  0.77380181488E+02  0.11417035040E+02  0.61475702471E+01  0.12092385809E+03  0.92014920846E+02 0.  0.
          5    1    3    3  502    0  0.13270440225E+02 -0.27257781477E+02  0.35002054005E+02  0.46494165434E+02  0.41800000000E+01 0.  1.
         -5    1    3    3    0  502 -0.90650621713E+02  0.15840746438E+02 -0.41903504581E+02  0.10120197904E+03  0.41800000000E+01 0.  1.
        -11    1    4    4    0    0  0.55852607717E+02  0.34441033144E+02  0.38234734410E+02  0.75944673732E+02  0.00000000000E+00 0. -1.
         11    1    4    4    0    0  0.21527573771E+02 -0.23023998104E+02 -0.32087164163E+02  0.44979184354E+02  0.00000000000E+00 0.  1.
</event>
<event>
 8    1  0.6840032E-009  0.1104209E+03  0.7561462E-02  0.1259792E+00
         -3   -1    0    0    0  501 -0.00000000000E+00  0.00000000000E+00  0.17378699884E+03  0.17378699884E+03  0.00000000000E+00 0.  1.
          3   -1    0    0  501    0  0.00000000000E+00 -0.00000000000E+00 -0.75238815241E+02  0.75238815241E+02  0.00000000000E+00 0. -1.
         25    2    1    2    0    0  0.27724640781E+02  0.22703034562E+02  0.72743879082E+02  0.14907615365E+03  0.12509174297E+03 0.  0.
         23    2    1    2    0    0 -0.27724640781E+02 -0.22703034562E+02  0.25804304519E+02  0.99949660433E+02  0.89665985770E+02 0.  0.
          5    1    3    3  502    0 -0.76175459949E+01 -0.47537333336E+02  0.43685342113E+02  0.65143737867E+02  0.41800000000E+01 0.  1.
         -5    1    3    3    0  502  0.35342186776E+02  0.70240367898E+02  0.29058536969E+02  0.83932415784E+02  0.41800000000E+01 0.  1.
        -11    1    4    4    0    0  0.25944059811E+02 -0.29944345413E+02 -0.76612121379E+00  0.39627578823E+02  0.00000000000E+00 0.  1.
         11    1    4    4    0    0 -0.53668700592E+02  0.72413108510E+01  0.26570425733E+02  0.60322081610E+02  0.00000000000E+00 0. -1.
</event>
<event>
 8    1  0.6840032E-009  0.1096652E+03  0.7561462E-02  0.1261191E+00
         -2   -1    0    0    0  501 -0.00000000000E+00  0.00000000000E+00  0.56717369735E+02  0.56717369735E+02  0.00000000000E+00 0.  1.
          2   -1    0    0  501    0  0.00000000000E+00 -0.00000000000E+00 -0.33213688790E+03  0.33213688790E+03  0.00000000000E+00 0. -1.
         25    2    1    2    0    0  0.68556343937E+02 -0.16802385571E+02 -0.22056433022E+03  0.26319679023E+03  0.12506651896E+03 0.  0.
         23    2    1    2    0    0 -0.68556343937E+02  0.16802385571E+02 -0.54855187939E+02  0.12565746740E+03  0.88308635001E+02 0.  0.
          5    1    3    3  502    0  0.73992874540E+02 -0.41097831225E+02 -0.68263734523E+02  0.10881813757E+03  0.41800000000E+01 0.  1.
         -5    1    3    3    0  502 -0.54365306033E+01  0.24295445654E+02 -0.15230059570E+03  0.15437865265E+03  0.41800000000E+01 0.  1.
        -11    1    4    4    0    0 -0.23384024681E+02  0.48713517277E+02 -0.43090650098E+02  0.69113121053E+02  0.00000000000E+00 0. -1.
         11    1    4    4    0    0 -0.45172319256E+02 -0.31911131706E+02 -0.11764537841E+02  0.56544346351E+02  0.00000000000E+00 0.  1.
</event>
<event>
 8    1  0.6840032E-009  0.9331683E+02  0.7561462E-02  0.1295013E+00
          1   -1    0    0  501    0  0.00000000000E+00  0.00000000000E+00  0.67708372923E+03  0.67708372923E+03  0.00000000000E+00 0. -1.
         -1   -1    0    0    0  501 -0.00000000000E+00 -0.00000000000E+00 -0.22813731904E+02  0.22813731904E+02  0.00000000000E+00 0.  1.
         25    2    1    2    0    0  0.48692053014E+02  0.30579820979E+02  0.34112415694E+03  0.36785752876E+03  0.12508968601E+03 0.  0.
         23    2    1    2    0    0 -0.48692053014E+02 -0.30579820979E+02  0.31314584039E+03  0.33203993237E+03  0.94255810729E+02 0.  0.
          5    1    3    3  502    0  0.65845395368E+01 -0.30244862869E+02  0.17383525709E+02  0.35745870488E+02  0.41800000000E+01 0.  1.
         -5    1    3    3    0  502  0.42107513477E+02  0.60824683848E+02  0.32374063123E+03  0.33211165828E+03  0.41800000000E+01 0.  1.
        -11    1    4    4    0    0  0.87294174773E+01  0.82297609881E+01  0.71957492376E+00  0.12018713886E+02  0.00000000000E+00 0.  1.
         11    1    4    4    0    0 -0.57421470491E+02 -0.38809581967E+02  0.31242626547E+03  0.32002121848E+03  0.00000000000E+00 0. -1.
</event>
<event>
 8    1  0.6840032E-009  0.1150460E+03  0.7561462E-02  0.1251501E+00
         -2   -1    0    0    0  501 -0.00000000000E+00  0.00000000000E+00  0.11170012772E+04  0.11170012772E+04  0.00000000000E+00 0.  1.
          2   -1    0    0  501    0  0.00000000000E+00 -0.00000000000E+00 -0.16037717657E+02  0.16037717657E+02  0.00000000000E+00 0. -1.
         25    2    1    2    0    0 -0.16042536045E+02 -0.33816925570E+02  0.85737464922E+03  0.86725986749E+03  0.12508973265E+03 0.  0.
         23    2    1    2    0    0  0.16042536045E+02  0.33816925570E+02  0.24358891028E+03  0.26577912733E+03  0.99508994030E+02 0.  0.
          5    1    3    3  502    0 -0.49871745274E+02  0.29882579090E+02  0.39272268698E+03  0.39702486167E+03  0.41800000000E+01 0.  1.
         -5    1    3    3    0  502  0.33829209229E+02 -0.63699504660E+02  0.46465196224E+03  0.47023500583E+03  0.41800000000E+01 0.  1.
        -11    1    4    4    0    0 -0.35550283833E+02  0.32158182991E+02  0.16444242614E+03  0.17128713591E+03  0.00000000000E+00 0.  1.
         11    1    4    4    0    0  0.51592819878E+02  0.16587425791E+01  0.79146484146E+02  0.94491991421E+02  0.00000000000E+00 0. -1.
</event>
<event>
 8    1  0.6840032E-009  0.1418743E+03  0.7561462E-02  0.1210829E+00
          4   -1    0    0  501    0  0.00000000000E+00  0.00000000000E+00  0.15542601920E+02  0.15542601920E+02  0.00000000000E+00 0. -1.
         -4   -1    0    0    0  501 -0.00000000000E+00 -0.00000000000E+00 -0.13448289504E+04  0.13448289504E+04  0.00000000000E+00 0.  1.
         25    2    1    2    0    0 -0.91964519803E+02 -0.11738168992E+02 -0.63096450791E+03  0.64989104803E+03  0.12508759554E+03 0.  0.
         23    2    1    2    0    0  0.91964519803E+02  0.11738168992E+02 -0.69832184053E+03  0.71048050425E+03  0.92379090925E+02 0.  0.
          5    1    3    3  502    0 -0.24700664814E+02 -0.63321719930E+02 -0.34235434307E+03  0.34906121479E+03  0.41800000000E+01 0. -1.
         -5    1    3    3    0  502 -0.67263854989E+02  0.51583550938E+02 -0.28861016484E+03  0.30082983324E+03  0.41800000000E+01 0. -1.
        -11    1    4    4    0    0 -0.72020771892E+01  0.29213044963E+02 -0.17239542442E+03  0.17500129791E+03  0.00000000000E+00 0.  1.
         11    1    4    4    0    0  0.99166596992E+02 -0.17474875971E+02 -0.52592641611E+03  0.53547920633E+03  0.00000000000E+00 0. -1.
</event>
<event>
 8    1  0.6840032E-009  0.1139690E+03  0.7561462E-02  0.1253392E+00
         -2   -1    0    0    0  501 -0.00000000000E+00  0.00000000000E+00  0.26829642949E+02  0.26829642949E+02  0.00000000000E+00 0.  1.
          2   -1    0    0  501    0  0.00000000000E+00 -0.00000000000E+00 -0.53077335892E+03  0.53077335892E+03  0.00000000000E+00 0. -1.
         25    2    1    2    0    0  0.60343795323E+01  0.37528290877E+02 -0.35850181678E+03  0.38159636720E+03  0.12508976168E+03 0.  0.
         23    2    1    2    0    0 -0.60343795323E+01 -0.37528290877E+02 -0.14544189919E+03  0.17600663466E+03  0.91543448991E+02 0.  0.
          5    1    3    3  502    0  0.22165365870E+02  0.80048353383E+02 -0.19884137432E+03  0.21553284405E+03  0.41800000000E+01 0. -1.
         -5    1    3    3    0  502 -0.16130986337E+02 -0.42520062506E+02 -0.15966044246E+03  0.16606352315E+03  0.41800000000E+01 0. -1.
        -11    1    4    4    0    0  0.11005836604E+02  0.28689656299E+02 -0.46636101873E+02  0.55849358240E+02  0.00000000000E+00 0.  1.
         11    1    4    4    0    0 -0.17040216136E+02 -0.66217947175E+02 -0.98805797319E+02  0.12015727643E+03  0.00000000000E+00 0. -1.
</event>
<event>
 8    1  0.6840032E-009  0.2005948E+03  0.7561462E-02  0.1149238E+00
          1   -1    0    0  501    0  0.00000000000E+00  0.00000000000E+00  0.80022300162E+03  0.80022300162E+03  0.00000000000E+00 0. -1.
         -1   -1    0    0    0  501 -0.00000000000E+00 -0.00000000000E+00 -0.71477209692E+02  0.71477209692E+02  0.00000000000E+00 0.  1.
         25    2    1    2    0    0  0.94736594996E+02  0.13899115360E+03  0.14041791975E+03  0.25230850957E+03  0.12509527810E+03 0.  0.
         23    2    1    2    0    0 -0.94736594996E+02 -0.13899115360E+03  0.58832787217E+03  0.61939170174E+03  0.96035575682E+02 0.  0.
          5    1    3    3  502    0  0.37059888109E+02  0.14612681816E+03  0.92952835352E+02  0.17715581924E+03  0.41800000000E+01 0. -1.
         -5    1    3    3    0  502  0.57676706887E+02 -0.71356645555E+01  0.47465084401E+02  0.75152690326E+02  0.41800000000E+01 0. -1.
        -11    1    4    4    0    0  0.18754432734E+02 -0.25052916740E+02  0.69713382792E+02  0.76415529342E+02  0.00000000000E+00 0. -1.
         11    1    4    4    0    0 -0.11349102773E+03 -0.11393823686E+03  0.51861448938E+03  0.54297617240E+03  0.00000000000E+00 0.  1.
</event>
<event>
 8    1  0.6840032E-009  0.1448623E+03  0.7561462E-02  0.1206932E+00
          2   -1    0    0  501    0  0.00000000000E+00  0.00000000000E+00  0.17866081488E+03  0.17866081488E+03  0.00000000000E+00 0.  1.
         -2   -1    0    0    0  501 -0.00000000000E+00 -0.00000000000E+00 -0.14733638615E+03  0.14733638615E+03  0.00000000000E+00 0. -1.
         25    2    1    2    0    0  0.74920968268E+00 -0.11356076730E+03 -0.22955133244E+02  0.17050254974E+03  0.12509025598E+03 0.  0.
         23    2    1    2    0    0 -0.74920968268E+00  0.11356076730E+03  0.54279561971E+02  0.15549465129E+03  0.91300090627E+02 0.  0.
          5    1    3    3  502    0  0.40613588362E+02 -0.11625352010E+03 -0.35826962868E+02  0.12831752867E+03  0.41800000000E+01 0.  1.
         -5    1    3    3    0  502 -0.39864378679E+02  0.26927528024E+01  0.12871829624E+02  0.42185021074E+02  0.41800000000E+01 0.  1.
        -11    1    4    4    0    0  0.22389178818E+02  0.20210996585E+02  0.51015033706E+02  0.59264604741E+02  0.00000000000E+00 0.  1.
         11    1    4    4    0    0 -0.23138388500E+02  0.93349770712E+02  0.32645282647E+01  0.96230046551E+02  0.00000000000E+00 0. -1.
</event>
<event>
 8    1  0.6840032E-009  0.1218055E+03  0.7561462E-02  0.1240148E+00
          2   -1    0    0  501    0  0.00000000000E+00  0.00000000000E+00  0.61768677380E+03  0.61768677380E+03  0.00000000000E+00 0. -1.
         -2   -1    0    0    0  501 -0.00000000000E+00 -0.00000000000E+00 -0.34453113989E+02  0.34453113989E+02  0.00000000000E+00 0.  1.
         25    2    1    2    0    0  0.88462341192E+02 -0.19858664556E+02  0.38884480184E+03  0.41841097974E+03  0.12509003030E+03 0.  0.
         23    2    1    2    0    0 -0.88462341192E+02  0.19858664556E+02  0.19438885797E+03  0.23372890805E+03  0.92855920590E+02 0.  0.
          5    1    3    3  502    0  0.19565623377E+02  0.42641068369E+02  0.22570970013E+03  0.23057193121E+03  0.41800000000E+01 0. -1.
         -5    1    3    3    0  502  0.68896717816E+02 -0.62499732924E+02  0.16313510171E+03  0.18783904853E+03  0.41800000000E+01 0. -1.
        -11    1    4    4    0    0 -0.33180732134E+02 -0.16671340818E+02  0.10987507565E+02  0.38724926238E+02  0.00000000000E+00 0.  1.
         11    1    4    4    0    0 -0.55281609058E+02  0.36530005373E+02  0.18340135040E+03  0.19500398181E+03  0.00000000000E+00 0. -1.
</event>
<event>
 8    1  0.6840032E-009  0.1276489E+03  0.7561462E-02  0.1230987E+00
          2   -1    0    0  501    0  0.00000000000E+00  0.00000000000E+00  0.17020754098E+03  0.17020754098E+03  0.00000000000E+00 0. -1.
         -2   -1    0    0    0  501 -0.00000000000E+00 -0.00000000000E+00 -0.10173637302E+03  0.10173637302E+03  0.00000000000E+00 0.  1.
         25    2    1    2    0    0 -0.74023180421E+02 -0.32579474378E+01  0.47130316687E+02  0.15282879787E+03  0.12508129056E+03 0.  0.
         23    2    1    2    0    0  0.74023180421E+02  0.32579474378E+01  0.21340851275E+02  0.11911511612E+03  0.90790602459E+02 0.  0.
          5    1    3    3  502    0  0.12695176630E+02 -0.43602417972E+02  0.32457167299E+02  0.55975695366E+02  0.41800000000E+01 0.  1.
         -5    1    3    3    0  502 -0.86718357050E+02  0.40344470534E+02  0.14673149388E+02  0.96853102507E+02  0.41800000000E+01 0.  1.
        -11    1    4    4    0    0  0.74890208427E+02 -0.30009478275E+02  0.21674430207E+01  0.80708177490E+02  0.00000000000E+00 0.  1.
         11    1    4    4    0    0 -0.86702800594E+00  0.33267425713E+02  0.19173408255E+02  0.38406938634E+02  0.00000000000E+00 0. -1.
</event>
<event>
 8    1  0.6840032E-009  0.1096529E+03  0.7561462E-02  0.1261214E+00
         -2   -1    0    0    0  501 -0.00000000000E+00  0.00000000000E+00  0.30129455872E+02  0.30129455872E+02  0.00000000000E+00 0.  1.
          2   -1    0    0  501    0  0.00000000000E+00 -0.00000000000E+00 -0.49691564999E+03  0.49691564999E+03  0.00000000000E+00 0. -1.
         25    2    1    2    0    0 -0.30522635562E+02 -0.20379696945E+02 -0.18369752170E+03  0.22525146383E+03  0.12508588710E+03 0.  0.
         23    2    1    2    0    0  0.30522635562E+02  0.20379696945E+02 -0.28308867242E+03  0.30179364203E+03  0.97945099870E+02 0.  0.
          5    1    3    3  502    0  0.21338223006E+02  0.36949025019E+02 -0.27537824403E+02  0.50954434387E+02  0.41800000000E+01 0.  1.
         -5    1    3    3    0  502 -0.51860858568E+02 -0.57328721964E+02 -0.15615969730E+03  0.17429702944E+03  0.41800000000E+01 0.  1.
        -11    1    4    4    0    0  0.27214965063E+01  0.54744985555E+02 -0.20351401198E+03  0.21076615729E+03  0.00000000000E+00 0. -1.
         11    1    4    4    0    0  0.27801139056E+02 -0.34365288610E+02 -0.79574660437E+02  0.91027484738E+02  0.00000000000E+00 0.  1.
</event>
<event>
 8    1  0.6840032E-009  0.1245821E+03  0.7561462E-02  0.1235724E+00
          2   -1    0    0  501    0  0.00000000000E+00  0.00000000000E+00  0.11174374707E+04  0.11174374707E+04  0.00000000000E+00 0. -1.
         -2   -1    0    0    0  501 -0.00000000000E+00 -0.00000000000E+00 -0.17025867552E+02  0.17025867552E+02  0.00000000000E+00 0.  1.
         25    2    1    2    0    0 -0.12843065940E+02  0.80296770602E+02  0.49645346474E+03  0.51838713256E+03  0.12508661338E+03 0.  0.
         23    2    1    2    0    0  0.12843065940E+02 -0.80296770602E+02  0.60395813838E+03  0.61607620565E+03  0.90398797281E+02 0.  0.
          5    1    3    3  502    0 -0.59625182116E+02  0.24861810147E+02  0.13519684862E+03  0.14989640497E+03  0.41800000000E+01 0.  1.
         -5    1    3    3    0  502  0.46782116176E+02  0.55434960455E+02  0.36125661611E+03  0.36849072759E+03  0.41800000000E+01 0.  1.
        -11    1    4    4    0    0 -0.33395073120E+01  0.14868915450E+02  0.26203026785E+02  0.30312300613E+02  0.00000000000E+00 0.  1.
         11    1    4    4    0    0  0.16182573252E+02 -0.95165686052E+02  0.57775511159E+03  0.58576390504E+03  0.00000000000E+00 0. -1.
</event>
<event>
 8    1  0.6840032E-009  0.1467970E+03  0.7561462E-02  0.1204465E+00
         -1   -1    0    0    0  501 -0.00000000000E+00  0.00000000000E+00  0.19074241535E+03  0.19074241535E+03  0.00000000000E+00 0.  1.
          1   -1    0    0  501    0  0.00000000000E+00 -0.00000000000E+00 -0.15304140449E+03  0.15304140449E+03  0.00000000000E+00 0. -1.
         25    2    1    2    0    0 -0.44060768636E+02 -0.10722325963E+03  0.65475318794E+02  0.18268431054E+03  0.12509340993E+03 0.  0.
         23    2    1    2    0    0  0.44060768636E+02  0.10722325963E+03 -0.27774307935E+02  0.16109950930E+03  0.10836725048E+03 0.  0.
          5    1    3    3  502    0 -0.56955147901E+02 -0.52325813727E+01 -0.56208084153E+01  0.57622345209E+02  0.41800000000E+01 0. -1.
         -5    1    3    3    0  502  0.12894379265E+02 -0.10199067826E+03  0.71096127209E+02  0.12506196533E+03  0.41800000000E+01 0. -1.
        -11    1    4    4    0    0  0.52440625908E+02  0.40889261402E+02 -0.57517001447E+02  0.87921307992E+02  0.00000000000E+00 0. -1.
         11    1    4    4    0    0 -0.83798572721E+01  0.66333998232E+02  0.29742693512E+02  0.73178201308E+02  0.00000000000E+00 0.  1.
</event>
<event>
 8    1  0.6840032E-009  0.1204790E+03  0.7561462E-02  0.1242309E+00
          1   -1    0    0  501    0  0.00000000000E+00  0.00000000000E+00  0.95658278577E+02  0.95658278577E+02  0.00000000000E+00 0. -1.
         -1   -1    0    0    0  501 -0.00000000000E+00 -0.00000000000E+00 -0.16209087073E+03  0.16209087073E+03  0.00000000000E+00 0.  1.
         25    2    1    2    0    0  0.24006208151E+02 -0.53043636065E+02 -0.20859160520E+02  0.13954716159E+03  0.12509348653E+03 0.  0.
         23    2    1    2    0    0 -0.24006208151E+02  0.53043636065E+02 -0.45573431631E+02  0.11820198772E+03  0.92221726688E+02 0.  0.
          5    1    3    3  502    0 -0.10559833046E+02 -0.85781874143E+02 -0.28595693202E+02  0.91133013092E+02  0.41800000000E+01 0. -1.
         -5    1    3    3    0  502  0.34566041197E+02  0.32738238079E+02  0.77365326816E+01  0.48414148495E+02  0.41800000000E+01 0. -1.
        -11    1    4    4    0    0  0.32359704593E+02  0.53495089602E+01 -0.25892494988E+02  0.41787426628E+02  0.00000000000E+00 0.  1.
         11    1    4    4    0    0 -0.56365912744E+02  0.47694127104E+02 -0.19680936643E+02  0.76414561092E+02  0.00000000000E+00 0. -1.
</event>
<event>
 8    1  0.6840032E-009  0.9312509E+02  0.7561462E-02  0.1295456E+00
          2   -1    0    0  501    0  0.00000000000E+00  0.00000000000E+00  0.73446784069E+03  0.73446784069E+03  0.00000000000E+00 0. -1.
         -2   -1    0    0    0  501 -0.00000000000E+00 -0.00000000000E+00 -0.24038815002E+02  0.24038815002E+02  0.00000000000E+00 0.  1.
         25    2    1    2    0    0  0.27505099546E+02  0.57416936444E+02  0.27301938559E+03  0.30698583980E+03  0.12508991101E+03 0.  0.
         23    2    1    2    0    0 -0.27505099546E+02 -0.57416936444E+02  0.43740964010E+03  0.45152081589E+03  0.92144554065E+02 0.  0.
          5    1    3    3  502    0  0.20500895599E+02 -0.37634860551E+01 -0.52963082911E+01  0.21908305027E+02  0.41800000000E+01 0.  1.
         -5    1    3    3    0  502  0.70042039466E+01  0.61180422499E+02  0.27831569388E+03  0.28507753477E+03  0.41800000000E+01 0.  1.
        -11    1    4    4    0    0 -0.49782686574E+02 -0.98543828946E+01  0.12814332161E+03  0.13782646923E+03  0.00000000000E+00 0.  1.
         11    1    4    4    0    0  0.22277587028E+02 -0.47562553549E+02  0.30926631848E+03  0.31369434667E+03  0.00000000000E+00 0. -1.
</event>
<event>
 8    1  0.6840032E-009  0.9348527E+02  0.7561462E-02  0.1294625E+00
         -1   -1    0    0    0  501 -0.00000000000E+00  0.00000000000E+00  0.46151088577E+02  0.46151088577E+02  0.00000000000E+00 0.  1.
          1   -1    0    0  501    0  0.00000000000E+00 -0.00000000000E+00 -0.32193362154E+03  0.32193362154E+03  0.00000000000E+00 0. -1.
         25    2    1    2    0    0  0.43672020369E+02 -0.27027559957E+02 -0.14142154572E+03  0.19566731393E+03  0.12509160558E+03 0.  0.
         23    2    1    2    0    0 -0.43672020369E+02  0.27027559957E+02 -0.13436098725E+03  0.17241739619E+03  0.95063921936E+02 0.  0.
          5    1    3    3  502    0  0.84767961922E+02 -0.36543647449E+02 -0.10402712227E+03  0.13914079238E+03  0.41800000000E+01 0. -1.
         -5    1    3    3    0  502 -0.41095941553E+02  0.95160874915E+01 -0.37394423450E+02  0.56526521549E+02  0.41800000000E+01 0. -1.
        -11    1    4    4    0    0 -0.20147959640E+02  0.17876278258E+02 -0.14317103579E+03  0.14568269317E+03  0.00000000000E+00 0. -1.
         11    1    4    4    0    0 -0.23524060729E+02  0.91512816991E+01  0.88100485410E+01  0.26734703013E+02  0.00000000000E+00 0.  1.
</event>
<event>
 8    1  0.6840032E-009  0.9637166E+02  0.7561462E-02  0.1288116E+00
         -1   -1    0    0    0  501 -0.00000000000E+00  0.00000000000E+00  0.13392972857E+03  0.13392972857E+03  0.00000000000E+00 0.  1.
          1   -1    0    0  501    0  0.00000000000E+00 -0.00000000000E+00 -0.13187414880E+03  0.13187414880E+03  0.00000000000E+00 0. -1.
         25    2    1    2    0    0 -0.59895078707E+01  0.19946732738E+01  0.77128904122E+02  0.14709458798E+03  0.12509235402E+03 0.  0.
         23    2    1    2    0    0  0.59895078707E+01 -0.19946732738E+01 -0.75073324353E+02  0.11870928939E+03  0.91738968992E+02 0.  0.
          5    1    3    3  502    0  0.45460875308E+02 -0.22753871955E+02  0.73851396403E+02  0.89754838439E+02  0.41800000000E+01 0.  1.
         -5    1    3    3    0  502 -0.51450383179E+02  0.24748545229E+02  0.32775077199E+01  0.57339749537E+02  0.41800000000E+01 0.  1.
        -11    1    4    4    0    0  0.75384525335E+01  0.40888359004E+02 -0.60463669201E+02  0.73379434871E+02  0.00000000000E+00 0.  1.
         11    1    4    4    0    0 -0.15489446628E+01 -0.42883032278E+02 -0.14609655151E+02  0.45329854517E+02  0.00000000000E+00 0. -1.
</event>
<event>
 8    1  0.6840032E-009  0.1310418E+03  0.7561462E-02  0.1225918E+00
          2   -1    0    0  501    0  0.00000000000E+00  0.00000000000E+00  0.14564760817E+03  0.14564760817E+03  0.00000000000E+00 0. -1.
         -2   -1    0    0    0  501 -0.00000000000E+00 -0.00000000000E+00 -0.12939981382E+03  0.12939981382E+03  0.00000000000E+00 0.  1.
         25    2    1    2    0    0 -0.76075834739E+02  0.20669816293E+02  0.37987080867E+02  0.15266075750E+03  0.12509002610E+03 0.  0.
         23    2    1    2    0    0  0.76075834739E+02 -0.20669816293E+02 -0.21739286516E+02  0.12238666450E+03  0.91055615605E+02 0.  0.
          5    1    3    3  502    0 -0.98956178597E+02  0.46047070846E+02  0.12728381257E+02  0.10996427650E+03  0.41800000000E+01 0.  1.
         -5    1    3    3    0  502  0.22880343858E+02 -0.25377254553E+02  0.25258699609E+02  0.42696480999E+02  0.41800000000E+01 0.  1.
        -11    1    4    4    0    0  0.61902547467E+02  0.27856042871E+02 -0.23412874246E+02  0.71805620865E+02  0.00000000000E+00 0.  1.
         11    1    4    4    0    0  0.14173287272E+02 -0.48525859164E+02  0.16735877300E+01  0.50581043639E+02  0.00000000000E+00 0. -1.
</event>
<event>
 8    1  0.6840032E-009  0.1402283E+03  0.7561462E-02  0.1213022E+00
         -1   -1    0    0    0  501 -0.00000000000E+00  0.00000000000E+00  0.36795449922E+03  0.36795449922E+03  0.00000000000E+00 0.  1.
          1   -1    0    0  501    0  0.00000000000E+00 -0.00000000000E+00 -0.67946756943E+02  0.67946756943E+02  0.00000000000E+00 0. -1.
         25    2    1    2    0    0 -0.71341030247E+02  0.64636045763E+02  0.76879573871E+02  0.17557064804E+03  0.12508885868E+03 0.  0.
         23    2    1    2    0    0  0.71341030247E+02 -0.64636045763E+02  0.22312816840E+03  0.26033060812E+03  0.93372827859E+02 0.  0.
          5    1    3    3  502    0 -0.10253665339E+03  0.57683072497E+02  0.81255001037E+02  0.14304177619E+03  0.41800000000E+01 0.  1.
         -5    1    3    3    0  502  0.31195623147E+02  0.69529732654E+01 -0.43754271661E+01  0.32528871847E+02  0.41800000000E+01 0.  1.
        -11    1    4    4    0    0  0.27730707317E+02  0.20742022956E+02  0.88679156634E+02  0.95200926813E+02  0.00000000000E+00 0.  1.
         11    1    4    4    0    0  0.43610322930E+02 -0.85378068719E+02  0.13444901177E+03  0.16512968131E+03  0.00000000000E+00 0. -1.
</event>
<event>
 8    1  0.6840032E-009  0.3135027E+03  0.7561462E-02  0.1078679E+00
          2   -1    0    0  501    0  0.00000000000E+00  0.00000000000E+00  0.50876530897E+03  0.50876530897E+03  0.00000000000E+00 0. -1.
         -2   -1    0    0    0  501 -0.00000000000E+00 -0.00000000000E+00 -0.21092480240E+03  0.21092480240E+03  0.00000000000E+00 0.  1.
         25    2    1    2    0    0 -0.25926508585E+03  0.16505599500E+03  0.18604398966E+03  0.38041932820E+03  0.12507850717E+03 0.  0.
         23    2    1    2    0    0  0.25926508585E+03 -0.16505599500E+03  0.11179651691E+03  0.33927078317E+03  0.90245979926E+02 0.  0.
          5    1    3    3  502    0 -0.17683648254E+03  0.15213315198E+03  0.18352558026E+03  0.29684128503E+03  0.41800000000E+01 0. -1.
         -5    1    3    3    0  502 -0.82428603308E+02  0.12922843015E+02  0.25184094045E+01  0.83578043174E+02  0.41800000000E+01 0. -1.
        -11    1    4    4    0    0  0.19075293665E+03 -0.14223156202E+03  0.12018250303E+03  0.26657144279E+03  0.00000000000E+00 0. -1.
         11    1    4    4    0    0  0.68512149198E+02 -0.22824432975E+02 -0.83859861179E+01  0.72699340379E+02  0.00000000000E+00 0.  1.
</event>
<event>
 8    1  0.6840032E-009  0.1402909E+03  0.7561462E-02  0.1212938E+00
         -1   -1    0    0    0  501 -0.00000000000E+00  0.00000000000E+00  0.16963615805E+03  0.16963615805E+03  0.00000000000E+00 0. -1.
          1   -1    0    0  501    0  0.00000000000E+00 -0.00000000000E+00 -0.14898013771E+03  0.14898013771E+03  0.00000000000E+00 0.  1.
         25    2    1    2    0    0 -0.79252879469E+02 -0.84398667480E+02  0.13649465369E+02  0.17099104777E+03  0.12508987384E+03 0.  0.
         23    2    1    2    0    0  0.79252879469E+02  0.84398667480E+02  0.70065549801E+01  0.14762524799E+03  0.91323425547E+02 0.  0.
          5    1    3    3  502    0 -0.54547509025E+02  0.18584374067E+02 -0.17762767433E+02  0.60446654226E+02  0.41800000000E+01 0.  1.
         -5    1    3    3    0  502 -0.24705370444E+02 -0.10298304155E+03  0.31412232802E+02  0.11054439355E+03  0.41800000000E+01 0.  1.
        -11    1    4    4    0    0  0.56288183749E+02  0.49037850997E+02  0.48053048771E+02  0.88781563156E+02  0.00000000000E+00 0. -1.
         11    1    4    4    0    0  0.22964695720E+02  0.35360816483E+02 -0.41046493791E+02  0.58843684830E+02  0.00000000000E+00 0.  1.
</event>
<event>
 8    1  0.6840032E-009  0.1028267E+03  0.7561462E-02  0.1274462E+00
          1   -1    0    0  501    0  0.00000000000E+00  0.00000000000E+00  0.16025100401E+03  0.16025100401E+03  0.00000000000E+00 0.  1.
         -1   -1    0    0    0  501 -0.00000000000E+00 -0.00000000000E+00 -0.88734258737E+02  0.88734258737E+02  0.00000000000E+00 0. -1.
         25    2    1    2    0    0  0.31898690688E+02 -0.36999273334E+02  0.55086262067E+02  0.14514875554E+03  0.12508873758E+03 0.  0.
         23    2    1    2    0    0 -0.31898690688E+02  0.36999273334E+02  0.16430483202E+02  0.10383650721E+03  0.90142036565E+02 0.  0.
          5    1    3    3  502    0  0.10310526402E+02 -0.79687749849E+02  0.13418686191E+02  0.81571919002E+02  0.41800000000E+01 0. -1.
         -5    1    3    3    0  502  0.21588164285E+02  0.42688476514E+02  0.41667575875E+02  0.63576836534E+02  0.41800000000E+01 0. -1.
        -11    1    4    4    0    0  0.16008139929E+01  0.43094510289E+02  0.42809116773E+02  0.60764462487E+02  0.00000000000E+00 0.  1.
         11    1    4    4    0    0 -0.33499504681E+02 -0.60952369551E+01 -0.26378633570E+02  0.43072044721E+02  0.00000000000E+00 0. -1.
</event>
<event>
 8    1  0.6840032E-009  0.2522131E+03  0.7561462E-02  0.1111914E+00
          2   -1    0    0  501    0  0.00000000000E+00  0.00000000000E+00  0.17722499307E+04  0.17722499307E+04  0.00000000000E+00 0. -1.
         -2   -1    0    0    0  501 -0.00000000000E+00 -0.00000000000E+00 -0.45388849861E+02  0.45388849861E+02  0.00000000000E+00 0.  1.
         25    2    1    2    0    0  0.16829334605E+03 -0.16543802786E+03  0.12454967705E+04  0.12738140657E+04  0.12509067606E+03 0.  0.
         23    2    1    2    0    0 -0.16829334605E+03  0.16543802786E+03  0.48136431030E+03  0.54382471483E+03  0.91330881107E+02 0.  0.
          5    1    3    3  502    0  0.11637110249E+03 -0.16552649072E+03  0.11165484468E+04  0.11347418909E+04  0.41800000000E+01 0.  1.
         -5    1    3    3    0  502  0.51922243561E+02  0.88462860442E-01  0.12894832371E+03  0.13907217475E+03  0.41800000000E+01 0.  1.
        -11    1    4    4    0    0 -0.94697226510E+02  0.36496585018E+02  0.23820970112E+03  0.25892745535E+03  0.00000000000E+00 0.  1.
         11    1    4    4    0    0 -0.73596119537E+02  0.12894144285E+03  0.24315460918E+03  0.28489725948E+03  0.00000000000E+00 0. -1.
</event>
<event>
 8    1  0.6840032E-009  0.1069735E+03  0.7561462E-02  0.1266279E+00
         -1   -1    0    0    0  501 -0.00000000000E+00  0.00000000000E+00  0.17342531724E+02  0.17342531724E+02  0.00000000000E+00 0.  1.
          1   -1    0    0  501    0  0.00000000000E+00 -0.00000000000E+00 -0.70970683096E+03  0.70970683096E+03  0.00000000000E+00 0. -1.
         25    2    1    2    0    0 -0.81624880664E+01 -0.89098506442E+01 -0.45064999049E+03  0.46784969322E+03  0.12510759318E+03 0.  0.
         23    2    1    2    0    0  0.81624880664E+01  0.89098506442E+01 -0.24171430875E+03  0.25919966946E+03  0.92804363828E+02 0.  0.
          5    1    3    3  502    0 -0.33812724632E+01  0.57814298679E+02 -0.18655771097E+03  0.19538469248E+03  0.41800000000E+01 0.  1.
         -5    1    3    3    0  502 -0.47812156032E+01 -0.66724149323E+02 -0.26409227952E+03  0.27246500074E+03  0.41800000000E+01 0.  1.
        -11    1    4    4    0    0 -0.39315105410E+02  0.12473644818E+02 -0.72466859876E+02  0.83382942553E+02  0.00000000000E+00 0. -1.
         11    1    4    4    0    0  0.47477593477E+02 -0.35637941741E+01 -0.16924744887E+03  0.17581672691E+03  0.00000000000E+00 0.  1.
</event>
<event>
 8    1  0.6840032E-009  0.1522221E+03  0.7561462E-02  0.1197769E+00
         -2   -1    0    0    0  501 -0.00000000000E+00  0.00000000000E+00  0.33173734068E+02  0.33173734068E+02  0.00000000000E+00 0.  1.
          2   -1    0    0  501    0  0.00000000000E+00 -0.00000000000E+00 -0.76988399964E+03  0.76988399964E+03  0.00000000000E+00 0. -1.
         25    2    1    2    0    0 -0.34426996215E+02  0.11285495875E+03 -0.39682587845E+03  0.43248143069E+03  0.12509176753E+03 0.  0.
         23    2    1    2    0    0  0.34426996215E+02 -0.11285495875E+03 -0.33988438713E+03  0.37057630302E+03  0.88791553432E+02 0.  0.
          5    1    3    3  502    0 -0.67470084103E+02  0.18527366771E+02 -0.19521519267E+03  0.20741725921E+03  0.41800000000E+01 0. -1.
         -5    1    3    3    0  502  0.33043087888E+02  0.94327591984E+02 -0.20161068578E+03  0.22506417149E+03  0.41800000000E+01 0. -1.
        -11    1    4    4    0    0  0.50695981381E+02 -0.57676097248E+02 -0.26643476713E+03  0.27727982231E+03  0.00000000000E+00 0. -1.
         11    1    4    4    0    0 -0.16268985166E+02 -0.55178861506E+02 -0.73449619997E+02  0.93296480711E+02  0.00000000000E+00 0.  1.
</event>
<event>
 8    1  0.6840032E-009  0.9229658E+02  0.7561462E-02  0.1297384E+00
          1   -1    0    0  501    0  0.00000000000E+00  0.00000000000E+00  0.22473377005E+03  0.22473377005E+03  0.00000000000E+00 0. -1.
         -1   -1    0    0    0  501 -0.00000000000E+00 -0.00000000000E+00 -0.56772825635E+02  0.56772825635E+02  0.00000000000E+00 0.  1.
         25    2    1    2    0    0 -0.19192547012E+02 -0.22403721721E+02  0.10764754318E+03  0.16764723753E+03  0.12508925650E+03 0.  0.
         23    2    1    2    0    0  0.19192547012E+02  0.22403721721E+02  0.60313401239E+02  0.11385935816E+03  0.91956329109E+02 0.  0.
          5    1    3    3  502    0  0.32714037036E+02 -0.21724037493E+02 -0.84660876902E+01  0.40389219663E+02  0.41800000000E+01 0. -1.
         -5    1    3    3    0  502 -0.51906584048E+02 -0.67968422756E+00  0.11611363087E+03  0.12725801787E+03  0.41800000000E+01 0. -1.
        -11    1    4    4    0    0  0.44403418900E+02  0.41977603079E+02  0.53515101651E+02  0.81225912583E+02  0.00000000000E+00 0.  1.
         11    1    4    4    0    0 -0.25210871888E+02 -0.19573881358E+02  0.67982995878E+01  0.32633445574E+02  0.00000000000E+00 0. -1.
</event>
<event>
 8    1  0.6840032E-009  0.1088102E+03  0.7561462E-02  0.1262789E+00
          2   -1    0    0  501    0  0.00000000000E+00  0.00000000000E+00  0.93448148082E+02  0.93448148082E+02  0.00000000000E+00 0. -1.
         -2   -1    0    0    0  501 -0.00000000000E+00 -0.00000000000E+00 -0.18388262919E+03  0.18388262919E+03  0.00000000000E+00 0.  1.
         25    2    1    2    0    0 -0.45188083893E+02  0.52866845614E+02 -0.75927879613E+02  0.16201569024E+03  0.12508866732E+03 0.  0.
         23    2    1    2    0    0  0.45188083893E+02 -0.52866845614E+02 -0.14506601500E+02  0.11531508703E+03  0.90830950229E+02 0.  0.
          5    1    3    3  502    0 -0.19753002813E+01 -0.30731614430E+02 -0.58464786701E+02  0.66211310368E+02  0.41800000000E+01 0.  1.
         -5    1    3    3    0  502 -0.43212783611E+02  0.83598460044E+02 -0.17463092912E+02  0.95804379875E+02  0.41800000000E+01 0.  1.
        -11    1    4    4    0    0 -0.13532798290E+02 -0.22448056923E+02 -0.37104203267E+02  0.45428777105E+02  0.00000000000E+00 0.  1.
         11    1    4    4    0    0  0.58720882183E+02 -0.30418788691E+02  0.22597601767E+02  0.69886309928E+02  0.00000000000E+00 0. -1.
</event>
<event>
 8    1  0.6840032E-009  0.1100081E+03  0.7561462E-02  0.1260555E+00
         -1   -1    0    0    0  501 -0.00000000000E+00  0.00000000000E+00  0.25370916669E+02  0.25370916669E+02  0.00000000000E+00 0.  1.
          1   -1    0    0  501    0  0.00000000000E+00 -0.00000000000E+00 -0.95379702734E+03  0.95379702734E+03  0.00000000000E+00 0. -1.
         25    2    1    2    0    0 -0.89937472697E+02 -0.25088595547E+01 -0.70849468497E+03  0.72505703045E+03  0.12509170797E+03 0.  0.
         23    2    1    2    0    0  0.89937472697E+02  0.25088595547E+01 -0.21993142569E+03  0.25411091355E+03  0.90041551559E+02 0.  0.
          5    1    3    3  502    0 -0.85814090158E+02  0.24615073145E+02 -0.67783898960E+03  0.68370543958E+03  0.41800000000E+01 0.  1.
         -5    1    3    3    0  502 -0.41233825389E+01 -0.27123932700E+02 -0.30655695378E+02  0.41351590873E+02  0.41800000000E+01 0.  1.
        -11    1    4    4    0    0 -0.15828957974E+01 -0.10351796727E+02  0.44979720052E+01  0.11397236803E+02  0.00000000000E+00 0.  1.
         11    1    4    4    0    0  0.91520368494E+02  0.12860656282E+02 -0.22442939770E+03  0.24271367675E+03  0.00000000000E+00 0. -1.
</event>
<event>
 8    1  0.6840032E-009  0.8358747E+02  0.7561462E-02  0.1319168E+00
         -1   -1    0    0    0  501 -0.00000000000E+00  0.00000000000E+00  0.31218236485E+02  0.31218236485E+02  0.00000000000E+00 0.  1.
          1   -1    0    0  501    0  0.00000000000E+00 -0.00000000000E+00 -0.48942052632E+03  0.48942052632E+03  0.00000000000E+00 0. -1.
         25    2    1    2    0    0  0.42151719235E+02  0.23783959401E+02 -0.17628533829E+03  0.22150927050E+03  0.12508953698E+03 0.  0.
         23    2    1    2    0    0 -0.42151719235E+02 -0.23783959401E+02 -0.28191695155E+03  0.29912949231E+03  0.87514806978E+02 0.  0.
          5    1    3    3  502    0  0.72433141465E+01  0.35609663212E+02  0.45938553815E+01  0.36865832707E+02  0.41800000000E+01 0. -1.
         -5    1    3    3    0  502  0.34908405088E+02 -0.11825703811E+02 -0.18087919367E+03  0.18464343779E+03  0.41800000000E+01 0. -1.
        -11    1    4    4    0    0  0.22284077402E+02 -0.18298451371E+02 -0.14326560433E+03  0.14613845083E+03  0.00000000000E+00 0. -1.
         11    1    4    4    0    0 -0.64435796637E+02 -0.54855080300E+01 -0.13865134722E+03  0.15299104148E+03  0.00000000000E+00 0.  1.
</event>
<event>
 8    1  0.6840032E-009  0.9336667E+02  0.7561462E-02  0.1294898E+00
          2   -1    0    0  501    0  0.00000000000E+00  0.00000000000E+00  0.82654520894E+02  0.82654520894E+02  0.00000000000E+00 0. -1.
         -2   -1    0    0    0  501 -0.00000000000E+00 -0.00000000000E+00 -0.14846077227E+03  0.14846077227E+03  0.00000000000E+00 0.  1.
         25    2    1    2    0    0  0.10610543859E+02  0.29547037113E+01 -0.62289205931E+02  0.14017363613E+03  0.12508952464E+03 0.  0.
         23    2    1    2    0    0 -0.10610543859E+02 -0.29547037113E+01 -0.35170454470E+01  0.90941657039E+02  0.90203666563E+02 0.  0.
          5    1    3    3  502    0  0.19391168186E+02 -0.44831294534E+02 -0.75163001026E+02  0.89737458713E+02  0.41800000000E+01 0. -1.
         -5    1    3    3    0  502 -0.87806243270E+01  0.47785998245E+02  0.12873795095E+02  0.50436177412E+02  0.41800000000E+01 0. -1.
        -11    1    4    4    0    0 -0.39668630302E+02  0.26391321548E+02  0.74190924379E+01  0.48219757525E+02  0.00000000000E+00 0. -1.
         11    1    4    4    0    0  0.29058086444E+02 -0.29346025259E+02 -0.10936137885E+02  0.42721899515E+02  0.00000000000E+00 0.  1.
</event>
<event>
 8    1  0.6840032E-009  0.9738240E+02  0.7561462E-02  0.1285899E+00
          1   -1    0    0  501    0  0.00000000000E+00  0.00000000000E+00  0.30154110887E+03  0.30154110887E+03  0.00000000000E+00 0. -1.
         -1   -1    0    0    0  501 -0.00000000000E+00 -0.00000000000E+00 -0.50557991321E+02  0.50557991321E+02  0.00000000000E+00 0.  1.
         25    2    1    2    0    0  0.33703705022E+02 -0.26570197777E+02  0.19824313992E+03  0.23830430372E+03  0.12508670395E+03 0.  0.
         23    2    1    2    0    0 -0.33703705022E+02  0.26570197777E+02  0.52739977635E+02  0.11379479647E+03  0.91246015372E+02 0.  0.
          5    1    3    3  502    0 -0.21724851441E+02 -0.45134082660E+02  0.16148376188E+03  0.16912578851E+03  0.41800000000E+01 0.  1.
         -5    1    3    3    0  502  0.55428556462E+02  0.18563884883E+02  0.36759378040E+02  0.69178515215E+02  0.41800000000E+01 0.  1.
        -11    1    4    4    0    0  0.23777582248E+02  0.38477669254E+01  0.45604695854E+02  0.51574868025E+02  0.00000000000E+00 0. -1.
         11    1    4    4    0    0 -0.57481287269E+02  0.22722430851E+02  0.71352817806E+01  0.62219928448E+02  0.00000000000E+00 0.  1.
</event>
<event>
 8    1  0.6840032E-009  0.9004925E+02  0.7561462E-02  0.1302732E+00
         -2   -1    0    0    0  501 -0.00000000000E+00  0.00000000000E+00  0.61327388913E+02  0.61327388913E+02  0.00000000000E+00 0.  1.
          2   -1    0    0  501    0  0.00000000000E+00 -0.00000000000E+00 -0.27097561514E+03  0.27097561514E+03  0.00000000000E+00 0. -1.
         25    2    1    2    0    0 -0.43029545367E+02  0.54801193947E+02 -0.17054361504E+03  0.22268145043E+03  0.12508873291E+03 0.  0.
         23    2    1    2    0    0  0.43029545367E+02 -0.54801193947E+02 -0.39104611186E+02  0.10962155363E+03  0.75053326182E+02 0.  0.
          5    1    3    3  502    0  0.16849053665E+02  0.30392281653E+01  0.13562795107E+02  0.22238465063E+02  0.41800000000E+01 0.  1.
         -5    1    3    3    0  502 -0.59878599033E+02  0.51761965782E+02 -0.18410641015E+03  0.20044298537E+03  0.41800000000E+01 0.  1.
        -11    1    4    4    0    0 -0.20565030082E+01 -0.33123830552E+02  0.14572947890E+02  0.36246215875E+02  0.00000000000E+00 0.  1.
         11    1    4    4    0    0  0.45086048375E+02 -0.21677363396E+02 -0.53677559076E+02  0.73375337752E+02  0.00000000000E+00 0. -1.
</event>
<event>
 8    1  0.6840032E-009  0.1344330E+03  0.7561462E-02  0.1221022E+00
          1   -1    0    0  501    0  0.00000000000E+00  0.00000000000E+00  0.47947444619E+03  0.47947444619E+03  0.00000000000E+00 0. -1.
         -1   -1    0    0    0  501 -0.00000000000E+00 -0.00000000000E+00 -0.48699427680E+02  0.48699427680E+02  0.00000000000E+00 0.  1.
         25    2    1    2    0    0  0.33500157095E+01 -0.10710887892E+03  0.24242570039E+03  0.29308937680E+03  0.12509047938E+03 0.  0.
         23    2    1    2    0    0 -0.33500157095E+01  0.10710887892E+03  0.18834931812E+03  0.23508449708E+03  0.91135726158E+02 0.  0.
          5    1    3    3  502    0  0.43814715205E+02 -0.85542171826E+02  0.22346924555E+03  0.24329646224E+03  0.41800000000E+01 0.  1.
         -5    1    3    3    0  502 -0.40464699496E+02 -0.21566707089E+02  0.18956454838E+02  0.49792914556E+02  0.41800000000E+01 0.  1.
        -11    1    4    4    0    0 -0.30414652004E+02  0.89010090194E+02  0.85179547097E+02  0.12689918225E+03  0.00000000000E+00 0.  1.
         11    1    4    4    0    0  0.27064636294E+02  0.18098788722E+02  0.10316977102E+03  0.10818531482E+03  0.00000000000E+00 0. -1.
</event>
<event>
 8    1  0.6840032E-009  0.1035138E+03  0.7561462E-02  0.1273076E+00
         -2   -1    0    0    0  501 -0.00000000000E+00  0.00000000000E+00  0.29372085937E+02  0.29372085937E+02  0.00000000000E+00 0.  1.
          2   -1    0    0  501    0  0.00000000000E+00 -0.00000000000E+00 -0.55175350587E+03  0.55175350587E+03  0.00000000000E+00 0. -1.
         25    2    1    2    0    0  0.29255908212E+02  0.26168323500E+02 -0.41747785366E+03  0.43758031641E+03  0.12509230867E+03 0.  0.
         23    2    1    2    0    0 -0.29255908212E+02 -0.26168323500E+02 -0.10490356627E+03  0.14354527540E+03  0.89776380818E+02 0.  0.
          5    1    3    3  502    0  0.41472746809E+02 -0.30205459283E+02 -0.32096003115E+03  0.32506179796E+03  0.41800000000E+01 0. -1.
         -5    1    3    3    0  502 -0.12216838597E+02  0.56373782784E+02 -0.96517822509E+02  0.11251851844E+03  0.41800000000E+01 0. -1.
        -11    1    4    4    0    0 -0.56328810190E+02  0.48606115094E+01 -0.55445293724E+02  0.79188010442E+02  0.00000000000E+00 0.  1.
         11    1    4    4    0    0  0.27072901978E+02 -0.31028935010E+02 -0.49458272542E+02  0.64357264953E+02  0.00000000000E+00 0. -1.
</event>
<event>
 8    1  0.6840032E-009  0.1031678E+03  0.7561462E-02  0.1273772E+00
          4   -1    0    0  501    0  0.00000000000E+00  0.00000000000E+00  0.33705456498E+03  0.33705456498E+03  0.00000000000E+00 0. -1.
         -4   -1    0    0    0  501 -0.00000000000E+00 -0.00000000000E+00 -0.52290709243E+02  0.52290709243E+02  0.00000000000E+00 0.  1.
         25    2    1    2    0    0  0.45331532419E+02  0.65347705177E+02  0.16879314153E+03  0.22464290411E+03  0.12509212340E+03 0.  0.
         23    2    1    2    0    0 -0.45331532419E+02 -0.65347705177E+02  0.11597071421E+03  0.16470237011E+03  0.85746100575E+02 0.  0.
          5    1    3    3  502    0 -0.10117562246E+02  0.59333025633E+01  0.13654180155E+03  0.13710836997E+03  0.41800000000E+01 0. -1.
         -5    1    3    3    0  502  0.55449094664E+02  0.59414402613E+02  0.32251339983E+02  0.87534534143E+02  0.41800000000E+01 0. -1.
        -11    1    4    4    0    0 -0.68263652258E+02 -0.53273124120E+02  0.10614783960E+03  0.13698655345E+03  0.00000000000E+00 0. -1.
         11    1    4    4    0    0  0.22932119839E+02 -0.12074581057E+02  0.98228746081E+01  0.27715816668E+02  0.00000000000E+00 0.  1.
</event>
<event>
 8    1  0.6840032E-009  0.1197525E+03  0.7561462E-02  0.1243506E+00
         -2   -1    0    0    0  501 -0.00000000000E+00  0.00000000000E+00  0.24414821358E+02  0.24414821358E+02  0.00000000000E+00 0.  1.
          2   -1    0    0  501    0  0.00000000000E+00 -0.00000000000E+00 -0.80980490751E+03  0.80980490751E+03  0.00000000000E+00 0. -1.
         25    2    1    2    0    0 -0.19012134560E+02 -0.85465010877E+02 -0.37132839160E+03  0.40149459441E+03  0.12508959025E+03 0.  0.
         23    2    1    2    0    0  0.19012134560E+02  0.85465010877E+02 -0.41406169456E+03  0.43272513446E+03  0.90212115309E+02 0.  0.
          5    1    3    3  502    0 -0.13991592719E+02 -0.98437771695E+02 -0.15195746972E+03  0.18164334440E+03  0.41800000000E+01 0.  1.
         -5    1    3    3    0  502 -0.50205418412E+01  0.12972760817E+02 -0.21937092188E+03  0.21985125001E+03  0.41800000000E+01 0.  1.
        -11    1    4    4    0    0 -0.34849359138E+02  0.18271035485E+02 -0.14278469931E+03  0.14810732233E+03  0.00000000000E+00 0. -1.
         11    1    4    4    0    0  0.53861493698E+02  0.67193975392E+02 -0.27127699525E+03  0.28461781213E+03  0.00000000000E+00 0.  1.
</event>
<event>
 8    1  0.6840032E-009  0.1041721E+03  0.7561462E-02  0.1271760E+00
         -2   -1    0    0    0  501 -0.00000000000E+00  0.00000000000E+00  0.51406405624E+02  0.51406405624E+02  0.00000000000E+00 0.  1.
          2   -1    0    0  501    0  0.00000000000E+00 -0.00000000000E+00 -0.39364505131E+03  0.39364505131E+03  0.00000000000E+00 0. -1.
         25    2    1    2    0    0  0.25007484356E+02 -0.40179449678E+02 -0.29703413245E+03  0.32575640412E+03  0.12509275171E+03 0.  0.
         23    2    1    2    0    0 -0.25007484356E+02  0.40179449678E+02 -0.45204513232E+02  0.11929505282E+03  0.99740158212E+02 0.  0.
          5    1    3    3  502    0  0.57476320002E+02 -0.19466573045E+02 -0.59518442226E+02  0.85102245517E+02  0.41800000000E+01 0. -1.
         -5    1    3    3    0  502 -0.32468835646E+02 -0.20712876632E+02 -0.23751569023E+03  0.24065415860E+03  0.41800000000E+01 0. -1.
        -11    1    4    4    0    0  0.16964014703E+02  0.60006882530E+02 -0.15740847428E+02  0.64314679690E+02  0.00000000000E+00 0.  1.
         11    1    4    4    0    0 -0.41971499058E+02 -0.19827432853E+02 -0.29463665804E+02  0.54980373128E+02  0.00000000000E+00 0. -1.
</event>
<event>
 8    1  0.6840032E-009  0.1184147E+03  0.7561462E-02  0.1245735E+00
         -2   -1    0    0    0  501 -0.00000000000E+00  0.00000000000E+00  0.78045510730E+02  0.78045510730E+02  0.00000000000E+00 0.  1.
          2   -1    0    0  501    0  0.00000000000E+00 -0.00000000000E+00 -0.23503731925E+03  0.23503731925E+03  0.00000000000E+00 0. -1.
         25    2    1    2    0    0  0.48147432982E+02  0.64674935736E+02 -0.85597565932E+02  0.17168584658E+03  0.12509222201E+03 0.  0.
         23    2    1    2    0    0 -0.48147432982E+02 -0.64674935736E+02 -0.71394242587E+02  0.14139698340E+03  0.91623940239E+02 0.  0.
          5    1    3    3  502    0 -0.34594046247E+02  0.21390478086E+02 -0.63682274192E+02  0.75678299629E+02  0.41800000000E+01 0. -1.
         -5    1    3    3    0  502  0.82741479230E+02  0.43284457650E+02 -0.21915291740E+02  0.96007546949E+02  0.41800000000E+01 0. -1.
        -11    1    4    4    0    0 -0.29729939081E+02  0.52233804508E+01  0.10690063551E+02  0.32022342822E+02  0.00000000000E+00 0.  1.
         11    1    4    4    0    0 -0.18417493901E+02 -0.69898316187E+02 -0.82084306138E+02  0.10937464058E+03  0.00000000000E+00 0. -1.
</event>
<event>
 8    1  0.6840032E-009  0.9896505E+02  0.7561462E-02  0.1282487E+00
          2   -1    0    0  501    0  0.00000000000E+00  0.00000000000E+00  0.12776874456E+04  0.12776874456E+04  0.00000000000E+00 0. -1.
         -2   -1    0    0    0  501 -0.00000000000E+00 -0.00000000000E+00 -0.10836011680E+02  0.10836011680E+02  0.00000000000E+00 0.  1.
         25    2    1    2    0    0  0.11787671163E+02  0.28697110495E+02  0.91004016900E+03  0.91912250097E+03  0.12510231516E+03 0.  0.
         23    2    1    2    0    0 -0.11787671163E+02 -0.28697110495E+02  0.35681126492E+03  0.36940095631E+03  0.90445090553E+02 0.  0.
          5    1    3    3  502    0 -0.17464494888E+02  0.60779248579E+02  0.25969944191E+03  0.26732077766E+03  0.41800000000E+01 0. -1.
         -5    1    3    3    0  502  0.29252166051E+02 -0.32082138084E+02  0.65034072709E+03  0.65180172331E+03  0.41800000000E+01 0. -1.
        -11    1    4    4    0    0 -0.15277264151E+02  0.29189085661E+02  0.18905318352E+03  0.19190232859E+03  0.00000000000E+00 0. -1.
         11    1    4    4    0    0  0.34895929880E+01 -0.57886196155E+02  0.16775808141E+03  0.17749862772E+03  0.00000000000E+00 0.  1.
</event>
<event>
 8    1  0.6840032E-009  0.1284307E+03  0.7561462E-02  0.1229803E+00
          2   -1    0    0  501    0  0.00000000000E+00  0.00000000000E+00  0.16660534456E+03  0.16660534456E+03  0.00000000000E+00 0.  1.
         -2   -1    0    0    0  501 -0.00000000000E+00 -0.00000000000E+00 -0.12021273024E+03  0.12021273024E+03  0.00000000000E+00 0. -1.
         25    2    1    2    0    0  0.16953757575E+02 -0.79801060180E+02 -0.14907148089E+02  0.15008756536E+03  0.12509362538E+03 0.  0.
         23    2    1    2    0    0 -0.16953757575E+02  0.79801060180E+02  0.61299762407E+02  0.13673050944E+03  0.91005122051E+02 0.  0.
          5    1    3    3  502    0  0.91543858070E+00 -0.10604003217E+03 -0.36557998907E+02  0.11224654175E+03  0.41800000000E+01 0.  1.
         -5    1    3    3    0  502  0.16038318994E+02  0.26238971989E+02  0.21650850817E+02  0.37841023616E+02  0.41800000000E+01 0.  1.
        -11    1    4    4    0    0 -0.53054350942E+02  0.45268065668E+02  0.21881499728E+02  0.73094199179E+02  0.00000000000E+00 0. -1.
         11    1    4    4    0    0  0.36100593367E+02  0.34532994512E+02  0.39418262679E+02  0.63636310264E+02  0.00000000000E+00 0.  1.
</event>
<event>
 8    1  0.6840032E-009  0.8676293E+02  0.7561462E-02  0.1310886E+00
         -1   -1    0    0    0  501 -0.00000000000E+00  0.00000000000E+00  0.92011638238E+02  0.92011638238E+02  0.00000000000E+00 0.  1.
          1   -1    0    0  501    0  0.00000000000E+00 -0.00000000000E+00 -0.14330082159E+03  0.14330082159E+03  0.00000000000E+00 0. -1.
         25    2    1    2    0    0  0.17337735842E+02 -0.31273553852E+02 -0.25046046510E+02  0.13248935019E+03  0.12508993251E+03 0.  0.
         23    2    1    2    0    0 -0.17337735842E+02  0.31273553852E+02 -0.26243136839E+02  0.10282310963E+03  0.92764526563E+02 0.  0.
          5    1    3    3  502    0  0.29689929744E+02  0.36145728320E+02 -0.40601969692E+02  0.62080576245E+02  0.41800000000E+01 0.  1.
         -5    1    3    3    0  502 -0.12352193902E+02 -0.67419282172E+02  0.15555923182E+02  0.70408773948E+02  0.41800000000E+01 0.  1.
        -11    1    4    4    0    0  0.32056059279E+01 -0.10696450598E+02  0.28641330119E+02  0.30741108564E+02  0.00000000000E+00 0.  1.
         11    1    4    4    0    0 -0.20543341770E+02  0.41970004450E+02 -0.54884466958E+02  0.72082001067E+02  0.00000000000E+00 0. -1.
</event>
<event>
 8    1  0.6840032E-009  0.1119733E+03  0.7561462E-02  0.1256959E+00
         -1   -1    0    0    0  501 -0.00000000000E+00  0.00000000000E+00  0.16942955547E+02  0.16942955547E+02  0.00000000000E+00 0.  1.
          1   -1    0    0  501    0  0.00000000000E+00 -0.00000000000E+00 -0.80781842779E+03  0.80781842779E+03  0.00000000000E+00 0. -1.
         25    2    1    2    0    0 -0.42868469655E+02  0.13199307076E+01 -0.43037798040E+03  0.45023420576E+03  0.12508471578E+03 0.  0.
         23    2    1    2    0    0  0.42868469655E+02 -0.13199307076E+01 -0.36049749185E+03  0.37452717758E+03  0.92047363929E+02 0.  0.
          5    1    3    3  502    0  0.38375264938E+02 -0.24462098256E+02 -0.18006082230E+03  0.18576982354E+03  0.41800000000E+01 0. -1.
         -5    1    3    3    0  502 -0.81243734592E+02  0.25782028964E+02 -0.25031715809E+03  0.26446438222E+03  0.41800000000E+01 0. -1.
        -11    1    4    4    0    0  0.89389699907E+01 -0.40270808824E+02 -0.88155520079E+02  0.97329537902E+02  0.00000000000E+00 0.  1.
         11    1    4    4    0    0  0.33929499664E+02  0.38950878116E+02 -0.27234197177E+03  0.27719763967E+03  0.00000000000E+00 0. -1.
</event>
<event>
 8    1  0.6840032E-009  0.1101090E+03  0.7561462E-02  0.1260368E+00
          2   -1    0    0  501    0  0.00000000000E+00  0.00000000000E+00  0.97872365196E+02  0.97872365196E+02  0.00000000000E+00 0. -1.
         -2   -1    0    0    0  501 -0.00000000000E+00 -0.00000000000E+00 -0.17321619908E+03  0.17321619908E+03  0.00000000000E+00 0.  1.
         25    2    1    2    0    0 -0.28369887808E+02 -0.56306461934E+02 -0.82326624143E+02  0.16248685687E+03  0.12509611274E+03 0.  0.
         23    2    1    2    0    0  0.28369887808E+02  0.56306461934E+02  0.69827902621E+01  0.10860170740E+03  0.88149323881E+02 0.  0.
          5    1    3    3  502    0  0.33507992282E+02 -0.32680590652E+02  0.10717409585E+02  0.48198981528E+02  0.41800000000E+01 0. -1.
         -5    1    3    3    0  502 -0.61877880090E+02 -0.23625871282E+02 -0.93044033728E+02  0.11428787534E+03  0.41800000000E+01 0. -1.
        -11    1    4    4    0    0  0.36126012116E+02 -0.12035674098E+02 -0.61693227628E+01  0.38574690481E+02  0.00000000000E+00 0.  1.
         11    1    4    4    0    0 -0.77561243078E+01  0.68342136032E+02  0.13152113025E+02  0.70027016920E+02  0.00000000000E+00 0. -1.
</event>
<event>
 8    1  0.6840032E-009  0.1924144E+03  0.7561462E-02  0.1156302E+00
         -2   -1    0    0    0  501 -0.00000000000E+00  0.00000000000E+00  0.45510922868E+02  0.45510922868E+02  0.00000000000E+00 0.  1.
          2   -1    0    0  501    0  0.00000000000E+00 -0.00000000000E+00 -0.87479032145E+03  0.87479032145E+03  0.00000000000E+00 0. -1.
         25    2    1    2    0    0 -0.15223843182E+03  0.63418471060E+02 -0.50311368665E+03  0.54403605019E+03  0.12511354687E+03 0.  0.
         23    2    1    2    0    0  0.15223843182E+03 -0.63418471060E+02 -0.32616571193E+03  0.37626519413E+03  0.89403479127E+02 0.  0.
          5    1    3    3  502    0 -0.44946756180E+02 -0.35911932800E+02 -0.10343122943E+03  0.11842875255E+03  0.41800000000E+01 0.  1.
         -5    1    3    3    0  502 -0.10729167564E+03  0.99330403860E+02 -0.39968245722E+03  0.42560729764E+03  0.41800000000E+01 0.  1.
        -11    1    4    4    0    0  0.13195765910E+03 -0.20681448820E+02 -0.27970382861E+03  0.30995931646E+03  0.00000000000E+00 0.  1.
         11    1    4    4    0    0  0.20280772722E+02 -0.42737022240E+02 -0.46461883319E+02  0.66305877671E+02  0.00000000000E+00 0. -1.
</event>
<event>
 8    1  0.6840032E-009  0.2641066E+03  0.7561462E-02  0.1104701E+00
          2   -1    0    0  501    0  0.00000000000E+00  0.00000000000E+00  0.11361284542E+04  0.11361284542E+04  0.00000000000E+00 0. -1.
         -2   -1    0    0    0  501 -0.00000000000E+00 -0.00000000000E+00 -0.77499917161E+02  0.77499917161E+02  0.00000000000E+00 0.  1.
         25    2    1    2    0    0 -0.25417750223E+03  0.67369879470E+02  0.71441431762E+03  0.77147937299E+03  0.12509077677E+03 0.  0.
         23    2    1    2    0    0  0.25417750223E+03 -0.67369879470E+02  0.34421421941E+03  0.44214899836E+03  0.88698391241E+02 0.  0.
          5    1    3    3  502    0 -0.31983295015E+02 -0.20013465585E+01  0.24896171731E+03  0.25105048423E+03  0.41800000000E+01 0.  1.
         -5    1    3    3    0  502 -0.22219420721E+03  0.69371226028E+02  0.46545260031E+03  0.52042888876E+03  0.41800000000E+01 0.  1.
        -11    1    4    4    0    0  0.14477985426E+03 -0.34093223851E+02  0.26213257746E+03  0.30139184176E+03  0.00000000000E+00 0.  1.
         11    1    4    4    0    0  0.10939764796E+03 -0.33276655618E+02  0.82081641947E+02  0.14075715660E+03  0.00000000000E+00 0. -1.
</event>
<event>
 8    1  0.6840032E-009  0.8677022E+02  0.7561462E-02  0.1310867E+00
          1   -1    0    0  501    0  0.00000000000E+00  0.00000000000E+00  0.14494009062E+03  0.14494009062E+03  0.00000000000E+00 0. -1.
         -1   -1    0    0    0  501 -0.00000000000E+00 -0.00000000000E+00 -0.10116120949E+03  0.10116120949E+03  0.00000000000E+00 0.  1.
         25    2    1    2    0    0 -0.18197099771E+02 -0.29360538041E+02  0.66309916565E+02  0.14572572871E+03  0.12508320166E+03 0.  0.
         23    2    1    2    0    0  0.18197099771E+02  0.29360538041E+02 -0.22531035433E+02  0.10037557140E+03  0.91511923501E+02 0.  0.
          5    1    3    3  502    0 -0.92619523991E+01 -0.52882282825E+02  0.93841782590E+02  0.10819460319E+03  0.41800000000E+01 0.  1.
         -5    1    3    3    0  502 -0.89351473720E+01  0.23521744784E+02 -0.27531866024E+02  0.37531125523E+02  0.41800000000E+01 0.  1.
        -11    1    4    4    0    0  0.48968572080E+02 -0.35895212458E+01 -0.25244925590E+02  0.55209709131E+02  0.00000000000E+00 0. -1.
         11    1    4    4    0    0 -0.30771472309E+02  0.32950059286E+02  0.27138901573E+01  0.45165862272E+02  0.00000000000E+00 0.  1.
</event>
<event>
 8    1  0.6840032E-009  0.1384997E+03  0.7561462E-02  0.1215362E+00
         -2   -1    0    0    0  501 -0.00000000000E+00  0.00000000000E+00  0.10190502264E+03  0.10190502264E+03  0.00000000000E+00 0.  1.
          2   -1    0    0  501    0  0.00000000000E+00 -0.00000000000E+00 -0.24694139568E+03  0.24694139568E+03  0.00000000000E+00 0. -1.
         25    2    1    2    0    0 -0.10113009079E+03 -0.55610108341E+02 -0.93031901708E+02  0.19396541295E+03  0.12509143565E+03 0.  0.
         23    2    1    2    0    0  0.10113009079E+03  0.55610108341E+02 -0.52004471327E+02  0.15488100537E+03  0.89240581436E+02 0.  0.
          5    1    3    3  502    0 -0.81436347344E+02 -0.86496544988E+02 -0.32749787096E+02  0.12330268415E+03  0.41800000000E+01 0.  1.
         -5    1    3    3    0  502 -0.19693743442E+02  0.30886436646E+02 -0.60282114612E+02  0.70662728801E+02  0.41800000000E+01 0.  1.
        -11    1    4    4    0    0  0.72729332905E+02  0.19465565051E+02  0.11835213186E+02  0.76213754393E+02  0.00000000000E+00 0.  1.
         11    1    4    4    0    0  0.28400757881E+02  0.36144543291E+02 -0.63839684513E+02  0.78667250979E+02  0.00000000000E+00 0. -1.
</event>
<event>
 8    1  0.6840032E-009  0.1152565E+03  0.7561462E-02  0.1251134E+00
         -1   -1    0    0    0  501 -0.00000000000E+00  0.00000000000E+00  0.46531789394E+03  0.46531789394E+03  0.00000000000E+00 0.  1.
          1   -1    0    0  501    0  0.00000000000E+00 -0.00000000000E+00 -0.33943859337E+02  0.33943859337E+02  0.00000000000E+00 0. -1.
         25    2    1    2    0    0 -0.41748165971E+02  0.27853658138E+02  0.32810606926E+03  0.35471078212E+03  0.12508961041E+03 0.  0.
         23    2    1    2    0    0  0.41748165971E+02 -0.27853658138E+02  0.10326796534E+03  0.14455097116E+03  0.87817851050E+02 0.  0.
          5    1    3    3  502    0 -0.42720410713E+02 -0.41752418016E+02  0.20099930372E+03  0.20972956491E+03  0.41800000000E+01 0.  1.
         -5    1    3    3    0  502  0.97224474229E+00  0.69606076154E+02  0.12710676554E+03  0.14498121721E+03  0.41800000000E+01 0.  1.
        -11    1    4    4    0    0  0.25208068677E+02  0.30887377914E+02  0.35860421177E+02  0.53623191324E+02  0.00000000000E+00 0. -1.
         11    1    4    4    0    0  0.16540097293E+02 -0.58741036052E+02  0.67407544167E+02  0.90927779834E+02  0.00000000000E+00 0.  1.
</event>
<event>
 8    1  0.6840032E-009  0.1345961E+03  0.7561462E-02  0.1220791E+00
          2   -1    0    0  501    0  0.00000000000E+00  0.00000000000E+00  0.23653888403E+03  0.23653888403E+03  0.00000000000E+00 0. -1.
         -2   -1    0    0    0  501 -0.00000000000E+00 -0.00000000000E+00 -0.12314285222E+03  0.12314285222E+03  0.00000000000E+00 0.  1.
         25    2    1    2    0    0 -0.66673683893E+02  0.85570961536E+02  0.13755561451E+03  0.21525960840E+03  0.12508949734E+03 0.  0.
         23    2    1    2    0    0  0.66673683893E+02 -0.85570961536E+02 -0.24159582700E+02  0.14442212784E+03  0.92229583067E+02 0.  0.
          5    1    3    3  502    0  0.82508751839E+01 -0.42741009265E+01  0.87256942262E+02  0.87849822156E+02  0.41800000000E+01 0.  1.
         -5    1    3    3    0  502 -0.74924559077E+02  0.89845062462E+02  0.50298672248E+02  0.12740978625E+03  0.41800000000E+01 0.  1.
        -11    1    4    4    0    0  0.16194994211E+02 -0.89835463490E+02 -0.20982796436E+02  0.93664113108E+02  0.00000000000E+00 0.  1.
         11    1    4    4    0    0  0.50478689682E+02  0.42645019546E+01 -0.31767862642E+01  0.50758014736E+02  0.00000000000E+00 0. -1.
</event>
<event>
 8    1  0.6840032E-009  0.7503552E+02  0.7561462E-02  0.1343761E+00
         -1   -1    0    0    0  501 -0.00000000000E+00  0.00000000000E+00  0.19058287530E+02  0.19058287530E+02  0.00000000000E+00 0.  1.
          1   -1    0    0  501    0  0.00000000000E+00 -0.00000000000E+00 -0.64025452703E+03  0.64025452703E+03  0.00000000000E+00 0. -1.
         25    2    1    2    0    0  0.34037627153E+02  0.18337367479E+02 -0.38839749358E+03  0.40987259812E+03  0.12509242407E+03 0.  0.
         23    2    1    2    0    0 -0.34037627153E+02 -0.18337367479E+02 -0.23279874591E+03  0.24944021644E+03  0.80810558524E+02 0.  0.
          5    1    3    3  502    0  0.60317080377E+02 -0.86814079509E+01 -0.88178845711E+02  0.10726834696E+03  0.41800000000E+01 0. -1.
         -5    1    3    3    0  502 -0.26279453224E+02  0.27018775430E+02 -0.30021864787E+03  0.30260425116E+03  0.41800000000E+01 0. -1.
        -11    1    4    4    0    0 -0.39252947218E+02 -0.88463783279E+01 -0.23497409696E+03  0.23839437601E+03  0.00000000000E+00 0. -1.
         11    1    4    4    0    0  0.52153200653E+01 -0.94909891510E+01  0.21753510442E+01  0.11045840421E+02  0.00000000000E+00 0.  1.
</event>
<event>
 8    1  0.6840032E-009  0.6864582E+02  0.7561462E-02  0.1364759E+00
         -2   -1    0    0    0  501 -0.00000000000E+00  0.00000000000E+00  0.52078284624E+02  0.52078284624E+02  0.00000000000E+00 0. -1.
          2   -1    0    0  501    0  0.00000000000E+00 -0.00000000000E+00 -0.29012061356E+03  0.29012061356E+03  0.00000000000E+00 0.  1.
         25    2    1    2    0    0  0.56261814243E+02  0.10524521580E+02 -0.12738026066E+03  0.18748203444E+03  0.12509046780E+03 0.  0.
         23    2    1    2    0    0 -0.56261814243E+02 -0.10524521580E+02 -0.11066206828E+03  0.15471686375E+03  0.91733621296E+02 0.  0.
          5    1    3    3  502    0  0.28872738583E+02 -0.83606879065E+01 -0.14600539139E+03  0.14912606362E+03  0.41800000000E+01 0. -1.
         -5    1    3    3    0  502  0.27389075660E+02  0.18885209487E+02  0.18625130729E+02  0.38355970820E+02  0.41800000000E+01 0. -1.
        -11    1    4    4    0    0 -0.43803545149E+02  0.13932460575E+02 -0.11772066732E+03  0.12637649916E+03  0.00000000000E+00 0.  1.
         11    1    4    4    0    0 -0.12458269094E+02 -0.24456982156E+02  0.70585990365E+01  0.28340364594E+02  0.00000000000E+00 0. -1.
</event>
<event>
 8    1  0.6840032E-009  0.1771434E+03  0.7561462E-02  0.1170597E+00
         -1   -1    0    0    0  501 -0.00000000000E+00  0.00000000000E+00  0.35875972036E+03  0.35875972036E+03  0.00000000000E+00 0.  1.
          1   -1    0    0  501    0  0.00000000000E+00 -0.00000000000E+00 -0.19383879518E+03  0.19383879518E+03  0.00000000000E+00 0. -1.
         25    2    1    2    0    0 -0.46087295740E+01 -0.17229824905E+03 -0.91182231795E+02  0.23166596047E+03  0.12508793240E+03 0.  0.
         23    2    1    2    0    0  0.46087295740E+01  0.17229824905E+03  0.25610315698E+03  0.32093255507E+03  0.87755061829E+02 0.  0.
          5    1    3    3  502    0 -0.21772417708E+02 -0.94313568107E+02  0.15737153506E+02  0.98154050871E+02  0.41800000000E+01 0.  1.
         -5    1    3    3    0  502  0.17163688134E+02 -0.77984680940E+02 -0.10691938530E+03  0.13351190960E+03  0.41800000000E+01 0.  1.
        -11    1    4    4    0    0 -0.17929620339E+02  0.50804646396E+02  0.26159232379E+02  0.59890640501E+02  0.00000000000E+00 0. -1.
         11    1    4    4    0    0  0.22538349913E+02  0.12149360265E+03  0.22994392460E+03  0.26104191457E+03  0.00000000000E+00 0.  1.
</event>
<event>
 8    1  0.6840032E-009  0.1252113E+03  0.7561462E-02  0.1234739E+00
          1   -1    0    0  501    0  0.00000000000E+00  0.00000000000E+00  0.52210833773E+03  0.52210833773E+03  0.00000000000E+00 0. -1.
         -1   -1    0    0    0  501 -0.00000000000E+00 -0.00000000000E+00 -0.42517537518E+02  0.42517537518E+02  0.00000000000E+00 0.  1.
         25    2    1    2    0    0  0.72113103074E+02  0.41203642349E+02  0.37264737076E+03  0.40175934832E+03  0.12508585551E+03 0.  0.
         23    2    1    2    0    0 -0.72113103074E+02 -0.41203642349E+02  0.10694342945E+03  0.16286652693E+03  0.90501760832E+02 0.  0.
          5    1    3    3  502    0  0.70179220434E+02  0.73306015888E+02  0.34333770978E+03  0.35804629631E+03  0.41800000000E+01 0.  1.
         -5    1    3    3    0  502  0.19338826402E+01 -0.32102373540E+02  0.29309660985E+02  0.43713052010E+02  0.41800000000E+01 0.  1.
        -11    1    4    4    0    0 -0.64381504117E+02  0.95472954410E+01  0.84950604155E+02  0.10701744750E+03  0.00000000000E+00 0. -1.
         11    1    4    4    0    0 -0.77315989569E+01 -0.50750937790E+02  0.21992825298E+02  0.55849079433E+02  0.00000000000E+00 0.  1.
</event>
<event>
 8    1  0.6840032E-009  0.1016524E+03  0.7561462E-02  0.1276859E+00
          2   -1    0    0  501    0  0.00000000000E+00  0.00000000000E+00  0.65953842348E+03  0.65953842348E+03  0.00000000000E+00 0. -1.
         -2   -1    0    0    0  501 -0.00000000000E+00 -0.00000000000E+00 -0.27479407710E+02  0.27479407710E+02  0.00000000000E+00 0.  1.
         25    2    1    2    0    0 -0.65720903540E+02  0.13648223746E+02  0.45652359865E+03  0.47809669336E+03  0.12512849759E+03 0.  0.
         23    2    1    2    0    0  0.65720903540E+02 -0.13648223746E+02  0.17553541712E+03  0.20892113783E+03  0.91268000924E+02 0.  0.
          5    1    3    3  502    0 -0.81898959760E+02  0.84865366543E+01  0.45276385301E+03  0.46020869169E+03  0.41800000000E+01 0.  1.
         -5    1    3    3    0  502  0.16178056219E+02  0.51616870913E+01  0.37597456393E+01  0.17888001675E+02  0.41800000000E+01 0.  1.
        -11    1    4    4    0    0  0.82344238842E+02 -0.77537981875E+00  0.16705838516E+03  0.18625165485E+03  0.00000000000E+00 0. -1.
         11    1    4    4    0    0 -0.16623335302E+02 -0.12872843927E+02  0.84770319665E+01  0.22669482974E+02  0.00000000000E+00 0.  1.
</event>
<event>
 8    1  0.6840032E-009  0.9734947E+02  0.7561462E-02  0.1285970E+00
         -2   -1    0    0    0  501 -0.00000000000E+00  0.00000000000E+00  0.20815841716E+02  0.20815841716E+02  0.00000000000E+00 0.  1.
          2   -1    0    0  501    0  0.00000000000E+00 -0.00000000000E+00 -0.61640266193E+03  0.61640266193E+03  0.00000000000E+00 0. -1.
         25    2    1    2    0    0  0.31190881792E+01  0.40166022874E+02 -0.36630656265E+03  0.38916868767E+03  0.12509489006E+03 0.  0.
         23    2    1    2    0    0 -0.31190881792E+01 -0.40166022874E+02 -0.22928025756E+03  0.24804981597E+03  0.85651833553E+02 0.  0.
          5    1    3    3  502    0 -0.29551152387E+02 -0.36983948240E+02 -0.13001935319E+03  0.13843261046E+03  0.41800000000E+01 0. -1.
         -5    1    3    3    0  502  0.32670240566E+02  0.77149971114E+02 -0.23628720946E+03  0.25073607721E+03  0.41800000000E+01 0. -1.
        -11    1    4    4    0    0  0.12450333287E+02  0.65343537898E+01 -0.53879387249E+00  0.14071207384E+02  0.00000000000E+00 0.  1.
         11    1    4    4    0    0 -0.15569421467E+02 -0.46700376663E+02 -0.22874146369E+03  0.23397860859E+03  0.00000000000E+00 0. -1.
</event>
<event>
 8    1  0.6840032E-009  0.1479263E+03  0.7561462E-02  0.1203045E+00
          1   -1    0    0  501    0  0.00000000000E+00  0.00000000000E+00  0.21577002568E+03  0.21577002568E+03  0.00000000000E+00 0. -1.
         -1   -1    0    0    0  501 -0.00000000000E+00 -0.00000000000E+00 -0.13345110521E+03  0.13345110521E+03  0.00000000000E+00 0.  1.
         25    2    1    2    0    0 -0.59320006941E+02  0.11598579669E+03  0.40955089518E+02  0.18520091388E+03  0.12510192199E+03 0.  0.
         23    2    1    2    0    0  0.59320006941E+02 -0.11598579669E+03  0.41363830953E+02  0.16402021702E+03  0.90664749610E+02 0.  0.
          5    1    3    3  502    0  0.27971597765E+02  0.29881625022E+02  0.46880489255E+02  0.62374469683E+02  0.41800000000E+01 0.  1.
         -5    1    3    3    0  502 -0.87291604707E+02  0.86104171669E+02 -0.59253997369E+01  0.12282644419E+03  0.41800000000E+01 0.  1.
        -11    1    4    4    0    0  0.47188778927E+02 -0.69666434570E+02 -0.19702996905E+02  0.86419911186E+02  0.00000000000E+00 0.  1.
         11    1    4    4    0    0  0.12131228014E+02 -0.46319362120E+02  0.61066827859E+02  0.77600305831E+02  0.00000000000E+00 0. -1.
</event>
<event>
 8    1  0.6840032E-009  0.1368809E+03  0.7561462E-02  0.1217589E+00
         -2   -1    0    0    0  501 -0.00000000000E+00  0.00000000000E+00  0.11623525073E+03  0.11623525073E+03  0.00000000000E+00 0.  1.
          2   -1    0    0  501    0  0.00000000000E+00 -0.00000000000E+00 -0.21777780004E+03  0.21777780004E+03  0.00000000000E+00 0. -1.
         25    2    1    2    0    0 -0.10842855014E+03  0.38961441813E+02 -0.38839300922E+02  0.17444282358E+03  0.12508822075E+03 0.  0.
         23    2    1    2    0    0  0.10842855014E+03 -0.38961441813E+02 -0.62703248390E+02  0.15957022719E+03  0.90863720008E+02 0.  0.
          5    1    3    3  502    0 -0.12790906242E+03  0.18102742925E+02 -0.56019332015E+02  0.14086900124E+03  0.41800000000E+01 0.  1.
         -5    1    3    3    0  502  0.19480512288E+02  0.20858698888E+02  0.17180031094E+02  0.33573822343E+02  0.41800000000E+01 0.  1.
        -11    1    4    4    0    0  0.22891626282E+02 -0.12747095034E+02 -0.64994573683E+02  0.70077168849E+02  0.00000000000E+00 0. -1.
         11    1    4    4    0    0  0.85536923853E+02 -0.26214346779E+02  0.22913252932E+01  0.89493058339E+02  0.00000000000E+00 0.  1.
</event>
<event>
 8    1  0.6840032E-009  0.1877467E+03  0.7561462E-02  0.1160510E+00
          2   -1    0    0  501    0  0.00000000000E+00  0.00000000000E+00  0.37005566821E+03  0.37005566821E+03  0.00000000000E+00 0. -1.
         -2   -1    0    0    0  501 -0.00000000000E+00 -0.00000000000E+00 -0.12456701472E+03  0.12456701472E+03  0.00000000000E+00 0.  1.
         25    2    1    2    0    0 -0.16220150932E+03 -0.86992168829E+02  0.14402006967E+03  0.26507821237E+03  0.12509081159E+03 0.  0.
         23    2    1    2    0    0  0.16220150932E+03  0.86992168829E+02  0.10146858383E+03  0.22954447056E+03  0.92292054915E+02 0.  0.
          5    1    3    3  502    0 -0.28116992498E+02 -0.18874005532E+02  0.10391167636E+03  0.10937048156E+03  0.41800000000E+01 0.  1.
         -5    1    3    3    0  502 -0.13408451682E+03 -0.68118163297E+02  0.40108393304E+02  0.15570773081E+03  0.41800000000E+01 0.  1.
        -11    1    4    4    0    0  0.12373764327E+03  0.88971615101E+02  0.40949855051E+02  0.15780951583E+03  0.00000000000E+00 0.  1.
         11    1    4    4    0    0  0.38463866040E+02 -0.19794462720E+01  0.60518728776E+02  0.71734954736E+02  0.00000000000E+00 0. -1.
</event>
<event>
 8    1  0.6840032E-009  0.1226641E+03  0.7561462E-02  0.1238766E+00
          2   -1    0    0  501    0  0.00000000000E+00  0.00000000000E+00  0.28318971542E+03  0.28318971542E+03  0.00000000000E+00 0. -1.
         -2   -1    0    0    0  501 -0.00000000000E+00 -0.00000000000E+00 -0.65769414742E+02  0.65769414742E+02  0.00000000000E+00 0.  1.
         25    2    1    2    0    0 -0.28913423596E+02  0.72885765901E+02  0.14371498913E+03  0.20603406852E+03  0.12509084041E+03 0.  0.
         23    2    1    2    0    0  0.28913423596E+02 -0.72885765901E+02  0.73705311543E+02  0.14292506164E+03  0.94057319547E+02 0.  0.
          5    1    3    3  502    0 -0.50834234127E+02 -0.45943052615E+01  0.13642799120E+02  0.52998352503E+02  0.41800000000E+01 0.  1.
         -5    1    3    3    0  502  0.21920810532E+02  0.77480071163E+02  0.13007219001E+03  0.15303571601E+03  0.41800000000E+01 0.  1.
        -11    1    4    4    0    0  0.97625522592E+01 -0.88339800397E+02  0.77628157173E+02  0.11800575641E+03  0.00000000000E+00 0. -1.
         11    1    4    4    0    0  0.19150871337E+02  0.15454034496E+02 -0.39228456299E+01  0.24919305227E+02  0.00000000000E+00 0.  1.
</event>
<event>
 8    1  0.6840032E-009  0.1460209E+03  0.7561462E-02  0.1205450E+00
         -3   -1    0    0    0  501 -0.00000000000E+00  0.00000000000E+00  0.93777396474E+02  0.93777396474E+02  0.00000000000E+00 0. -1.
          3   -1    0    0  501    0  0.00000000000E+00 -0.00000000000E+00 -0.27539157586E+03  0.27539157586E+03  0.00000000000E+00 0.  1.
         25    2    1    2    0    0 -0.96996467303E+02  0.36775201109E+02 -0.16061213514E+03  0.22848267632E+03  0.12508934943E+03 0.  0.
         23    2    1    2    0    0  0.96996467303E+02 -0.36775201109E+02 -0.21002044247E+02  0.14068629601E+03  0.92686665363E+02 0.  0.
          5    1    3    3  502    0 -0.14071136916E+02 -0.39625876636E+02 -0.16289749980E+02  0.45288357750E+02  0.41800000000E+01 0.  1.
         -5    1    3    3    0  502 -0.82925330387E+02  0.76401077745E+02 -0.14432238516E+03  0.18319431857E+03  0.41800000000E+01 0.  1.
        -11    1    4    4    0    0  0.94690994939E+02  0.52755563823E+01 -0.25840890343E+02  0.98295308288E+02  0.00000000000E+00 0.  1.
         11    1    4    4    0    0  0.23054723641E+01 -0.42050757491E+02  0.48388460957E+01  0.42390987721E+02  0.00000000000E+00 0. -1.
</event>
<event>
 8    1  0.6840032E-009  0.1020413E+03  0.7561462E-02  0.1276061E+00
         -2   -1    0    0    0  501 -0.00000000000E+00  0.00000000000E+00  0.11930978444E+03  0.11930978444E+03  0.00000000000E+00 0.  1.
          2   -1    0    0  501    0  0.00000000000E+00 -0.00000000000E+00 -0.15971436650E+03  0.15971436650E+03  0.00000000000E+00 0. -1.
         25    2    1    2    0    0  0.70323384802E+02 -0.45539060101E+02 -0.61660528065E+01  0.15068105996E+03  0.12509027612E+03 0.  0.
         23    2    1    2    0    0 -0.70323384802E+02  0.45539060101E+02 -0.34238529258E+02  0.12834309098E+03  0.90997184960E+02 0.  0.
          5    1    3    3  502    0  0.61963995854E+02  0.42869017326E+01  0.46407657057E+02  0.77647004721E+02  0.41800000000E+01 0. -1.
         -5    1    3    3    0  502  0.83593889482E+01 -0.49825961834E+02 -0.52573709863E+02  0.73034055241E+02  0.41800000000E+01 0. -1.
        -11    1    4    4    0    0 -0.71668653508E+02  0.33658958647E+02  0.12446561630E+02  0.80151346147E+02  0.00000000000E+00 0.  1.
         11    1    4    4    0    0  0.13452687056E+01  0.11880101454E+02 -0.46685090888E+02  0.48191744829E+02  0.00000000000E+00 0. -1.
</event>
<event>
 8    1  0.6840032E-009  0.1200530E+03  0.7561462E-02  0.1243010E+00
          2   -1    0    0  501    0  0.00000000000E+00  0.00000000000E+00  0.87379734101E+03  0.87379734101E+03  0.00000000000E+00 0. -1.
         -2   -1    0    0    0  501 -0.00000000000E+00 -0.00000000000E+00 -0.19263582367E+02  0.19263582367E+02  0.00000000000E+00 0.  1.
         25    2    1    2    0    0 -0.27124623984E+02 -0.53451563537E+02  0.34345830428E+03  0.37040948048E+03  0.12508701604E+03 0.  0.
         23    2    1    2    0    0  0.27124623984E+02  0.53451563537E+02  0.51107545437E+03  0.52265144290E+03  0.91507353990E+02 0.  0.
          5    1    3    3  502    0 -0.44593476083E+01  0.36969932678E+02  0.16301843271E+03  0.16726967301E+03  0.41800000000E+01 0. -1.
         -5    1    3    3    0  502 -0.22665276376E+02 -0.90421496215E+02  0.18043987156E+03  0.20313980747E+03  0.41800000000E+01 0. -1.
        -11    1    4    4    0    0  0.58052953109E+02  0.14970662229E+02  0.27097618968E+03  0.27752902815E+03  0.00000000000E+00 0. -1.
         11    1    4    4    0    0 -0.30928329125E+02  0.38480901308E+02  0.24009926469E+03  0.24512241475E+03  0.00000000000E+00 0.  1.
</event>
<event>
 8    1  0.6840032E-009  0.1413500E+03  0.7561462E-02  0.1211524E+00
          2   -1    0    0  501    0  0.00000000000E+00  0.00000000000E+00  0.88212167318E+03  0.88212167318E+03  0.00000000000E+00 0. -1.
         -2   -1    0    0    0  501 -0.00000000000E+00 -0.00000000000E+00 -0.27541821341E+02  0.27541821341E+02  0.00000000000E+00 0.  1.
         25    2    1    2    0    0  0.83426164254E+02  0.50830118259E+02  0.61552356823E+03  0.63565694761E+03  0.12508743421E+03 0.  0.
         23    2    1    2    0    0 -0.83426164254E+02 -0.50830118259E+02  0.23905628361E+03  0.27400654691E+03  0.91586326550E+02 0.  0.
          5    1    3    3  502    0  0.55747607762E+02 -0.36645131759E+02  0.25360142125E+03  0.26226287330E+03  0.41800000000E+01 0.  1.
         -5    1    3    3    0  502  0.27678556491E+02  0.87475250018E+02  0.36192214698E+03  0.37339407431E+03  0.41800000000E+01 0.  1.
        -11    1    4    4    0    0 -0.79275298233E+02 -0.69168587697E+02  0.15146157614E+03  0.18441658136E+03  0.00000000000E+00 0. -1.
         11    1    4    4    0    0 -0.41508660202E+01  0.18338469438E+02  0.87594707470E+02  0.89589965547E+02  0.00000000000E+00 0.  1.
</event>
<event>
 8    1  0.6840032E-009  0.1247777E+03  0.7561462E-02  0.1235417E+00
         -3   -1    0    0    0  501 -0.00000000000E+00  0.00000000000E+00  0.10848246688E+03  0.10848246688E+03  0.00000000000E+00 0.  1.
          3   -1    0    0  501    0  0.00000000000E+00 -0.00000000000E+00 -0.17530704974E+03  0.17530704974E+03  0.00000000000E+00 0. -1.
         25    2    1    2    0    0 -0.70001461363E+02 -0.43466035801E+02 -0.18356405547E+02  0.15091055072E+03  0.12509011086E+03 0.  0.
         23    2    1    2    0    0  0.70001461363E+02  0.43466035801E+02 -0.48468177312E+02  0.13287896590E+03  0.92293848689E+02 0.  0.
          5    1    3    3  502    0 -0.24480942191E+02  0.39670675886E+02 -0.29590101063E+02  0.55372606374E+02  0.41800000000E+01 0. -1.
         -5    1    3    3    0  502 -0.45520519172E+02 -0.83136711687E+02  0.11233695516E+02  0.95537944350E+02  0.41800000000E+01 0. -1.
        -11    1    4    4    0    0  0.75081558675E+02  0.56449404563E+02 -0.13077184956E+02  0.94840858784E+02  0.00000000000E+00 0.  1.
         11    1    4    4    0    0 -0.50800973121E+01 -0.12983368761E+02 -0.35390992356E+02  0.38038107117E+02  0.00000000000E+00 0. -1.
</event>
<event>
 8    1  0.6840032E-009  0.7834442E+02  0.7561462E-02  0.1333816E+00
          1   -1    0    0  501    0  0.00000000000E+00  0.00000000000E+00  0.28164283380E+03  0.28164283380E+03  0.00000000000E+00 0. -1.
         -1   -1    0    0    0  501 -0.00000000000E+00 -0.00000000000E+00 -0.42299375148E+02  0.42299375148E+02  0.00000000000E+00 0.  1.
         25    2    1    2    0    0  0.85265666913E+01  0.28469635446E+01  0.12435435857E+03  0.17661221651E+03  0.12508821280E+03 0.  0.
         23    2    1    2    0    0 -0.85265666913E+01 -0.28469635446E+01  0.11498910008E+03  0.14732999244E+03  0.91666929670E+02 0.  0.
          5    1    3    3  502    0 -0.41792973714E+02  0.26446657359E+02  0.11805618740E+02  0.51018853095E+02  0.41800000000E+01 0. -1.
         -5    1    3    3    0  502  0.50319540405E+02 -0.23599693814E+02  0.11254873983E+03  0.12559336341E+03  0.41800000000E+01 0. -1.
        -11    1    4    4    0    0  0.16630222178E+02  0.13412612242E+02 -0.63974722255E+01  0.22302244455E+02  0.00000000000E+00 0.  1.
         11    1    4    4    0    0 -0.25156788869E+02 -0.16259575787E+02  0.12138657230E+03  0.12502774799E+03  0.00000000000E+00 0. -1.
</event>
<event>
 8    1  0.6840032E-009  0.1182000E+03  0.7561462E-02  0.1246096E+00
         -1   -1    0    0    0  501 -0.00000000000E+00  0.00000000000E+00  0.43890859431E+03  0.43890859431E+03  0.00000000000E+00 0.  1.
          1   -1    0    0  501    0  0.00000000000E+00 -0.00000000000E+00 -0.60013635919E+02  0.60013635919E+02  0.00000000000E+00 0. -1.
         25    2    1    2    0    0  0.84325913502E+02  0.67826484235E+01  0.33801421705E+03  0.37021616227E+03  0.12509808900E+03 0.  0.
         23    2    1    2    0    0 -0.84325913502E+02 -0.67826484235E+01  0.40880741339E+02  0.12870606796E+03  0.87961087469E+02 0.  0.
          5    1    3    3  502    0  0.92021500567E+02  0.48430053719E+02  0.27630434356E+03  0.29525410978E+03  0.41800000000E+01 0.  1.
         -5    1    3    3    0  502 -0.76955870646E+01 -0.41647405295E+02  0.61709873488E+02  0.74962052493E+02  0.41800000000E+01 0.  1.
        -11    1    4    4    0    0 -0.25669317975E+02  0.11784407947E+02  0.58283688357E+02  0.64767078708E+02  0.00000000000E+00 0.  1.
         11    1    4    4    0    0 -0.58656595527E+02 -0.18567056370E+02 -0.17402947018E+02  0.63938989247E+02  0.00000000000E+00 0. -1.
</event>
<event>
 8    1  0.6840032E-009  0.1172513E+03  0.7561462E-02  0.1247702E+00
         -3   -1    0    0    0  501 -0.00000000000E+00  0.00000000000E+00  0.15180634107E+03  0.15180634107E+03  0.00000000000E+00 0.  1.
          3   -1    0    0  501    0  0.00000000000E+00 -0.00000000000E+00 -0.92592212525E+02  0.92592212525E+02  0.00000000000E+00 0. -1.
         25    2    1    2    0    0  0.28397940083E+02 -0.38195566056E+02  0.43681060942E+02  0.14078619425E+03  0.12508946054E+03 0.  0.
         23    2    1    2    0    0 -0.28397940083E+02  0.38195566056E+02  0.15533067598E+02  0.10361235934E+03  0.90713287625E+02 0.  0.
          5    1    3    3  502    0 -0.49402439246E+02 -0.78248113667E+01  0.17651724323E+02  0.53206056497E+02  0.41800000000E+01 0.  1.
         -5    1    3    3    0  502  0.77800379329E+02 -0.30370754690E+02  0.26029336619E+02  0.87580137753E+02  0.41800000000E+01 0.  1.
        -11    1    4    4    0    0 -0.46082087199E+02 -0.11873360590E+02  0.16887917275E+02  0.50494922539E+02  0.00000000000E+00 0.  1.
         11    1    4    4    0    0  0.17684147116E+02  0.50068926646E+02 -0.13548496763E+01  0.53117436801E+02  0.00000000000E+00 0. -1.
</event>
<event>
 7    1  0.6840032E-009  0.1329553E+03  0.7561462E-02  0.1223135E+00
          1   -1    0    0  501    0  0.00000000000E+00  0.00000000000E+00  0.62450733270E+03  0.62450733270E+03  0.00000000000E+00 0. -1.
         -1   -1    0    0    0  501 -0.00000000000E+00 -0.00000000000E+00 -0.30713194479E+02  0.30713194479E+02  0.00000000000E+00 0.  1.
         23    2    1    2    0    0 -0.41942860482E+02  0.67912187046E+02  0.34895470251E+03  0.36882294065E+03  0.88824030834E+02 0.  0.
          5    1    1    2  502    0 -0.33212052044E+02 -0.64015641231E+02  0.13621257888E+03  0.15418294902E+03  0.41800000000E+01 0. -1.
         -5    1    1    2    0  502  0.75154912526E+02 -0.38965458146E+01  0.10862685683E+03  0.13221463751E+03  0.41800000000E+01 0. -1.
        -11    1    3    3    0    0 -0.40875762511E+02 -0.86076508486E+01  0.14827938639E+03  0.15405095275E+03  0.00000000000E+00 0. -1.
         11    1    3    3    0    0 -0.10670979708E+01  0.76519837894E+02  0.20067531612E+03  0.21477198790E+03  0.00000000000E+00 0.  1.
</event>
<event>
 8    1  0.6840032E-009  0.8627155E+02  0.7561462E-02  0.1312140E+00
          1   -1    0    0  501    0  0.00000000000E+00  0.00000000000E+00  0.59261742637E+02  0.59261742637E+02  0.00000000000E+00 0. -1.
         -1   -1    0    0    0  501 -0.00000000000E+00 -0.00000000000E+00 -0.31039070912E+03  0.31039070912E+03  0.00000000000E+00 0.  1.
         25    2    1    2    0    0 -0.56074534741E+02  0.18281679103E+02 -0.21574665929E+03  0.25626753684E+03  0.12509139142E+03 0.  0.
         23    2    1    2    0    0  0.56074534741E+02 -0.18281679103E+02 -0.35382307192E+02  0.11338491491E+03  0.90142431909E+02 0.  0.
          5    1    3    3  502    0 -0.18897804925E+02 -0.27827426764E+02 -0.18745470260E+03  0.19049469977E+03  0.41800000000E+01 0.  1.
         -5    1    3    3    0  502 -0.37176729816E+02  0.46109105866E+02 -0.28291956684E+02  0.65772837073E+02  0.41800000000E+01 0.  1.
        -11    1    4    4    0    0 -0.31770115685E+01 -0.19746101162E+02  0.22800958321E+02  0.30329616119E+02  0.00000000000E+00 0. -1.
         11    1    4    4    0    0  0.59251546309E+02  0.14644220594E+01 -0.58183265513E+02  0.83055298794E+02  0.00000000000E+00 0.  1.
</event>
<event>
 8    1  0.6840032E-009  0.9690586E+02  0.7561462E-02  0.1286940E+00
          2   -1    0    0  501    0  0.00000000000E+00  0.00000000000E+00  0.31279473601E+02  0.31279473601E+02  0.00000000000E+00 0. -1.
         -2   -1    0    0    0  501 -0.00000000000E+00 -0.00000000000E+00 -0.48304689188E+03  0.48304689188E+03  0.00000000000E+00 0.  1.
         25    2    1    2    0    0  0.23447912114E+02 -0.49744331911E+02 -0.22433396698E+03  0.26267185514E+03  0.12508585693E+03 0.  0.
         23    2    1    2    0    0 -0.23447912114E+02  0.49744331911E+02 -0.22743345130E+03  0.25165451034E+03  0.92626749179E+02 0.  0.
          5    1    3    3  502    0  0.46611900989E+02 -0.57752287467E+02 -0.57451804450E+02  0.93947742155E+02  0.41800000000E+01 0. -1.
         -5    1    3    3    0  502 -0.23163988876E+02  0.80079555551E+01 -0.16688216253E+03  0.16872411299E+03  0.41800000000E+01 0. -1.
        -11    1    4    4    0    0  0.28514338862E+02  0.18204080637E+02 -0.14696240259E+03  0.15080584819E+03  0.00000000000E+00 0.  1.
         11    1    4    4    0    0 -0.51962250975E+02  0.31540251275E+02 -0.80471048705E+02  0.10084866215E+03  0.00000000000E+00 0. -1.
</event>
<event>
 8    1  0.6840032E-009  0.1858613E+03  0.7561462E-02  0.1162248E+00
          2   -1    0    0  501    0  0.00000000000E+00  0.00000000000E+00  0.17283888450E+03  0.17283888450E+03  0.00000000000E+00 0. -1.
         -2   -1    0    0    0  501 -0.00000000000E+00 -0.00000000000E+00 -0.23887514408E+03  0.23887514408E+03  0.00000000000E+00 0.  1.
         25    2    1    2    0    0  0.16714780246E+03  0.32789036194E+01  0.52679426052E+01  0.20886002365E+03  0.12508244953E+03 0.  0.
         23    2    1    2    0    0 -0.16714780246E+03 -0.32789036194E+01 -0.71304202186E+02  0.20285400492E+03  0.90090615426E+02 0.  0.
          5    1    3    3  502    0  0.12095903688E+03 -0.43049781932E+02  0.40170932038E+02  0.13459401364E+03  0.41800000000E+01 0.  1.
         -5    1    3    3    0  502  0.46188765586E+02  0.46328685551E+02 -0.34902989433E+02  0.74266010009E+02  0.41800000000E+01 0.  1.
        -11    1    4    4    0    0 -0.13625905884E+03 -0.26819410990E+02 -0.22824113256E+02  0.14073646318E+03  0.00000000000E+00 0.  1.
         11    1    4    4    0    0 -0.30888743618E+02  0.23540507371E+02 -0.48480088929E+02  0.62117541743E+02  0.00000000000E+00 0. -1.
</event>
<event>
 8    1  0.6840032E-009  0.9354976E+02  0.7561462E-02  0.1294476E+00
          1   -1    0    0  501    0  0.00000000000E+00  0.00000000000E+00  0.71843736880E+02  0.71843736880E+02  0.00000000000E+00 0. -1.
         -1   -1    0    0    0  501 -0.00000000000E+00 -0.00000000000E+00 -0.22489458840E+03  0.22489458840E+03  0.00000000000E+00 0.  1.
         25    2    1    2    0    0 -0.24703953564E+02 -0.32875435536E+02 -0.14501789749E+03  0.19587873151E+03  0.12508879758E+03 0.  0.
         23    2    1    2    0    0  0.24703953564E+02  0.32875435536E+02 -0.80329540260E+01  0.10085959377E+03  0.91744480611E+02 0.  0.
          5    1    3    3  502    0 -0.56151289582E+02 -0.33177756331E+01 -0.14345017660E+02  0.58199887359E+02  0.41800000000E+01 0.  1.
         -5    1    3    3    0  502  0.31447336018E+02 -0.29557659903E+02 -0.13067287983E+03  0.13767884415E+03  0.41800000000E+01 0.  1.
        -11    1    4    4    0    0  0.20976619806E+02 -0.23119033896E+02  0.21051650452E+02  0.37652095473E+02  0.00000000000E+00 0. -1.
         11    1    4    4    0    0  0.37273337580E+01  0.55994469432E+02 -0.29084604478E+02  0.63207498302E+02  0.00000000000E+00 0.  1.
</event>
<event>
 8    1  0.6840032E-009  0.1545992E+03  0.7561462E-02  0.1194933E+00
          2   -1    0    0  501    0  0.00000000000E+00  0.00000000000E+00  0.15879956587E+04  0.15879956587E+04  0.00000000000E+00 0. -1.
         -2   -1    0    0    0  501 -0.00000000000E+00 -0.00000000000E+00 -0.21984757495E+02  0.21984757495E+02  0.00000000000E+00 0.  1.
         25    2    1    2    0    0 -0.10864813835E+02  0.12847340871E+03  0.11690676268E+04  0.11827891506E+04  0.12509035820E+03 0.  0.
         23    2    1    2    0    0  0.10864813835E+02 -0.12847340871E+03  0.39694327440E+03  0.42719126563E+03  0.91131517154E+02 0.  0.
          5    1    3    3  502    0  0.53024474091E+02  0.42756314325E+02  0.33440331030E+03  0.34129568355E+03  0.41800000000E+01 0. -1.
         -5    1    3    3    0  502 -0.63889287926E+02  0.85717094383E+02  0.83466431650E+03  0.84149346701E+03  0.41800000000E+01 0. -1.
        -11    1    4    4    0    0 -0.12055010035E+02 -0.72267189278E+02  0.99194962793E+02  0.12331873563E+03  0.00000000000E+00 0.  1.
         11    1    4    4    0    0  0.22919823870E+02 -0.56206219429E+02  0.29774831160E+03  0.30387253000E+03  0.00000000000E+00 0. -1.
</event>
<event>
 8    1  0.6840032E-009  0.1130488E+03  0.7561462E-02  0.1255026E+00
          2   -1    0    0  501    0  0.00000000000E+00  0.00000000000E+00  0.49564918175E+03  0.49564918175E+03  0.00000000000E+00 0. -1.
         -2   -1    0    0    0  501 -0.00000000000E+00 -0.00000000000E+00 -0.30582029980E+02  0.30582029980E+02  0.00000000000E+00 0.  1.
         25    2    1    2    0    0  0.66168706007E+01  0.34635131747E+02  0.35793533880E+03  0.38080242158E+03  0.12509757068E+03 0.  0.
         23    2    1    2    0    0 -0.66168706007E+01 -0.34635131747E+02  0.10713181297E+03  0.14542879015E+03  0.91809217005E+02 0.  0.
          5    1    3    3  502    0  0.44558727029E+02 -0.30627142974E+02  0.14098368539E+03  0.15105420877E+03  0.41800000000E+01 0.  1.
         -5    1    3    3    0  502 -0.37941856428E+02  0.65262274721E+02  0.21695165341E+03  0.22974821281E+03  0.41800000000E+01 0.  1.
        -11    1    4    4    0    0  0.27527202418E+02 -0.51336615963E+02  0.49775812405E+02  0.76621318913E+02  0.00000000000E+00 0. -1.
         11    1    4    4    0    0 -0.34144073018E+02  0.16701484216E+02  0.57356000567E+02  0.68807471239E+02  0.00000000000E+00 0.  1.
</event>
<event>
 8    1  0.6840032E-009  0.9671350E+02  0.7561462E-02  0.1287363E+00
         -2   -1    0    0    0  501 -0.00000000000E+00  0.00000000000E+00  0.58121068192E+02  0.58121068192E+02  0.00000000000E+00 0.  1.
          2   -1    0    0  501    0  0.00000000000E+00 -0.00000000000E+00 -0.25738532220E+03  0.25738532220E+03  0.00000000000E+00 0. -1.
         25    2    1    2    0    0 -0.62872280731E+01  0.57006276024E+02 -0.11026777411E+03  0.17634056733E+03  0.12509104260E+03 0.  0.
         23    2    1    2    0    0  0.62872280731E+01 -0.57006276024E+02 -0.88996479903E+02  0.13916582306E+03  0.90318924536E+02 0.  0.
          5    1    3    3  502    0 -0.53316819409E+02 -0.93531088766E+01 -0.58634420347E+02  0.79910146584E+02  0.41800000000E+01 0. -1.
         -5    1    3    3    0  502  0.47029591336E+02  0.66359384901E+02 -0.51633353758E+02  0.96430420750E+02  0.41800000000E+01 0. -1.
        -11    1    4    4    0    0  0.56579061683E+01 -0.23177780393E+02  0.16083359316E+02  0.28773179404E+02  0.00000000000E+00 0.  1.
         11    1    4    4    0    0  0.62932190479E+00 -0.33828495631E+02 -0.10507983922E+03  0.11039264365E+03  0.00000000000E+00 0. -1.
</event>
<event>
 8    1  0.6840032E-009  0.1101824E+03  0.7561462E-02  0.1260233E+00
          2   -1    0    0  501    0  0.00000000000E+00  0.00000000000E+00  0.62010335501E+02  0.62010335501E+02  0.00000000000E+00 0.  1.
         -2   -1    0    0    0  501 -0.00000000000E+00 -0.00000000000E+00 -0.22651392184E+03  0.22651392184E+03  0.00000000000E+00 0. -1.
         25    2    1    2    0    0 -0.44446549735E+02  0.18447051028E+02 -0.82863364058E+02  0.15757417935E+03  0.12508994932E+03 0.  0.
         23    2    1    2    0    0  0.44446549735E+02 -0.18447051028E+02 -0.81640222276E+02  0.13095007798E+03  0.90371497471E+02 0.  0.
          5    1    3    3  502    0 -0.73829158195E+02  0.51111088307E+02 -0.55179532204E+02  0.10547673261E+03  0.41800000000E+01 0. -1.
         -5    1    3    3    0  502  0.29382608460E+02 -0.32664037279E+02 -0.27683831854E+02  0.52097446745E+02  0.41800000000E+01 0. -1.
        -11    1    4    4    0    0  0.46499796389E+02 -0.42022542476E+02 -0.21398667674E+02  0.66227095049E+02  0.00000000000E+00 0.  1.
         11    1    4    4    0    0 -0.20532466541E+01  0.23575491448E+02 -0.60241554603E+02  0.64722982933E+02  0.00000000000E+00 0. -1.
</event>
<event>
 8    1  0.6840032E-009  0.1261676E+03  0.7561462E-02  0.1233256E+00
         -2   -1    0    0    0  501 -0.00000000000E+00  0.00000000000E+00  0.32925346581E+02  0.32925346581E+02  0.00000000000E+00 0.  1.
          2   -1    0    0  501    0  0.00000000000E+00 -0.00000000000E+00 -0.55024862243E+03  0.55024862243E+03  0.00000000000E+00 0. -1.
         25    2    1    2    0    0  0.31556242251E+02 -0.69754516703E+02 -0.32585144871E+03  0.35733361283E+03  0.12508659083E+03 0.  0.
         23    2    1    2    0    0 -0.31556242251E+02  0.69754516703E+02 -0.19147182713E+03  0.22584035617E+03  0.92091893594E+02 0.  0.
          5    1    3    3  502    0  0.71212319674E+02 -0.74380738275E+02 -0.19635300634E+03  0.22175586621E+03  0.41800000000E+01 0. -1.
         -5    1    3    3    0  502 -0.39656077423E+02  0.46262215711E+01 -0.12949844237E+03  0.13557774662E+03  0.41800000000E+01 0. -1.
        -11    1    4    4    0    0 -0.22486355861E+02  0.86886053391E+02 -0.10936437494E+03  0.14147575403E+03  0.00000000000E+00 0.  1.
         11    1    4    4    0    0 -0.90698863897E+01 -0.17131536687E+02 -0.82107452195E+02  0.84364602141E+02  0.00000000000E+00 0. -1.
</event>
<event>
 8    1  0.6840032E-009  0.2609497E+03  0.7561462E-02  0.1106574E+00
          1   -1    0    0  501    0  0.00000000000E+00  0.00000000000E+00  0.86143779582E+03  0.86143779582E+03  0.00000000000E+00 0.  1.
         -1   -1    0    0    0  501 -0.00000000000E+00 -0.00000000000E+00 -0.86862108056E+02  0.86862108056E+02  0.00000000000E+00 0. -1.
         25    2    1    2    0    0  0.18285459269E+03  0.15190615169E+03  0.26222435370E+03  0.37538329524E+03  0.12505888887E+03 0.  0.
         23    2    1    2    0    0 -0.18285459269E+03 -0.15190615169E+03  0.51235133406E+03  0.57291660863E+03  0.96011821872E+02 0.  0.
          5    1    3    3  502    0  0.18903475832E+02 -0.20454415448E+02  0.45732609631E+02  0.53709109968E+02  0.41800000000E+01 0.  1.
         -5    1    3    3    0  502  0.16395111685E+03  0.17236056714E+03  0.21649174407E+03  0.32167418528E+03  0.41800000000E+01 0.  1.
        -11    1    4    4    0    0 -0.18379948656E+02 -0.69429032667E+02  0.16137218290E+03  0.17663293720E+03  0.00000000000E+00 0. -1.
         11    1    4    4    0    0 -0.16447464403E+03 -0.82477119027E+02  0.35097915116E+03  0.39628367143E+03  0.00000000000E+00 0.  1.
</event>
<event>
 8    1  0.6840032E-009  0.1742259E+03  0.7561462E-02  0.1173511E+00
         -4   -1    0    0    0  501 -0.00000000000E+00  0.00000000000E+00  0.96254751451E+02  0.96254751451E+02  0.00000000000E+00 0.  1.
          4   -1    0    0  501    0  0.00000000000E+00 -0.00000000000E+00 -0.49084412383E+03  0.49084412383E+03  0.00000000000E+00 0. -1.
         25    2    1    2    0    0 -0.13862847495E+03 -0.63028005193E+02 -0.35285519613E+03  0.40415802011E+03  0.12508609944E+03 0.  0.
         23    2    1    2    0    0  0.13862847495E+03  0.63028005193E+02 -0.41734176246E+02  0.18294085517E+03  0.92386316735E+02 0.  0.
          5    1    3    3  502    0 -0.15312642462E+03 -0.32615022302E+02 -0.32291696167E+03  0.35889312912E+03  0.41800000000E+01 0.  1.
         -5    1    3    3    0  502  0.14497949674E+02 -0.30412982891E+02 -0.29938234469E+02  0.45264890989E+02  0.41800000000E+01 0.  1.
        -11    1    4    4    0    0  0.53985290494E+02  0.29086167900E+01  0.24956042285E+02  0.59545576561E+02  0.00000000000E+00 0.  1.
         11    1    4    4    0    0  0.84643184454E+02  0.60119388403E+02 -0.66690218531E+02  0.12339527861E+03  0.00000000000E+00 0. -1.
</event>
<event>
 8    1  0.6840032E-009  0.9041572E+02  0.7561462E-02  0.1301848E+00
         -2   -1    0    0    0  501 -0.00000000000E+00  0.00000000000E+00  0.73107860155E+02  0.73107860155E+02  0.00000000000E+00 0.  1.
          2   -1    0    0  501    0  0.00000000000E+00 -0.00000000000E+00 -0.20851819643E+03  0.20851819643E+03  0.00000000000E+00 0. -1.
         25    2    1    2    0    0 -0.74640804861E+01  0.52532816875E+02 -0.40251948957E+02  0.14171594941E+03  0.12509109311E+03 0.  0.
         23    2    1    2    0    0  0.74640804861E+01 -0.52532816875E+02 -0.95158387313E+02  0.13991010717E+03  0.87774199317E+02 0.  0.
          5    1    3    3  502    0 -0.70403868405E+01 -0.33076836317E+02 -0.44322012089E+02  0.55906683887E+02  0.41800000000E+01 0.  1.
         -5    1    3    3    0  502 -0.42369364560E+00  0.85609653192E+02  0.40700631322E+01  0.85809265525E+02  0.41800000000E+01 0.  1.
        -11    1    4    4    0    0 -0.10094154896E+02 -0.34201352391E+02 -0.10634956230E+03  0.11216886319E+03  0.00000000000E+00 0. -1.
         11    1    4    4    0    0  0.17558235382E+02 -0.18331464483E+02  0.11191174986E+02  0.27741243977E+02  0.00000000000E+00 0.  1.
</event>
<event>
 8    1  0.6840032E-009  0.1322829E+03  0.7561462E-02  0.1224107E+00
         -2   -1    0    0    0  501 -0.00000000000E+00  0.00000000000E+00  0.22111572174E+02  0.22111572174E+02  0.00000000000E+00 0.  1.
          2   -1    0    0  501    0  0.00000000000E+00 -0.00000000000E+00 -0.10686406804E+04  0.10686406804E+04  0.00000000000E+00 0. -1.
         25    2    1    2    0    0 -0.21502538754E+02  0.10580119250E+03 -0.57973386143E+03  0.60282318624E+03  0.12509273469E+03 0.  0.
         23    2    1    2    0    0  0.21502538754E+02 -0.10580119250E+03 -0.46679524675E+03  0.48792906629E+03  0.92307745242E+02 0.  0.
          5    1    3    3  502    0 -0.42901189372E+02 -0.39358054028E+01 -0.82583646547E+02  0.93239121031E+02  0.41800000000E+01 0. -1.
         -5    1    3    3    0  502  0.21398650618E+02  0.10973699790E+03 -0.49715021488E+03  0.50958406521E+03  0.41800000000E+01 0. -1.
        -11    1    4    4    0    0 -0.29841943409E+01 -0.18109088685E+02 -0.77174051941E+01  0.19909868201E+02  0.00000000000E+00 0.  1.
         11    1    4    4    0    0  0.24486733095E+02 -0.87692103817E+02 -0.45907784155E+03  0.46801919809E+03  0.00000000000E+00 0. -1.
</event>
<event>
 8    1  0.6840032E-009  0.1065354E+03  0.7561462E-02  0.1267124E+00
         -2   -1    0    0    0  501 -0.00000000000E+00  0.00000000000E+00  0.29491159823E+02  0.29491159823E+02  0.00000000000E+00 0.  1.
          2   -1    0    0  501    0  0.00000000000E+00 -0.00000000000E+00 -0.51177699454E+03  0.51177699454E+03  0.00000000000E+00 0. -1.
         25    2    1    2    0    0  0.41808880777E+02 -0.10118103309E+02 -0.35603979041E+03  0.37981634122E+03  0.12508302113E+03 0.  0.
         23    2    1    2    0    0 -0.41808880777E+02  0.10118103309E+02 -0.12624604431E+03  0.16145181315E+03  0.90984975342E+02 0.  0.
          5    1    3    3  502    0  0.71723432733E+02  0.28141481924E+02 -0.15756842626E+03  0.17544650228E+03  0.41800000000E+01 0. -1.
         -5    1    3    3    0  502 -0.29914551956E+02 -0.38259585234E+02 -0.19847136415E+03  0.20436983894E+03  0.41800000000E+01 0. -1.
        -11    1    4    4    0    0 -0.64186406259E+02  0.81317294947E+01 -0.49437776121E+02  0.81425508785E+02  0.00000000000E+00 0.  1.
         11    1    4    4    0    0  0.22377525482E+02  0.19863738147E+01 -0.76808268191E+02  0.80026304364E+02  0.00000000000E+00 0. -1.
</event>
<event>
 8    1  0.6840032E-009  0.1259897E+03  0.7561462E-02  0.1233531E+00
         -3   -1    0    0    0  501 -0.00000000000E+00  0.00000000000E+00  0.73444473268E+03  0.73444473268E+03  0.00000000000E+00 0.  1.
          3   -1    0    0  501    0  0.00000000000E+00 -0.00000000000E+00 -0.42255390140E+02  0.42255390140E+02  0.00000000000E+00 0. -1.
         25    2    1    2    0    0  0.20992139012E+02 -0.11037018458E+03  0.55739996909E+03  0.58220628996E+03  0.12508873245E+03 0.  0.
         23    2    1    2    0    0 -0.20992139012E+02  0.11037018458E+03  0.13478937344E+03  0.19449383285E+03  0.83889381209E+02 0.  0.
          5    1    3    3  502    0 -0.21768322326E+02 -0.81029959180E+02  0.15362926612E+03  0.17509750983E+03  0.41800000000E+01 0. -1.
         -5    1    3    3    0  502  0.42760461337E+02 -0.29340225398E+02  0.40377070297E+03  0.40710878013E+03  0.41800000000E+01 0. -1.
        -11    1    4    4    0    0 -0.24758803603E+02  0.53504572871E+02  0.13498023409E+02  0.60480859038E+02  0.00000000000E+00 0. -1.
         11    1    4    4    0    0  0.37666645913E+01  0.56865611707E+02  0.12129135004E+03  0.13401297381E+03  0.00000000000E+00 0.  1.
</event>
<event>
 8    1  0.6840032E-009  0.1542447E+03  0.7561462E-02  0.1195352E+00
          1   -1    0    0  501    0  0.00000000000E+00  0.00000000000E+00  0.68967380652E+03  0.68967380652E+03  0.00000000000E+00 0. -1.
         -1   -1    0    0    0  501 -0.00000000000E+00 -0.00000000000E+00 -0.45938404923E+02  0.45938404923E+02  0.00000000000E+00 0.  1.
         25    2    1    2    0    0 -0.69662081128E+01 -0.14001532258E+03  0.37358896794E+03  0.41816743535E+03  0.12506985411E+03 0.  0.
         23    2    1    2    0    0  0.69662081128E+01  0.14001532258E+03  0.27014643365E+03  0.31744477609E+03  0.90217911957E+02 0.  0.
          5    1    3    3  502    0  0.13008608025E+02 -0.66128584864E+02  0.31372001408E+03  0.32090486636E+03  0.41800000000E+01 0.  1.
         -5    1    3    3    0  502 -0.19974816137E+02 -0.73886737717E+02  0.59868953861E+02  0.97262568990E+02  0.41800000000E+01 0.  1.
        -11    1    4    4    0    0 -0.38144261788E+02  0.84993355916E+02  0.12605536355E+03  0.15674440959E+03  0.00000000000E+00 0. -1.
         11    1    4    4    0    0  0.45110469901E+02  0.55021966666E+02  0.14409107010E+03  0.16070036650E+03  0.00000000000E+00 0.  1.
</event>
<event>
 8    1  0.6840032E-009  0.2602182E+03  0.7561462E-02  0.1107012E+00
         -2   -1    0    0    0  501 -0.00000000000E+00  0.00000000000E+00  0.39951765762E+03  0.39951765762E+03  0.00000000000E+00 0.  1.
          2   -1    0    0  501    0  0.00000000000E+00 -0.00000000000E+00 -0.45855705070E+03  0.45855705070E+03  0.00000000000E+00 0. -1.
         25    2    1    2    0    0 -0.23955330887E+03 -0.19053626033E+02  0.30748733720E+03  0.40981143688E+03  0.12509245704E+03 0.  0.
         23    2    1    2    0    0  0.23955330887E+03  0.19053626033E+02 -0.36652673028E+03  0.44826327143E+03  0.94070654560E+02 0.  0.
          5    1    3    3  502    0 -0.64768432083E+02  0.43637563135E+02  0.51893227788E+02  0.93859289370E+02  0.41800000000E+01 0. -1.
         -5    1    3    3    0  502 -0.17478487678E+03 -0.62691189168E+02  0.25559410942E+03  0.31595214751E+03  0.41800000000E+01 0. -1.
        -11    1    4    4    0    0  0.11384791766E+03  0.54020846842E+02 -0.15540232127E+03  0.20007369069E+03  0.00000000000E+00 0. -1.
         11    1    4    4    0    0  0.12570539121E+03 -0.34967220810E+02 -0.21112440901E+03  0.24818958074E+03  0.00000000000E+00 0.  1.
</event>
<event>
 8    1  0.6840032E-009  0.2619044E+03  0.7561462E-02  0.1106004E+00
         -1   -1    0    0    0  501 -0.00000000000E+00  0.00000000000E+00  0.17707104326E+04  0.17707104326E+04  0.00000000000E+00 0.  1.
          1   -1    0    0  501    0  0.00000000000E+00 -0.00000000000E+00 -0.42488460937E+02  0.42488460937E+02  0.00000000000E+00 0. -1.
         25    2    1    2    0    0 -0.84777123984E+02 -0.23032295030E+03  0.70000821053E+03  0.75225978193E+03  0.12508981777E+03 0.  0.
         23    2    1    2    0    0  0.84777123984E+02  0.23032295030E+03  0.10282137611E+04  0.10609391116E+04  0.90180029798E+02 0.  0.
          5    1    3    3  502    0  0.19088901163E+02 -0.11774605286E+03  0.36128422950E+03  0.38048953468E+03  0.41800000000E+01 0. -1.
         -5    1    3    3    0  502 -0.10386602515E+03 -0.11257689744E+03  0.33872398103E+03  0.37177024725E+03  0.41800000000E+01 0. -1.
        -11    1    4    4    0    0  0.72839034528E+01  0.95027852813E+02  0.25654221946E+03  0.27367363487E+03  0.00000000000E+00 0. -1.
         11    1    4    4    0    0  0.77493220532E+02  0.13529509749E+03  0.77167154165E+03  0.78726547671E+03  0.00000000000E+00 0.  1.
</event>
<event>
 8    1  0.6840032E-009  0.1035049E+03  0.7561462E-02  0.1273094E+00
         -1   -1    0    0    0  501 -0.00000000000E+00  0.00000000000E+00  0.13510998357E+02  0.13510998357E+02  0.00000000000E+00 0.  1.
          1   -1    0    0  501    0  0.00000000000E+00 -0.00000000000E+00 -0.11395444876E+04  0.11395444876E+04  0.00000000000E+00 0. -1.
         25    2    1    2    0    0 -0.36924795901E+02  0.45815654113E+02 -0.68589919018E+03  0.69969116784E+03  0.12509003377E+03 0.  0.
         23    2    1    2    0    0  0.36924795901E+02 -0.45815654113E+02 -0.44013429910E+03  0.45336431815E+03  0.91424772451E+02 0.  0.
          5    1    3    3  502    0 -0.55595764117E+02  0.55732200818E+02 -0.66505080984E+03  0.66970666659E+03  0.41800000000E+01 0.  1.
         -5    1    3    3    0  502  0.18670968217E+02 -0.99165467055E+01 -0.20848380337E+02  0.29984501253E+02  0.41800000000E+01 0.  1.
        -11    1    4    4    0    0  0.42872993294E+02 -0.69800834925E+02 -0.29594659854E+03  0.30707432211E+03  0.00000000000E+00 0.  1.
         11    1    4    4    0    0 -0.59481973936E+01  0.23985180813E+02 -0.14418770056E+03  0.14628999604E+03  0.00000000000E+00 0. -1.
</event>
<event>
 8    1  0.6840032E-009  0.1366848E+03  0.7561462E-02  0.1217861E+00
         -1   -1    0    0    0  501 -0.00000000000E+00  0.00000000000E+00  0.76401696888E+02  0.76401696888E+02  0.00000000000E+00 0.  1.
          1   -1    0    0  501    0  0.00000000000E+00 -0.00000000000E+00 -0.31858224248E+03  0.31858224248E+03  0.00000000000E+00 0. -1.
         25    2    1    2    0    0  0.63052621831E+02  0.79859054335E+02 -0.71037793998E+02  0.17620194922E+03  0.12509059538E+03 0.  0.
         23    2    1    2    0    0 -0.63052621831E+02 -0.79859054335E+02 -0.17114275159E+03  0.21878199015E+03  0.90678641976E+02 0.  0.
          5    1    3    3  502    0  0.87710091978E+00  0.93837841292E+02 -0.59804892630E+02  0.11135711628E+03  0.41800000000E+01 0.  1.
         -5    1    3    3    0  502  0.62175520911E+02 -0.13978786958E+02 -0.11232901368E+02  0.64844832936E+02  0.41800000000E+01 0.  1.
        -11    1    4    4    0    0 -0.63564943225E+02 -0.38723063880E+02 -0.47067454654E+02  0.88064311563E+02  0.00000000000E+00 0.  1.
         11    1    4    4    0    0  0.51232139340E+00 -0.41135990455E+02 -0.12407529694E+03  0.13071767858E+03  0.00000000000E+00 0. -1.
</event>
<event>
 8    1  0.6840032E-009  0.1540659E+03  0.7561462E-02  0.1195564E+00
          1   -1    0    0  501    0  0.00000000000E+00  0.00000000000E+00  0.38478696906E+03  0.38478696906E+03  0.00000000000E+00 0. -1.
         -1   -1    0    0    0  501 -0.00000000000E+00 -0.00000000000E+00 -0.65141185712E+02  0.65141185712E+02  0.00000000000E+00 0.  1.
         25    2    1    2    0    0 -0.85408015517E+01  0.11414192285E+03  0.19935520731E+03  0.26170785562E+03  0.12508868521E+03 0.  0.
         23    2    1    2    0    0  0.85408015517E+01 -0.11414192285E+03  0.12029057604E+03  0.18822029916E+03  0.88632581419E+02 0.  0.
          5    1    3    3  502    0  0.38015701542E+02 -0.66589576794E+01  0.33576745344E+02  0.51326460125E+02  0.41800000000E+01 0.  1.
         -5    1    3    3    0  502 -0.46556503094E+02  0.12080088053E+03  0.16577846197E+03  0.21038139549E+03  0.41800000000E+01 0.  1.
        -11    1    4    4    0    0 -0.28515756900E+02 -0.92661807772E+02  0.59151012486E+02  0.11357024826E+03  0.00000000000E+00 0. -1.
         11    1    4    4    0    0  0.37056558452E+02 -0.21480115075E+02  0.61139563553E+02  0.74650050900E+02  0.00000000000E+00 0.  1.
</event>
<event>
 8    1  0.6840032E-009  0.1412528E+03  0.7561462E-02  0.1211653E+00
          2   -1    0    0  501    0  0.00000000000E+00  0.00000000000E+00  0.44409436000E+03  0.44409436000E+03  0.00000000000E+00 0. -1.
         -2   -1    0    0    0  501 -0.00000000000E+00 -0.00000000000E+00 -0.58742994069E+02  0.58742994069E+02  0.00000000000E+00 0.  1.
         25    2    1    2    0    0 -0.28673101404E+02  0.10747106588E+03  0.13886989635E+03  0.21749700224E+03  0.12509165090E+03 0.  0.
         23    2    1    2    0    0  0.28673101404E+02 -0.10747106588E+03  0.24648146957E+03  0.28534035183E+03  0.91070438631E+02 0.  0.
          5    1    3    3  502    0  0.44687795845E+02  0.70754757080E+02  0.55781506516E+02  0.10065924506E+03  0.41800000000E+01 0.  1.
         -5    1    3    3    0  502 -0.73360897249E+02  0.36716308797E+02  0.83088389837E+02  0.11683775718E+03  0.41800000000E+01 0.  1.
        -11    1    4    4    0    0 -0.35002594184E+01 -0.54394066776E+02  0.34613578537E+02  0.64568305968E+02  0.00000000000E+00 0.  1.
         11    1    4    4    0    0  0.32173360822E+02 -0.53076999100E+02  0.21186789104E+03  0.22077204586E+03  0.00000000000E+00 0. -1.
</event>
<event>
 8    1  0.6840032E-009  0.1837513E+03  0.7561462E-02  0.1164221E+00
          1   -1    0    0  501    0  0.00000000000E+00  0.00000000000E+00  0.95398061898E+02  0.95398061898E+02  0.00000000000E+00 0. -1.
         -1   -1    0    0    0  501 -0.00000000000E+00 -0.00000000000E+00 -0.36745715402E+03  0.36745715402E+03  0.00000000000E+00 0.  1.
         25    2    1    2    0    0  0.13502961061E+03 -0.63727989373E+02 -0.10751481248E+03  0.22248720851E+03  0.12508745211E+03 0.  0.
         23    2    1    2    0    0 -0.13502961061E+03  0.63727989373E+02 -0.16454427964E+03  0.24036800741E+03  0.91693547494E+02 0.  0.
          5    1    3    3  502    0  0.19456714219E+02  0.35396328606E+02 -0.35791454660E+02  0.54129145880E+02  0.41800000000E+01 0.  1.
         -5    1    3    3    0  502  0.11557289639E+03 -0.99124317979E+02 -0.71723357822E+02  0.16835806263E+03  0.41800000000E+01 0.  1.
        -11    1    4    4    0    0 -0.69980197215E+02  0.81229301251E+02 -0.11091356619E+03  0.15426356196E+03  0.00000000000E+00 0.  1.
         11    1    4    4    0    0 -0.65049413394E+02 -0.17501311878E+02 -0.53630713443E+02  0.86104445442E+02  0.00000000000E+00 0. -1.
</event>
<event>
 8    1  0.6840032E-009  0.1787770E+03  0.7561462E-02  0.1168992E+00
         -3   -1    0    0    0  501 -0.00000000000E+00  0.00000000000E+00  0.11306145594E+03  0.11306145594E+03  0.00000000000E+00 0.  1.
          3   -1    0    0  501    0  0.00000000000E+00 -0.00000000000E+00 -0.32290557467E+03  0.32290557467E+03  0.00000000000E+00 0. -1.
         25    2    1    2    0    0 -0.14965551339E+03 -0.27785639990E+02 -0.69517297099E+02  0.20892438920E+03  0.12509169170E+03 0.  0.
         23    2    1    2    0    0  0.14965551339E+03  0.27785639990E+02 -0.14032682163E+03  0.22704264142E+03  0.93209064343E+02 0.  0.
          5    1    3    3  502    0 -0.15449220559E+03  0.13532020308E+02 -0.57028981417E+02  0.16528984930E+03  0.41800000000E+01 0.  1.
         -5    1    3    3    0  502  0.48366922006E+01 -0.41317660298E+02 -0.12488315682E+02  0.43634539903E+02  0.41800000000E+01 0.  1.
        -11    1    4    4    0    0  0.13077130868E+03  0.41575909290E+02 -0.72287537549E+02  0.15509732264E+03  0.00000000000E+00 0.  1.
         11    1    4    4    0    0  0.18884204708E+02 -0.13790269299E+02 -0.68039284082E+02  0.71945318772E+02  0.00000000000E+00 0. -1.
</event>
<event>
 7    1  0.6840032E-009  0.1432404E+03  0.7561462E-02  0.1209034E+00
          2   -1    0    0  501    0  0.00000000000E+00  0.00000000000E+00  0.53693341229E+02  0.53693341229E+02  0.00000000000E+00 0. -1.
         -2   -1    0    0    0  501 -0.00000000000E+00 -0.00000000000E+00 -0.43645624538E+03  0.43645624538E+03  0.00000000000E+00 0.  1.
         25    2    1    2    0    0 -0.67900174177E+02  0.24567941465E+01 -0.10813825645E+03  0.17876298068E+03  0.12508337724E+03 0.  0.
          5    1    3    3  502    0 -0.49985314187E+02  0.60746389091E+02 -0.77022211044E+02  0.11017508256E+03  0.41800000000E+01 0. -1.
         -5    1    3    3    0  502 -0.17914859990E+02 -0.58289594945E+02 -0.31116045406E+02  0.68587898123E+02  0.41800000000E+01 0. -1.
        -11    1    1    2    0    0 -0.20008448511E+02  0.43135429820E+02 -0.81667871688E+02  0.94502087721E+02  0.00000000000E+00 0. -1.
         11    1    1    2    0    0  0.87908622689E+02 -0.45592223966E+02 -0.19295677601E+03  0.21688451821E+03  0.00000000000E+00 0.  1.
</event>
<event>
 8    1  0.6840032E-009  0.1340448E+03  0.7561462E-02  0.1221574E+00
         -3   -1    0    0    0  501 -0.00000000000E+00  0.00000000000E+00  0.88987228319E+03  0.88987228319E+03  0.00000000000E+00 0.  1.
          3   -1    0    0  501    0  0.00000000000E+00 -0.00000000000E+00 -0.43504210530E+02  0.43504210530E+02  0.00000000000E+00 0. -1.
         25    2    1    2    0    0  0.29854284955E+02  0.98152842697E+02  0.74409822502E+03  0.76148192183E+03  0.12508912799E+03 0.  0.
         23    2    1    2    0    0 -0.29854284955E+02 -0.98152842697E+02  0.10226984764E+03  0.17189457188E+03  0.92538442000E+02 0.  0.
          5    1    3    3  502    0 -0.23749577367E+02 -0.28416214582E+01  0.35710575015E+03  0.35793030946E+03  0.41800000000E+01 0.  1.
         -5    1    3    3    0  502  0.53603862323E+02  0.10099446415E+03  0.38699247487E+03  0.40355161237E+03  0.41800000000E+01 0.  1.
        -11    1    4    4    0    0 -0.56699166675E+02 -0.58141877665E+02  0.33326831200E+02  0.87783546966E+02  0.00000000000E+00 0. -1.
         11    1    4    4    0    0  0.26844881720E+02 -0.40010965032E+02  0.68943016438E+02  0.84111024918E+02  0.00000000000E+00 0.  1.
</event>
<event>
 8    1  0.6840032E-009  0.1326524E+03  0.7561462E-02  0.1223572E+00
          2   -1    0    0  501    0  0.00000000000E+00  0.00000000000E+00  0.13455093758E+04  0.13455093758E+04  0.00000000000E+00 0. -1.
         -2   -1    0    0    0  501 -0.00000000000E+00 -0.00000000000E+00 -0.17845217459E+02  0.17845217459E+02  0.00000000000E+00 0.  1.
         25    2    1    2    0    0  0.47070143528E+01  0.10304445342E+03  0.88253400172E+03  0.89730390323E+03  0.12509082775E+03 0.  0.
         23    2    1    2    0    0 -0.47070143528E+01 -0.10304445342E+03  0.44513015663E+03  0.46605069005E+03  0.91771858345E+02 0.  0.
          5    1    3    3  502    0  0.32276630690E+02  0.51753773292E+01  0.59622250562E+02  0.68123788659E+02  0.41800000000E+01 0.  1.
         -5    1    3    3    0  502 -0.27569616337E+02  0.97869076089E+02  0.82291175116E+03  0.82918011457E+03  0.41800000000E+01 0.  1.
        -11    1    4    4    0    0 -0.40786316626E+02 -0.73057921403E+02  0.35154160512E+03  0.36136198421E+03  0.00000000000E+00 0. -1.
         11    1    4    4    0    0  0.36079302274E+02 -0.29986532015E+02  0.93588551515E+02  0.10468870584E+03  0.00000000000E+00 0.  1.
</event>
<event>
 8    1  0.6840032E-009  0.8196059E+02  0.7561462E-02  0.1323578E+00
         -1   -1    0    0    0  501 -0.00000000000E+00  0.00000000000E+00  0.38285394670E+02  0.38285394670E+02  0.00000000000E+00 0.  1.
          1   -1    0    0  501    0  0.00000000000E+00 -0.00000000000E+00 -0.32237067590E+03  0.32237067590E+03  0.00000000000E+00 0. -1.
         25    2    1    2    0    0 -0.12113012466E+02  0.24288416004E+02 -0.15841482380E+03  0.20366450920E+03  0.12508926288E+03 0.  0.
         23    2    1    2    0    0  0.12113012466E+02 -0.24288416004E+02 -0.12567045744E+03  0.15699156137E+03  0.90092365082E+02 0.  0.
          5    1    3    3  502    0 -0.19436542109E+02 -0.27310535746E+02 -0.14609451323E+03  0.14994907045E+03  0.41800000000E+01 0.  1.
         -5    1    3    3    0  502  0.73235296433E+01  0.51598951750E+02 -0.12320310562E+02  0.53715438754E+02  0.41800000000E+01 0.  1.
        -11    1    4    4    0    0 -0.12685324993E+02  0.21971084811E+02 -0.56436973390E+01  0.25990332002E+02  0.00000000000E+00 0.  1.
         11    1    4    4    0    0  0.24798337458E+02 -0.46259500815E+02 -0.12002676010E+03  0.13100122937E+03  0.00000000000E+00 0. -1.
</event>
<event>
 8    1  0.6840032E-009  0.8893674E+02  0.7561462E-02  0.1305447E+00
          1   -1    0    0  501    0  0.00000000000E+00  0.00000000000E+00  0.24798246332E+03  0.24798246332E+03  0.00000000000E+00 0. -1.
         -1   -1    0    0    0  501 -0.00000000000E+00 -0.00000000000E+00 -0.63157208169E+02  0.63157208169E+02  0.00000000000E+00 0.  1.
         25    2    1    2    0    0  0.23721799646E+02 -0.44843951263E+01  0.30090879608E+02  0.13090325836E+03  0.12508944174E+03 0.  0.
         23    2    1    2    0    0 -0.23721799646E+02  0.44843951263E+01  0.15473437554E+03  0.18023641313E+03  0.89216613162E+02 0.  0.
          5    1    3    3  502    0  0.25164137256E+02  0.38207175887E+02 -0.31594186295E+02  0.55755601519E+02  0.41800000000E+01 0.  1.
         -5    1    3    3    0  502 -0.14423376097E+01 -0.42691571013E+02  0.61685065903E+02  0.75147656842E+02  0.41800000000E+01 0.  1.
        -11    1    4    4    0    0 -0.40510516971E+02 -0.30167138379E+02  0.62990824968E+02  0.80740338452E+02  0.00000000000E+00 0.  1.
         11    1    4    4    0    0  0.16788717325E+02  0.34651533505E+02  0.91743550572E+02  0.99496074673E+02  0.00000000000E+00 0. -1.
</event>
<event>
 8    1  0.6840032E-009  0.1922816E+03  0.7561462E-02  0.1156419E+00
         -1   -1    0    0    0  501 -0.00000000000E+00  0.00000000000E+00  0.95678581383E+02  0.95678581383E+02  0.00000000000E+00 0.  1.
          1   -1    0    0  501    0  0.00000000000E+00 -0.00000000000E+00 -0.81671960739E+03  0.81671960739E+03  0.00000000000E+00 0. -1.
         25    2    1    2    0    0  0.15638279218E+03  0.96871754253E+02 -0.66224628918E+03  0.69861116250E+03  0.12509074453E+03 0.  0.
         23    2    1    2    0    0 -0.15638279218E+03 -0.96871754253E+02 -0.58794736823E+02  0.21378702628E+03  0.91697094091E+02 0.  0.
          5    1    3    3  502    0  0.14372818491E+02  0.33583939261E+02 -0.29819434145E+02  0.47340573934E+02  0.41800000000E+01 0. -1.
         -5    1    3    3    0  502  0.14200997369E+03  0.63287814992E+02 -0.63242685504E+03  0.65127058856E+03  0.41800000000E+01 0. -1.
        -11    1    4    4    0    0 -0.81257605562E+02 -0.82460727979E+02 -0.71753034914E+02  0.13620230593E+03  0.00000000000E+00 0. -1.
         11    1    4    4    0    0 -0.75125186616E+02 -0.14411026273E+02  0.12958298091E+02  0.77584720349E+02  0.00000000000E+00 0.  1.
</event>
<event>
 8    1  0.6840032E-009  0.1389335E+03  0.7561462E-02  0.1214771E+00
         -1   -1    0    0    0  501 -0.00000000000E+00  0.00000000000E+00  0.10862494867E+03  0.10862494867E+03  0.00000000000E+00 0.  1.
          1   -1    0    0  501    0  0.00000000000E+00 -0.00000000000E+00 -0.26772109640E+03  0.26772109640E+03  0.00000000000E+00 0. -1.
         25    2    1    2    0    0 -0.13453526351E+03 -0.47226762819E+01 -0.78008423017E+02  0.19963456773E+03  0.12508639323E+03 0.  0.
         23    2    1    2    0    0  0.13453526351E+03  0.47226762819E+01 -0.81087724717E+02  0.17671147734E+03  0.80806474528E+02 0.  0.
          5    1    3    3  502    0 -0.71716346495E+02 -0.88812888483E+01 -0.10780961273E+03  0.12985567621E+03  0.41800000000E+01 0. -1.
         -5    1    3    3    0  502 -0.62818917011E+02  0.41586125664E+01  0.29801189716E+02  0.69778891517E+02  0.41800000000E+01 0. -1.
        -11    1    4    4    0    0  0.31580079411E+02  0.21319234395E+02  0.87185747368E+01  0.39087398433E+02  0.00000000000E+00 0.  1.
         11    1    4    4    0    0  0.10295518409E+03 -0.16596558113E+02 -0.89806299454E+02  0.13762407891E+03  0.00000000000E+00 0. -1.
</event>
<event>
 8    1  0.6840032E-009  0.1152454E+03  0.7561462E-02  0.1251153E+00
         -1   -1    0    0    0  501 -0.00000000000E+00  0.00000000000E+00  0.38767695179E+02  0.38767695179E+02  0.00000000000E+00 0.  1.
          1   -1    0    0  501    0  0.00000000000E+00 -0.00000000000E+00 -0.44059030634E+03  0.44059030634E+03  0.00000000000E+00 0. -1.
         25    2    1    2    0    0 -0.13645493299E+02  0.40971369176E+02 -0.11995801474E+03  0.17861171635E+03  0.12508943735E+03 0.  0.
         23    2    1    2    0    0  0.13645493299E+02 -0.40971369176E+02 -0.28186459642E+03  0.30074628518E+03  0.95581508416E+02 0.  0.
          5    1    3    3  502    0 -0.31343651807E+02 -0.39038588596E+02 -0.47818167638E+02  0.69357663343E+02  0.41800000000E+01 0. -1.
         -5    1    3    3    0  502  0.17698158508E+02  0.80009957773E+02 -0.72139847104E+02  0.10925405300E+03  0.41800000000E+01 0. -1.
        -11    1    4    4    0    0 -0.24364237938E+02  0.16408526943E+02 -0.42359991422E+02  0.51548275626E+02  0.00000000000E+00 0.  1.
         11    1    4    4    0    0  0.38009731237E+02 -0.57379896119E+02 -0.23950460500E+03  0.24919800955E+03  0.00000000000E+00 0. -1.
</event>
<event>
 8    1  0.6840032E-009  0.2396828E+03  0.7561462E-02  0.1120004E+00
         -4   -1    0    0    0  501 -0.00000000000E+00  0.00000000000E+00  0.48313869927E+03  0.48313869927E+03  0.00000000000E+00 0.  1.
          4   -1    0    0  501    0  0.00000000000E+00 -0.00000000000E+00 -0.21312040870E+03  0.21312040870E+03  0.00000000000E+00 0. -1.
         25    2    1    2    0    0 -0.21071124996E+02 -0.22311654062E+03  0.35634953577E+03  0.43915578486E+03  0.12509128157E+03 0.  0.
         23    2    1    2    0    0  0.21071124996E+02  0.22311654062E+03 -0.86331245203E+02  0.25710332310E+03  0.91782633659E+02 0.  0.
          5    1    3    3  502    0 -0.58063893960E+02 -0.71508957319E+02  0.18901581895E+03  0.21030786712E+03  0.41800000000E+01 0. -1.
         -5    1    3    3    0  502  0.36992768965E+02 -0.15160758330E+03  0.16733371683E+03  0.22884791775E+03  0.41800000000E+01 0. -1.
        -11    1    4    4    0    0 -0.17572551274E+02  0.37019412049E+02 -0.48171670078E+02  0.63243507373E+02  0.00000000000E+00 0. -1.
         11    1    4    4    0    0  0.38643676270E+02  0.18609712857E+03 -0.38159575125E+02  0.19385981572E+03  0.00000000000E+00 0.  1.
</event>
<event>
 8    1  0.6840032E-009  0.1079451E+03  0.7561462E-02  0.1264423E+00
          2   -1    0    0  501    0  0.00000000000E+00  0.00000000000E+00  0.10210104407E+04  0.10210104407E+04  0.00000000000E+00 0. -1.
         -2   -1    0    0    0  501 -0.00000000000E+00 -0.00000000000E+00 -0.29115056959E+02  0.29115056959E+02  0.00000000000E+00 0.  1.
         25    2    1    2    0    0 -0.55818811900E+02  0.50807711063E+02  0.86690485471E+03  0.87912954343E+03  0.12509022244E+03 0.  0.
         23    2    1    2    0    0  0.55818811900E+02 -0.50807711063E+02  0.12499052904E+03  0.17099595423E+03  0.88993374748E+02 0.  0.
          5    1    3    3  502    0 -0.27070920514E+02 -0.26480272388E+02  0.56054813747E+03  0.56184137119E+03  0.41800000000E+01 0.  1.
         -5    1    3    3    0  502 -0.28747891386E+02  0.77287983451E+02  0.30635671724E+03  0.31728817224E+03  0.41800000000E+01 0.  1.
        -11    1    4    4    0    0  0.10626868505E+02 -0.48847226114E+02  0.11395087612E+03  0.12443385392E+03  0.00000000000E+00 0. -1.
         11    1    4    4    0    0  0.45191943395E+02 -0.19604849490E+01  0.11039652922E+02  0.46562100314E+02  0.00000000000E+00 0.  1.
</event>
<event>
 8    1  0.6840032E-009  0.1922356E+03  0.7561462E-02  0.1156460E+00
         -1   -1    0    0    0  501 -0.00000000000E+00  0.00000000000E+00  0.43912692112E+02  0.43912692112E+02  0.00000000000E+00 0.  1.
          1   -1    0    0  501    0  0.00000000000E+00 -0.00000000000E+00 -0.91991290328E+03  0.91991290328E+03  0.00000000000E+00 0. -1.
         25    2    1    2    0    0  0.50668491025E+02 -0.15766928623E+03 -0.37820125503E+03  0.43140538791E+03  0.12509004599E+03 0.  0.
         23    2    1    2    0    0 -0.50668491025E+02  0.15766928623E+03 -0.49779895614E+03  0.53242020748E+03  0.90777622789E+02 0.  0.
          5    1    3    3  502    0  0.56581977722E+02 -0.98076361073E+01 -0.13383873475E+03  0.14569828156E+03  0.41800000000E+01 0.  1.
         -5    1    3    3    0  502 -0.59134866976E+01 -0.14786165013E+03 -0.24436252028E+03  0.28570710635E+03  0.41800000000E+01 0.  1.
        -11    1    4    4    0    0 -0.62279416594E+02  0.85614797899E+02 -0.20576076657E+03  0.23140032932E+03  0.00000000000E+00 0.  1.
         11    1    4    4    0    0  0.11610925569E+02  0.72054488334E+02 -0.29203818957E+03  0.30101987816E+03  0.00000000000E+00 0. -1.
</event>
<event>
 8    1  0.6840032E-009  0.1202648E+03  0.7561462E-02  0.1242661E+00
          1   -1    0    0  501    0  0.00000000000E+00  0.00000000000E+00  0.73962153339E+02  0.73962153339E+02  0.00000000000E+00 0. -1.
         -1   -1    0    0    0  501 -0.00000000000E+00 -0.00000000000E+00 -0.27734883927E+03  0.27734883927E+03  0.00000000000E+00 0.  1.
         25    2    1    2    0    0  0.80640685835E+02  0.50569699331E+02 -0.10740782604E+03  0.19038212164E+03  0.12509474986E+03 0.  0.
         23    2    1    2    0    0 -0.80640685835E+02 -0.50569699331E+02 -0.95978859888E+02  0.16092887097E+03  0.87326658379E+02 0.  0.
          5    1    3    3  502    0 -0.10805841869E+02  0.22456141530E+02 -0.89450661581E+02  0.92951265555E+02  0.41800000000E+01 0.  1.
         -5    1    3    3    0  502  0.91446527704E+02  0.28113557801E+02 -0.17957164459E+02  0.97430856082E+02  0.41800000000E+01 0.  1.
        -11    1    4    4    0    0 -0.89425915336E+02 -0.59150625581E+02 -0.10133764036E+03  0.14753002472E+03  0.00000000000E+00 0.  1.
         11    1    4    4    0    0  0.87852295005E+01  0.85809262504E+01  0.53587804707E+01  0.13398846250E+02  0.00000000000E+00 0. -1.
</event>
<event>
 8    1  0.6840032E-009  0.2177073E+03  0.7561462E-02  0.1135604E+00
          2   -1    0    0  501    0  0.00000000000E+00  0.00000000000E+00  0.34486817940E+03  0.34486817940E+03  0.00000000000E+00 0. -1.
         -2   -1    0    0    0  501 -0.00000000000E+00 -0.00000000000E+00 -0.17076455870E+03  0.17076455870E+03  0.00000000000E+00 0.  1.
         25    2    1    2    0    0 -0.75553494706E+02 -0.18563686595E+03  0.28344438542E+01  0.23626915805E+03  0.12508279023E+03 0.  0.
         23    2    1    2    0    0  0.75553494706E+02  0.18563686595E+03  0.17126917684E+03  0.27936358005E+03  0.92420248645E+02 0.  0.
          5    1    3    3  502    0  0.13113921038E+02 -0.12364613865E+03  0.21932689084E+02  0.12632837282E+03  0.41800000000E+01 0. -1.
         -5    1    3    3    0  502 -0.88667415745E+02 -0.61990727298E+02 -0.19098245229E+02  0.10994078523E+03  0.41800000000E+01 0. -1.
        -11    1    4    4    0    0  0.15622630237E+02  0.77902848902E+02  0.15905924736E+02  0.81030357794E+02  0.00000000000E+00 0.  1.
         11    1    4    4    0    0  0.59930864469E+02  0.10773401705E+03  0.15536325210E+03  0.19833322225E+03  0.00000000000E+00 0. -1.
</event>
<event>
 8    1  0.6840032E-009  0.1025085E+03  0.7561462E-02  0.1275108E+00
         -3   -1    0    0    0  501 -0.00000000000E+00  0.00000000000E+00  0.32760810928E+03  0.32760810928E+03  0.00000000000E+00 0.  1.
          3   -1    0    0  501    0  0.00000000000E+00 -0.00000000000E+00 -0.58689415053E+02  0.58689415053E+02  0.00000000000E+00 0. -1.
         25    2    1    2    0    0 -0.23523589060E+02 -0.55814739288E+02  0.23295869324E+03  0.27126735094E+03  0.12509028166E+03 0.  0.
         23    2    1    2    0    0  0.23523589060E+02  0.55814739288E+02  0.35960000985E+02  0.11503017339E+03  0.90940501185E+02 0.  0.
          5    1    3    3  502    0 -0.45769968309E+02  0.16682230527E+02  0.15457795233E+03  0.16212650173E+03  0.41800000000E+01 0.  1.
         -5    1    3    3    0  502  0.22246379248E+02 -0.72496969816E+02  0.78380740909E+02  0.10914084922E+03  0.41800000000E+01 0.  1.
        -11    1    4    4    0    0 -0.70232092364E+01  0.48177931276E+02 -0.18532317675E+02  0.52094964520E+02  0.00000000000E+00 0. -1.
         11    1    4    4    0    0  0.30546798297E+02  0.76368080128E+01  0.54492318660E+02  0.62935208872E+02  0.00000000000E+00 0.  1.
</event>
<event>
 8    1  0.6840032E-009  0.9611743E+02  0.7561462E-02  0.1288679E+00
          1   -1    0    0  501    0  0.00000000000E+00  0.00000000000E+00  0.90552055751E+02  0.90552055751E+02  0.00000000000E+00 0. -1.
         -1   -1    0    0    0  501 -0.00000000000E+00 -0.00000000000E+00 -0.19122225566E+03  0.19122225566E+03  0.00000000000E+00 0.  1.
         25    2    1    2    0    0 -0.28847917733E+02 -0.62085641405E+02 -0.22837729585E+02  0.14441511414E+03  0.12508930439E+03 0.  0.
         23    2    1    2    0    0  0.28847917733E+02  0.62085641405E+02 -0.77832470322E+02  0.13735919727E+03  0.90126724180E+02 0.  0.
          5    1    3    3  502    0 -0.55674426649E+01 -0.54021338477E+02 -0.71397873102E+02  0.89802172090E+02  0.41800000000E+01 0. -1.
         -5    1    3    3    0  502 -0.23280475068E+02 -0.80643029280E+01  0.48560143516E+02  0.54612942051E+02  0.41800000000E+01 0. -1.
        -11    1    4    4    0    0  0.16994218178E+02  0.85158355647E+02 -0.64660330704E+02  0.10826683405E+03  0.00000000000E+00 0.  1.
         11    1    4    4    0    0  0.11853699555E+02 -0.23072714242E+02 -0.13172139617E+02  0.29092363220E+02  0.00000000000E+00 0. -1.
</event>
<event>
 8    1  0.6840032E-009  0.1011654E+03  0.7561462E-02  0.1277864E+00
         -2   -1    0    0    0  501 -0.00000000000E+00  0.00000000000E+00  0.17415851391E+03  0.17415851391E+03  0.00000000000E+00 0.  1.
          2   -1    0    0  501    0  0.00000000000E+00 -0.00000000000E+00 -0.77395598506E+02  0.77395598506E+02  0.00000000000E+00 0. -1.
         25    2    1    2    0    0  0.26185585007E+02  0.50807675264E+01  0.23340500819E+02  0.13001574390E+03  0.12509122919E+03 0.  0.
         23    2    1    2    0    0 -0.26185585007E+02 -0.50807675264E+01  0.73422414580E+02  0.12153836852E+03  0.93108673055E+02 0.  0.
          5    1    3    3  502    0  0.24351541510E+02  0.52976871062E+02  0.48286930226E+02  0.75819829016E+02  0.41800000000E+01 0. -1.
         -5    1    3    3    0  502  0.18340434972E+01 -0.47896103535E+02 -0.24946429407E+02  0.54195914879E+02  0.41800000000E+01 0. -1.
        -11    1    4    4    0    0  0.31717749058E+02  0.14175283831E+02  0.18105564247E+02  0.39176086248E+02  0.00000000000E+00 0. -1.
         11    1    4    4    0    0 -0.57903334066E+02 -0.19256051357E+02  0.55316850332E+02  0.82362282268E+02  0.00000000000E+00 0.  1.
</event>
<event>
 8    1  0.6840032E-009  0.1145352E+03  0.7561462E-02  0.1252395E+00
          2   -1    0    0  501    0  0.00000000000E+00  0.00000000000E+00  0.81748726041E+03  0.81748726041E+03  0.00000000000E+00 0.  1.
         -2   -1    0    0    0  501 -0.00000000000E+00 -0.00000000000E+00 -0.20113481349E+02  0.20113481349E+02  0.00000000000E+00 0. -1.
         25    2    1    2    0    0  0.33519031643E+02 -0.57793053751E+02  0.39300054987E+03  0.41780462383E+03  0.12509080285E+03 0.  0.
         23    2    1    2    0    0 -0.33519031643E+02  0.57793053751E+02  0.40437322920E+03  0.41979611793E+03  0.90815800336E+02 0.  0.
          5    1    3    3  502    0  0.40671461643E+02  0.14641587591E+02  0.27985117160E+03  0.28320080248E+03  0.41800000000E+01 0.  1.
         -5    1    3    3    0  502 -0.71524299995E+01 -0.72434641343E+02  0.11314937827E+03  0.13460382136E+03  0.41800000000E+01 0.  1.
        -11    1    4    4    0    0  0.31406459322E+02  0.24101883640E+02  0.13960155202E+03  0.14510637412E+03  0.00000000000E+00 0.  1.
         11    1    4    4    0    0 -0.64925490965E+02  0.33691170111E+02  0.26477167717E+03  0.27468974381E+03  0.00000000000E+00 0. -1.
</event>
<event>
 8    1  0.6840032E-009  0.8026863E+02  0.7561462E-02  0.1328291E+00
          2   -1    0    0  501    0  0.00000000000E+00  0.00000000000E+00  0.35765078068E+03  0.35765078068E+03  0.00000000000E+00 0. -1.
         -2   -1    0    0    0  501 -0.00000000000E+00 -0.00000000000E+00 -0.43099934480E+02  0.43099934480E+02  0.00000000000E+00 0.  1.
         25    2    1    2    0    0  0.50461432329E+02 -0.27919130420E+02  0.14763928876E+03  0.20191503143E+03  0.12508591582E+03 0.  0.
         23    2    1    2    0    0 -0.50461432329E+02  0.27919130420E+02  0.16691155743E+03  0.19883568372E+03  0.91380124315E+02 0.  0.
          5    1    3    3  502    0  0.32597191679E+02 -0.39799309996E+01 -0.15113578093E+02  0.36391062074E+02  0.41800000000E+01 0.  1.
         -5    1    3    3    0  502  0.17864240650E+02 -0.23939199420E+02  0.16275286686E+03  0.16552396936E+03  0.41800000000E+01 0.  1.
        -11    1    4    4    0    0  0.43624922001E+01 -0.22421453787E+02  0.95468681330E+01  0.24756728768E+02  0.00000000000E+00 0.  1.
         11    1    4    4    0    0 -0.54823924530E+02  0.50340584207E+02  0.15736468930E+03  0.17407895495E+03  0.00000000000E+00 0. -1.
</event>
<event>
 8    1  0.6840032E-009  0.1613771E+03  0.7561462E-02  0.1187151E+00
          1   -1    0    0  501    0  0.00000000000E+00  0.00000000000E+00  0.97798692181E+03  0.97798692181E+03  0.00000000000E+00 0. -1.
         -1   -1    0    0    0  501 -0.00000000000E+00 -0.00000000000E+00 -0.44806889713E+02  0.44806889713E+02  0.00000000000E+00 0.  1.
         25    2    1    2    0    0  0.14247558394E+03 -0.71914540548E+02  0.68301291661E+03  0.71247669116E+03  0.12508156550E+03 0.  0.
         23    2    1    2    0    0 -0.14247558394E+03  0.71914540548E+02  0.25016711548E+03  0.31031712036E+03  0.90786212367E+02 0.  0.
          5    1    3    3  502    0  0.54782301031E+02 -0.30060790057E+02  0.79638908305E+02  0.10131426218E+03  0.41800000000E+01 0.  1.
         -5    1    3    3    0  502  0.87693282912E+02 -0.41853750491E+02  0.60337400831E+03  0.61116242898E+03  0.41800000000E+01 0.  1.
        -11    1    4    4    0    0 -0.80768418681E+02  0.58474633625E+02  0.76969760619E+02  0.12596493275E+03  0.00000000000E+00 0.  1.
         11    1    4    4    0    0 -0.61707165263E+02  0.13439906923E+02  0.17319735486E+03  0.18435218760E+03  0.00000000000E+00 0. -1.
</event>
<event>
 8    1  0.6840032E-009  0.9950612E+02  0.7561462E-02  0.1281338E+00
          2   -1    0    0  501    0  0.00000000000E+00  0.00000000000E+00  0.29641537693E+03  0.29641537693E+03  0.00000000000E+00 0. -1.
         -2   -1    0    0    0  501 -0.00000000000E+00 -0.00000000000E+00 -0.67303863221E+02  0.67303863221E+02  0.00000000000E+00 0.  1.
         25    2    1    2    0    0 -0.40965117683E+02  0.57430952403E+02  0.19744178410E+03  0.24414582559E+03  0.12508985123E+03 0.  0.
         23    2    1    2    0    0  0.40965117683E+02 -0.57430952403E+02  0.31669729605E+02  0.11957341456E+03  0.91205123409E+02 0.  0.
          5    1    3    3  502    0 -0.37225494832E+02  0.11456125975E+02 -0.21690714931E+01  0.39232098580E+02  0.41800000000E+01 0.  1.
         -5    1    3    3    0  502 -0.37396228505E+01  0.45974826427E+02  0.19961085560E+03  0.20491372701E+03  0.41800000000E+01 0.  1.
        -11    1    4    4    0    0  0.15345368525E+02 -0.78727496774E+02  0.12618772282E+02  0.81195643340E+02  0.00000000000E+00 0.  1.
         11    1    4    4    0    0  0.25619749158E+02  0.21296544371E+02  0.19050957323E+02  0.38377771222E+02  0.00000000000E+00 0. -1.
</event>
<event>
 8    1  0.6840032E-009  0.1581964E+03  0.7561462E-02  0.1190748E+00
          2   -1    0    0  501    0  0.00000000000E+00  0.00000000000E+00  0.12900451051E+03  0.12900451051E+03  0.00000000000E+00 0. -1.
         -2   -1    0    0    0  501 -0.00000000000E+00 -0.00000000000E+00 -0.21148291968E+03  0.21148291968E+03  0.00000000000E+00 0.  1.
         25    2    1    2    0    0  0.94807991674E+02  0.80165149825E+02 -0.44721216612E+02  0.18183529174E+03  0.12509628122E+03 0.  0.
         23    2    1    2    0    0 -0.94807991674E+02 -0.80165149825E+02 -0.37757192557E+02  0.15865213845E+03  0.91268225100E+02 0.  0.
          5    1    3    3  502    0 -0.25591644532E+02  0.21386636338E+02  0.12801727552E+02  0.35967723198E+02  0.41800000000E+01 0.  1.
         -5    1    3    3    0  502  0.12039963621E+03  0.58778513487E+02 -0.57522944163E+02  0.14586756854E+03  0.41800000000E+01 0.  1.
        -11    1    4    4    0    0 -0.32087955887E+02 -0.79803249147E+02 -0.11311853715E+01  0.86020201510E+02  0.00000000000E+00 0.  1.
         11    1    4    4    0    0 -0.62720035787E+02 -0.36190067837E+00 -0.36626007185E+02  0.72631936940E+02  0.00000000000E+00 0. -1.
</event>
<event>
 8    1  0.6840032E-009  0.1038847E+03  0.7561462E-02  0.1272333E+00
          1   -1    0    0  501    0  0.00000000000E+00  0.00000000000E+00  0.77250878413E+02  0.77250878413E+02  0.00000000000E+00 0. -1.
         -1   -1    0    0    0  501 -0.00000000000E+00 -0.00000000000E+00 -0.20080963439E+03  0.20080963439E+03  0.00000000000E+00 0.  1.
         25    2    1    2    0    0 -0.20476049868E+02 -0.21523951789E+02 -0.10012177062E+02  0.12896131302E+03  0.12509287528E+03 0.  0.
         23    2    1    2    0    0  0.20476049868E+02  0.21523951789E+02 -0.11354657891E+03  0.14909919979E+03  0.91952143396E+02 0.  0.
          5    1    3    3  502    0 -0.18723115280E+02 -0.65289925823E+02  0.25241170527E+02  0.72580428143E+02  0.41800000000E+01 0. -1.
         -5    1    3    3    0  502 -0.17529345872E+01  0.43765974034E+02 -0.35253347589E+02  0.56380884873E+02  0.41800000000E+01 0. -1.
        -11    1    4    4    0    0 -0.32970368738E+02 -0.89922732356E+01 -0.31041817001E+02  0.46168177301E+02  0.00000000000E+00 0. -1.
         11    1    4    4    0    0  0.53446418605E+02  0.30516225025E+02 -0.82504761913E+02  0.10293102248E+03  0.00000000000E+00 0.  1.
</event>
<event>
 8    1  0.6840032E-009  0.1222180E+03  0.7561462E-02  0.1239482E+00
         -1   -1    0    0    0  501 -0.00000000000E+00  0.00000000000E+00  0.63215630901E+02  0.63215630901E+02  0.00000000000E+00 0.  1.
          1   -1    0    0  501    0  0.00000000000E+00 -0.00000000000E+00 -0.25591392553E+03  0.25591392553E+03  0.00000000000E+00 0. -1.
         25    2    1    2    0    0  0.58428562327E+02  0.29016251337E+02 -0.10246003272E+03  0.17435948102E+03  0.12508929043E+03 0.  0.
         23    2    1    2    0    0 -0.58428562327E+02 -0.29016251337E+02 -0.90238261913E+02  0.14477007541E+03  0.92518058151E+02 0.  0.
          5    1    3    3  502    0  0.81383770994E+02  0.53870580026E+02 -0.45013801231E+02  0.10755962195E+03  0.41800000000E+01 0. -1.
         -5    1    3    3    0  502 -0.22955208666E+02 -0.24854328689E+02 -0.57446231486E+02  0.66799859068E+02  0.41800000000E+01 0. -1.
        -11    1    4    4    0    0 -0.34062470816E+02 -0.62540295010E+02 -0.50070637208E+02  0.87055207359E+02  0.00000000000E+00 0.  1.
         11    1    4    4    0    0 -0.24366091512E+02  0.33524043673E+02 -0.40167624706E+02  0.57714868052E+02  0.00000000000E+00 0. -1.
</event>
<event>
 8    1  0.6840032E-009  0.1058222E+03  0.7561462E-02  0.1268508E+00
         -1   -1    0    0    0  501 -0.00000000000E+00  0.00000000000E+00  0.78610102025E+02  0.78610102025E+02  0.00000000000E+00 0.  1.
          1   -1    0    0  501    0  0.00000000000E+00 -0.00000000000E+00 -0.21173825048E+03  0.21173825048E+03  0.00000000000E+00 0. -1.
         25    2    1    2    0    0 -0.34307251162E+02 -0.61088928730E+02 -0.60274646501E+02  0.15553063101E+03  0.12509156437E+03 0.  0.
         23    2    1    2    0    0  0.34307251162E+02  0.61088928730E+02 -0.72853501956E+02  0.13481772149E+03  0.89215136528E+02 0.  0.
          5    1    3    3  502    0  0.40513862929E+02  0.40275880801E+01 -0.33003320081E+02  0.52576478500E+02  0.41800000000E+01 0. -1.
         -5    1    3    3    0  502 -0.74821114091E+02 -0.65116516810E+02 -0.27271326420E+02  0.10295415251E+03  0.41800000000E+01 0. -1.
        -11    1    4    4    0    0  0.21878284529E+02  0.50779635181E+02  0.48026283183E+01  0.55500413708E+02  0.00000000000E+00 0.  1.
         11    1    4    4    0    0  0.12428966633E+02  0.10309293549E+02 -0.77656130275E+02  0.79317307785E+02  0.00000000000E+00 0. -1.
</event>
<event>
 8    1  0.6840032E-009  0.3189366E+03  0.7561462E-02  0.1076140E+00
          2   -1    0    0  501    0  0.00000000000E+00  0.00000000000E+00  0.36553750061E+03  0.36553750061E+03  0.00000000000E+00 0. -1.
         -2   -1    0    0    0  501 -0.00000000000E+00 -0.00000000000E+00 -0.29918762542E+03  0.29918762542E+03  0.00000000000E+00 0.  1.
         25    2    1    2    0    0  0.12222084450E+03  0.27473216031E+03 -0.50334316698E+02  0.32953873229E+03  0.12508612196E+03 0.  0.
         23    2    1    2    0    0 -0.12222084450E+03 -0.27473216031E+03  0.11668419190E+03  0.33518639374E+03  0.91208679255E+02 0.  0.
          5    1    3    3  502    0  0.68788693719E+02  0.26155055405E+03 -0.41377537219E+02  0.27362410291E+03  0.41800000000E+01 0.  1.
         -5    1    3    3    0  502  0.53432150776E+02  0.13181606255E+02 -0.89567794787E+01  0.55914629380E+02  0.41800000000E+01 0.  1.
        -11    1    4    4    0    0 -0.12174883401E+03 -0.17906081517E+03  0.98140777267E+02  0.23773339327E+03  0.00000000000E+00 0.  1.
         11    1    4    4    0    0 -0.47201048341E+00 -0.95671345132E+02  0.18543414630E+02  0.97453000464E+02  0.00000000000E+00 0. -1.
</event>
<event>
 8    1  0.6840032E-009  0.1364829E+03  0.7561462E-02  0.1218141E+00
          2   -1    0    0  501    0  0.00000000000E+00  0.00000000000E+00  0.48641868287E+03  0.48641868287E+03  0.00000000000E+00 0. -1.
         -2   -1    0    0    0  501 -0.00000000000E+00 -0.00000000000E+00 -0.44819903969E+02  0.44819903969E+02  0.00000000000E+00 0.  1.
         25    2    1    2    0    0  0.56766267852E+02 -0.78563774061E+02  0.29205706469E+03  0.33217459230E+03  0.12509178619E+03 0.  0.
         23    2    1    2    0    0 -0.56766267852E+02  0.78563774061E+02  0.14954171421E+03  0.19906399454E+03  0.88707800516E+02 0.  0.
          5    1    3    3  502    0  0.94543238125E+02 -0.46911213761E+02  0.22770566551E+03  0.25101081322E+03  0.41800000000E+01 0. -1.
         -5    1    3    3    0  502 -0.37776970274E+02 -0.31652560300E+02  0.64351399183E+02  0.81163779073E+02  0.41800000000E+01 0. -1.
        -11    1    4    4    0    0  0.94683372524E+01  0.40277499495E+02  0.99199316497E+02  0.10748223467E+03  0.00000000000E+00 0. -1.
         11    1    4    4    0    0 -0.66234605104E+02  0.38286274566E+02  0.50342397713E+02  0.91581759870E+02  0.00000000000E+00 0.  1.
</event>
<event>
 8    1  0.6840032E-009  0.1228016E+03  0.7561462E-02  0.1238546E+00
          1   -1    0    0  501    0  0.00000000000E+00  0.00000000000E+00  0.28699040185E+03  0.28699040185E+03  0.00000000000E+00 0. -1.
         -1   -1    0    0    0  501 -0.00000000000E+00 -0.00000000000E+00 -0.14051279107E+03  0.14051279107E+03  0.00000000000E+00 0.  1.
         25    2    1    2    0    0  0.64294461745E+02 -0.59252423634E+02  0.23082582755E+03  0.27671595312E+03  0.12508608447E+03 0.  0.
         23    2    1    2    0    0 -0.64294461745E+02  0.59252423634E+02 -0.84348216770E+02  0.15078723980E+03  0.89317089618E+02 0.  0.
          5    1    3    3  502    0 -0.23181075438E+02 -0.58571726220E+02  0.11867108321E+03  0.13441840559E+03  0.41800000000E+01 0.  1.
         -5    1    3    3    0  502  0.87475537182E+02 -0.68069741387E+00  0.11215474434E+03  0.14229754753E+03  0.41800000000E+01 0.  1.
        -11    1    4    4    0    0 -0.38796592033E+02  0.57463113505E+02 -0.99348725110E+02  0.12115013062E+03  0.00000000000E+00 0.  1.
         11    1    4    4    0    0 -0.25497869712E+02  0.17893101290E+01  0.15000508341E+02  0.29637109189E+02  0.00000000000E+00 0. -1.
</event>
<event>
 8    1  0.6840032E-009  0.1120959E+03  0.7561462E-02  0.1256737E+00
          2   -1    0    0  501    0  0.00000000000E+00  0.00000000000E+00  0.54550905288E+03  0.54550905288E+03  0.00000000000E+00 0. -1.
         -2   -1    0    0    0  501 -0.00000000000E+00 -0.00000000000E+00 -0.31191981625E+02  0.31191981625E+02  0.00000000000E+00 0.  1.
         25    2    1    2    0    0 -0.46436874746E+02  0.20482507852E+02  0.39545397603E+03  0.41785785028E+03  0.12508165101E+03 0.  0.
         23    2    1    2    0    0  0.46436874746E+02 -0.20482507852E+02  0.11886309522E+03  0.15884318422E+03  0.92340702312E+02 0.  0.
          5    1    3    3  502    0  0.16754163020E+02  0.52166076114E+02  0.25145980263E+03  0.25739367943E+03  0.41800000000E+01 0.  1.
         -5    1    3    3    0  502 -0.63191037765E+02 -0.31683568263E+02  0.14399417341E+03  0.16046417085E+03  0.41800000000E+01 0.  1.
        -11    1    4    4    0    0 -0.16601782476E+02 -0.30378350272E+02  0.71288125263E+02  0.79249354257E+02  0.00000000000E+00 0. -1.
         11    1    4    4    0    0  0.63038657222E+02  0.98958424205E+01  0.47574969956E+02  0.79593829961E+02  0.00000000000E+00 0.  1.
</event>
<event>
 8    1  0.6840032E-009  0.1091415E+03  0.7561462E-02  0.1262168E+00
          4   -1    0    0  501    0  0.00000000000E+00  0.00000000000E+00  0.56595899463E+02  0.56595899463E+02  0.00000000000E+00 0. -1.
         -4   -1    0    0    0  501 -0.00000000000E+00 -0.00000000000E+00 -0.34852561349E+03  0.34852561349E+03  0.00000000000E+00 0.  1.
         25    2    1    2    0    0  0.39878647904E+02 -0.12132491352E+02 -0.27287451253E+03  0.30305934321E+03  0.12508781722E+03 0.  0.
         23    2    1    2    0    0 -0.39878647904E+02  0.12132491352E+02 -0.19055201501E+02  0.10206216974E+03  0.91192553877E+02 0.  0.
          5    1    3    3  502    0  0.48967277325E+02  0.44514715335E+02 -0.19689438017E+03  0.20776001413E+03  0.41800000000E+01 0.  1.
         -5    1    3    3    0  502 -0.90886294211E+01 -0.56647206687E+02 -0.75980132357E+02  0.95299329081E+02  0.41800000000E+01 0.  1.
        -11    1    4    4    0    0 -0.66766386202E+02  0.79077361435E+01 -0.28814847264E+02  0.73147645487E+02  0.00000000000E+00 0.  1.
         11    1    4    4    0    0  0.26887738298E+02  0.42247552084E+01  0.97596457631E+01  0.28914524253E+02  0.00000000000E+00 0. -1.
</event>
<event>
 8    1  0.6840032E-009  0.1204367E+03  0.7561462E-02  0.1242378E+00
         -2   -1    0    0    0  501 -0.00000000000E+00  0.00000000000E+00  0.19433548118E+03  0.19433548118E+03  0.00000000000E+00 0.  1.
          2   -1    0    0  501    0  0.00000000000E+00 -0.00000000000E+00 -0.14598653680E+03  0.14598653680E+03  0.00000000000E+00 0. -1.
         25    2    1    2    0    0 -0.33360223837E+02  0.77339829313E+02  0.12338740200E+03  0.19485097250E+03  0.12509235300E+03 0.  0.
         23    2    1    2    0    0  0.33360223837E+02 -0.77339829313E+02 -0.75038457620E+02  0.14547104548E+03  0.91851517230E+02 0.  0.
          5    1    3    3  502    0 -0.48012537922E+02 -0.19219967377E+02  0.31554540036E+02  0.60727031383E+02  0.41800000000E+01 0. -1.
         -5    1    3    3    0  502  0.14652314085E+02  0.96559796690E+02  0.91832861964E+02  0.13412394112E+03  0.41800000000E+01 0. -1.
        -11    1    4    4    0    0 -0.65511854826E+01 -0.22324260594E+02  0.18585111701E+02  0.29777458240E+02  0.00000000000E+00 0.  1.
         11    1    4    4    0    0  0.39911409320E+02 -0.55015568718E+02 -0.93623569321E+02  0.11569358724E+03  0.00000000000E+00 0. -1.
</event>
<event>
 8    1  0.6840032E-009  0.1029264E+03  0.7561462E-02  0.1274260E+00
          2   -1    0    0  501    0  0.00000000000E+00  0.00000000000E+00  0.60605961768E+03  0.60605961768E+03  0.00000000000E+00 0. -1.
         -2   -1    0    0    0  501 -0.00000000000E+00 -0.00000000000E+00 -0.24166256850E+02  0.24166256850E+02  0.00000000000E+00 0.  1.
         25    2    1    2    0    0 -0.35232375690E+02 -0.31023522148E+02  0.25527460542E+03  0.28812626500E+03  0.12509133140E+03 0.  0.
         23    2    1    2    0    0  0.35232375690E+02  0.31023522148E+02  0.32661875541E+03  0.34209960952E+03  0.90269331599E+02 0.  0.
          5    1    3    3  502    0  0.27717246667E+02 -0.46772528305E+02  0.54542693698E+02  0.77125177489E+02  0.41800000000E+01 0.  1.
         -5    1    3    3    0  502 -0.62949622357E+02  0.15749006157E+02  0.20073191172E+03  0.21100108752E+03  0.41800000000E+01 0.  1.
        -11    1    4    4    0    0 -0.13408499916E+02  0.35015875399E+02  0.57869555474E+02  0.68954947978E+02  0.00000000000E+00 0.  1.
         11    1    4    4    0    0  0.48640875606E+02 -0.39923532510E+01  0.26874919993E+03  0.27314466154E+03  0.00000000000E+00 0. -1.
</event>
<event>
 8    1  0.6840032E-009  0.9043179E+02  0.7561462E-02  0.1301809E+00
          1   -1    0    0  501    0  0.00000000000E+00  0.00000000000E+00  0.13932021434E+03  0.13932021434E+03  0.00000000000E+00 0. -1.
         -1   -1    0    0    0  501 -0.00000000000E+00 -0.00000000000E+00 -0.14302298461E+03  0.14302298461E+03  0.00000000000E+00 0.  1.
         25    2    1    2    0    0 -0.43196962421E+02 -0.52893876838E+02  0.55876296089E+02  0.15303445413E+03  0.12503457088E+03 0.  0.
         23    2    1    2    0    0  0.43196962421E+02  0.52893876838E+02 -0.59579066359E+02  0.12930874482E+03  0.92235278341E+02 0.  0.
          5    1    3    3  502    0 -0.46797918632E+02 -0.10327604578E+02  0.87410404565E+02  0.99773522694E+02  0.41800000000E+01 0. -1.
         -5    1    3    3    0  502  0.36009562110E+01 -0.42566272260E+02 -0.31534108476E+02  0.53260931433E+02  0.41800000000E+01 0. -1.
        -11    1    4    4    0    0  0.57406774154E+02  0.47924526135E+02 -0.75687697541E+01  0.75163715978E+02  0.00000000000E+00 0. -1.
         11    1    4    4    0    0 -0.14209811733E+02  0.49693507027E+01 -0.52010296604E+02  0.54145028846E+02  0.00000000000E+00 0.  1.
</event>
<event>
 8    1  0.6840032E-009  0.6621135E+02  0.7561462E-02  0.1373472E+00
          2   -1    0    0  501    0  0.00000000000E+00  0.00000000000E+00  0.14502478050E+03  0.14502478050E+03  0.00000000000E+00 0. -1.
         -2   -1    0    0    0  501 -0.00000000000E+00 -0.00000000000E+00 -0.85676527354E+02  0.85676527354E+02  0.00000000000E+00 0.  1.
         25    2    1    2    0    0 -0.14304648282E+01  0.15087686147E+02  0.40754896358E+02  0.13243148020E+03  0.12508977123E+03 0.  0.
         23    2    1    2    0    0  0.14304648282E+01 -0.15087686147E+02  0.18593356783E+02  0.98269827652E+02  0.95297227701E+02 0.  0.
          5    1    3    3  502    0 -0.89052940765E+01  0.29307527631E+02 -0.39680212767E+02  0.50301363040E+02  0.41800000000E+01 0. -1.
         -5    1    3    3    0  502  0.74748292483E+01 -0.14219841484E+02  0.80435109125E+02  0.82130117157E+02  0.41800000000E+01 0. -1.
        -11    1    4    4    0    0 -0.36597132710E+02  0.11667332519E+02 -0.14650956252E+02  0.41111157729E+02  0.00000000000E+00 0.  1.
         11    1    4    4    0    0  0.38027597538E+02 -0.26755018666E+02  0.33244313034E+02  0.57158669924E+02  0.00000000000E+00 0. -1.
</event>
<event>
 7    1  0.6840032E-009  0.1235986E+03  0.7561462E-02  0.1237276E+00
          1   -1    0    0  501    0  0.00000000000E+00  0.00000000000E+00  0.13353377950E+03  0.13353377950E+03  0.00000000000E+00 0. -1.
         -1   -1    0    0    0  501 -0.00000000000E+00 -0.00000000000E+00 -0.22444427000E+03  0.22444427000E+03  0.00000000000E+00 0.  1.
         25    2    1    2    0    0  0.13493815361E+02 -0.78575424344E+02  0.41140482572E+02  0.15393711214E+03  0.12509162571E+03 0.  0.
          5    1    3    3  502    0  0.43501492683E+02 -0.54575655725E+02  0.75012763243E+02  0.10254398623E+03  0.41800000000E+01 0.  1.
         -5    1    3    3    0  502 -0.30007677322E+02 -0.23999768619E+02 -0.33872280671E+02  0.51393125901E+02  0.41800000000E+01 0.  1.
        -11    1    1    2    0    0 -0.33489996125E+02 -0.19353262895E+02 -0.85378038831E+02  0.93731201528E+02  0.00000000000E+00 0.  1.
         11    1    1    2    0    0  0.19996180764E+02  0.97928687240E+02 -0.46672934244E+02  0.11030973584E+03  0.00000000000E+00 0. -1.
</event>
<event>
 8    1  0.6840032E-009  0.1730294E+03  0.7561462E-02  0.1174725E+00
         -1   -1    0    0    0  501 -0.00000000000E+00  0.00000000000E+00  0.11347851242E+03  0.11347851242E+03  0.00000000000E+00 0.  1.
          1   -1    0    0  501    0  0.00000000000E+00 -0.00000000000E+00 -0.30392345693E+03  0.30392345693E+03  0.00000000000E+00 0. -1.
         25    2    1    2    0    0  0.10670525722E+02 -0.14877457758E+03 -0.72315238160E+02  0.20766065778E+03  0.12508285280E+03 0.  0.
         23    2    1    2    0    0 -0.10670525722E+02  0.14877457758E+03 -0.11812970635E+03  0.20974131158E+03  0.88255624220E+02 0.  0.
          5    1    3    3  502    0  0.55436701200E+02 -0.13404253211E+03 -0.40549155250E+02  0.15067293933E+03  0.41800000000E+01 0.  1.
         -5    1    3    3    0  502 -0.44766175478E+02 -0.14732045477E+02 -0.31766082910E+02  0.56987718451E+02  0.41800000000E+01 0.  1.
        -11    1    4    4    0    0  0.13625119918E+02  0.64584511233E+02 -0.43758489253E+01  0.66150971556E+02  0.00000000000E+00 0.  1.
         11    1    4    4    0    0 -0.24295645640E+02  0.84190066350E+02 -0.11375385742E+03  0.14359034002E+03  0.00000000000E+00 0. -1.
</event>
<event>
 8    1  0.6840032E-009  0.2038277E+03  0.7561462E-02  0.1146549E+00
          1   -1    0    0  501    0  0.00000000000E+00  0.00000000000E+00  0.20212013151E+03  0.20212013151E+03  0.00000000000E+00 0. -1.
         -1   -1    0    0    0  501 -0.00000000000E+00 -0.00000000000E+00 -0.23076970194E+03  0.23076970194E+03  0.00000000000E+00 0.  1.
         25    2    1    2    0    0  0.31274431597E+02  0.18390656636E+03 -0.19649593372E+02  0.22546387638E+03  0.12509251701E+03 0.  0.
         23    2    1    2    0    0 -0.31274431597E+02 -0.18390656636E+03 -0.89999770615E+01  0.20742595707E+03  0.90248616938E+02 0.  0.
          5    1    3    3  502    0  0.18495679728E+02 -0.74130700382E+00 -0.34873465351E+02  0.39702275631E+02  0.41800000000E+01 0. -1.
         -5    1    3    3    0  502  0.12778751869E+02  0.18464787336E+03  0.15223871979E+02  0.18576160075E+03  0.41800000000E+01 0. -1.
        -11    1    4    4    0    0  0.24567555386E+02 -0.24748421308E+02  0.13229850562E+02  0.37297159152E+02  0.00000000000E+00 0.  1.
         11    1    4    4    0    0 -0.55841986983E+02 -0.15915814505E+03 -0.22229827624E+02  0.17012879792E+03  0.00000000000E+00 0. -1.
</event>
<event>
 8    1  0.6840032E-009  0.1590040E+03  0.7561462E-02  0.1189826E+00
          2   -1    0    0  501    0  0.00000000000E+00  0.00000000000E+00  0.17653531874E+04  0.17653531874E+04  0.00000000000E+00 0. -1.
         -2   -1    0    0    0  501 -0.00000000000E+00 -0.00000000000E+00 -0.15768645824E+02  0.15768645824E+02  0.00000000000E+00 0.  1.
         25    2    1    2    0    0 -0.34456151524E+02  0.12173935058E+03  0.92057199065E+03  0.93760725917E+03  0.12508751585E+03 0.  0.
         23    2    1    2    0    0  0.34456151524E+02 -0.12173935058E+03  0.82901255092E+03  0.84351457405E+03  0.90814818143E+02 0.  0.
          5    1    3    3  502    0  0.18392566942E+02  0.10787911228E+03  0.41993649487E+03  0.43398193685E+03  0.41800000000E+01 0. -1.
         -5    1    3    3    0  502 -0.52848718466E+02  0.13860238294E+02  0.50063549578E+03  0.50362532233E+03  0.41800000000E+01 0. -1.
        -11    1    4    4    0    0  0.30629393474E+02  0.12433164917E+01  0.11701967891E+03  0.12096822241E+03  0.00000000000E+00 0.  1.
         11    1    4    4    0    0  0.38267580503E+01 -0.12298266707E+03  0.71199287201E+03  0.72254635165E+03  0.00000000000E+00 0. -1.
</event>
<event>
 8    1  0.6840032E-009  0.1184184E+03  0.7561462E-02  0.1245729E+00
          4   -1    0    0  501    0  0.00000000000E+00  0.00000000000E+00  0.76532044355E+02  0.76532044355E+02  0.00000000000E+00 0. -1.
         -4   -1    0    0    0  501 -0.00000000000E+00 -0.00000000000E+00 -0.33451175924E+03  0.33451175924E+03  0.00000000000E+00 0.  1.
         25    2    1    2    0    0 -0.29209498483E+02  0.61760099269E+02 -0.25987326507E+03  0.29639380932E+03  0.12509065369E+03 0.  0.
         23    2    1    2    0    0  0.29209498483E+02 -0.61760099269E+02  0.18935501880E+01  0.11464999427E+03  0.92051784292E+02 0.  0.
          5    1    3    3  502    0 -0.76875054600E+02  0.47833040535E+02 -0.19064690061E+03  0.21109591872E+03  0.41800000000E+01 0.  1.
         -5    1    3    3    0  502  0.47665556116E+02  0.13927058734E+02 -0.69226364460E+02  0.85297890602E+02  0.41800000000E+01 0.  1.
        -11    1    4    4    0    0  0.27607452237E+02  0.62743226251E+01 -0.28451660611E+02  0.40137707146E+02  0.00000000000E+00 0.  1.
         11    1    4    4    0    0  0.16020462462E+01 -0.68034421894E+02  0.30345210799E+02  0.74512287128E+02  0.00000000000E+00 0. -1.
</event>
<event>
 8    1  0.6840032E-009  0.1289430E+03  0.7561462E-02  0.1229033E+00
         -2   -1    0    0    0  501 -0.00000000000E+00  0.00000000000E+00  0.98425900162E+02  0.98425900162E+02  0.00000000000E+00 0. -1.
          2   -1    0    0  501    0  0.00000000000E+00 -0.00000000000E+00 -0.25520522718E+03  0.25520522718E+03  0.00000000000E+00 0.  1.
         25    2    1    2    0    0 -0.86926621284E+02 -0.26537006808E+02 -0.31583395604E+01  0.15465502455E+03  0.12509097206E+03 0.  0.
         23    2    1    2    0    0  0.86926621284E+02  0.26537006808E+02 -0.15362098746E+03  0.19897610280E+03  0.87929696225E+02 0.  0.
          5    1    3    3  502    0  0.26326970188E+02  0.86104506380E+01 -0.20535338762E+02  0.34733582561E+02  0.41800000000E+01 0.  1.
         -5    1    3    3    0  502 -0.11325359147E+03 -0.35147457446E+02  0.17376999201E+02  0.11992144198E+03  0.41800000000E+01 0.  1.
        -11    1    4    4    0    0  0.39290977567E+02 -0.20461297785E+02 -0.11131684390E+03  0.11980770159E+03  0.00000000000E+00 0.  1.
         11    1    4    4    0    0  0.47635643717E+02  0.46998304593E+02 -0.42304143559E+02  0.79168401204E+02  0.00000000000E+00 0. -1.
</event>
<event>
 8    1  0.6840032E-009  0.1460740E+03  0.7561462E-02  0.1205382E+00
          1   -1    0    0  501    0  0.00000000000E+00  0.00000000000E+00  0.11246131763E+03  0.11246131763E+03  0.00000000000E+00 0. -1.
         -1   -1    0    0    0  501 -0.00000000000E+00 -0.00000000000E+00 -0.24486085383E+03  0.24486085383E+03  0.00000000000E+00 0.  1.
         25    2    1    2    0    0 -0.10135140884E+03  0.44125650545E+02 -0.13342850114E+03  0.21370533812E+03  0.12509046931E+03 0.  0.
         23    2    1    2    0    0  0.10135140884E+03 -0.44125650545E+02  0.10289649378E+01  0.14361683334E+03  0.91681813574E+02 0.  0.
          5    1    3    3  502    0 -0.10814299281E+03  0.73487818280E+02 -0.12756922951E+03  0.18272040676E+03  0.41800000000E+01 0. -1.
         -5    1    3    3    0  502  0.67915839705E+01 -0.29362167735E+02 -0.58592716313E+01  0.30984931354E+02  0.41800000000E+01 0. -1.
        -11    1    4    4    0    0  0.40715428868E+02  0.17621030606E+02  0.28606317085E+02  0.52787955489E+02  0.00000000000E+00 0. -1.
         11    1    4    4    0    0  0.60635979972E+02 -0.61746681151E+02 -0.27577352147E+02  0.90828877852E+02  0.00000000000E+00 0.  1.
</event>
<event>
 8    1  0.6840032E-009  0.1099529E+03  0.7561462E-02  0.1260657E+00
          2   -1    0    0  501    0  0.00000000000E+00  0.00000000000E+00  0.91323454267E+03  0.91323454267E+03  0.00000000000E+00 0.  1.
         -2   -1    0    0    0  501 -0.00000000000E+00 -0.00000000000E+00 -0.20490566314E+02  0.20490566314E+02  0.00000000000E+00 0. -1.
         25    2    1    2    0    0  0.63913177867E+02  0.48505778117E+02  0.53531143480E+03  0.55555623392E+03  0.12508673792E+03 0.  0.
         23    2    1    2    0    0 -0.63913177867E+02 -0.48505778117E+02  0.35743254156E+03  0.37816887507E+03  0.93893404924E+02 0.  0.
          5    1    3    3  502    0  0.42587281862E+02 -0.34941532746E+01  0.45672160657E+02  0.62684163411E+02  0.41800000000E+01 0. -1.
         -5    1    3    3    0  502  0.21325896005E+02  0.51999931392E+02  0.48963927414E+03  0.49287207051E+03  0.41800000000E+01 0. -1.
        -11    1    4    4    0    0 -0.55116120018E+02  0.14503794942E+02  0.20997379874E+03  0.21757100660E+03  0.00000000000E+00 0.  1.
         11    1    4    4    0    0 -0.87970578490E+01 -0.63009573059E+02  0.14745874282E+03  0.16059786847E+03  0.00000000000E+00 0. -1.
</event>
<event>
 8    1  0.6840032E-009  0.1256240E+03  0.7561462E-02  0.1234097E+00
         -2   -1    0    0    0  501 -0.00000000000E+00  0.00000000000E+00  0.29469238068E+02  0.29469238068E+02  0.00000000000E+00 0.  1.
          2   -1    0    0  501    0  0.00000000000E+00 -0.00000000000E+00 -0.72780011051E+03  0.72780011051E+03  0.00000000000E+00 0. -1.
         25    2    1    2    0    0 -0.89526014623E+02 -0.31467169942E+02 -0.30076462154E+03  0.33927916319E+03  0.12508358374E+03 0.  0.
         23    2    1    2    0    0  0.89526014623E+02  0.31467169942E+02 -0.39756625090E+03  0.41799018539E+03  0.87474460004E+02 0.  0.
          5    1    3    3  502    0 -0.13986566834E+02 -0.69792967794E+02 -0.11950785956E+03  0.13916279424E+03  0.41800000000E+01 0. -1.
         -5    1    3    3    0  502 -0.75539447789E+02  0.38325797852E+02 -0.18125676199E+03  0.20011636894E+03  0.41800000000E+01 0. -1.
        -11    1    4    4    0    0  0.74843989888E+02  0.28906851827E+02 -0.39475226495E+03  0.40282326098E+03  0.00000000000E+00 0. -1.
         11    1    4    4    0    0  0.14682024735E+02  0.25603181153E+01 -0.28139859479E+01  0.15166924410E+02  0.00000000000E+00 0.  1.
</event>
<event>
 8    1  0.6840032E-009  0.9956964E+02  0.7561462E-02  0.1281204E+00
         -2   -1    0    0    0  501 -0.00000000000E+00  0.00000000000E+00  0.42380568871E+02  0.42380568871E+02  0.00000000000E+00 0. -1.
          2   -1    0    0  501    0  0.00000000000E+00 -0.00000000000E+00 -0.32171009385E+03  0.32171009385E+03  0.00000000000E+00 0.  1.
         25    2    1    2    0    0  0.79508492203E+01  0.41751174961E+02 -0.14890976868E+03  0.19906784533E+03  0.12509001247E+03 0.  0.
         23    2    1    2    0    0 -0.79508492203E+01 -0.41751174961E+02 -0.13041975630E+03  0.16502281739E+03  0.91743342067E+02 0.  0.
          5    1    3    3  502    0 -0.52633487347E+02  0.27641713046E+02 -0.11131268091E+03  0.12626295427E+03  0.41800000000E+01 0.  1.
         -5    1    3    3    0  502  0.60584336567E+02  0.14109461916E+02 -0.37597087773E+02  0.72804891057E+02  0.41800000000E+01 0.  1.
        -11    1    4    4    0    0 -0.32828327363E+02 -0.40709601339E+02 -0.12999469328E+03  0.14011991650E+03  0.00000000000E+00 0.  1.
         11    1    4    4    0    0  0.24877478143E+02 -0.10415736223E+01 -0.42506301727E+00  0.24902900894E+02  0.00000000000E+00 0. -1.
</event>
<event>
 8    1  0.6840032E-009  0.9583406E+02  0.7561462E-02  0.1289309E+00
          4   -1    0    0  501    0  0.00000000000E+00  0.00000000000E+00  0.33786650094E+03  0.33786650094E+03  0.00000000000E+00 0. -1.
         -4   -1    0    0    0  501 -0.00000000000E+00 -0.00000000000E+00 -0.38774641880E+02  0.38774641880E+02  0.00000000000E+00 0.  1.
         25    2    1    2    0    0  0.19698994037E+02  0.45491530414E+01  0.22263945547E+03  0.25617292954E+03  0.12508995778E+03 0.  0.
         23    2    1    2    0    0 -0.19698994037E+02 -0.45491530414E+01  0.76452403589E+02  0.12046821328E+03  0.90878354060E+02 0.  0.
          5    1    3    3  502    0  0.16332917009E+01 -0.48480917479E+02  0.34100604623E+02  0.59442330346E+02  0.41800000000E+01 0. -1.
         -5    1    3    3    0  502  0.18065702336E+02  0.53030070520E+02  0.18853885085E+03  0.19673059920E+03  0.41800000000E+01 0. -1.
        -11    1    4    4    0    0  0.32647584974E+02  0.65324046054E+01  0.92293883922E+01  0.34550234798E+02  0.00000000000E+00 0.  1.
         11    1    4    4    0    0 -0.52346579011E+02 -0.11081557647E+02  0.67223015197E+02  0.85917978480E+02  0.00000000000E+00 0. -1.
</event>
<event>
 8    1  0.6840032E-009  0.1631075E+03  0.7561462E-02  0.1185232E+00
         -1   -1    0    0    0  501 -0.00000000000E+00  0.00000000000E+00  0.27272860795E+02  0.27272860795E+02  0.00000000000E+00 0. -1.
          1   -1    0    0  501    0  0.00000000000E+00 -0.00000000000E+00 -0.10660658936E+04  0.10660658936E+04  0.00000000000E+00 0.  1.
         25    2    1    2    0    0 -0.20200798329E+02  0.12865392468E+03 -0.60477969725E+03  0.63116236326E+03  0.12509013548E+03 0.  0.
         23    2    1    2    0    0  0.20200798329E+02 -0.12865392468E+03 -0.43401333555E+03  0.46217639113E+03  0.90991958419E+02 0.  0.
          5    1    3    3  502    0 -0.64258961701E+02  0.33065049512E+02 -0.19316735492E+03  0.20628526623E+03  0.41800000000E+01 0. -1.
         -5    1    3    3    0  502  0.44058163371E+02  0.95588875172E+02 -0.41161234233E+03  0.42487709702E+03  0.41800000000E+01 0. -1.
        -11    1    4    4    0    0 -0.26260309486E+02 -0.61073744226E+02 -0.11541768729E+03  0.13319477703E+03  0.00000000000E+00 0. -1.
         11    1    4    4    0    0  0.46461107816E+02 -0.67580180458E+02 -0.31859564826E+03  0.32898161410E+03  0.00000000000E+00 0.  1.
</event>
<event>
 8    1  0.6840032E-009  0.1816576E+03  0.7561462E-02  0.1166208E+00
          2   -1    0    0  501    0  0.00000000000E+00  0.00000000000E+00  0.45221831829E+03  0.45221831829E+03  0.00000000000E+00 0. -1.
         -2   -1    0    0    0  501 -0.00000000000E+00 -0.00000000000E+00 -0.80461087362E+02  0.80461087362E+02  0.00000000000E+00 0.  1.
         25    2    1    2    0    0 -0.13114968638E+03 -0.78708084744E+02  0.23924386414E+03  0.31029130454E+03  0.12509142377E+03 0.  0.
         23    2    1    2    0    0  0.13114968638E+03  0.78708084744E+02  0.13251336679E+03  0.22238810111E+03  0.92203428873E+02 0.  0.
          5    1    3    3  502    0 -0.27217655182E+02 -0.84024401999E+02  0.14497902173E+03  0.16981545874E+03  0.41800000000E+01 0. -1.
         -5    1    3    3    0  502 -0.10393203120E+03  0.53163172548E+01  0.94264842412E+02  0.14047584580E+03  0.41800000000E+01 0. -1.
        -11    1    4    4    0    0  0.44236037400E+02 -0.11262407054E+02  0.67287634846E+02  0.81309867917E+02  0.00000000000E+00 0. -1.
         11    1    4    4    0    0  0.86913648985E+02  0.89970491798E+02  0.65225731942E+02  0.14107823320E+03  0.00000000000E+00 0.  1.
</event>
<event>
 8    1  0.6840032E-009  0.1156832E+03  0.7561462E-02  0.1250393E+00
         -1   -1    0    0    0  501 -0.00000000000E+00  0.00000000000E+00  0.21142568453E+02  0.21142568453E+02  0.00000000000E+00 0.  1.
          1   -1    0    0  501    0  0.00000000000E+00 -0.00000000000E+00 -0.83292353825E+03  0.83292353825E+03  0.00000000000E+00 0. -1.
         25    2    1    2    0    0 -0.82673453353E+00 -0.73409516663E+02 -0.37199744747E+03  0.39926831441E+03  0.12507375961E+03 0.  0.
         23    2    1    2    0    0  0.82673453353E+00  0.73409516663E+02 -0.43978352233E+03  0.45479779229E+03  0.89676333200E+02 0.  0.
          5    1    3    3  502    0 -0.21336965305E+01 -0.94174081473E+02 -0.36490899680E+03  0.37689436004E+03  0.41800000000E+01 0.  1.
         -5    1    3    3    0  502  0.13069619970E+01  0.20764564810E+02 -0.70884506687E+01  0.22373954373E+02  0.41800000000E+01 0.  1.
        -11    1    4    4    0    0  0.39994788567E+02  0.98412829208E+01 -0.15066029310E+03  0.15618885324E+03  0.00000000000E+00 0.  1.
         11    1    4    4    0    0 -0.39168054033E+02  0.63568233742E+02 -0.28912322923E+03  0.29860893905E+03  0.00000000000E+00 0. -1.
</event>
<event>
 8    1  0.6840032E-009  0.1473049E+03  0.7561462E-02  0.1203824E+00
          2   -1    0    0  501    0  0.00000000000E+00  0.00000000000E+00  0.59922948109E+02  0.59922948109E+02  0.00000000000E+00 0. -1.
         -2   -1    0    0    0  501 -0.00000000000E+00 -0.00000000000E+00 -0.41966491877E+03  0.41966491877E+03  0.00000000000E+00 0.  1.
         25    2    1    2    0    0 -0.11644673464E+02  0.10268292975E+03 -0.11760425085E+03  0.20039393329E+03  0.12509031217E+03 0.  0.
         23    2    1    2    0    0  0.11644673464E+02 -0.10268292975E+03 -0.24213771980E+03  0.27919393358E+03  0.92947268476E+02 0.  0.
          5    1    3    3  502    0 -0.49754859250E+02  0.10675286257E+03 -0.10976393424E+03  0.16105065460E+03  0.41800000000E+01 0. -1.
         -5    1    3    3    0  502  0.38110185785E+02 -0.40699328228E+01 -0.78403166101E+01  0.39343278693E+02  0.41800000000E+01 0. -1.
        -11    1    4    4    0    0 -0.37277637031E+02 -0.70185505828E+02 -0.12435212856E+03  0.14757736726E+03  0.00000000000E+00 0. -1.
         11    1    4    4    0    0  0.48922310496E+02 -0.32497423920E+02 -0.11778559124E+03  0.13161656632E+03  0.00000000000E+00 0.  1.
</event>
<event>
 8    1  0.6840032E-009  0.1090503E+03  0.7561462E-02  0.1262339E+00
          1   -1    0    0  501    0  0.00000000000E+00  0.00000000000E+00  0.67149610662E+03  0.67149610662E+03  0.00000000000E+00 0. -1.
         -1   -1    0    0    0  501 -0.00000000000E+00 -0.00000000000E+00 -0.24841915075E+02  0.24841915075E+02  0.00000000000E+00 0.  1.
         25    2    1    2    0    0  0.54192340498E+02 -0.24463814681E+02  0.27054086566E+03  0.30393210339E+03  0.12508827077E+03 0.  0.
         23    2    1    2    0    0 -0.54192340498E+02  0.24463814681E+02  0.37611332589E+03  0.39240591830E+03  0.94793896489E+02 0.  0.
          5    1    3    3  502    0  0.71511999913E+02  0.64861381286E+01  0.25506238451E+03  0.26501005361E+03  0.41800000000E+01 0. -1.
         -5    1    3    3    0  502 -0.17319659415E+02 -0.30949952809E+02  0.15478481148E+02  0.38922049789E+02  0.41800000000E+01 0. -1.
        -11    1    4    4    0    0  0.21939617305E+02 -0.13114382017E+02  0.11617700808E+03  0.11895558427E+03  0.00000000000E+00 0.  1.
         11    1    4    4    0    0 -0.76131957803E+02  0.37578196698E+02  0.25993631781E+03  0.27345033403E+03  0.00000000000E+00 0. -1.
</event>
<event>
 8    1  0.6840032E-009  0.2051797E+03  0.7561462E-02  0.1145441E+00
         -2   -1    0    0    0  501 -0.00000000000E+00  0.00000000000E+00  0.26140570008E+02  0.26140570008E+02  0.00000000000E+00 0.  1.
          2   -1    0    0  501    0  0.00000000000E+00 -0.00000000000E+00 -0.22107801494E+04  0.22107801494E+04  0.00000000000E+00 0. -1.
         25    2    1    2    0    0  0.43047105051E+02 -0.17871235894E+03 -0.16349802605E+04  0.16500294964E+04  0.12508287807E+03 0.  0.
         23    2    1    2    0    0 -0.43047105051E+02  0.17871235894E+03 -0.54965931885E+03  0.58689122293E+03  0.92329736623E+02 0.  0.
          5    1    3    3  502    0 -0.69587367370E+01 -0.16526793755E+03 -0.10771006482E+04  0.10897362956E+04  0.41800000000E+01 0.  1.
         -5    1    3    3    0  502  0.50005841788E+02 -0.13444421392E+02 -0.55787961230E+03  0.56029320083E+03  0.41800000000E+01 0.  1.
        -11    1    4    4    0    0  0.83650222808E+01  0.90159657449E+02 -0.15838517935E+03  0.18244068205E+03  0.00000000000E+00 0. -1.
         11    1    4    4    0    0 -0.51412127332E+02  0.88552701492E+02 -0.39127413951E+03  0.40445054089E+03  0.00000000000E+00 0.  1.
</event>
<event>
 8    1  0.6840032E-009  0.1203930E+03  0.7561462E-02  0.1242450E+00
         -2   -1    0    0    0  501 -0.00000000000E+00  0.00000000000E+00  0.20913022775E+02  0.20913022775E+02  0.00000000000E+00 0.  1.
          2   -1    0    0  501    0  0.00000000000E+00 -0.00000000000E+00 -0.83740186921E+03  0.83740186921E+03  0.00000000000E+00 0. -1.
         25    2    1    2    0    0  0.61356204689E+02 -0.58764540611E+02 -0.41748316756E+03  0.44402418817E+03  0.12508968543E+03 0.  0.
         23    2    1    2    0    0 -0.61356204689E+02  0.58764540611E+02 -0.39900567888E+03  0.41429070381E+03  0.72203880802E+02 0.  0.
          5    1    3    3  502    0  0.27955946473E+02  0.26471098933E+02 -0.25113608658E+03  0.25410442815E+03  0.41800000000E+01 0. -1.
         -5    1    3    3    0  502  0.33400258216E+02 -0.85235639544E+02 -0.16634708098E+03  0.18991976002E+03  0.41800000000E+01 0. -1.
        -11    1    4    4    0    0 -0.49456233511E+01 -0.16007371111E+02 -0.84012188095E+02  0.85666462918E+02  0.00000000000E+00 0.  1.
         11    1    4    4    0    0 -0.56410581338E+02  0.74771911722E+02 -0.31499349078E+03  0.32862424089E+03  0.00000000000E+00 0. -1.
</event>
<event>
 8    1  0.6840032E-009  0.7978382E+02  0.7561462E-02  0.1329666E+00
          2   -1    0    0  501    0  0.00000000000E+00  0.00000000000E+00  0.35104436712E+03  0.35104436712E+03  0.00000000000E+00 0. -1.
         -2   -1    0    0    0  501 -0.00000000000E+00 -0.00000000000E+00 -0.45685392047E+02  0.45685392047E+02  0.00000000000E+00 0.  1.
         25    2    1    2    0    0 -0.11859795375E+02 -0.24222797003E+02  0.27562356870E+03  0.30388211692E+03  0.12509432729E+03 0.  0.
         23    2    1    2    0    0  0.11859795375E+02  0.24222797003E+02  0.29735406371E+02  0.92847642243E+02  0.83720317947E+02 0.  0.
          5    1    3    3  502    0 -0.38743247659E+02 -0.57285079667E+02  0.91078582677E+02  0.11443513540E+03  0.41800000000E+01 0. -1.
         -5    1    3    3    0  502  0.26883452284E+02  0.33062282664E+02  0.18454498602E+03  0.18944698152E+03  0.41800000000E+01 0. -1.
        -11    1    4    4    0    0  0.23724249473E+02  0.40540191861E+01 -0.24153360484E+02  0.34097799156E+02  0.00000000000E+00 0.  1.
         11    1    4    4    0    0 -0.11864454098E+02  0.20168777817E+02  0.53888766855E+02  0.58749843087E+02  0.00000000000E+00 0. -1.
</event>
<event>
 8    1  0.6840032E-009  0.1345503E+03  0.7561462E-02  0.1220856E+00
         -2   -1    0    0    0  501 -0.00000000000E+00  0.00000000000E+00  0.42394118707E+03  0.42394118707E+03  0.00000000000E+00 0.  1.
          2   -1    0    0  501    0  0.00000000000E+00 -0.00000000000E+00 -0.58180486433E+02  0.58180486433E+02  0.00000000000E+00 0. -1.
         25    2    1    2    0    0 -0.47540211772E+02 -0.79217557803E+02  0.31096744392E+03  0.34768373742E+03  0.12509091448E+03 0.  0.
         23    2    1    2    0    0  0.47540211772E+02  0.79217557803E+02  0.54793256715E+02  0.13443793609E+03  0.80844075095E+02 0.  0.
          5    1    3    3  502    0 -0.13578931707E+02 -0.10570905575E+03  0.25871435852E+03  0.27983813814E+03  0.41800000000E+01 0. -1.
         -5    1    3    3    0  502 -0.33961280065E+02  0.26491497947E+02  0.52253085406E+02  0.67845599279E+02  0.41800000000E+01 0. -1.
        -11    1    4    4    0    0  0.67508851972E+02  0.51042463733E+02  0.52997553139E+02  0.99857492644E+02  0.00000000000E+00 0. -1.
         11    1    4    4    0    0 -0.19968640200E+02  0.28175094070E+02  0.17957035757E+01  0.34580443442E+02  0.00000000000E+00 0.  1.
</event>
<event>
 8    1  0.6840032E-009  0.1047884E+03  0.7561462E-02  0.1270537E+00
         -1   -1    0    0    0  501 -0.00000000000E+00  0.00000000000E+00  0.29367506515E+02  0.29367506515E+02  0.00000000000E+00 0.  1.
          1   -1    0    0  501    0  0.00000000000E+00 -0.00000000000E+00 -0.50793657078E+03  0.50793657078E+03  0.00000000000E+00 0. -1.
         25    2    1    2    0    0  0.44500449128E+02 -0.35271188170E+02 -0.24200422637E+03  0.27827603633E+03  0.12508860910E+03 0.  0.
         23    2    1    2    0    0 -0.44500449128E+02  0.35271188170E+02 -0.23656483790E+03  0.25902804097E+03  0.88928380121E+02 0.  0.
          5    1    3    3  502    0  0.59790908802E+02  0.58136575617E+01 -0.22179339976E+03  0.22982283604E+03  0.41800000000E+01 0.  1.
         -5    1    3    3    0  502 -0.15290459674E+02 -0.41084845732E+02 -0.20210826612E+02  0.48453200288E+02  0.41800000000E+01 0.  1.
        -11    1    4    4    0    0 -0.18857412098E+02 -0.29864800530E+02 -0.72150647372E+02  0.80331962617E+02  0.00000000000E+00 0. -1.
         11    1    4    4    0    0 -0.25643037030E+02  0.65135988700E+02 -0.16441419053E+03  0.17869607835E+03  0.00000000000E+00 0.  1.
</event>
<event>
 8    1  0.6840032E-009  0.7977770E+02  0.7561462E-02  0.1329683E+00
          2   -1    0    0  501    0  0.00000000000E+00  0.00000000000E+00  0.12847986069E+03  0.12847986069E+03  0.00000000000E+00 0. -1.
         -2   -1    0    0    0  501 -0.00000000000E+00 -0.00000000000E+00 -0.12823737969E+03  0.12823737969E+03  0.00000000000E+00 0.  1.
         25    2    1    2    0    0  0.38681965387E+02  0.42123746164E+02  0.37798139265E+02  0.14263976593E+03  0.12508676611E+03 0.  0.
         23    2    1    2    0    0 -0.38681965387E+02 -0.42123746164E+02 -0.37555658269E+02  0.11407747445E+03  0.91282738086E+02 0.  0.
          5    1    3    3  502    0  0.11971875168E+02 -0.74353814598E+01 -0.42223316337E+02  0.44708964817E+02  0.41800000000E+01 0. -1.
         -5    1    3    3    0  502  0.26710090219E+02  0.49559127623E+02  0.80021455601E+02  0.97930801114E+02  0.41800000000E+01 0. -1.
        -11    1    4    4    0    0  0.93178586778E+01 -0.39223066707E+02  0.14840649472E+02  0.42959473100E+02  0.00000000000E+00 0.  1.
         11    1    4    4    0    0 -0.47999824065E+02 -0.29006794566E+01 -0.52396307741E+02  0.71118001353E+02  0.00000000000E+00 0. -1.
</event>
<event>
 8    1  0.6840032E-009  0.1157755E+03  0.7561462E-02  0.1250234E+00
         -2   -1    0    0    0  501 -0.00000000000E+00  0.00000000000E+00  0.96065687777E+02  0.96065687777E+02  0.00000000000E+00 0.  1.
          2   -1    0    0  501    0  0.00000000000E+00 -0.00000000000E+00 -0.18601906444E+03  0.18601906444E+03  0.00000000000E+00 0. -1.
         25    2    1    2    0    0  0.73168873513E+02 -0.60417319411E+01 -0.21430661090E+02  0.14661961155E+03  0.12509136933E+03 0.  0.
         23    2    1    2    0    0 -0.73168873513E+02  0.60417319411E+01 -0.68522715574E+02  0.13546514067E+03  0.90913449008E+02 0.  0.
          5    1    3    3  502    0  0.29935791238E+02 -0.65052487142E+02 -0.88633557557E+01  0.72277307335E+02  0.41800000000E+01 0.  1.
         -5    1    3    3    0  502  0.43233082275E+02  0.59010755201E+02 -0.12567305335E+02  0.74342304214E+02  0.41800000000E+01 0.  1.
        -11    1    4    4    0    0 -0.59900461073E+02 -0.14927311262E+02  0.90201369080E+00  0.61738994865E+02  0.00000000000E+00 0.  1.
         11    1    4    4    0    0 -0.13268412440E+02  0.20969043203E+02 -0.69424729264E+02  0.73726145803E+02  0.00000000000E+00 0. -1.
</event>
<event>
 8    1  0.6840032E-009  0.7149031E+02  0.7561462E-02  0.1355097E+00
         -2   -1    0    0    0  501 -0.00000000000E+00  0.00000000000E+00  0.53383750766E+02  0.53383750766E+02  0.00000000000E+00 0.  1.
          2   -1    0    0  501    0  0.00000000000E+00 -0.00000000000E+00 -0.34674378259E+03  0.34674378259E+03  0.00000000000E+00 0. -1.
         25    2    1    2    0    0  0.10697028857E+02  0.59500159832E+02 -0.24829040591E+03  0.28451760859E+03  0.12508976170E+03 0.  0.
         23    2    1    2    0    0 -0.10697028857E+02 -0.59500159832E+02 -0.45069625914E+02  0.11560992477E+03  0.87633829532E+02 0.  0.
          5    1    3    3  502    0  0.17892633241E+01  0.54859425474E+02 -0.24147771946E+02  0.60111108096E+02  0.41800000000E+01 0.  1.
         -5    1    3    3    0  502  0.89077655332E+01  0.46407343581E+01 -0.22414263396E+03  0.22440650049E+03  0.41800000000E+01 0.  1.
        -11    1    4    4    0    0  0.17719847071E+02 -0.11043522715E+02  0.20504789028E+02  0.29264291334E+02  0.00000000000E+00 0.  1.
         11    1    4    4    0    0 -0.28416875928E+02 -0.48456637117E+02 -0.65574414942E+02  0.86345633435E+02  0.00000000000E+00 0. -1.
</event>
<event>
 8    1  0.6840032E-009  0.5154608E+02  0.7561462E-02  0.1437176E+00
          2   -1    0    0  501    0  0.00000000000E+00  0.00000000000E+00  0.17494031361E+02  0.17494031361E+02  0.00000000000E+00 0. -1.
         -2   -1    0    0    0  501 -0.00000000000E+00 -0.00000000000E+00 -0.97937160893E+03  0.97937160893E+03  0.00000000000E+00 0.  1.
         25    2    1    2    0    0 -0.47975101465E+02 -0.48768153134E+01 -0.76936207755E+03  0.78095521625E+03  0.12509056610E+03 0.  0.
         23    2    1    2    0    0  0.47975101465E+02  0.48768153134E+01 -0.19251550002E+03  0.21591042404E+03  0.85027641235E+02 0.  0.
          5    1    3    3  502    0 -0.30743997037E+02  0.32809687082E+01 -0.37280166623E+02  0.48613180650E+02  0.41800000000E+01 0. -1.
         -5    1    3    3    0  502 -0.17231104428E+02 -0.81577840216E+01 -0.73208191093E+03  0.73234203560E+03  0.41800000000E+01 0. -1.
        -11    1    4    4    0    0  0.31113585083E+02  0.12924518580E+02 -0.19424666418E+03  0.19714681053E+03  0.00000000000E+00 0.  1.
         11    1    4    4    0    0  0.16861516382E+02 -0.80477032669E+01  0.17311641628E+01  0.18763613509E+02  0.00000000000E+00 0. -1.
</event>
<event>
 8    1  0.6840032E-009  0.9901572E+02  0.7561462E-02  0.1282379E+00
          2   -1    0    0  501    0  0.00000000000E+00  0.00000000000E+00  0.73790370444E+02  0.73790370444E+02  0.00000000000E+00 0. -1.
         -2   -1    0    0    0  501 -0.00000000000E+00 -0.00000000000E+00 -0.17958359090E+03  0.17958359090E+03  0.00000000000E+00 0.  1.
         25    2    1    2    0    0 -0.13615952176E+02 -0.19149149960E+02 -0.80953815701E+02  0.15083962941E+03  0.12508792679E+03 0.  0.
         23    2    1    2    0    0  0.13615952176E+02  0.19149149960E+02 -0.24839404757E+02  0.10253433193E+03  0.96665449351E+02 0.  0.
          5    1    3    3  502    0  0.47379060370E+02  0.10484940905E+02 -0.50440950867E+01  0.48965545464E+02  0.41800000000E+01 0. -1.
         -5    1    3    3    0  502 -0.60995012547E+02 -0.29634090865E+02 -0.75909720614E+02  0.10187408395E+03  0.41800000000E+01 0. -1.
        -11    1    4    4    0    0  0.29281584841E+02  0.43495803612E+02 -0.43467311328E+02  0.68108026669E+02  0.00000000000E+00 0.  1.
         11    1    4    4    0    0 -0.15665632665E+02 -0.24346653652E+02  0.18627906571E+02  0.34426305263E+02  0.00000000000E+00 0. -1.
</event>
<event>
 8    1  0.6840032E-009  0.1484375E+03  0.7561462E-02  0.1202406E+00
         -2   -1    0    0    0  501 -0.00000000000E+00  0.00000000000E+00  0.30526425408E+03  0.30526425408E+03  0.00000000000E+00 0.  1.
          2   -1    0    0  501    0  0.00000000000E+00 -0.00000000000E+00 -0.86421568910E+02  0.86421568910E+02  0.00000000000E+00 0. -1.
         25    2    1    2    0    0  0.89294178678E+02 -0.79478855786E+02  0.97786860160E+02  0.19874689523E+03  0.12509084491E+03 0.  0.
         23    2    1    2    0    0 -0.89294178678E+02  0.79478855786E+02  0.12105582501E+03  0.19293892777E+03  0.90997682469E+02 0.  0.
          5    1    3    3  502    0  0.66866628826E+02 -0.11183339615E+03  0.58221295418E+02  0.14277621015E+03  0.41800000000E+01 0. -1.
         -5    1    3    3    0  502  0.22427549852E+02  0.32354540364E+02  0.39565564742E+02  0.55970685076E+02  0.41800000000E+01 0. -1.
        -11    1    4    4    0    0 -0.77908814527E+02  0.43602407559E+02  0.12657774724E+03  0.15489635058E+03  0.00000000000E+00 0.  1.
         11    1    4    4    0    0 -0.11385364151E+02  0.35876448227E+02 -0.55219222231E+01  0.38042577190E+02  0.00000000000E+00 0. -1.
</event>
<event>
 8    1  0.6840032E-009  0.1918888E+03  0.7561462E-02  0.1156769E+00
          1   -1    0    0  501    0  0.00000000000E+00  0.00000000000E+00  0.10666012420E+04  0.10666012420E+04  0.00000000000E+00 0. -1.
         -1   -1    0    0    0  501 -0.00000000000E+00 -0.00000000000E+00 -0.49500662769E+02  0.49500662769E+02  0.00000000000E+00 0.  1.
         25    2    1    2    0    0  0.11906837615E+03 -0.13373978292E+03  0.75490459789E+03  0.78586946625E+03  0.12508500443E+03 0.  0.
         23    2    1    2    0    0 -0.11906837615E+03  0.13373978292E+03  0.26219598137E+03  0.33023243855E+03  0.90791646584E+02 0.  0.
          5    1    3    3  502    0  0.41764161377E+02 -0.77048470691E+02  0.15306600443E+03  0.17642955003E+03  0.41800000000E+01 0.  1.
         -5    1    3    3    0  502  0.77304214775E+02 -0.56691312227E+02  0.60183859346E+03  0.60943991622E+03  0.41800000000E+01 0.  1.
        -11    1    4    4    0    0 -0.20798663714E+02  0.90258732241E+02  0.10788447525E+03  0.14219100942E+03  0.00000000000E+00 0. -1.
         11    1    4    4    0    0 -0.98269712438E+02  0.43481050677E+02  0.15431150612E+03  0.18804142913E+03  0.00000000000E+00 0.  1.
</event>
<event>
 8    1  0.6840032E-009  0.1042118E+03  0.7561462E-02  0.1271680E+00
         -1   -1    0    0    0  501 -0.00000000000E+00  0.00000000000E+00  0.45583507187E+02  0.45583507187E+02  0.00000000000E+00 0.  1.
          1   -1    0    0  501    0  0.00000000000E+00 -0.00000000000E+00 -0.26503188953E+03  0.26503188953E+03  0.00000000000E+00 0. -1.
         25    2    1    2    0    0 -0.67734364536E+01  0.84756441133E+00 -0.15161395298E+03  0.19668684300E+03  0.12510925490E+03 0.  0.
         23    2    1    2    0    0  0.67734364536E+01 -0.84756441133E+00 -0.67834429354E+02  0.11392855372E+03  0.91277640960E+02 0.  0.
          5    1    3    3  502    0  0.17615187347E+02 -0.58321359972E+02 -0.70143632981E+02  0.93001491935E+02  0.41800000000E+01 0. -1.
         -5    1    3    3    0  502 -0.24388623800E+02  0.59168924383E+02 -0.81470320003E+02  0.10368535106E+03  0.41800000000E+01 0. -1.
        -11    1    4    4    0    0  0.44866643083E+02  0.28065786779E+01 -0.12516987722E+02  0.46664413926E+02  0.00000000000E+00 0.  1.
         11    1    4    4    0    0 -0.38093206629E+02 -0.36541430893E+01 -0.55317441632E+02  0.67264139790E+02  0.00000000000E+00 0. -1.
</event>
<event>
 8    1  0.6840032E-009  0.6358918E+02  0.7561462E-02  0.1383358E+00
         -1   -1    0    0    0  501 -0.00000000000E+00  0.00000000000E+00  0.11199248708E+03  0.11199248708E+03  0.00000000000E+00 0.  1.
          1   -1    0    0  501    0  0.00000000000E+00 -0.00000000000E+00 -0.15443830780E+03  0.15443830780E+03  0.00000000000E+00 0. -1.
         25    2    1    2    0    0 -0.47893974248E+01  0.25026926904E+01  0.54049485947E+02  0.13637557648E+03  0.12509096343E+03 0.  0.
         23    2    1    2    0    0  0.47893974248E+01 -0.25026926904E+01 -0.96495306676E+02  0.13005521840E+03  0.87027661257E+02 0.  0.
          5    1    3    3  502    0 -0.47909405920E+01 -0.25815283321E+02 -0.34361492692E+02  0.43446133829E+02  0.41800000000E+01 0.  1.
         -5    1    3    3    0  502  0.15431671981E-02  0.28317976011E+02  0.88410978639E+02  0.92929442652E+02  0.41800000000E+01 0.  1.
        -11    1    4    4    0    0 -0.29364950174E+02 -0.18019522762E+02 -0.83542890981E+02  0.90368236305E+02  0.00000000000E+00 0. -1.
         11    1    4    4    0    0  0.34154347599E+02  0.15516830072E+02 -0.12952415694E+02  0.39686982093E+02  0.00000000000E+00 0.  1.
</event>
<event>
 8    1  0.6840032E-009  0.1008016E+03  0.7561462E-02  0.1278619E+00
          2   -1    0    0  501    0  0.00000000000E+00  0.00000000000E+00  0.19618725967E+03  0.19618725967E+03  0.00000000000E+00 0.  1.
         -2   -1    0    0    0  501 -0.00000000000E+00 -0.00000000000E+00 -0.89321615305E+02  0.89321615305E+02  0.00000000000E+00 0. -1.
         25    2    1    2    0    0 -0.71903063586E+02 -0.16400297416E+02  0.35206377795E+02  0.14942022971E+03  0.12509154928E+03 0.  0.
         23    2    1    2    0    0  0.71903063586E+02  0.16400297416E+02  0.71659266575E+02  0.13608864527E+03  0.89140611268E+02 0.  0.
          5    1    3    3  502    0 -0.66401845230E+01 -0.18908864709E+02  0.71646765976E+02  0.74514218039E+02  0.41800000000E+01 0.  1.
         -5    1    3    3    0  502 -0.65262879063E+02  0.25085672938E+01 -0.36440388181E+02  0.74906011670E+02  0.41800000000E+01 0.  1.
        -11    1    4    4    0    0  0.31647291208E+01 -0.31656885757E+02  0.19015202626E+02  0.37064158660E+02  0.00000000000E+00 0. -1.
         11    1    4    4    0    0  0.68738334465E+02  0.48057183173E+02  0.52644063949E+02  0.99024486611E+02  0.00000000000E+00 0.  1.
</event>
<event>
 8    1  0.6840032E-009  0.1072514E+03  0.7561462E-02  0.1265746E+00
         -1   -1    0    0    0  501 -0.00000000000E+00  0.00000000000E+00  0.98434790639E+02  0.98434790639E+02  0.00000000000E+00 0.  1.
          1   -1    0    0  501    0  0.00000000000E+00 -0.00000000000E+00 -0.21344277093E+03  0.21344277093E+03  0.00000000000E+00 0. -1.
         25    2    1    2    0    0 -0.80436272334E+01 -0.46159192981E+02 -0.15362527546E+03  0.20357830259E+03  0.12509208204E+03 0.  0.
         23    2    1    2    0    0  0.80436272334E+01  0.46159192981E+02  0.38617295174E+02  0.10829925897E+03  0.89677549988E+02 0.  0.
          5    1    3    3  502    0 -0.53626443702E+02 -0.91328739424E+01 -0.12843153911E+03  0.13953973445E+03  0.41800000000E+01 0.  1.
         -5    1    3    3    0  502  0.45582816469E+02 -0.37026319039E+02 -0.25193736348E+02  0.64038568144E+02  0.41800000000E+01 0.  1.
        -11    1    4    4    0    0 -0.40934656666E+02  0.20945884028E+02  0.20096329335E+02  0.50182054828E+02  0.00000000000E+00 0.  1.
         11    1    4    4    0    0  0.48978283899E+02  0.25213308953E+02  0.18520965839E+02  0.58117204145E+02  0.00000000000E+00 0. -1.
</event>
<event>
 8    1  0.6840032E-009  0.2204976E+03  0.7561462E-02  0.1133513E+00
         -1   -1    0    0    0  501 -0.00000000000E+00  0.00000000000E+00  0.76854030332E+03  0.76854030332E+03  0.00000000000E+00 0.  1.
          1   -1    0    0  501    0  0.00000000000E+00 -0.00000000000E+00 -0.69703600414E+02  0.69703600414E+02  0.00000000000E+00 0. -1.
         25    2    1    2    0    0  0.18579734918E+03 -0.76365990252E+02  0.42818194038E+03  0.48922347348E+03  0.12508962190E+03 0.  0.
         23    2    1    2    0    0 -0.18579734918E+03  0.76365990252E+02  0.27065476252E+03  0.34902043025E+03  0.90602653540E+02 0.  0.
          5    1    3    3  502    0  0.18535971005E+03 -0.33540897557E+02  0.38295515631E+03  0.42679660035E+03  0.41800000000E+01 0. -1.
         -5    1    3    3    0  502  0.43763912640E+00 -0.42825092695E+02  0.45226784069E+02  0.62426873136E+02  0.41800000000E+01 0. -1.
        -11    1    4    4    0    0 -0.45537162034E+02  0.48536200379E+02  0.40036804986E+02  0.77668150659E+02  0.00000000000E+00 0. -1.
         11    1    4    4    0    0 -0.14026018714E+03  0.27829789873E+02  0.23061795754E+03  0.27135227959E+03  0.00000000000E+00 0.  1.
</event>
<event>
 8    1  0.6840032E-009  0.1113887E+03  0.7561462E-02  0.1258020E+00
         -1   -1    0    0    0  501 -0.00000000000E+00  0.00000000000E+00  0.18329903617E+02  0.18329903617E+02  0.00000000000E+00 0.  1.
          1   -1    0    0  501    0  0.00000000000E+00 -0.00000000000E+00 -0.77981656049E+03  0.77981656049E+03  0.00000000000E+00 0. -1.
         25    2    1    2    0    0 -0.12120325230E+02 -0.39374685909E+02 -0.33162135693E+03  0.35681518055E+03  0.12508829091E+03 0.  0.
         23    2    1    2    0    0  0.12120325230E+02  0.39374685909E+02 -0.42986529994E+03  0.44133128356E+03  0.91059637485E+02 0.  0.
          5    1    3    3  502    0  0.10741712705E+02 -0.80954416699E+02 -0.17602823881E+03  0.19409383101E+03  0.41800000000E+01 0.  1.
         -5    1    3    3    0  502 -0.22862037935E+02  0.41579730790E+02 -0.15559311812E+03  0.16272134954E+03  0.41800000000E+01 0.  1.
        -11    1    4    4    0    0  0.25922267542E+02  0.61813277920E+02 -0.36855994866E+03  0.37460550055E+03  0.00000000000E+00 0. -1.
         11    1    4    4    0    0 -0.13801942312E+02 -0.22438592011E+02 -0.61305351280E+02  0.66725783012E+02  0.00000000000E+00 0.  1.
</event>
<event>
 8    1  0.6840032E-009  0.8420188E+02  0.7561462E-02  0.1317533E+00
          1   -1    0    0  501    0  0.00000000000E+00  0.00000000000E+00  0.35209042360E+03  0.35209042360E+03  0.00000000000E+00 0. -1.
         -1   -1    0    0    0  501 -0.00000000000E+00 -0.00000000000E+00 -0.45606683641E+02  0.45606683641E+02  0.00000000000E+00 0.  1.
         25    2    1    2    0    0 -0.39213483605E+02  0.39189632898E+02  0.11450073383E+03  0.17841519885E+03  0.12509212809E+03 0.  0.
         23    2    1    2    0    0  0.39213483605E+02 -0.39189632898E+02  0.19198300613E+03  0.21928190839E+03  0.90297043601E+02 0.  0.
          5    1    3    3  502    0 -0.39113119186E+02  0.41977088318E+02  0.14055960611E+03  0.15187622364E+03  0.41800000000E+01 0. -1.
         -5    1    3    3    0  502 -0.10036441910E+00 -0.27874554202E+01 -0.26058872281E+02  0.26538975212E+02  0.41800000000E+01 0. -1.
        -11    1    4    4    0    0  0.64330618834E+02 -0.46860968290E+02  0.14850192407E+03  0.16848501513E+03  0.00000000000E+00 0. -1.
         11    1    4    4    0    0 -0.25117135229E+02  0.76713353919E+01  0.43481082054E+02  0.50796893266E+02  0.00000000000E+00 0.  1.
</event>
<event>
 8    1  0.6840032E-009  0.1369973E+03  0.7561462E-02  0.1217427E+00
          2   -1    0    0  501    0  0.00000000000E+00  0.00000000000E+00  0.39190102047E+03  0.39190102047E+03  0.00000000000E+00 0. -1.
         -2   -1    0    0    0  501 -0.00000000000E+00 -0.00000000000E+00 -0.51690190589E+02  0.51690190589E+02  0.00000000000E+00 0.  1.
         25    2    1    2    0    0 -0.42906099772E+02 -0.73493756191E+02  0.23776368101E+03  0.28181809963E+03  0.12509039801E+03 0.  0.
         23    2    1    2    0    0  0.42906099772E+02  0.73493756191E+02  0.10244714887E+03  0.16177311143E+03  0.91830581358E+02 0.  0.
          5    1    3    3  502    0  0.40285777520E+02 -0.11651193674E+01  0.54478462302E+02  0.67894599405E+02  0.41800000000E+01 0. -1.
         -5    1    3    3    0  502 -0.83191877292E+02 -0.72328636824E+02  0.18328521870E+03  0.21392350022E+03  0.41800000000E+01 0. -1.
        -11    1    4    4    0    0  0.67305875958E+02  0.30874303159E+02  0.75515826785E+02  0.10576362148E+03  0.00000000000E+00 0.  1.
         11    1    4    4    0    0 -0.24399776187E+02  0.42619453032E+02  0.26931322088E+02  0.56009489947E+02  0.00000000000E+00 0. -1.
</event>
<event>
 8    1  0.6840032E-009  0.1150072E+03  0.7561462E-02  0.1251568E+00
          1   -1    0    0  501    0  0.00000000000E+00  0.00000000000E+00  0.10834387986E+03  0.10834387986E+03  0.00000000000E+00 0. -1.
         -1   -1    0    0    0  501 -0.00000000000E+00 -0.00000000000E+00 -0.18638314875E+03  0.18638314875E+03  0.00000000000E+00 0.  1.
         25    2    1    2    0    0 -0.35790700358E+02  0.73267264960E+02  0.70853142073E+00  0.14931750729E+03  0.12508456987E+03 0.  0.
         23    2    1    2    0    0  0.35790700358E+02 -0.73267264960E+02 -0.78747800312E+02  0.14540952131E+03  0.91069459686E+02 0.  0.
          5    1    3    3  502    0 -0.38108544253E+02  0.33812976806E+01  0.50413939971E+02  0.63425011332E+02  0.41800000000E+01 0. -1.
         -5    1    3    3    0  502  0.23178438948E+01  0.69885967280E+02 -0.49705408550E+02  0.85892495959E+02  0.41800000000E+01 0. -1.
        -11    1    4    4    0    0 -0.23551982617E+02 -0.54285977781E+02 -0.30274260959E+02  0.66469497858E+02  0.00000000000E+00 0. -1.
         11    1    4    4    0    0  0.59342682975E+02 -0.18981287179E+02 -0.48473539353E+02  0.78940023455E+02  0.00000000000E+00 0.  1.
</event>
<event>
 8    1  0.6840032E-009  0.1147625E+03  0.7561462E-02  0.1251996E+00
          2   -1    0    0  501    0  0.00000000000E+00  0.00000000000E+00  0.31615278285E+03  0.31615278285E+03  0.00000000000E+00 0. -1.
         -2   -1    0    0    0  501 -0.00000000000E+00 -0.00000000000E+00 -0.69757784958E+02  0.69757784958E+02  0.00000000000E+00 0.  1.
         25    2    1    2    0    0  0.85840436006E+02 -0.13287454995E+02  0.20022189125E+03  0.25156286633E+03  0.12509969251E+03 0.  0.
         23    2    1    2    0    0 -0.85840436006E+02  0.13287454995E+02  0.46173106650E+02  0.13434770148E+03  0.91499793455E+02 0.  0.
          5    1    3    3  502    0  0.15394438622E+02 -0.53258429989E+02  0.13973108458E+03  0.15038516384E+03  0.41800000000E+01 0. -1.
         -5    1    3    3    0  502  0.70445997384E+02  0.39970974995E+02  0.60490806663E+02  0.10117770249E+03  0.41800000000E+01 0. -1.
        -11    1    4    4    0    0 -0.55148508905E+02  0.24236074347E+02  0.71196926374E+02  0.93261715936E+02  0.00000000000E+00 0. -1.
         11    1    4    4    0    0 -0.30691927101E+02 -0.10948619352E+02 -0.25023819724E+02  0.41085985548E+02  0.00000000000E+00 0.  1.
</event>
<event>
 8    1  0.6840032E-009  0.1688144E+03  0.7561462E-02  0.1179090E+00
          1   -1    0    0  501    0  0.00000000000E+00  0.00000000000E+00  0.93610268806E+03  0.93610268806E+03  0.00000000000E+00 0. -1.
         -1   -1    0    0    0  501 -0.00000000000E+00 -0.00000000000E+00 -0.45423867721E+02  0.45423867721E+02  0.00000000000E+00 0.  1.
         25    2    1    2    0    0  0.11631694196E+03  0.11409593792E+03  0.31409270759E+03  0.37529638681E+03  0.12508251256E+03 0.  0.
         23    2    1    2    0    0 -0.11631694196E+03 -0.11409593792E+03  0.57658611274E+03  0.60623016898E+03  0.92281950179E+02 0.  0.
          5    1    3    3  502    0  0.68174230833E+02  0.24029792319E+02  0.23545110031E+03  0.24633280274E+03  0.41800000000E+01 0. -1.
         -5    1    3    3    0  502  0.48142711126E+02  0.90066145604E+02  0.78641607281E+02  0.12896358406E+03  0.41800000000E+01 0. -1.
        -11    1    4    4    0    0 -0.15819977720E+02 -0.13177849173E+02  0.11731735129E+02  0.23697278599E+02  0.00000000000E+00 0.  1.
         11    1    4    4    0    0 -0.10049696424E+03 -0.10091808875E+03  0.56485437762E+03  0.58253289038E+03  0.00000000000E+00 0. -1.
</event>
<event>
 8    1  0.6840032E-009  0.9937861E+02  0.7561462E-02  0.1281608E+00
          3   -1    0    0  501    0  0.00000000000E+00  0.00000000000E+00  0.81776034657E+02  0.81776034657E+02  0.00000000000E+00 0. -1.
         -3   -1    0    0    0  501 -0.00000000000E+00 -0.00000000000E+00 -0.21740324166E+03  0.21740324166E+03  0.00000000000E+00 0.  1.
         25    2    1    2    0    0 -0.72415716865E+02  0.67768975249E+01 -0.38898830678E+02  0.14983544127E+03  0.12509027958E+03 0.  0.
         23    2    1    2    0    0  0.72415716865E+02 -0.67768975249E+01 -0.96728376326E+02  0.14934383504E+03  0.87505656329E+02 0.  0.
          5    1    3    3  502    0 -0.81797767925E+02 -0.20948578503E+02 -0.67890359747E+02  0.10842643186E+03  0.41800000000E+01 0.  1.
         -5    1    3    3    0  502  0.93820510594E+01  0.27725476028E+02  0.28991529069E+02  0.41409009416E+02  0.41800000000E+01 0.  1.
        -11    1    4    4    0    0  0.36507637148E+02 -0.25132088526E+02 -0.99496073120E+02  0.10892152225E+03  0.00000000000E+00 0. -1.
         11    1    4    4    0    0  0.35908079717E+02  0.18355191001E+02  0.27676967945E+01  0.40422312789E+02  0.00000000000E+00 0.  1.
</event>
<event>
 8    1  0.6840032E-009  0.1345404E+03  0.7561462E-02  0.1220870E+00
         -2   -1    0    0    0  501 -0.00000000000E+00  0.00000000000E+00  0.79725801454E+02  0.79725801454E+02  0.00000000000E+00 0.  1.
          2   -1    0    0  501    0  0.00000000000E+00 -0.00000000000E+00 -0.28702532411E+03  0.28702532411E+03  0.00000000000E+00 0. -1.
         25    2    1    2    0    0 -0.89507764703E+02 -0.31639845744E+02 -0.16895047167E+03  0.23066380751E+03  0.12509520549E+03 0.  0.
         23    2    1    2    0    0  0.89507764703E+02  0.31639845744E+02 -0.38349050983E+02  0.13608731805E+03  0.89645906999E+02 0.  0.
          5    1    3    3  502    0 -0.48479948086E+02 -0.77983651672E+02 -0.12256297825E+03  0.15320219102E+03  0.41800000000E+01 0. -1.
         -5    1    3    3    0  502 -0.41027816617E+02  0.46343805928E+02 -0.46387493420E+02  0.77461616495E+02  0.41800000000E+01 0. -1.
        -11    1    4    4    0    0  0.37467905383E+02  0.47706810587E+02  0.12091169592E+02  0.61854507453E+02  0.00000000000E+00 0.  1.
         11    1    4    4    0    0  0.52039859320E+02 -0.16066964842E+02 -0.50440220576E+02  0.74232810597E+02  0.00000000000E+00 0. -1.
</event>
<event>
 8    1  0.6840032E-009  0.1038010E+03  0.7561462E-02  0.1272500E+00
          1   -1    0    0  501    0  0.00000000000E+00  0.00000000000E+00  0.56455569893E+03  0.56455569893E+03  0.00000000000E+00 0. -1.
         -1   -1    0    0    0  501 -0.00000000000E+00 -0.00000000000E+00 -0.21152267418E+02  0.21152267418E+02  0.00000000000E+00 0.  1.
         25    2    1    2    0    0 -0.81496847878E+01  0.79724260906E+01  0.26518073130E+03  0.29342512895E+03  0.12509000402E+03 0.  0.
         23    2    1    2    0    0  0.81496847878E+01 -0.79724260906E+01  0.27822270021E+03  0.29228283739E+03  0.88833603916E+02 0.  0.
          5    1    3    3  502    0 -0.56834312726E+02  0.36560491066E+02  0.12330012649E+03  0.14066699045E+03  0.41800000000E+01 0.  1.
         -5    1    3    3    0  502  0.48684627938E+02 -0.28588064975E+02  0.14188060481E+03  0.15275813850E+03  0.41800000000E+01 0.  1.
        -11    1    4    4    0    0 -0.36052361029E+02  0.67785017644E+01  0.71363696856E+02  0.80240252061E+02  0.00000000000E+00 0. -1.
         11    1    4    4    0    0  0.44202045817E+02 -0.14750927855E+02  0.20685900335E+03  0.21204258533E+03  0.00000000000E+00 0.  1.
</event>
<event>
 8    1  0.6840032E-009  0.1089686E+03  0.7561462E-02  0.1262492E+00
          1   -1    0    0  501    0  0.00000000000E+00  0.00000000000E+00  0.10227324868E+03  0.10227324868E+03  0.00000000000E+00 0. -1.
         -1   -1    0    0    0  501 -0.00000000000E+00 -0.00000000000E+00 -0.14612711122E+03  0.14612711122E+03  0.00000000000E+00 0.  1.
         25    2    1    2    0    0  0.11489595843E+01 -0.88300894539E+01 -0.70090098215E+02  0.14366324744E+03  0.12508883327E+03 0.  0.
         23    2    1    2    0    0 -0.11489595843E+01  0.88300894539E+01  0.26236235678E+02  0.10473711246E+03  0.10100609920E+03 0.  0.
          5    1    3    3  502    0  0.26424257753E+02 -0.61368236556E+02 -0.36615245133E+02  0.76304983009E+02  0.41800000000E+01 0. -1.
         -5    1    3    3    0  502 -0.25275298169E+02  0.52538147102E+02 -0.33474853082E+02  0.67358264432E+02  0.41800000000E+01 0. -1.
        -11    1    4    4    0    0  0.24278861948E+02  0.43337902081E+02 -0.74356994201E+01  0.50228741972E+02  0.00000000000E+00 0.  1.
         11    1    4    4    0    0 -0.25427821532E+02 -0.34507812627E+02  0.33671935098E+02  0.54508370489E+02  0.00000000000E+00 0. -1.
</event>
<event>
 8    1  0.6840032E-009  0.8708620E+02  0.7561462E-02  0.1310065E+00
         -2   -1    0    0    0  501 -0.00000000000E+00  0.00000000000E+00  0.16519440834E+03  0.16519440834E+03  0.00000000000E+00 0.  1.
          2   -1    0    0  501    0  0.00000000000E+00 -0.00000000000E+00 -0.80765697114E+02  0.80765697114E+02  0.00000000000E+00 0. -1.
         25    2    1    2    0    0  0.12071528644E+02  0.37053970238E+02  0.77793580175E+02  0.15237546185E+03  0.12509085396E+03 0.  0.
         23    2    1    2    0    0 -0.12071528644E+02 -0.37053970238E+02  0.66351310500E+01  0.93584643601E+02  0.84825362007E+02 0.  0.
          5    1    3    3  502    0  0.48255951954E+02  0.21103469400E+02 -0.11992246294E+02  0.54178221555E+02  0.41800000000E+01 0. -1.
         -5    1    3    3    0  502 -0.36184423310E+02  0.15950500838E+02  0.89785826469E+02  0.98197240297E+02  0.41800000000E+01 0. -1.
        -11    1    4    4    0    0 -0.32866096919E+02 -0.47922790068E+02  0.25518326262E+02  0.63466204470E+02  0.00000000000E+00 0.  1.
         11    1    4    4    0    0  0.20794568275E+02  0.10868819830E+02 -0.18883195212E+02  0.30118439131E+02  0.00000000000E+00 0. -1.
</event>
<event>
 8    1  0.6840032E-009  0.1049032E+03  0.7561462E-02  0.1270311E+00
         -1   -1    0    0    0  501 -0.00000000000E+00  0.00000000000E+00  0.11709978546E+03  0.11709978546E+03  0.00000000000E+00 0.  1.
          1   -1    0    0  501    0  0.00000000000E+00 -0.00000000000E+00 -0.26104560252E+03  0.26104560252E+03  0.00000000000E+00 0. -1.
         25    2    1    2    0    0  0.78292004119E+02 -0.38273869665E+02 -0.19096463795E+03  0.24435557069E+03  0.12509046716E+03 0.  0.
         23    2    1    2    0    0 -0.78292004119E+02  0.38273869665E+02  0.47018820891E+02  0.13378981728E+03  0.89968987339E+02 0.  0.
          5    1    3    3  502    0  0.11321286711E+02 -0.10023521177E+02 -0.16695926684E+03  0.16769469787E+03  0.41800000000E+01 0. -1.
         -5    1    3    3    0  502  0.66970717407E+02 -0.28250348488E+02 -0.24005371104E+02  0.76660872821E+02  0.41800000000E+01 0. -1.
        -11    1    4    4    0    0 -0.64092846747E+02  0.64852160864E+02  0.20066398371E+02  0.93361427348E+02  0.00000000000E+00 0.  1.
         11    1    4    4    0    0 -0.14199157372E+02 -0.26578291199E+02  0.26952422520E+02  0.40428389936E+02  0.00000000000E+00 0. -1.
</event>
<event>
 8    1  0.6840032E-009  0.1322951E+03  0.7561462E-02  0.1224089E+00
          1   -1    0    0  501    0  0.00000000000E+00  0.00000000000E+00  0.47208844687E+03  0.47208844687E+03  0.00000000000E+00 0. -1.
         -1   -1    0    0    0  501 -0.00000000000E+00 -0.00000000000E+00 -0.41305906066E+02  0.41305906066E+02  0.00000000000E+00 0.  1.
         25    2    1    2    0    0  0.30879288820E+02  0.70891481355E+02  0.30743645941E+03  0.34079834797E+03  0.12508878766E+03 0.  0.
         23    2    1    2    0    0 -0.30879288820E+02 -0.70891481355E+02  0.12334608140E+03  0.17259600497E+03  0.92714575598E+02 0.  0.
          5    1    3    3  502    0 -0.36686998905E+02  0.68857901073E+02  0.14284201135E+03  0.16281479981E+03  0.41800000000E+01 0.  1.
         -5    1    3    3    0  502  0.67566287726E+02  0.20335802824E+01  0.16459444805E+03  0.17798354816E+03  0.41800000000E+01 0.  1.
        -11    1    4    4    0    0 -0.41136667084E+02  0.56342423412E+01  0.28811299847E+02  0.50537719225E+02  0.00000000000E+00 0.  1.
         11    1    4    4    0    0  0.10257378264E+02 -0.76525723697E+02  0.94534781550E+02  0.12205828574E+03  0.00000000000E+00 0. -1.
</event>
<event>
 8    1  0.6840032E-009  0.2498875E+03  0.7561462E-02  0.1113376E+00
         -2   -1    0    0    0  501 -0.00000000000E+00  0.00000000000E+00  0.10021421708E+03  0.10021421708E+03  0.00000000000E+00 0. -1.
          2   -1    0    0  501    0  0.00000000000E+00 -0.00000000000E+00 -0.66727576677E+03  0.66727576677E+03  0.00000000000E+00 0.  1.
         25    2    1    2    0    0  0.23014926404E+03 -0.44623975046E+02 -0.29852997887E+03  0.39966789895E+03  0.12511713825E+03 0.  0.
         23    2    1    2    0    0 -0.23014926404E+03  0.44623975046E+02 -0.26853157083E+03  0.36782208489E+03  0.90685713971E+02 0.  0.
          5    1    3    3  502    0  0.33326026124E+02 -0.59045755931E+02 -0.86324488323E+02  0.10984723481E+03  0.41800000000E+01 0.  1.
         -5    1    3    3    0  502  0.19682323792E+03  0.14421780885E+02 -0.21220549055E+03  0.28982066415E+03  0.41800000000E+01 0.  1.
        -11    1    4    4    0    0 -0.12876390159E+03  0.23652366627E+02 -0.21383829591E+03  0.25073171638E+03  0.00000000000E+00 0.  1.
         11    1    4    4    0    0 -0.10138536245E+03  0.20971608420E+02 -0.54693274920E+02  0.11709036852E+03  0.00000000000E+00 0. -1.
</event>
<event>
 8    1  0.6840032E-009  0.1192483E+03  0.7561462E-02  0.1244342E+00
          1   -1    0    0  501    0  0.00000000000E+00  0.00000000000E+00  0.61527350271E+02  0.61527350271E+02  0.00000000000E+00 0.  1.
         -1   -1    0    0    0  501 -0.00000000000E+00 -0.00000000000E+00 -0.29825441233E+03  0.29825441233E+03  0.00000000000E+00 0. -1.
         25    2    1    2    0    0  0.90581165057E+01 -0.80651145789E+02 -0.14646158170E+03  0.20900975635E+03  0.12508967400E+03 0.  0.
         23    2    1    2    0    0 -0.90581165057E+01  0.80651145789E+02 -0.90265480353E+02  0.15077200625E+03  0.89429772075E+02 0.  0.
          5    1    3    3  502    0  0.58313570076E+02 -0.53092175900E+01 -0.64273851907E+02  0.87047462257E+02  0.41800000000E+01 0. -1.
         -5    1    3    3    0  502 -0.49255453570E+02 -0.75341928199E+02 -0.82187729795E+02  0.12196229409E+03  0.41800000000E+01 0. -1.
        -11    1    4    4    0    0  0.13588726223E+02  0.48414542991E+02 -0.98436895752E+02  0.11053707025E+03  0.00000000000E+00 0. -1.
         11    1    4    4    0    0 -0.22646842729E+02  0.32236602798E+02  0.81714153987E+01  0.40234936003E+02  0.00000000000E+00 0.  1.
</event>
<event>
 8    1  0.6840032E-009  0.1070449E+03  0.7561462E-02  0.1266142E+00
          2   -1    0    0  501    0  0.00000000000E+00  0.00000000000E+00  0.81293084603E+02  0.81293084603E+02  0.00000000000E+00 0.  1.
         -2   -1    0    0    0  501 -0.00000000000E+00 -0.00000000000E+00 -0.16235208512E+03  0.16235208512E+03  0.00000000000E+00 0. -1.
         25    2    1    2    0    0 -0.83916113410E+01  0.37021103233E+02 -0.51356151254E+02  0.14046101112E+03  0.12510339783E+03 0.  0.
         23    2    1    2    0    0  0.83916113410E+01 -0.37021103233E+02 -0.29702849260E+02  0.10318415860E+03  0.91234478713E+02 0.  0.
          5    1    3    3  502    0 -0.60024852937E+02  0.10143416671E+02 -0.54779477923E+02  0.82000826053E+02  0.41800000000E+01 0. -1.
         -5    1    3    3    0  502  0.51633241596E+02  0.26877686563E+02  0.34233266687E+01  0.58460185067E+02  0.41800000000E+01 0. -1.
        -11    1    4    4    0    0  0.41373978465E+02 -0.44634643866E+02 -0.32899121892E+02  0.69183883588E+02  0.00000000000E+00 0.  1.
         11    1    4    4    0    0 -0.32982367124E+02  0.76135406325E+01  0.31962726319E+01  0.34000275011E+02  0.00000000000E+00 0. -1.
</event>
<event>
 8    1  0.6840032E-009  0.1070591E+03  0.7561462E-02  0.1266115E+00
          2   -1    0    0  501    0  0.00000000000E+00  0.00000000000E+00  0.50670462136E+03  0.50670462136E+03  0.00000000000E+00 0. -1.
         -2   -1    0    0    0  501 -0.00000000000E+00 -0.00000000000E+00 -0.37014197205E+02  0.37014197205E+02  0.00000000000E+00 0.  1.
         25    2    1    2    0    0 -0.57473856109E+02 -0.72021664414E+02  0.22500574091E+03  0.27343437707E+03  0.12509360832E+03 0.  0.
         23    2    1    2    0    0  0.57473856109E+02  0.72021664414E+02  0.24468468324E+03  0.27028444149E+03  0.68503436540E+02 0.  0.
          5    1    3    3  502    0 -0.37814409041E+02 -0.69644706752E+02  0.42908748979E+02  0.90216117455E+02  0.41800000000E+01 0.  1.
         -5    1    3    3    0  502 -0.19659447068E+02 -0.23769576614E+01  0.18209699193E+03  0.18321825962E+03  0.41800000000E+01 0.  1.
        -11    1    4    4    0    0  0.28608541473E+02  0.79676952275E+02  0.18911421821E+03  0.20719810062E+03  0.00000000000E+00 0. -1.
         11    1    4    4    0    0  0.28865314636E+02 -0.76552878618E+01  0.55570465031E+02  0.63086340875E+02  0.00000000000E+00 0.  1.
</event>
<event>
 8    1  0.6840032E-009  0.1125917E+03  0.7561462E-02  0.1255844E+00
          1   -1    0    0  501    0  0.00000000000E+00  0.00000000000E+00  0.71128490829E+03  0.71128490829E+03  0.00000000000E+00 0. -1.
         -1   -1    0    0    0  501 -0.00000000000E+00 -0.00000000000E+00 -0.23318931792E+02  0.23318931792E+02  0.00000000000E+00 0.  1.
         25    2    1    2    0    0 -0.49300946085E+00 -0.52100786455E+02  0.24686603267E+03  0.28161012494E+03  0.12508672742E+03 0.  0.
         23    2    1    2    0    0  0.49300946085E+00  0.52100786455E+02  0.44109994382E+03  0.45299371513E+03  0.88991069787E+02 0.  0.
          5    1    3    3  502    0 -0.43590708762E+02 -0.63765489892E+02  0.20921150098E+03  0.22305405653E+03  0.41800000000E+01 0. -1.
         -5    1    3    3    0  502  0.43097699301E+02  0.11664703436E+02  0.37654531684E+02  0.58556068411E+02  0.41800000000E+01 0. -1.
        -11    1    4    4    0    0 -0.74916970904E+01 -0.24679404415E+02  0.12085042234E+03  0.12357193495E+03  0.00000000000E+00 0.  1.
         11    1    4    4    0    0  0.79847065512E+01  0.76780190870E+02  0.32024952148E+03  0.32942178018E+03  0.00000000000E+00 0. -1.
</event>
<event>
 8    1  0.6840032E-009  0.1404331E+03  0.7561462E-02  0.1212747E+00
          2   -1    0    0  501    0  0.00000000000E+00  0.00000000000E+00  0.26205414137E+03  0.26205414137E+03  0.00000000000E+00 0. -1.
         -2   -1    0    0    0  501 -0.00000000000E+00 -0.00000000000E+00 -0.88688189086E+02  0.88688189086E+02  0.00000000000E+00 0.  1.
         25    2    1    2    0    0 -0.80179311902E+02  0.69090938981E+02  0.99053499936E+02  0.19147319046E+03  0.12509239349E+03 0.  0.
         23    2    1    2    0    0  0.80179311902E+02 -0.69090938981E+02  0.74312452346E+02  0.15926914000E+03  0.92962564913E+02 0.  0.
          5    1    3    3  502    0  0.43868124687E+01 -0.29462213986E+02  0.36928608800E+01  0.30304715773E+02  0.41800000000E+01 0.  1.
         -5    1    3    3    0  502 -0.84566124371E+02  0.98553152967E+02  0.95360639056E+02  0.16116847468E+03  0.41800000000E+01 0.  1.
        -11    1    4    4    0    0 -0.35608637923E+01 -0.26816890333E+02  0.58077525986E+02  0.64068903399E+02  0.00000000000E+00 0. -1.
         11    1    4    4    0    0  0.83740175694E+02 -0.42274048648E+02  0.16234926360E+02  0.95200236598E+02  0.00000000000E+00 0.  1.
</event>
<event>
 8    1  0.6840032E-009  0.3260351E+03  0.7561462E-02  0.1072905E+00
          2   -1    0    0  501    0  0.00000000000E+00  0.00000000000E+00  0.22363450516E+04  0.22363450516E+04  0.00000000000E+00 0. -1.
         -2   -1    0    0    0  501 -0.00000000000E+00 -0.00000000000E+00 -0.49528273830E+02  0.49528273830E+02  0.00000000000E+00 0.  1.
         25    2    1    2    0    0 -0.31002609967E+03 -0.36812024874E+02  0.12218663001E+04  0.12673103997E+04  0.12508831379E+03 0.  0.
         23    2    1    2    0    0  0.31002609967E+03  0.36812024874E+02  0.96495047766E+03  0.10185629257E+04  0.94179093448E+02 0.  0.
          5    1    3    3  502    0 -0.20034651772E+03 -0.68633453714E+02  0.93117531524E+03  0.95496294077E+03  0.41800000000E+01 0. -1.
         -5    1    3    3    0  502 -0.10967958194E+03  0.31821428840E+02  0.29069098488E+03  0.31234745896E+03  0.41800000000E+01 0. -1.
        -11    1    4    4    0    0  0.58252433760E+02  0.45705572803E+02  0.23125689115E+03  0.24282111755E+03  0.00000000000E+00 0.  1.
         11    1    4    4    0    0  0.25177366591E+03 -0.88935479287E+01  0.73369358652E+03  0.77574180816E+03  0.00000000000E+00 0. -1.
</event>
<event>
 8    1  0.6840032E-009  0.1252394E+03  0.7561462E-02  0.1234696E+00
          1   -1    0    0  501    0  0.00000000000E+00  0.00000000000E+00  0.72112813080E+02  0.72112813080E+02  0.00000000000E+00 0. -1.
         -1   -1    0    0    0  501 -0.00000000000E+00 -0.00000000000E+00 -0.29624893707E+03  0.29624893707E+03  0.00000000000E+00 0.  1.
         25    2    1    2    0    0 -0.48382228056E+02 -0.73602476828E+02 -0.17032957990E+03  0.22895446493E+03  0.12509922716E+03 0.  0.
         23    2    1    2    0    0  0.48382228056E+02  0.73602476828E+02 -0.53806544090E+02  0.13940728522E+03  0.93707429796E+02 0.  0.
          5    1    3    3  502    0  0.10440037204E+02 -0.74085906573E+02 -0.37869894035E+02  0.83960212028E+02  0.41800000000E+01 0.  1.
         -5    1    3    3    0  502 -0.58822265260E+02  0.48342974533E+00 -0.13245968587E+03  0.14499425290E+03  0.41800000000E+01 0.  1.
        -11    1    4    4    0    0  0.12622393097E+02  0.79354506216E+02 -0.76198111655E+01  0.80712601163E+02  0.00000000000E+00 0. -1.
         11    1    4    4    0    0  0.35759834960E+02 -0.57520293883E+01 -0.46186732925E+02  0.58694684058E+02  0.00000000000E+00 0.  1.
</event>
<event>
 8    1  0.6840032E-009  0.1612207E+03  0.7561462E-02  0.1187325E+00
         -1   -1    0    0    0  501 -0.00000000000E+00  0.00000000000E+00  0.15905391189E+03  0.15905391189E+03  0.00000000000E+00 0.  1.
          1   -1    0    0  501    0  0.00000000000E+00 -0.00000000000E+00 -0.30875738210E+03  0.30875738210E+03  0.00000000000E+00 0. -1.
         25    2    1    2    0    0 -0.71363888489E+02  0.11729243209E+03 -0.22106461604E+03  0.28873475230E+03  0.12509146060E+03 0.  0.
         23    2    1    2    0    0  0.71363888489E+02 -0.11729243209E+03  0.71361145831E+02  0.17907654169E+03  0.90142528502E+02 0.  0.
          5    1    3    3  502    0 -0.24014804210E+02 -0.25015900102E+02 -0.52633704672E+02  0.63168705438E+02  0.41800000000E+01 0.  1.
         -5    1    3    3    0  502 -0.47349084279E+02  0.14230833219E+03 -0.16843091137E+03  0.22556604686E+03  0.41800000000E+01 0.  1.
        -11    1    4    4    0    0  0.66440308920E+02 -0.10525084990E+03  0.19963317767E+02  0.12605788397E+03  0.00000000000E+00 0. -1.
         11    1    4    4    0    0  0.49235795687E+01 -0.12041582191E+02  0.51397828064E+02  0.53018657727E+02  0.00000000000E+00 0.  1.
</event>
<event>
 8    1  0.6840032E-009  0.1069649E+03  0.7561462E-02  0.1266296E+00
          2   -1    0    0  501    0  0.00000000000E+00  0.00000000000E+00  0.25064688752E+03  0.25064688752E+03  0.00000000000E+00 0. -1.
         -2   -1    0    0    0  501 -0.00000000000E+00 -0.00000000000E+00 -0.58558366857E+02  0.58558366857E+02  0.00000000000E+00 0.  1.
         25    2    1    2    0    0 -0.49902908488E+00 -0.57088828316E+02  0.13490218728E+03  0.19261782724E+03  0.12507455332E+03 0.  0.
         23    2    1    2    0    0  0.49902908488E+00  0.57088828316E+02  0.57186333378E+02  0.11658742714E+03  0.84041466506E+02 0.  0.
          5    1    3    3  502    0 -0.44909683557E+02 -0.53492453346E+01  0.11151788052E+03  0.12041264127E+03  0.41800000000E+01 0. -1.
         -5    1    3    3    0  502  0.44410654472E+02 -0.51739582982E+02  0.23384306766E+02  0.72205185968E+02  0.41800000000E+01 0. -1.
        -11    1    4    4    0    0 -0.38543765185E+02  0.45159026045E+02  0.43232206401E+02  0.73443741314E+02  0.00000000000E+00 0. -1.
         11    1    4    4    0    0  0.39042794270E+02  0.11929802271E+02  0.13954126977E+02  0.43143685822E+02  0.00000000000E+00 0.  1.
</event>
<event>
 8    1  0.6840032E-009  0.8865679E+02  0.7561462E-02  0.1306137E+00
         -3   -1    0    0    0  501 -0.00000000000E+00  0.00000000000E+00  0.13378462218E+03  0.13378462218E+03  0.00000000000E+00 0.  1.
          3   -1    0    0  501    0  0.00000000000E+00 -0.00000000000E+00 -0.20506461145E+03  0.20506461145E+03  0.00000000000E+00 0. -1.
         25    2    1    2    0    0 -0.30527874764E+02 -0.50017093879E+02 -0.14863152164E+03  0.20291229025E+03  0.12509359493E+03 0.  0.
         23    2    1    2    0    0  0.30527874764E+02  0.50017093879E+02  0.77351532368E+02  0.13593694337E+03  0.95194181524E+02 0.  0.
          5    1    3    3  502    0  0.28934179677E+01 -0.27113426330E+02 -0.15859818418E+03  0.16097939675E+03  0.41800000000E+01 0. -1.
         -5    1    3    3    0  502 -0.33421292732E+02 -0.22903667548E+02  0.99666625395E+01  0.41932893499E+02  0.41800000000E+01 0. -1.
        -11    1    4    4    0    0  0.60749935011E+02  0.14680416603E+02  0.59001750980E+02  0.85949263256E+02  0.00000000000E+00 0.  1.
         11    1    4    4    0    0 -0.30222060247E+02  0.35336677275E+02  0.18349781388E+02  0.49987680116E+02  0.00000000000E+00 0. -1.
</event>
<event>
 8    1  0.6840032E-009  0.1064104E+03  0.7561462E-02  0.1267366E+00
          2   -1    0    0  501    0  0.00000000000E+00  0.00000000000E+00  0.50570193149E+02  0.50570193149E+02  0.00000000000E+00 0. -1.
         -2   -1    0    0    0  501 -0.00000000000E+00 -0.00000000000E+00 -0.29859797209E+03  0.29859797209E+03  0.00000000000E+00 0.  1.
         25    2    1    2    0    0 -0.21598744931E+02 -0.31374783093E+02 -0.78801351582E+02  0.15266713370E+03  0.12508684145E+03 0.  0.
         23    2    1    2    0    0  0.21598744931E+02  0.31374783093E+02 -0.16922642736E+03  0.19650103154E+03  0.92326534008E+02 0.  0.
          5    1    3    3  502    0 -0.44510876101E+02  0.34223462162E+02 -0.15058603016E+02  0.58281192322E+02  0.41800000000E+01 0. -1.
         -5    1    3    3    0  502  0.22912131170E+02 -0.65598245255E+02 -0.63742748566E+02  0.94385941379E+02  0.41800000000E+01 0. -1.
        -11    1    4    4    0    0 -0.87581832877E+01 -0.23012412918E+02 -0.12009137343E+02  0.27395187580E+02  0.00000000000E+00 0. -1.
         11    1    4    4    0    0  0.30356928219E+02  0.54387196011E+02 -0.15721729002E+03  0.16910584396E+03  0.00000000000E+00 0.  1.
</event>
<event>
 8    1  0.6840032E-009  0.1314639E+03  0.7561462E-02  0.1225300E+00
         -1   -1    0    0    0  501 -0.00000000000E+00  0.00000000000E+00  0.38058954019E+02  0.38058954019E+02  0.00000000000E+00 0.  1.
          1   -1    0    0  501    0  0.00000000000E+00 -0.00000000000E+00 -0.59264526484E+03  0.59264526484E+03  0.00000000000E+00 0. -1.
         25    2    1    2    0    0  0.78936109140E+02 -0.52948502834E+02 -0.21248986074E+03  0.26426554528E+03  0.12509949730E+03 0.  0.
         23    2    1    2    0    0 -0.78936109140E+02  0.52948502834E+02 -0.34209645007E+03  0.36643867358E+03  0.90624869990E+02 0.  0.
          5    1    3    3  502    0  0.85921609942E+02 -0.86321707854E+02 -0.15339655619E+03  0.19591308316E+03  0.41800000000E+01 0.  1.
         -5    1    3    3    0  502 -0.69855008025E+01  0.33373205020E+02 -0.59093304556E+02  0.68352462122E+02  0.41800000000E+01 0.  1.
        -11    1    4    4    0    0 -0.79753788924E+02  0.32302097665E+02 -0.33286633274E+03  0.34380821373E+03  0.00000000000E+00 0.  1.
         11    1    4    4    0    0  0.81767978386E+00  0.20646405169E+02 -0.92301173376E+01  0.22630459843E+02  0.00000000000E+00 0. -1.
</event>
<event>
 8    1  0.6840032E-009  0.8880057E+02  0.7561462E-02  0.1305783E+00
          2   -1    0    0  501    0  0.00000000000E+00  0.00000000000E+00  0.37550842646E+03  0.37550842646E+03  0.00000000000E+00 0. -1.
         -2   -1    0    0    0  501 -0.00000000000E+00 -0.00000000000E+00 -0.34680962734E+02  0.34680962734E+02  0.00000000000E+00 0.  1.
         25    2    1    2    0    0  0.29610663977E+02  0.20408426297E+02  0.21258112156E+03  0.24926116468E+03  0.12508836752E+03 0.  0.
         23    2    1    2    0    0 -0.29610663977E+02 -0.20408426297E+02  0.12824634217E+03  0.16092822451E+03  0.90318734939E+02 0.  0.
          5    1    3    3  502    0  0.16554157323E+02 -0.47262215127E+02  0.42910198757E+02  0.66079608509E+02  0.41800000000E+01 0.  1.
         -5    1    3    3    0  502  0.13056506654E+02  0.67670641424E+02  0.16967092280E+03  0.18318155617E+03  0.41800000000E+01 0.  1.
        -11    1    4    4    0    0 -0.44721651891E+01 -0.30785057883E+02  0.13362430532E+01  0.31136884813E+02  0.00000000000E+00 0. -1.
         11    1    4    4    0    0 -0.25138498788E+02  0.10376631586E+02  0.12691009911E+03  0.12979133970E+03  0.00000000000E+00 0.  1.
</event>
<event>
 8    1  0.6840032E-009  0.1768036E+03  0.7561462E-02  0.1170933E+00
          2   -1    0    0  501    0  0.00000000000E+00  0.00000000000E+00  0.81206877701E+02  0.81206877701E+02  0.00000000000E+00 0. -1.
         -2   -1    0    0    0  501 -0.00000000000E+00 -0.00000000000E+00 -0.47841228841E+03  0.47841228841E+03  0.00000000000E+00 0.  1.
         25    2    1    2    0    0 -0.13067949380E+03 -0.90637978265E+02 -0.14924246649E+03  0.25142186342E+03  0.12508903388E+03 0.  0.
         23    2    1    2    0    0  0.13067949380E+03  0.90637978265E+02 -0.24796294422E+03  0.30819730269E+03  0.90595708922E+02 0.  0.
          5    1    3    3  502    0 -0.14252579935E+03 -0.87296152579E+02 -0.88230534998E+02  0.18904052857E+03  0.41800000000E+01 0.  1.
         -5    1    3    3    0  502  0.11846305543E+02 -0.33418256858E+01 -0.61011931493E+02  0.62381334856E+02  0.41800000000E+01 0.  1.
        -11    1    4    4    0    0  0.13907876723E+03  0.82401789924E+02 -0.19190926004E+03  0.25092254296E+03  0.00000000000E+00 0. -1.
         11    1    4    4    0    0 -0.83992734228E+01  0.82361883416E+01 -0.56053684172E+02  0.57274759726E+02  0.00000000000E+00 0.  1.
</event>
<event>
 8    1  0.6840032E-009  0.2585021E+03  0.7561462E-02  0.1108047E+00
         -2   -1    0    0    0  501 -0.00000000000E+00  0.00000000000E+00  0.95644285801E+02  0.95644285801E+02  0.00000000000E+00 0.  1.
          2   -1    0    0  501    0  0.00000000000E+00 -0.00000000000E+00 -0.74402462572E+03  0.74402462572E+03  0.00000000000E+00 0. -1.
         25    2    1    2    0    0 -0.24170098291E+03  0.22528798595E+02 -0.38558232116E+03  0.47249121307E+03  0.12508920069E+03 0.  0.
         23    2    1    2    0    0  0.24170098291E+03 -0.22528798595E+02 -0.26279801876E+03  0.36717769845E+03  0.82642311620E+02 0.  0.
          5    1    3    3  502    0 -0.12531818710E+02 -0.31457360923E+02 -0.77861775492E+02  0.85009061394E+02  0.41800000000E+01 0. -1.
         -5    1    3    3    0  502 -0.22916916420E+03  0.53986159518E+02 -0.30772054567E+03  0.38748215167E+03  0.41800000000E+01 0. -1.
        -11    1    4    4    0    0  0.13864868215E+03 -0.36598918169E+02 -0.10316946521E+03  0.17665468130E+03  0.00000000000E+00 0.  1.
         11    1    4    4    0    0  0.10305230076E+03  0.14070119574E+02 -0.15962855355E+03  0.19052301715E+03  0.00000000000E+00 0. -1.
</event>
<event>
 8    1  0.6840032E-009  0.2615052E+03  0.7561462E-02  0.1106242E+00
         -2   -1    0    0    0  501 -0.00000000000E+00  0.00000000000E+00  0.94297460121E+02  0.94297460121E+02  0.00000000000E+00 0.  1.
          2   -1    0    0  501    0  0.00000000000E+00 -0.00000000000E+00 -0.81043587604E+03  0.81043587604E+03  0.00000000000E+00 0. -1.
         25    2    1    2    0    0  0.23832892817E+03 -0.85523018508E+02 -0.43639098683E+03  0.51980721281E+03  0.12509028904E+03 0.  0.
         23    2    1    2    0    0 -0.23832892817E+03  0.85523018508E+02 -0.27974742909E+03  0.38492612334E+03  0.76122477977E+02 0.  0.
          5    1    3    3  502    0  0.16902214534E+03 -0.33825139997E+02 -0.37777379049E+03  0.41526272996E+03  0.41800000000E+01 0. -1.
         -5    1    3    3    0  502  0.69306782832E+02 -0.51697878510E+02 -0.58617196332E+02  0.10454448285E+03  0.41800000000E+01 0. -1.
        -11    1    4    4    0    0 -0.11921575120E+03  0.32572069861E+01 -0.11609245793E+03  0.16643456228E+03  0.00000000000E+00 0. -1.
         11    1    4    4    0    0 -0.11911317697E+03  0.82265811522E+02 -0.16365497116E+03  0.21849156107E+03  0.00000000000E+00 0.  1.
</event>
<event>
 8    1  0.6840032E-009  0.1355474E+03  0.7561462E-02  0.1219449E+00
          2   -1    0    0  501    0  0.00000000000E+00  0.00000000000E+00  0.66740134963E+02  0.66740134963E+02  0.00000000000E+00 0. -1.
         -2   -1    0    0    0  501 -0.00000000000E+00 -0.00000000000E+00 -0.37584084316E+03  0.37584084316E+03  0.00000000000E+00 0.  1.
         25    2    1    2    0    0  0.41512464951E+01  0.11788932664E+03 -0.17602812838E+03  0.24606490402E+03  0.12508760461E+03 0.  0.
         23    2    1    2    0    0 -0.41512464951E+01 -0.11788932664E+03 -0.13307257982E+03  0.19651607411E+03  0.83636891983E+02 0.  0.
          5    1    3    3  502    0 -0.19888885796E+02  0.38636480240E+02 -0.15427819542E+03  0.16033583306E+03  0.41800000000E+01 0.  1.
         -5    1    3    3    0  502  0.24040132291E+02  0.79252846397E+02 -0.21749932962E+02  0.85729070953E+02  0.41800000000E+01 0.  1.
        -11    1    4    4    0    0  0.27692318913E+02 -0.10751495241E+03 -0.99281891164E+02  0.14894033514E+03  0.00000000000E+00 0. -1.
         11    1    4    4    0    0 -0.31843565408E+02 -0.10374374226E+02 -0.33790688658E+02  0.47575738969E+02  0.00000000000E+00 0.  1.
</event>
<event>
 8    1  0.6840032E-009  0.9668414E+02  0.7561462E-02  0.1287427E+00
         -3   -1    0    0    0  501 -0.00000000000E+00  0.00000000000E+00  0.18400944724E+03  0.18400944724E+03  0.00000000000E+00 0.  1.
          3   -1    0    0  501    0  0.00000000000E+00 -0.00000000000E+00 -0.70092080563E+02  0.70092080563E+02  0.00000000000E+00 0. -1.
         25    2    1    2    0    0 -0.13162866210E+02 -0.18221003890E+02  0.92861672496E+02  0.15739034623E+03  0.12507263824E+03 0.  0.
         23    2    1    2    0    0  0.13162866210E+02  0.18221003890E+02  0.21055694184E+02  0.96711181580E+02  0.91675756640E+02 0.  0.
          5    1    3    3  502    0 -0.65573874039E+02 -0.31335195906E+02  0.50264461153E+02  0.88463641763E+02  0.41800000000E+01 0. -1.
         -5    1    3    3    0  502  0.52411007828E+02  0.13114192016E+02  0.42597211343E+02  0.68926704463E+02  0.41800000000E+01 0. -1.
        -11    1    4    4    0    0  0.34313385527E+02 -0.53350780010E+01 -0.23589865264E+02  0.41980390979E+02  0.00000000000E+00 0. -1.
         11    1    4    4    0    0 -0.21150519316E+02  0.23556081891E+02  0.44645559448E+02  0.54730790601E+02  0.00000000000E+00 0.  1.
</event>
<event>
 8    1  0.6840032E-009  0.9606085E+02  0.7561462E-02  0.1288805E+00
         -2   -1    0    0    0  501 -0.00000000000E+00  0.00000000000E+00  0.17123510405E+02  0.17123510405E+02  0.00000000000E+00 0.  1.
          2   -1    0    0  501    0  0.00000000000E+00 -0.00000000000E+00 -0.77981971910E+03  0.77981971910E+03  0.00000000000E+00 0. -1.
         25    2    1    2    0    0 -0.39547106263E+01  0.19200326362E+02 -0.55731995908E+03  0.57152165732E+03  0.12508867147E+03 0.  0.
         23    2    1    2    0    0  0.39547106263E+01 -0.19200326362E+02 -0.20537624962E+03  0.22542157219E+03  0.90836055789E+02 0.  0.
          5    1    3    3  502    0 -0.45484278813E+02  0.46151718988E+02 -0.42957499606E+03  0.43445477374E+03  0.41800000000E+01 0.  1.
         -5    1    3    3    0  502  0.41529568187E+02 -0.26951392627E+02 -0.12774496302E+03  0.13706688358E+03  0.41800000000E+01 0.  1.
        -11    1    4    4    0    0  0.33065824531E+02  0.11677567344E+02 -0.15788443357E+03  0.16173190376E+03  0.00000000000E+00 0.  1.
         11    1    4    4    0    0 -0.29111113905E+02 -0.30877893706E+02 -0.47491816053E+02  0.63689668428E+02  0.00000000000E+00 0. -1.
</event>
<event>
 8    1  0.6840032E-009  0.9898742E+02  0.7561462E-02  0.1282440E+00
          2   -1    0    0  501    0  0.00000000000E+00  0.00000000000E+00  0.90950719971E+02  0.90950719971E+02  0.00000000000E+00 0. -1.
         -2   -1    0    0    0  501 -0.00000000000E+00 -0.00000000000E+00 -0.13430649410E+03  0.13430649410E+03  0.00000000000E+00 0.  1.
         25    2    1    2    0    0 -0.97520309800E+01  0.49922092972E+01  0.16192490727E+01  0.12557744227E+03  0.12508816002E+03 0.  0.
         23    2    1    2    0    0  0.97520309800E+01 -0.49922092972E+01 -0.44975023206E+02  0.99679771811E+02  0.88279555583E+02 0.  0.
          5    1    3    3  502    0  0.23700389424E+02  0.55008371430E+02 -0.17086513805E+02  0.62426362542E+02  0.41800000000E+01 0.  1.
         -5    1    3    3    0  502 -0.33452420404E+02 -0.50016162133E+02  0.18705762877E+02  0.63151079723E+02  0.41800000000E+01 0.  1.
        -11    1    4    4    0    0 -0.33328734172E+02 -0.84888275182E+01 -0.44771782423E+02  0.56456861544E+02  0.00000000000E+00 0.  1.
         11    1    4    4    0    0  0.43080765152E+02  0.34966182210E+01 -0.20324078371E+00  0.43222910266E+02  0.00000000000E+00 0. -1.
</event>
<event>
 8    1  0.6840032E-009  0.1781583E+03  0.7561462E-02  0.1169597E+00
         -4   -1    0    0    0  501 -0.00000000000E+00  0.00000000000E+00  0.11742072732E+03  0.11742072732E+03  0.00000000000E+00 0. -1.
          4   -1    0    0  501    0  0.00000000000E+00 -0.00000000000E+00 -0.31169549544E+03  0.31169549544E+03  0.00000000000E+00 0.  1.
         25    2    1    2    0    0  0.71723268616E+02 -0.13965073154E+03 -0.11900742440E+03  0.23336097365E+03  0.12509205762E+03 0.  0.
         23    2    1    2    0    0 -0.71723268616E+02  0.13965073154E+03 -0.75267343719E+02  0.19575524910E+03  0.89489610782E+02 0.  0.
          5    1    3    3  502    0  0.78775695221E+02 -0.54188815079E+02 -0.12437154986E+02  0.96510067150E+02  0.41800000000E+01 0.  1.
         -5    1    3    3    0  502 -0.70524266048E+01 -0.85461916466E+02 -0.10657026942E+03  0.13685090650E+03  0.41800000000E+01 0.  1.
        -11    1    4    4    0    0 -0.45670915120E+02  0.14145237026E+03 -0.44002562299E+02  0.15501880863E+03  0.00000000000E+00 0. -1.
         11    1    4    4    0    0 -0.26052353496E+02 -0.18016387188E+01 -0.31264781420E+02  0.40736440468E+02  0.00000000000E+00 0.  1.
</event>
<event>
 8    1  0.6840032E-009  0.1987723E+03  0.7561462E-02  0.1150779E+00
         -2   -1    0    0    0  501 -0.00000000000E+00  0.00000000000E+00  0.59876918854E+02  0.59876918854E+02  0.00000000000E+00 0. -1.
          2   -1    0    0  501    0  0.00000000000E+00 -0.00000000000E+00 -0.79532825318E+03  0.79532825318E+03  0.00000000000E+00 0.  1.
         25    2    1    2    0    0  0.54765530194E+01 -0.19054858879E+03 -0.38009918546E+03  0.44324018403E+03  0.12509081754E+03 0.  0.
         23    2    1    2    0    0 -0.54765530194E+01  0.19054858879E+03 -0.35535214887E+03  0.41196498800E+03  0.84268881049E+02 0.  0.
          5    1    3    3  502    0  0.26242812345E+02 -0.84106821963E+02 -0.63857368766E+02  0.10889388709E+03  0.41800000000E+01 0.  1.
         -5    1    3    3    0  502 -0.20766259326E+02 -0.10644176683E+03 -0.31624181669E+03  0.33434629694E+03  0.41800000000E+01 0.  1.
        -11    1    4    4    0    0 -0.27329845574E+02  0.16474503225E+03 -0.32949399929E+03  0.36939699739E+03  0.00000000000E+00 0.  1.
         11    1    4    4    0    0  0.21853292555E+02  0.25803556537E+02 -0.25858149576E+02  0.42567990615E+02  0.00000000000E+00 0. -1.
</event>
<event>
 8    1  0.6840032E-009  0.1255920E+03  0.7561462E-02  0.1234147E+00
          2   -1    0    0  501    0  0.00000000000E+00  0.00000000000E+00  0.11745433112E+03  0.11745433112E+03  0.00000000000E+00 0. -1.
         -2   -1    0    0    0  501 -0.00000000000E+00 -0.00000000000E+00 -0.15022631175E+03  0.15022631175E+03  0.00000000000E+00 0.  1.
         25    2    1    2    0    0 -0.66827645654E+02 -0.14939130277E+02 -0.53076990797E+02  0.15216418260E+03  0.12509060587E+03 0.  0.
         23    2    1    2    0    0  0.66827645654E+02  0.14939130277E+02  0.20305010164E+02  0.11551646026E+03  0.90789026412E+02 0.  0.
          5    1    3    3  502    0  0.35063071006E+02  0.15528247101E+01 -0.29897124432E+02  0.46294067247E+02  0.41800000000E+01 0. -1.
         -5    1    3    3    0  502 -0.10189071666E+03 -0.16491954988E+02 -0.23179866365E+02  0.10587011536E+03  0.41800000000E+01 0. -1.
        -11    1    4    4    0    0  0.89057928068E+02  0.14966435474E+02  0.95171212586E+01  0.90806851832E+02  0.00000000000E+00 0.  1.
         11    1    4    4    0    0 -0.22230282414E+02 -0.27305196338E-01  0.10787888906E+02  0.24709608431E+02  0.00000000000E+00 0. -1.
</event>
<event>
 8    1  0.6840032E-009  0.9065977E+02  0.7561462E-02  0.1301262E+00
         -2   -1    0    0    0  501 -0.00000000000E+00  0.00000000000E+00  0.37417646793E+02  0.37417646793E+02  0.00000000000E+00 0.  1.
          2   -1    0    0  501    0  0.00000000000E+00 -0.00000000000E+00 -0.36683676729E+03  0.36683676729E+03  0.00000000000E+00 0. -1.
         25    2    1    2    0    0 -0.39876933678E+02  0.60967325836E+01 -0.15679979927E+03  0.20460022713E+03  0.12509091055E+03 0.  0.
         23    2    1    2    0    0  0.39876933678E+02 -0.60967325836E+01 -0.17261932122E+03  0.19965418695E+03  0.91853276036E+02 0.  0.
          5    1    3    3  502    0 -0.28518605074E+02 -0.54010604920E+02 -0.41342480382E+02  0.73872385661E+02  0.41800000000E+01 0. -1.
         -5    1    3    3    0  502 -0.11358328604E+02  0.60107337504E+02 -0.11545731889E+03  0.13072784147E+03  0.41800000000E+01 0. -1.
        -11    1    4    4    0    0 -0.32480296865E+01 -0.14491493930E+02  0.57713417534E+01  0.15933031061E+02  0.00000000000E+00 0.  1.
         11    1    4    4    0    0  0.43124963364E+02  0.83947613459E+01 -0.17839066298E+03  0.18372115589E+03  0.00000000000E+00 0. -1.
</event>
<event>
 8    1  0.6840032E-009  0.1278258E+03  0.7561462E-02  0.1230718E+00
          1   -1    0    0  501    0  0.00000000000E+00  0.00000000000E+00  0.15577467716E+03  0.15577467716E+03  0.00000000000E+00 0. -1.
         -1   -1    0    0    0  501 -0.00000000000E+00 -0.00000000000E+00 -0.11356364492E+03  0.11356364492E+03  0.00000000000E+00 0.  1.
         25    2    1    2    0    0 -0.82869400669E+02 -0.43311199564E+01  0.19311054706E+02  0.15133483048E+03  0.12507285044E+03 0.  0.
         23    2    1    2    0    0  0.82869400669E+02  0.43311199564E+01  0.22899977526E+02  0.11800349159E+03  0.80711330620E+02 0.  0.
          5    1    3    3  502    0 -0.79982794811E+02  0.48804086058E+02  0.26533484686E+02  0.97470941779E+02  0.41800000000E+01 0. -1.
         -5    1    3    3    0  502 -0.28866058574E+01 -0.53135206014E+02 -0.72224299794E+01  0.53863888705E+02  0.41800000000E+01 0. -1.
        -11    1    4    4    0    0  0.54580852047E+02  0.36488983982E+02  0.33749625398E+02  0.73821084906E+02  0.00000000000E+00 0. -1.
         11    1    4    4    0    0  0.28288548622E+02 -0.32157864025E+02 -0.10849647872E+02  0.44182406688E+02  0.00000000000E+00 0.  1.
</event>
<event>
 8    1  0.6840032E-009  0.1660845E+03  0.7561462E-02  0.1181994E+00
         -1   -1    0    0    0  501 -0.00000000000E+00  0.00000000000E+00  0.14129207869E+03  0.14129207869E+03  0.00000000000E+00 0. -1.
          1   -1    0    0  501    0  0.00000000000E+00 -0.00000000000E+00 -0.20337415815E+03  0.20337415815E+03  0.00000000000E+00 0.  1.
         25    2    1    2    0    0  0.12623862864E+03 -0.21948722317E+02 -0.53613876514E+02  0.18691789823E+03  0.12508363263E+03 0.  0.
         23    2    1    2    0    0 -0.12623862864E+03  0.21948722317E+02 -0.84682029489E+01  0.15774833860E+03  0.91623632860E+02 0.  0.
          5    1    3    3  502    0 -0.23298715092E+01  0.37109974356E+02 -0.13775278687E+02  0.39872411526E+02  0.41800000000E+01 0.  1.
         -5    1    3    3    0  502  0.12856850015E+03 -0.59058696674E+02 -0.39838597827E+02  0.14704548671E+03  0.41800000000E+01 0.  1.
        -11    1    4    4    0    0 -0.62689152507E+02 -0.31508765966E+02 -0.22170947332E+02  0.73581812157E+02  0.00000000000E+00 0. -1.
         11    1    4    4    0    0 -0.63549476136E+02  0.53457488283E+02  0.13702744383E+02  0.84166526448E+02  0.00000000000E+00 0.  1.
</event>
<event>
 8    1  0.6840032E-009  0.7242725E+02  0.7561462E-02  0.1352028E+00
          3   -1    0    0  501    0  0.00000000000E+00  0.00000000000E+00  0.73699212666E+03  0.73699212666E+03  0.00000000000E+00 0. -1.
         -3   -1    0    0    0  501 -0.00000000000E+00 -0.00000000000E+00 -0.18633936861E+02  0.18633936861E+02  0.00000000000E+00 0.  1.
         25    2    1    2    0    0  0.31355057216E+02  0.23434190178E+02  0.45014283924E+03  0.46883722561E+03  0.12508983779E+03 0.  0.
         23    2    1    2    0    0 -0.31355057216E+02 -0.23434190178E+02  0.26821535056E+03  0.28678883791E+03  0.93680640429E+02 0.  0.
          5    1    3    3  502    0  0.32581232100E+02  0.31477907938E+02  0.45581102006E+03  0.45807592578E+03  0.41800000000E+01 0.  1.
         -5    1    3    3    0  502 -0.12261748840E+01 -0.80437177599E+01 -0.56681808196E+01  0.10761299831E+02  0.41800000000E+01 0.  1.
        -11    1    4    4    0    0 -0.58306369200E+01 -0.51756805474E+02  0.21565913823E+03  0.22185947611E+03  0.00000000000E+00 0.  1.
         11    1    4    4    0    0 -0.25524420296E+02  0.28322615297E+02  0.52556212332E+02  0.64929361797E+02  0.00000000000E+00 0. -1.
</event>
<event>
 8    1  0.6840032E-009  0.9937273E+02  0.7561462E-02  0.1281621E+00
         -3   -1    0    0    0  501 -0.00000000000E+00  0.00000000000E+00  0.30344248609E+03  0.30344248609E+03  0.00000000000E+00 0.  1.
          3   -1    0    0  501    0  0.00000000000E+00 -0.00000000000E+00 -0.54741198309E+02  0.54741198309E+02  0.00000000000E+00 0. -1.
         25    2    1    2    0    0  0.50035947459E+01  0.19314292484E+02  0.21634526527E+03  0.25070155312E+03  0.12509163472E+03 0.  0.
         23    2    1    2    0    0 -0.50035947459E+01 -0.19314292484E+02  0.32356022511E+02  0.10748213128E+03  0.10053565784E+03 0.  0.
          5    1    3    3  502    0  0.46384224903E+02 -0.93593218630E+01  0.26804055766E+02  0.54543771699E+02  0.41800000000E+01 0.  1.
         -5    1    3    3    0  502 -0.41380630157E+02  0.28673614347E+02  0.18954120950E+03  0.19615778142E+03  0.41800000000E+01 0.  1.
        -11    1    4    4    0    0 -0.15295493265E+02  0.38800075393E+02  0.23298264162E+02  0.47772451033E+02  0.00000000000E+00 0. -1.
         11    1    4    4    0    0  0.10291898519E+02 -0.58114367877E+02  0.90577583494E+01  0.59709680246E+02  0.00000000000E+00 0.  1.
</event>
<event>
 8    1  0.6840032E-009  0.1045663E+03  0.7561462E-02  0.1270976E+00
          1   -1    0    0  501    0  0.00000000000E+00  0.00000000000E+00  0.33161352881E+02  0.33161352881E+02  0.00000000000E+00 0. -1.
         -1   -1    0    0    0  501 -0.00000000000E+00 -0.00000000000E+00 -0.52812384504E+03  0.52812384504E+03  0.00000000000E+00 0.  1.
         25    2    1    2    0    0  0.60105462428E+02 -0.31487407758E+02 -0.35107842507E+03  0.37881793687E+03  0.12507136074E+03 0.  0.
         23    2    1    2    0    0 -0.60105462428E+02  0.31487407758E+02 -0.14388406708E+03  0.18246726105E+03  0.89373111925E+02 0.  0.
          5    1    3    3  502    0  0.20113839527E+02  0.32759005569E+02 -0.24732731102E+03  0.25033176019E+03  0.41800000000E+01 0.  1.
         -5    1    3    3    0  502  0.39991622901E+02 -0.64246413327E+02 -0.10375111406E+03  0.12848617667E+03  0.41800000000E+01 0.  1.
        -11    1    4    4    0    0 -0.21266151533E+02  0.47976524774E+02 -0.28734388174E+02  0.59830269882E+02  0.00000000000E+00 0. -1.
         11    1    4    4    0    0 -0.38839310895E+02 -0.16489117016E+02 -0.11514967891E+03  0.12263699117E+03  0.00000000000E+00 0.  1.
</event>
<event>
 8    1  0.6840032E-009  0.2028714E+03  0.7561462E-02  0.1147339E+00
          2   -1    0    0  501    0  0.00000000000E+00  0.00000000000E+00  0.16728735968E+04  0.16728735968E+04  0.00000000000E+00 0. -1.
         -2   -1    0    0    0  501 -0.00000000000E+00 -0.00000000000E+00 -0.31226295079E+02  0.31226295079E+02  0.00000000000E+00 0.  1.
         25    2    1    2    0    0  0.41120044830E+02 -0.19196849377E+03  0.10329674944E+04  0.10588738256E+04  0.12509665651E+03 0.  0.
         23    2    1    2    0    0 -0.41120044830E+02  0.19196849377E+03  0.60867980732E+03  0.64522606623E+03  0.85339369673E+02 0.  0.
          5    1    3    3  502    0  0.57555892332E+02 -0.12961031224E+03  0.43795756869E+03  0.46036487502E+03  0.41800000000E+01 0.  1.
         -5    1    3    3    0  502 -0.16435847502E+02 -0.62358181530E+02  0.59500992569E+03  0.59850895061E+03  0.41800000000E+01 0.  1.
        -11    1    4    4    0    0 -0.35965172033E+02  0.86903196831E+02  0.17178645068E+03  0.19584750153E+03  0.00000000000E+00 0.  1.
         11    1    4    4    0    0 -0.51548727964E+01  0.10506529694E+03  0.43689335664E+03  0.44937856470E+03  0.00000000000E+00 0. -1.
</event>
<event>
 8    1  0.6840032E-009  0.1083623E+03  0.7561462E-02  0.1263633E+00
         -2   -1    0    0    0  501 -0.00000000000E+00  0.00000000000E+00  0.26706603279E+02  0.26706603279E+02  0.00000000000E+00 0. -1.
          2   -1    0    0  501    0  0.00000000000E+00 -0.00000000000E+00 -0.81499923490E+03  0.81499923490E+03  0.00000000000E+00 0.  1.
         25    2    1    2    0    0 -0.33298991432E+02  0.92838243705E+02 -0.46036971524E+03  0.48714953923E+03  0.12508651623E+03 0.  0.
         23    2    1    2    0    0  0.33298991432E+02 -0.92838243705E+02 -0.32792291638E+03  0.35455629895E+03  0.91918266457E+02 0.  0.
          5    1    3    3  502    0 -0.10994602927E+02  0.82499553800E+02 -0.12131877301E+03  0.14718279368E+03  0.41800000000E+01 0.  1.
         -5    1    3    3    0  502 -0.22304388505E+02  0.10338689904E+02 -0.33905094223E+03  0.33996674555E+03  0.41800000000E+01 0.  1.
        -11    1    4    4    0    0  0.19125951561E+02 -0.92310397794E+02 -0.32702889892E+03  0.34034528393E+03  0.00000000000E+00 0.  1.
         11    1    4    4    0    0  0.14173039871E+02 -0.52784591116E+00 -0.89401745949E+00  0.14211015013E+02  0.00000000000E+00 0. -1.
</event>
<event>
 8    1  0.6840032E-009  0.1057354E+03  0.7561462E-02  0.1268678E+00
          1   -1    0    0  501    0  0.00000000000E+00  0.00000000000E+00  0.22145025545E+03  0.22145025545E+03  0.00000000000E+00 0. -1.
         -1   -1    0    0    0  501 -0.00000000000E+00 -0.00000000000E+00 -0.77903397161E+02  0.77903397161E+02  0.00000000000E+00 0.  1.
         25    2    1    2    0    0  0.40640363179E+02 -0.25255513886E+02  0.15812922058E+02  0.13486201939E+03  0.12509290815E+03 0.  0.
         23    2    1    2    0    0 -0.40640363179E+02  0.25255513886E+02  0.12773393623E+03  0.16449163322E+03  0.91935079443E+02 0.  0.
          5    1    3    3  502    0 -0.36160768895E+02 -0.26514819978E+02 -0.20873304733E+02  0.49636721649E+02  0.41800000000E+01 0.  1.
         -5    1    3    3    0  502  0.76801132075E+02  0.12593060918E+01  0.36686226791E+02  0.85225297746E+02  0.41800000000E+01 0.  1.
        -11    1    4    4    0    0 -0.59872430165E+02  0.27892529022E+01  0.40388194328E+02  0.72275127580E+02  0.00000000000E+00 0.  1.
         11    1    4    4    0    0  0.19232066986E+02  0.22466260984E+02  0.87345741905E+02  0.92216505638E+02  0.00000000000E+00 0. -1.
</event>
<event>
 8    1  0.6840032E-009  0.1297730E+03  0.7561462E-02  0.1227793E+00
          3   -1    0    0  501    0  0.00000000000E+00  0.00000000000E+00  0.63440975491E+03  0.63440975491E+03  0.00000000000E+00 0. -1.
         -3   -1    0    0    0  501 -0.00000000000E+00 -0.00000000000E+00 -0.37052151915E+02  0.37052151915E+02  0.00000000000E+00 0.  1.
         25    2    1    2    0    0 -0.59203633479E+02  0.10052530322E+03  0.27818233365E+03  0.32656149177E+03  0.12508633157E+03 0.  0.
         23    2    1    2    0    0  0.59203633479E+02 -0.10052530322E+03  0.31917526935E+03  0.34490041506E+03  0.58932477804E+02 0.  0.
          5    1    3    3  502    0  0.48720220006E+01  0.71788545727E+02  0.23067759230E+03  0.24167531087E+03  0.41800000000E+01 0. -1.
         -5    1    3    3    0  502 -0.64075655480E+02  0.28736757496E+02  0.47504741353E+02  0.84886180898E+02  0.41800000000E+01 0. -1.
        -11    1    4    4    0    0  0.12341571892E+02 -0.30082264900E+02  0.32389637583E+02  0.45894941781E+02  0.00000000000E+00 0.  1.
         11    1    4    4    0    0  0.46862061587E+02 -0.70443038323E+02  0.28678563176E+03  0.29900547328E+03  0.00000000000E+00 0. -1.
</event>
<event>
 8    1  0.6840032E-009  0.1120165E+03  0.7561462E-02  0.1256881E+00
         -1   -1    0    0    0  501 -0.00000000000E+00  0.00000000000E+00  0.71588080489E+02  0.71588080489E+02  0.00000000000E+00 0.  1.
          1   -1    0    0  501    0  0.00000000000E+00 -0.00000000000E+00 -0.25041285144E+03  0.25041285144E+03  0.00000000000E+00 0. -1.
         25    2    1    2    0    0  0.39613138886E+02  0.59372833896E+02 -0.59895255599E+02  0.15597776575E+03  0.12508911859E+03 0.  0.
         23    2    1    2    0    0 -0.39613138886E+02 -0.59372833896E+02 -0.11892951535E+03  0.16602316618E+03  0.91242138882E+02 0.  0.
          5    1    3    3  502    0 -0.69025426434E+01  0.82036709398E+02 -0.63332074392E+02  0.10395234885E+03  0.41800000000E+01 0.  1.
         -5    1    3    3    0  502  0.46515681530E+02 -0.22663875502E+02  0.34368187934E+01  0.52025416907E+02  0.41800000000E+01 0.  1.
        -11    1    4    4    0    0 -0.33562534548E+02 -0.37882017459E+01  0.90349434958E+00  0.33787727059E+02  0.00000000000E+00 0.  1.
         11    1    4    4    0    0 -0.60506043379E+01 -0.55584632150E+02 -0.11983300970E+03  0.13223543912E+03  0.00000000000E+00 0. -1.
</event>
<event>
 7    1  0.6840032E-009  0.9186226E+02  0.7561462E-02  0.1298404E+00
          1   -1    0    0  501    0  0.00000000000E+00  0.00000000000E+00  0.39093475817E+02  0.39093475817E+02  0.00000000000E+00 0. -1.
         -1   -1    0    0    0  501 -0.00000000000E+00 -0.00000000000E+00 -0.37427332794E+03  0.37427332794E+03  0.00000000000E+00 0.  1.
         23    2    1    2    0    0 -0.44204322464E+02 -0.31014085079E+02 -0.14049444892E+03  0.17568705256E+03  0.90616525316E+02 0.  0.
          5    1    1    2  502    0 -0.18982657288E+02  0.40055992831E+02 -0.15054710276E+02  0.46999367452E+02  0.41800000000E+01 0.  1.
         -5    1    1    2    0  502  0.63186979752E+02 -0.90419077515E+01 -0.17963069292E+03  0.19068038375E+03  0.41800000000E+01 0.  1.
        -11    1    3    3    0    0 -0.28258649816E+01  0.13888684920E+02  0.71788838982E+01  0.15887651045E+02  0.00000000000E+00 0. -1.
         11    1    3    3    0    0 -0.41378457483E+02 -0.44902769999E+02 -0.14767333282E+03  0.15979940151E+03  0.00000000000E+00 0.  1.
</event>
<event>
 8    1  0.6840032E-009  0.8608812E+02  0.7561462E-02  0.1312611E+00
          1   -1    0    0  501    0  0.00000000000E+00  0.00000000000E+00  0.38421459736E+03  0.38421459736E+03  0.00000000000E+00 0. -1.
         -1   -1    0    0    0  501 -0.00000000000E+00 -0.00000000000E+00 -0.40294994030E+02  0.40294994030E+02  0.00000000000E+00 0.  1.
         25    2    1    2    0    0  0.75061941237E+01 -0.44350825297E+02  0.26295572526E+03  0.29464777214E+03  0.12509299552E+03 0.  0.
         23    2    1    2    0    0 -0.75061941237E+01  0.44350825297E+02  0.80963878071E+02  0.12986181925E+03  0.91025292589E+02 0.  0.
          5    1    3    3  502    0 -0.40720769801E+02 -0.83313370757E+01  0.23969566683E+02  0.48162275669E+02  0.41800000000E+01 0. -1.
         -5    1    3    3    0  502  0.48226963924E+02 -0.36019488221E+02  0.23898615858E+03  0.24648549647E+03  0.41800000000E+01 0. -1.
        -11    1    4    4    0    0  0.23102865227E+02  0.23965205606E+02  0.86488240198E+02  0.92673022796E+02  0.00000000000E+00 0. -1.
         11    1    4    4    0    0 -0.30609059351E+02  0.20385619691E+02 -0.55243621278E+01  0.37188796451E+02  0.00000000000E+00 0.  1.
</event>
<event>
 8    1  0.6840032E-009  0.9533249E+02  0.7561462E-02  0.1290429E+00
         -2   -1    0    0    0  501 -0.00000000000E+00  0.00000000000E+00  0.10620267409E+03  0.10620267409E+03  0.00000000000E+00 0.  1.
          2   -1    0    0  501    0  0.00000000000E+00 -0.00000000000E+00 -0.18927021743E+03  0.18927021743E+03  0.00000000000E+00 0. -1.
         25    2    1    2    0    0 -0.84806850498E+02 -0.25199211956E+02 -0.48137268315E+02  0.16059895541E+03  0.12509047008E+03 0.  0.
         23    2    1    2    0    0  0.84806850498E+02  0.25199211956E+02 -0.34930275026E+02  0.13487393611E+03  0.95622446910E+02 0.  0.
          5    1    3    3  502    0 -0.89852669958E+02 -0.16761848241E+02 -0.83368917517E+02  0.12378332142E+03  0.41800000000E+01 0.  1.
         -5    1    3    3    0  502  0.50458194594E+01 -0.84373637146E+01  0.35231649202E+02  0.36815633988E+02  0.41800000000E+01 0.  1.
        -11    1    4    4    0    0  0.53372313928E+02  0.15109791759E+02  0.29243265289E+02  0.62706285696E+02  0.00000000000E+00 0.  1.
         11    1    4    4    0    0  0.31434536570E+02  0.10089420197E+02 -0.64173540315E+02  0.72167650411E+02  0.00000000000E+00 0. -1.
</event>
<event>
 8    1  0.6840032E-009  0.1048077E+03  0.7561462E-02  0.1270499E+00
          1   -1    0    0  501    0  0.00000000000E+00  0.00000000000E+00  0.12512795435E+03  0.12512795435E+03  0.00000000000E+00 0. -1.
         -1   -1    0    0    0  501 -0.00000000000E+00 -0.00000000000E+00 -0.13508047199E+03  0.13508047199E+03  0.00000000000E+00 0.  1.
         25    2    1    2    0    0  0.14333073130E+02 -0.46009287636E+02 -0.58450458932E+02  0.14623819950E+03  0.12508742267E+03 0.  0.
         23    2    1    2    0    0 -0.14333073130E+02  0.46009287636E+02  0.48497941285E+02  0.11397022684E+03  0.91185913187E+02 0.  0.
          5    1    3    3  502    0  0.59240215115E+02 -0.58236752475E+02 -0.19567795675E+02  0.85447606481E+02  0.41800000000E+01 0.  1.
         -5    1    3    3    0  502 -0.44907141985E+02  0.12227464839E+02 -0.38882663257E+02  0.60790593019E+02  0.41800000000E+01 0.  1.
        -11    1    4    4    0    0 -0.46051363842E+01  0.61361652027E+02  0.64938911512E+02  0.89462404668E+02  0.00000000000E+00 0.  1.
         11    1    4    4    0    0 -0.97279367461E+01 -0.15352364392E+02 -0.16440970227E+02  0.24507822175E+02  0.00000000000E+00 0. -1.
</event>
<event>
 8    1  0.6840032E-009  0.1360650E+03  0.7561462E-02  0.1218724E+00
          2   -1    0    0  501    0  0.00000000000E+00  0.00000000000E+00  0.72557119313E+03  0.72557119313E+03  0.00000000000E+00 0. -1.
         -2   -1    0    0    0  501 -0.00000000000E+00 -0.00000000000E+00 -0.26628304764E+02  0.26628304764E+02  0.00000000000E+00 0.  1.
         25    2    1    2    0    0  0.60448022016E+02 -0.52582191127E+02  0.38895739953E+03  0.41635805660E+03  0.12508925796E+03 0.  0.
         23    2    1    2    0    0 -0.60448022016E+02  0.52582191127E+02  0.30998548884E+03  0.33584144129E+03  0.10138846193E+03 0.  0.
          5    1    3    3  502    0 -0.33908321608E+02 -0.37254714587E+02  0.10143714067E+03  0.11333425757E+03  0.41800000000E+01 0.  1.
         -5    1    3    3    0  502  0.94356343625E+02 -0.15327476541E+02  0.28752025887E+03  0.30302379903E+03  0.41800000000E+01 0.  1.
        -11    1    4    4    0    0 -0.75203144285E+02  0.42060863870E+01  0.22105813600E+03  0.23353779900E+03  0.00000000000E+00 0. -1.
         11    1    4    4    0    0  0.14755122269E+02  0.48376104740E+02  0.88927352838E+02  0.10230364229E+03  0.00000000000E+00 0.  1.
</event>
<event>
 8    1  0.6840032E-009  0.9568241E+02  0.7561462E-02  0.1289646E+00
          2   -1    0    0  501    0  0.00000000000E+00  0.00000000000E+00  0.32725683278E+03  0.32725683278E+03  0.00000000000E+00 0.  1.
         -2   -1    0    0    0  501 -0.00000000000E+00 -0.00000000000E+00 -0.67983794681E+02  0.67983794681E+02  0.00000000000E+00 0. -1.
         25    2    1    2    0    0 -0.35081389191E+02  0.56916953869E+02  0.37894343355E+02  0.14681190383E+03  0.12509000897E+03 0.  0.
         23    2    1    2    0    0  0.35081389191E+02 -0.56916953869E+02  0.22137869475E+03  0.24842872363E+03  0.90763763319E+02 0.  0.
          5    1    3    3  502    0 -0.53675543092E+02  0.49840386366E+02  0.74739049438E+02  0.10473073069E+03  0.41800000000E+01 0.  1.
         -5    1    3    3    0  502  0.18594153902E+02  0.70765675026E+01 -0.36844706083E+02  0.42081173145E+02  0.41800000000E+01 0.  1.
        -11    1    4    4    0    0  0.28052449962E+02  0.10450538464E+02  0.13697359456E+03  0.14020670208E+03  0.00000000000E+00 0.  1.
         11    1    4    4    0    0  0.70289392290E+01 -0.67367492332E+02  0.84405100188E+02  0.10822202155E+03  0.00000000000E+00 0. -1.
</event>
<event>
 8    1  0.6840032E-009  0.1132915E+03  0.7561462E-02  0.1254593E+00
         -1   -1    0    0    0  501 -0.00000000000E+00  0.00000000000E+00  0.83416449524E+02  0.83416449524E+02  0.00000000000E+00 0.  1.
          1   -1    0    0  501    0  0.00000000000E+00 -0.00000000000E+00 -0.17526958351E+03  0.17526958351E+03  0.00000000000E+00 0. -1.
         25    2    1    2    0    0  0.12144929268E+00 -0.33978726237E+02 -0.93148798964E+02  0.15962148491E+03  0.12509097134E+03 0.  0.
         23    2    1    2    0    0 -0.12144929268E+00  0.33978726237E+02  0.12956649758E+01  0.99064548127E+02  0.93045888471E+02 0.  0.
          5    1    3    3  502    0  0.38983766729E+02 -0.66902049133E+02 -0.46438223943E+02  0.90385835669E+02  0.41800000000E+01 0.  1.
         -5    1    3    3    0  502 -0.38862317436E+02  0.32923322896E+02 -0.46710575021E+02  0.69235649241E+02  0.41800000000E+01 0.  1.
        -11    1    4    4    0    0  0.18241215242E+02  0.61891049220E+02  0.79068994315E+01  0.65005868702E+02  0.00000000000E+00 0.  1.
         11    1    4    4    0    0 -0.18362664534E+02 -0.27912322984E+02 -0.66112344558E+01  0.34058679425E+02  0.00000000000E+00 0. -1.
</event>
<event>
 8    1  0.6840032E-009  0.1112384E+03  0.7561462E-02  0.1258294E+00
         -2   -1    0    0    0  501 -0.00000000000E+00  0.00000000000E+00  0.34906289501E+03  0.34906289501E+03  0.00000000000E+00 0.  1.
          2   -1    0    0  501    0  0.00000000000E+00 -0.00000000000E+00 -0.40196488069E+02  0.40196488069E+02  0.00000000000E+00 0. -1.
         25    2    1    2    0    0 -0.39774548017E+02 -0.12603710835E+02  0.15864756358E+03  0.20629250532E+03  0.12508669044E+03 0.  0.
         23    2    1    2    0    0  0.39774548017E+02  0.12603710835E+02  0.15021884336E+03  0.18296687775E+03  0.95761731699E+02 0.  0.
          5    1    3    3  502    0 -0.64081795202E+02  0.29307396163E+02  0.47811200363E+02  0.85257159385E+02  0.41800000000E+01 0. -1.
         -5    1    3    3    0  502  0.24307247185E+02 -0.41911106998E+02  0.11083636322E+03  0.12103534594E+03  0.41800000000E+01 0. -1.
        -11    1    4    4    0    0  0.53437721937E+02 -0.28062012246E+02  0.73891271681E+02  0.95409573355E+02  0.00000000000E+00 0.  1.
         11    1    4    4    0    0 -0.13663173921E+02  0.40665723081E+02  0.76327571678E+02  0.87557304398E+02  0.00000000000E+00 0. -1.
</event>
<event>
 8    1  0.6840032E-009  0.1142736E+03  0.7561462E-02  0.1252854E+00
          2   -1    0    0  501    0  0.00000000000E+00  0.00000000000E+00  0.85795432509E+03  0.85795432509E+03  0.00000000000E+00 0. -1.
         -2   -1    0    0    0  501 -0.00000000000E+00 -0.00000000000E+00 -0.16664218969E+02  0.16664218969E+02  0.00000000000E+00 0.  1.
         25    2    1    2    0    0  0.25686745457E+02  0.44515283115E+02  0.44284132484E+03  0.46303107296E+03  0.12509163130E+03 0.  0.
         23    2    1    2    0    0 -0.25686745457E+02 -0.44515283115E+02  0.39844878128E+03  0.41158747109E+03  0.89450521158E+02 0.  0.
          5    1    3    3  502    0  0.55110223430E+02  0.71343769313E+02  0.24296756082E+03  0.25918676308E+03  0.41800000000E+01 0.  1.
         -5    1    3    3    0  502 -0.29423477973E+02 -0.26828486199E+02  0.19987376402E+03  0.20384430988E+03  0.41800000000E+01 0.  1.
        -11    1    4    4    0    0  0.29380923641E+02 -0.28453873055E+02  0.10707021003E+03  0.11461627913E+03  0.00000000000E+00 0.  1.
         11    1    4    4    0    0 -0.55067669097E+02 -0.16061410060E+02  0.29137857124E+03  0.29697119196E+03  0.00000000000E+00 0. -1.
</event>
<event>
 8    1  0.6840032E-009  0.1070527E+03  0.7561462E-02  0.1266127E+00
         -2   -1    0    0    0  501 -0.00000000000E+00  0.00000000000E+00  0.50356155189E+02  0.50356155189E+02  0.00000000000E+00 0.  1.
          2   -1    0    0  501    0  0.00000000000E+00 -0.00000000000E+00 -0.28579795540E+03  0.28579795540E+03  0.00000000000E+00 0. -1.
         25    2    1    2    0    0 -0.53034315560E+02 -0.14721153851E+02 -0.11589212137E+03  0.17918298642E+03  0.12508480254E+03 0.  0.
         23    2    1    2    0    0  0.53034315560E+02  0.14721153851E+02 -0.11954967884E+03  0.15697112417E+03  0.85547981368E+02 0.  0.
          5    1    3    3  502    0 -0.40847059525E+02  0.47261165589E+02 -0.92493808103E+02  0.11169009348E+03  0.41800000000E+01 0. -1.
         -5    1    3    3    0  502 -0.12187256036E+02 -0.61982319440E+02 -0.23398313272E+02  0.67492892935E+02  0.41800000000E+01 0. -1.
        -11    1    4    4    0    0 -0.16424390344E+02  0.83951021129E+01  0.13601305057E+00  0.18446052076E+02  0.00000000000E+00 0.  1.
         11    1    4    4    0    0  0.69458705904E+02  0.63260517378E+01 -0.11968569189E+03  0.13852507210E+03  0.00000000000E+00 0. -1.
</event>
<event>
 8    1  0.6840032E-009  0.8287254E+02  0.7561462E-02  0.1321092E+00
         -3   -1    0    0    0  501 -0.00000000000E+00  0.00000000000E+00  0.57505358119E+02  0.57505358119E+02  0.00000000000E+00 0.  1.
          3   -1    0    0  501    0  0.00000000000E+00 -0.00000000000E+00 -0.26271535294E+03  0.26271535294E+03  0.00000000000E+00 0. -1.
         25    2    1    2    0    0  0.36037317880E+02  0.14490886765E+02 -0.58040949585E+02  0.14326169417E+03  0.12508591891E+03 0.  0.
         23    2    1    2    0    0 -0.36037317880E+02 -0.14490886765E+02 -0.14716904524E+03  0.17695901689E+03  0.90261241416E+02 0.  0.
          5    1    3    3  502    0  0.65051772234E+02  0.17019107588E+02 -0.81421611023E+02  0.10568033987E+03  0.41800000000E+01 0. -1.
         -5    1    3    3    0  502 -0.29014454354E+02 -0.25282208234E+01  0.23380661437E+02  0.37581354303E+02  0.41800000000E+01 0. -1.
        -11    1    4    4    0    0 -0.18699325798E+02 -0.36453485313E+02 -0.17922870971E+02  0.44718571987E+02  0.00000000000E+00 0.  1.
         11    1    4    4    0    0 -0.17337992082E+02  0.21962598548E+02 -0.12924617427E+03  0.13224044490E+03  0.00000000000E+00 0. -1.
</event>
<event>
 8    1  0.6840032E-009  0.1451661E+03  0.7561462E-02  0.1206542E+00
         -1   -1    0    0    0  501 -0.00000000000E+00  0.00000000000E+00  0.54610689248E+02  0.54610689248E+02  0.00000000000E+00 0.  1.
          1   -1    0    0  501    0  0.00000000000E+00 -0.00000000000E+00 -0.51693381758E+03  0.51693381758E+03  0.00000000000E+00 0. -1.
         25    2    1    2    0    0  0.12285347183E+03  0.10856258209E+00 -0.18422647637E+03  0.25432150333E+03  0.12508814944E+03 0.  0.
         23    2    1    2    0    0 -0.12285347183E+03 -0.10856258209E+00 -0.27809665196E+03  0.31722300350E+03  0.90552188219E+02 0.  0.
          5    1    3    3  502    0 -0.17458167381E+02  0.65295617063E+01 -0.71985417458E+02  0.74476811902E+02  0.41800000000E+01 0. -1.
         -5    1    3    3    0  502  0.14031163921E+03 -0.64209991242E+01 -0.11224105891E+03  0.17984469143E+03  0.41800000000E+01 0. -1.
        -11    1    4    4    0    0 -0.29574960927E+02 -0.19515408738E+02 -0.17028594774E+02  0.39312879976E+02  0.00000000000E+00 0.  1.
         11    1    4    4    0    0 -0.93278510904E+02  0.19406846155E+02 -0.26106805719E+03  0.27791012352E+03  0.00000000000E+00 0. -1.
</event>
<event>
 8    1  0.6840032E-009  0.1150298E+03  0.7561462E-02  0.1251529E+00
          2   -1    0    0  501    0  0.00000000000E+00  0.00000000000E+00  0.33437679722E+03  0.33437679722E+03  0.00000000000E+00 0. -1.
         -2   -1    0    0    0  501 -0.00000000000E+00 -0.00000000000E+00 -0.42694399662E+02  0.42694399662E+02  0.00000000000E+00 0.  1.
         25    2    1    2    0    0  0.30841346423E+02 -0.37995667722E+02  0.18086998688E+03  0.22528925858E+03  0.12508572446E+03 0.  0.
         23    2    1    2    0    0 -0.30841346423E+02  0.37995667722E+02  0.11081241068E+03  0.15178193830E+03  0.91452211663E+02 0.  0.
          5    1    3    3  502    0  0.78347716625E+02 -0.30853407751E+02  0.13205544833E+03  0.15667294376E+03  0.41800000000E+01 0. -1.
         -5    1    3    3    0  502 -0.47506370202E+02 -0.71422599705E+01  0.48814538543E+02  0.68616314827E+02  0.41800000000E+01 0. -1.
        -11    1    4    4    0    0 -0.46063406772E+02  0.56932770614E+02  0.10276032462E+03  0.12618582381E+03  0.00000000000E+00 0.  1.
         11    1    4    4    0    0  0.15222060348E+02 -0.18937102892E+02  0.80520860558E+01  0.25596114491E+02  0.00000000000E+00 0. -1.
</event>
<event>
 8    1  0.6840032E-009  0.8766910E+02  0.7561462E-02  0.1308597E+00
          2   -1    0    0  501    0  0.00000000000E+00  0.00000000000E+00  0.58155152892E+03  0.58155152892E+03  0.00000000000E+00 0. -1.
         -2   -1    0    0    0  501 -0.00000000000E+00 -0.00000000000E+00 -0.21189729558E+02  0.21189729558E+02  0.00000000000E+00 0.  1.
         25    2    1    2    0    0 -0.51373492726E+00 -0.13417183492E+02  0.38153477221E+03  0.40174274480E+03  0.12509262911E+03 0.  0.
         23    2    1    2    0    0  0.51373492726E+00  0.13417183492E+02  0.17882702715E+03  0.20099851367E+03  0.90780020513E+02 0.  0.
          5    1    3    3  502    0  0.47532241531E+02 -0.31658281358E+02  0.29893809207E+03  0.30437315265E+03  0.41800000000E+01 0.  1.
         -5    1    3    3    0  502 -0.48045976459E+02  0.18241097866E+02  0.82596680139E+02  0.97369592148E+02  0.41800000000E+01 0.  1.
        -11    1    4    4    0    0 -0.16013658550E+02 -0.22127558541E+02  0.12363772393E+02  0.29982144268E+02  0.00000000000E+00 0.  1.
         11    1    4    4    0    0  0.16527393477E+02  0.35544742033E+02  0.16646325475E+03  0.17101636940E+03  0.00000000000E+00 0. -1.
</event>
<event>
 8    1  0.6840032E-009  0.1351678E+03  0.7561462E-02  0.1219983E+00
         -1   -1    0    0    0  501 -0.00000000000E+00  0.00000000000E+00  0.71060497106E+02  0.71060497106E+02  0.00000000000E+00 0.  1.
          1   -1    0    0  501    0  0.00000000000E+00 -0.00000000000E+00 -0.39338835896E+03  0.39338835896E+03  0.00000000000E+00 0. -1.
         25    2    1    2    0    0  0.11602932466E+03  0.35426067394E+02 -0.11995368910E+03  0.21154989755E+03  0.12508661476E+03 0.  0.
         23    2    1    2    0    0 -0.11602932466E+03 -0.35426067394E+02 -0.20237417275E+03  0.25289895852E+03  0.91020695384E+02 0.  0.
          5    1    3    3  502    0  0.67866736975E+02  0.44706137251E+02 -0.13709274203E+03  0.15942529603E+03  0.41800000000E+01 0.  1.
         -5    1    3    3    0  502  0.48162587686E+02 -0.92800698576E+01  0.17139052926E+02  0.52124601527E+02  0.41800000000E+01 0.  1.
        -11    1    4    4    0    0 -0.20593489909E+02  0.20550147031E+02 -0.96096032982E+01  0.30638943278E+02  0.00000000000E+00 0. -1.
         11    1    4    4    0    0 -0.95435834752E+02 -0.55976214425E+02 -0.19276456946E+03  0.22226001524E+03  0.00000000000E+00 0.  1.
</event>
<event>
 8    1  0.6840032E-009  0.1220405E+03  0.7561462E-02  0.1239768E+00
          1   -1    0    0  501    0  0.00000000000E+00  0.00000000000E+00  0.91689445919E+03  0.91689445919E+03  0.00000000000E+00 0. -1.
         -1   -1    0    0    0  501 -0.00000000000E+00 -0.00000000000E+00 -0.25348454548E+02  0.25348454548E+02  0.00000000000E+00 0.  1.
         25    2    1    2    0    0  0.96831571030E+02 -0.36074709037E+02  0.59395114675E+03  0.61571379875E+03  0.12509108470E+03 0.  0.
         23    2    1    2    0    0 -0.96831571030E+02  0.36074709037E+02  0.29759485789E+03  0.32652911498E+03  0.85911732070E+02 0.  0.
          5    1    3    3  502    0  0.25478633235E+02 -0.38640846003E+02  0.54857114694E+02  0.71896113691E+02  0.41800000000E+01 0. -1.
         -5    1    3    3    0  502  0.71352937796E+02  0.25661369663E+01  0.53909403205E+03  0.54381768506E+03  0.41800000000E+01 0. -1.
        -11    1    4    4    0    0 -0.56913707837E+02  0.57397319779E+02  0.24021622756E+03  0.25345109675E+03  0.00000000000E+00 0. -1.
         11    1    4    4    0    0 -0.39917863193E+02 -0.21322610742E+02  0.57378630328E+02  0.73078018234E+02  0.00000000000E+00 0.  1.
</event>
<event>
 8    1  0.6840032E-009  0.1669193E+03  0.7561462E-02  0.1181099E+00
          3   -1    0    0  501    0  0.00000000000E+00  0.00000000000E+00  0.84878308771E+03  0.84878308771E+03  0.00000000000E+00 0. -1.
         -3   -1    0    0    0  501 -0.00000000000E+00 -0.00000000000E+00 -0.47306566376E+02  0.47306566376E+02  0.00000000000E+00 0.  1.
         25    2    1    2    0    0  0.10201013823E+03 -0.97244924683E+02  0.61978772024E+03  0.64780213608E+03  0.12509254844E+03 0.  0.
         23    2    1    2    0    0 -0.10201013823E+03  0.97244924683E+02  0.18168880109E+03  0.24828751800E+03  0.93665508465E+02 0.  0.
          5    1    3    3  502    0  0.66789840314E+02 -0.12263322906E+03  0.52812931785E+03  0.54629464615E+03  0.41800000000E+01 0. -1.
         -5    1    3    3    0  502  0.35220297911E+02  0.25388304375E+02  0.91658402385E+02  0.10150748993E+03  0.41800000000E+01 0. -1.
        -11    1    4    4    0    0 -0.59492759840E+02  0.20764328266E+02  0.13528602985E+03  0.14924093163E+03  0.00000000000E+00 0. -1.
         11    1    4    4    0    0 -0.42517378386E+02  0.76480596417E+02  0.46402771246E+02  0.99046586374E+02  0.00000000000E+00 0.  1.
</event>
<event>
 8    1  0.6840032E-009  0.1170337E+03  0.7561462E-02  0.1248072E+00
         -1   -1    0    0    0  501 -0.00000000000E+00  0.00000000000E+00  0.53643545153E+02  0.53643545153E+02  0.00000000000E+00 0.  1.
          1   -1    0    0  501    0  0.00000000000E+00 -0.00000000000E+00 -0.42705039484E+03  0.42705039484E+03  0.00000000000E+00 0. -1.
         25    2    1    2    0    0 -0.79370154757E+02 -0.32395428751E+01 -0.31197232427E+03  0.34537593961E+03  0.12509073686E+03 0.  0.
         23    2    1    2    0    0  0.79370154757E+02  0.32395428751E+01 -0.61434525424E+02  0.13531800039E+03  0.90700850108E+02 0.  0.
          5    1    3    3  502    0 -0.62664650907E+02  0.39191556328E+02 -0.80283331598E+02  0.10920495544E+03  0.41800000000E+01 0.  1.
         -5    1    3    3    0  502 -0.16705503849E+02 -0.42431099203E+02 -0.23168899267E+03  0.23617098417E+03  0.41800000000E+01 0.  1.
        -11    1    4    4    0    0  0.60696262414E+00 -0.29096845557E+02 -0.36333533316E+02  0.46552341168E+02  0.00000000000E+00 0. -1.
         11    1    4    4    0    0  0.78763192132E+02  0.32336388432E+02 -0.25100992108E+02  0.88765659219E+02  0.00000000000E+00 0.  1.
</event>
<event>
 7    1  0.6840032E-009  0.1434086E+03  0.7561462E-02  0.1208815E+00
         -3   -1    0    0    0  501 -0.00000000000E+00  0.00000000000E+00  0.47272108356E+03  0.47272108356E+03  0.00000000000E+00 0.  1.
          3   -1    0    0  501    0  0.00000000000E+00 -0.00000000000E+00 -0.74282158067E+02  0.74282158067E+02  0.00000000000E+00 0. -1.
         23    2    1    2    0    0  0.84956517497E+02  0.10008009684E+03  0.30194504917E+03  0.34172538468E+03  0.91497487218E+02 0.  0.
          5    1    1    2  502    0 -0.75615135375E+02 -0.66390632441E+02  0.12460975250E+03  0.16021993506E+03  0.41800000000E+01 0.  1.
         -5    1    1    2    0  502 -0.93413821219E+01 -0.33689464402E+02 -0.28115876175E+02  0.45057921886E+02  0.41800000000E+01 0.  1.
        -11    1    3    3    0    0  0.84919290856E+02  0.45547063400E+02  0.24307320834E+03  0.26147735190E+03  0.00000000000E+00 0.  1.
         11    1    3    3    0    0  0.37226640742E-01  0.54533033442E+02  0.58871840825E+02  0.80248032776E+02  0.00000000000E+00 0. -1.
</event>
<event>
 8    1  0.6840032E-009  0.1135035E+03  0.7561462E-02  0.1254216E+00
          1   -1    0    0  501    0  0.00000000000E+00  0.00000000000E+00  0.42731904458E+03  0.42731904458E+03  0.00000000000E+00 0. -1.
         -1   -1    0    0    0  501 -0.00000000000E+00 -0.00000000000E+00 -0.34068192909E+02  0.34068192909E+02  0.00000000000E+00 0.  1.
         25    2    1    2    0    0 -0.51044174831E+02 -0.47214955258E+01  0.25422938663E+03  0.28793009753E+03  0.12507341736E+03 0.  0.
         23    2    1    2    0    0  0.51044174831E+02  0.47214955258E+01  0.13902146504E+03  0.17345713996E+03  0.90180992221E+02 0.  0.
          5    1    3    3  502    0 -0.51393658785E+02  0.52810096953E+02  0.17498261686E+03  0.18991209310E+03  0.41800000000E+01 0. -1.
         -5    1    3    3    0  502  0.34948395413E+00 -0.57531592479E+02  0.79246769776E+02  0.98018004428E+02  0.41800000000E+01 0. -1.
        -11    1    4    4    0    0 -0.56917055910E+01 -0.28973366479E+02  0.15341097574E+02  0.33274626255E+02  0.00000000000E+00 0.  1.
         11    1    4    4    0    0  0.56735880422E+02  0.33694862005E+02  0.12368036747E+03  0.14018251371E+03  0.00000000000E+00 0. -1.
</event>
<event>
 8    1  0.6840032E-009  0.1373294E+03  0.7561462E-02  0.1216968E+00
          2   -1    0    0  501    0  0.00000000000E+00  0.00000000000E+00  0.88664411882E+03  0.88664411882E+03  0.00000000000E+00 0. -1.
         -2   -1    0    0    0  501 -0.00000000000E+00 -0.00000000000E+00 -0.24617659787E+02  0.24617659787E+02  0.00000000000E+00 0.  1.
         25    2    1    2    0    0 -0.44518786229E+01 -0.97311193693E+02  0.52567142284E+03  0.54906214950E+03  0.12509800789E+03 0.  0.
         23    2    1    2    0    0  0.44518786229E+01  0.97311193693E+02  0.33635503619E+03  0.36219962911E+03  0.92544979947E+02 0.  0.
          5    1    3    3  502    0 -0.38175536444E+02  0.13775366636E+02  0.17320827863E+03  0.17794862318E+03  0.41800000000E+01 0.  1.
         -5    1    3    3    0  502  0.33723657821E+02 -0.11108656033E+03  0.35246314421E+03  0.37111352631E+03  0.41800000000E+01 0.  1.
        -11    1    4    4    0    0  0.28572648109E+02  0.15724523545E+02  0.19109988737E+03  0.19386289953E+03  0.00000000000E+00 0. -1.
         11    1    4    4    0    0 -0.24120769486E+02  0.81586670148E+02  0.14525514882E+03  0.16833672958E+03  0.00000000000E+00 0.  1.
</event>
<event>
 8    1  0.6840032E-009  0.9026119E+02  0.7561462E-02  0.1302220E+00
         -2   -1    0    0    0  501 -0.00000000000E+00  0.00000000000E+00  0.30821205066E+02  0.30821205066E+02  0.00000000000E+00 0.  1.
          2   -1    0    0  501    0  0.00000000000E+00 -0.00000000000E+00 -0.59029291595E+03  0.59029291595E+03  0.00000000000E+00 0. -1.
         25    2    1    2    0    0 -0.36928010344E+02  0.57025114736E+02 -0.40545142706E+03  0.42971356859E+03  0.12508936671E+03 0.  0.
         23    2    1    2    0    0  0.36928010344E+02 -0.57025114736E+02 -0.15402028382E+03  0.19140055243E+03  0.91084477173E+02 0.  0.
          5    1    3    3  502    0 -0.52316489361E+02  0.61812504473E+02 -0.12645178650E+03  0.15021760042E+03  0.41800000000E+01 0. -1.
         -5    1    3    3    0  502  0.15388479017E+02 -0.47873897376E+01 -0.27899964056E+03  0.27949596816E+03  0.41800000000E+01 0. -1.
        -11    1    4    4    0    0 -0.60850474189E+00 -0.42549878264E+02 -0.12616569579E+02  0.44385135420E+02  0.00000000000E+00 0.  1.
         11    1    4    4    0    0  0.37536515086E+02 -0.14475236472E+02 -0.14140371424E+03  0.14701541701E+03  0.00000000000E+00 0. -1.
</event>
<event>
 8    1  0.6840032E-009  0.1493702E+03  0.7561462E-02  0.1201249E+00
         -1   -1    0    0    0  501 -0.00000000000E+00  0.00000000000E+00  0.58619157818E+02  0.58619157818E+02  0.00000000000E+00 0.  1.
          1   -1    0    0  501    0  0.00000000000E+00 -0.00000000000E+00 -0.62195061423E+03  0.62195061423E+03  0.00000000000E+00 0. -1.
         25    2    1    2    0    0  0.16149954602E+02 -0.11751690929E+03 -0.47818753274E+03  0.50831235445E+03  0.12508832165E+03 0.  0.
         23    2    1    2    0    0 -0.16149954602E+02  0.11751690929E+03 -0.85143923671E+02  0.17225741760E+03  0.91389743275E+02 0.  0.
          5    1    3    3  502    0 -0.23596861704E+02  0.95587138078E+00 -0.22147789718E+03  0.22277265746E+03  0.41800000000E+01 0. -1.
         -5    1    3    3    0  502  0.39746816306E+02 -0.11847278067E+03 -0.25670963557E+03  0.28553969699E+03  0.41800000000E+01 0. -1.
        -11    1    4    4    0    0  0.27362199301E+02  0.98515438087E+02 -0.56872818573E+02  0.11699785889E+03  0.00000000000E+00 0.  1.
         11    1    4    4    0    0 -0.43512153903E+02  0.19001471206E+02 -0.28271105098E+02  0.55259558709E+02  0.00000000000E+00 0. -1.
</event>
<event>
 8    1  0.6840032E-009  0.1757549E+03  0.7561462E-02  0.1171976E+00
         -2   -1    0    0    0  501 -0.00000000000E+00  0.00000000000E+00  0.60412407282E+03  0.60412407282E+03  0.00000000000E+00 0. -1.
          2   -1    0    0  501    0  0.00000000000E+00 -0.00000000000E+00 -0.52182329327E+02  0.52182329327E+02  0.00000000000E+00 0.  1.
         25    2    1    2    0    0  0.70791641293E+02  0.11902014732E+03  0.33544280840E+03  0.38386200688E+03  0.12510359975E+03 0.  0.
         23    2    1    2    0    0 -0.70791641293E+02 -0.11902014732E+03  0.21649893509E+03  0.27244439527E+03  0.90426255456E+02 0.  0.
          5    1    3    3  502    0  0.39620626805E+02 -0.19645749468E+02  0.81895104884E+02  0.93166679369E+02  0.41800000000E+01 0.  1.
         -5    1    3    3    0  502  0.31171014488E+02  0.13866589678E+03  0.25354770352E+03  0.29069532751E+03  0.41800000000E+01 0.  1.
        -11    1    4    4    0    0 -0.52395998863E+02 -0.87675498960E+01  0.79769260705E+02  0.95840208584E+02  0.00000000000E+00 0. -1.
         11    1    4    4    0    0 -0.18395642430E+02 -0.11025259742E+03  0.13672967438E+03  0.17660418669E+03  0.00000000000E+00 0.  1.
</event>
<event>
 8    1  0.6840032E-009  0.1907918E+03  0.7561462E-02  0.1157749E+00
         -2   -1    0    0    0  501 -0.00000000000E+00  0.00000000000E+00  0.92937232538E+02  0.92937232538E+02  0.00000000000E+00 0.  1.
          2   -1    0    0  501    0  0.00000000000E+00 -0.00000000000E+00 -0.54369319611E+03  0.54369319611E+03  0.00000000000E+00 0. -1.
         25    2    1    2    0    0  0.13969825253E+03 -0.11960296953E+03 -0.31747673598E+03  0.38763287528E+03  0.12508915234E+03 0.  0.
         23    2    1    2    0    0 -0.13969825253E+03  0.11960296953E+03 -0.13327922760E+03  0.24899755337E+03  0.10205859589E+03 0.  0.
          5    1    3    3  502    0  0.10359406677E+02 -0.32574820211E+02 -0.16842684630E+03  0.17191134684E+03  0.41800000000E+01 0.  1.
         -5    1    3    3    0  502  0.12933884585E+03 -0.87028149320E+02 -0.14904988968E+03  0.21572152844E+03  0.41800000000E+01 0.  1.
        -11    1    4    4    0    0 -0.10517884730E+03  0.11585348246E+03 -0.59409562415E+02  0.16737417789E+03  0.00000000000E+00 0.  1.
         11    1    4    4    0    0 -0.34519405222E+02  0.37494870690E+01 -0.73869665181E+02  0.81623375476E+02  0.00000000000E+00 0. -1.
</event>
<event>
 8    1  0.6840032E-009  0.1288287E+03  0.7561462E-02  0.1229204E+00
         -1   -1    0    0    0  501 -0.00000000000E+00  0.00000000000E+00  0.14012465280E+03  0.14012465280E+03  0.00000000000E+00 0.  1.
          1   -1    0    0  501    0  0.00000000000E+00 -0.00000000000E+00 -0.18834823999E+03  0.18834823999E+03  0.00000000000E+00 0. -1.
         25    2    1    2    0    0 -0.80043307993E+02  0.39918734460E+02  0.55537901961E+02  0.16349987695E+03  0.12508922692E+03 0.  0.
         23    2    1    2    0    0  0.80043307993E+02 -0.39918734460E+02 -0.10376148915E+03  0.16497301584E+03  0.91919599698E+02 0.  0.
          5    1    3    3  502    0 -0.48175767206E+02  0.85329418777E+02  0.37719283322E+02  0.10508202029E+03  0.41800000000E+01 0. -1.
         -5    1    3    3    0  502 -0.31867540787E+02 -0.45410684317E+02  0.17818618639E+02  0.58417856655E+02  0.41800000000E+01 0. -1.
        -11    1    4    4    0    0  0.67083412857E+02 -0.56663945412E+01 -0.15028039417E+02  0.68979230761E+02  0.00000000000E+00 0.  1.
         11    1    4    4    0    0  0.12959895136E+02 -0.34252339919E+02 -0.88733449732E+02  0.95993785076E+02  0.00000000000E+00 0. -1.
</event>
<event>
 8    1  0.6840032E-009  0.9509977E+02  0.7561462E-02  0.1290952E+00
          2   -1    0    0  501    0  0.00000000000E+00  0.00000000000E+00  0.85666710582E+02  0.85666710582E+02  0.00000000000E+00 0. -1.
         -2   -1    0    0    0  501 -0.00000000000E+00 -0.00000000000E+00 -0.18985056706E+03  0.18985056706E+03  0.00000000000E+00 0.  1.
         25    2    1    2    0    0  0.47215055071E+02 -0.41711999347E+02 -0.80970003173E+02  0.16178134170E+03  0.12509160161E+03 0.  0.
         23    2    1    2    0    0 -0.47215055071E+02  0.41711999347E+02 -0.23213853310E+02  0.11373593595E+03  0.91803201612E+02 0.  0.
          5    1    3    3  502    0 -0.31948920981E+01  0.81273360269E+01 -0.89713016899E+02  0.90233911184E+02  0.41800000000E+01 0. -1.
         -5    1    3    3    0  502  0.50409947169E+02 -0.49839335374E+02  0.87430137259E+01  0.71547430513E+02  0.41800000000E+01 0. -1.
        -11    1    4    4    0    0 -0.73508737413E+02  0.22277599378E+02 -0.25570373275E+02  0.80954739822E+02  0.00000000000E+00 0.  1.
         11    1    4    4    0    0  0.26293682343E+02  0.19434399969E+02  0.23565199649E+01  0.32781196129E+02  0.00000000000E+00 0. -1.
</event>
<event>
 8    1  0.6840032E-009  0.1119277E+03  0.7561462E-02  0.1257041E+00
          1   -1    0    0  501    0  0.00000000000E+00  0.00000000000E+00  0.14615560867E+03  0.14615560867E+03  0.00000000000E+00 0. -1.
         -1   -1    0    0    0  501 -0.00000000000E+00 -0.00000000000E+00 -0.13954670732E+03  0.13954670732E+03  0.00000000000E+00 0.  1.
         25    2    1    2    0    0 -0.37061272783E+02 -0.68575322816E+02 -0.41635247188E+02  0.15316063015E+03  0.12509425239E+03 0.  0.
         23    2    1    2    0    0  0.37061272783E+02  0.68575322816E+02  0.48244148541E+02  0.13254168583E+03  0.95727152756E+02 0.  0.
          5    1    3    3  502    0  0.16519779304E+02 -0.84672943816E+02 -0.44151716987E+02  0.97001324917E+02  0.41800000000E+01 0. -1.
         -5    1    3    3    0  502 -0.53581052086E+02  0.16097621000E+02  0.25164697981E+01  0.56159305238E+02  0.41800000000E+01 0. -1.
        -11    1    4    4    0    0  0.26691453853E+02  0.24935241782E+02 -0.26668895106E+02  0.45226429857E+02  0.00000000000E+00 0.  1.
         11    1    4    4    0    0  0.10369818930E+02  0.43640081034E+02  0.74913043646E+02  0.87315255973E+02  0.00000000000E+00 0. -1.
</event>
<event>
 8    1  0.6840032E-009  0.1230164E+03  0.7561462E-02  0.1238202E+00
          1   -1    0    0  501    0  0.00000000000E+00  0.00000000000E+00  0.70261708843E+03  0.70261708843E+03  0.00000000000E+00 0. -1.
         -1   -1    0    0    0  501 -0.00000000000E+00 -0.00000000000E+00 -0.35794986952E+02  0.35794986952E+02  0.00000000000E+00 0.  1.
         25    2    1    2    0    0 -0.60140446001E+02  0.97440387852E+02  0.38765070486E+03  0.42312196617E+03  0.12509047465E+03 0.  0.
         23    2    1    2    0    0  0.60140446001E+02 -0.97440387852E+02  0.27917139662E+03  0.31529010921E+03  0.91431295770E+02 0.  0.
          5    1    3    3  502    0 -0.27935601894E+01  0.34684877521E+02  0.29591303881E+03  0.29798128069E+03  0.41800000000E+01 0. -1.
         -5    1    3    3    0  502 -0.57346885811E+02  0.62755510331E+02  0.91737666054E+02  0.12514068548E+03  0.41800000000E+01 0. -1.
        -11    1    4    4    0    0  0.64577816094E+02 -0.59936639863E+02  0.25657436721E+03  0.27128048407E+03  0.00000000000E+00 0.  1.
         11    1    4    4    0    0 -0.44373700935E+01 -0.37503747989E+02  0.22597029406E+02  0.44009625135E+02  0.00000000000E+00 0. -1.
</event>
<event>
 8    1  0.6840032E-009  0.9856155E+02  0.7561462E-02  0.1283350E+00
         -2   -1    0    0    0  501 -0.00000000000E+00  0.00000000000E+00  0.35573451947E+03  0.35573451947E+03  0.00000000000E+00 0.  1.
          2   -1    0    0  501    0  0.00000000000E+00 -0.00000000000E+00 -0.38997923659E+02  0.38997923659E+02  0.00000000000E+00 0. -1.
         25    2    1    2    0    0  0.12298324903E+02 -0.32948153246E+02  0.10689100984E+03  0.16825699987E+03  0.12509156815E+03 0.  0.
         23    2    1    2    0    0 -0.12298324903E+02  0.32948153246E+02  0.20984558597E+03  0.22647544326E+03  0.77583031975E+02 0.  0.
          5    1    3    3  502    0 -0.45933354259E+02 -0.27443966515E+02  0.93978939621E+01  0.54487036463E+02  0.41800000000E+01 0. -1.
         -5    1    3    3    0  502  0.58231679163E+02 -0.55041867311E+01  0.97493115875E+02  0.11376996340E+03  0.41800000000E+01 0. -1.
        -11    1    4    4    0    0 -0.42356048598E+02  0.34625232266E+02  0.12500765819E+03  0.13645459380E+03  0.00000000000E+00 0.  1.
         11    1    4    4    0    0  0.30057723694E+02 -0.16770790199E+01  0.84837927779E+02  0.90020849460E+02  0.00000000000E+00 0. -1.
</event>
<event>
 8    1  0.6840032E-009  0.1050624E+03  0.7561462E-02  0.1269997E+00
         -2   -1    0    0    0  501 -0.00000000000E+00  0.00000000000E+00  0.30266229295E+02  0.30266229295E+02  0.00000000000E+00 0.  1.
          2   -1    0    0  501    0  0.00000000000E+00 -0.00000000000E+00 -0.46068318574E+03  0.46068318574E+03  0.00000000000E+00 0. -1.
         25    2    1    2    0    0 -0.15485926057E+02 -0.41719259924E+02 -0.25172814200E+03  0.28459701038E+03  0.12509232706E+03 0.  0.
         23    2    1    2    0    0  0.15485926057E+02  0.41719259924E+02 -0.17868881445E+03  0.20635240466E+03  0.93119879424E+02 0.  0.
          5    1    3    3  502    0 -0.47334435176E+02 -0.65818145618E+02 -0.10645389310E+03  0.13387486994E+03  0.41800000000E+01 0.  1.
         -5    1    3    3    0  502  0.31848509120E+02  0.24098885693E+02 -0.14527424890E+03  0.15072214044E+03  0.41800000000E+01 0.  1.
        -11    1    4    4    0    0 -0.26561914641E+02  0.38290781107E+02 -0.40082738127E+02  0.61468244833E+02  0.00000000000E+00 0.  1.
         11    1    4    4    0    0  0.42047840698E+02  0.34284788177E+01 -0.13860607632E+03  0.14488415982E+03  0.00000000000E+00 0. -1.
</event>
<event>
 7    1  0.6840032E-009  0.7488236E+02  0.7561462E-02  0.1344236E+00
         -2   -1    0    0    0  501 -0.00000000000E+00  0.00000000000E+00  0.88224113458E+02  0.88224113458E+02  0.00000000000E+00 0.  1.
          2   -1    0    0  501    0  0.00000000000E+00 -0.00000000000E+00 -0.15475460374E+03  0.15475460374E+03  0.00000000000E+00 0. -1.
         23    2    1    2    0    0 -0.31720668652E+02  0.20696623354E+02 -0.56991814182E+02  0.11184103070E+03  0.88463541797E+02 0.  0.
          5    1    1    2  502    0 -0.48921902349E+01  0.26106539736E+02  0.43657512760E+02  0.51273148554E+02  0.41800000000E+01 0. -1.
         -5    1    1    2    0  502  0.36612858887E+02 -0.46803163090E+02 -0.53196188861E+02  0.79864537940E+02  0.41800000000E+01 0. -1.
        -11    1    3    3    0    0  0.29586482470E+01  0.27759108944E+02  0.14948418305E+02  0.31666653416E+02  0.00000000000E+00 0.  1.
         11    1    3    3    0    0 -0.34679316899E+02 -0.70624855894E+01 -0.71940232487E+02  0.80174377288E+02  0.00000000000E+00 0. -1.
</event>
<event>
 8    1  0.6840032E-009  0.1184933E+03  0.7561462E-02  0.1245604E+00
          2   -1    0    0  501    0  0.00000000000E+00  0.00000000000E+00  0.19699139678E+03  0.19699139678E+03  0.00000000000E+00 0. -1.
         -2   -1    0    0    0  501 -0.00000000000E+00 -0.00000000000E+00 -0.73364286132E+02  0.73364286132E+02  0.00000000000E+00 0.  1.
         25    2    1    2    0    0  0.33896239297E+02  0.41529296668E+02  0.64005679814E+02  0.15037123269E+03  0.12506455554E+03 0.  0.
         23    2    1    2    0    0 -0.33896239297E+02 -0.41529296668E+02  0.59621430837E+02  0.11998445022E+03  0.89263182559E+02 0.  0.
          5    1    3    3  502    0  0.69746849842E+02  0.62959780054E+02  0.42574842521E+02  0.10324072154E+03  0.41800000000E+01 0. -1.
         -5    1    3    3    0  502 -0.35850610545E+02 -0.21430483386E+02  0.21430837293E+02  0.47130511155E+02  0.41800000000E+01 0. -1.
        -11    1    4    4    0    0  0.65725027415E+01  0.23479024985E+02  0.28024827186E+02  0.37146377284E+02  0.00000000000E+00 0.  1.
         11    1    4    4    0    0 -0.40468742038E+02 -0.65008321653E+02  0.31596603651E+02  0.82838072941E+02  0.00000000000E+00 0. -1.
</event>
<event>
 8    1  0.6840032E-009  0.1202221E+03  0.7561462E-02  0.1242731E+00
          2   -1    0    0  501    0  0.00000000000E+00  0.00000000000E+00  0.73014028499E+02  0.73014028499E+02  0.00000000000E+00 0. -1.
         -2   -1    0    0    0  501 -0.00000000000E+00 -0.00000000000E+00 -0.22296801640E+03  0.22296801640E+03  0.00000000000E+00 0.  1.
         25    2    1    2    0    0  0.14346483488E+02  0.54414975216E+02 -0.11971660306E+03  0.18206349412E+03  0.12509292437E+03 0.  0.
         23    2    1    2    0    0 -0.14346483488E+02 -0.54414975216E+02 -0.30237384839E+02  0.11391855078E+03  0.94320335308E+02 0.  0.
          5    1    3    3  502    0  0.32087139958E+02 -0.31926337228E+02 -0.22336507599E+02  0.50648470176E+02  0.41800000000E+01 0. -1.
         -5    1    3    3    0  502 -0.17740656470E+02  0.86341312444E+02 -0.97380095461E+02  0.13141502395E+03  0.41800000000E+01 0. -1.
        -11    1    4    4    0    0  0.15462032690E+02 -0.70977539163E+02 -0.32836102331E+02  0.79718850574E+02  0.00000000000E+00 0.  1.
         11    1    4    4    0    0 -0.29808516178E+02  0.16562563947E+02  0.25987174924E+01  0.34199700201E+02  0.00000000000E+00 0. -1.
</event>
<event>
 8    1  0.6840032E-009  0.1196969E+03  0.7561462E-02  0.1243598E+00
         -2   -1    0    0    0  501 -0.00000000000E+00  0.00000000000E+00  0.45584462826E+02  0.45584462826E+02  0.00000000000E+00 0.  1.
          2   -1    0    0  501    0  0.00000000000E+00 -0.00000000000E+00 -0.33747192351E+03  0.33747192351E+03  0.00000000000E+00 0. -1.
         25    2    1    2    0    0 -0.46713137735E+02  0.23838576358E+02 -0.11663390383E+03  0.17889230787E+03  0.12509434572E+03 0.  0.
         23    2    1    2    0    0  0.46713137735E+02 -0.23838576358E+02 -0.17525355685E+03  0.20416407847E+03  0.90657414415E+02 0.  0.
          5    1    3    3  502    0 -0.60969391674E+02 -0.37995654381E+02 -0.58700195432E+02  0.92866150004E+02  0.41800000000E+01 0. -1.
         -5    1    3    3    0  502  0.14256253938E+02  0.61834230739E+02 -0.57933708400E+02  0.86026157862E+02  0.41800000000E+01 0. -1.
        -11    1    4    4    0    0  0.72936408104E+02 -0.84261171388E+01 -0.13544248697E+03  0.15406292985E+03  0.00000000000E+00 0. -1.
         11    1    4    4    0    0 -0.26223270368E+02 -0.15412459219E+02 -0.39811069881E+02  0.50101148621E+02  0.00000000000E+00 0.  1.
</event>
<event>
 8    1  0.6840032E-009  0.1926500E+03  0.7561462E-02  0.1156093E+00
          2   -1    0    0  501    0  0.00000000000E+00  0.00000000000E+00  0.40835550660E+03  0.40835550660E+03  0.00000000000E+00 0. -1.
         -2   -1    0    0    0  501 -0.00000000000E+00 -0.00000000000E+00 -0.11225947925E+03  0.11225947925E+03  0.00000000000E+00 0.  1.
         25    2    1    2    0    0  0.19321705285E+02 -0.18306166940E+03  0.16414091997E+03  0.27654000731E+03  0.12508889216E+03 0.  0.
         23    2    1    2    0    0 -0.19321705285E+02  0.18306166940E+03  0.13195510738E+03  0.24407497854E+03  0.90970004315E+02 0.  0.
          5    1    3    3  502    0  0.37043638660E+02 -0.88177296186E+02  0.12235139204E+02  0.96512371017E+02  0.41800000000E+01 0.  1.
         -5    1    3    3    0  502 -0.17721933375E+02 -0.94884373211E+02  0.15190578076E+03  0.18002763630E+03  0.41800000000E+01 0.  1.
        -11    1    4    4    0    0 -0.33259021776E+02  0.56036567921E+02  0.73230703037E+01  0.65573522344E+02  0.00000000000E+00 0.  1.
         11    1    4    4    0    0  0.13937316491E+02  0.12702510148E+03  0.12463203708E+03  0.17850145619E+03  0.00000000000E+00 0. -1.
</event>
<event>
 8    1  0.6840032E-009  0.1141163E+03  0.7561462E-02  0.1253132E+00
         -1   -1    0    0    0  501 -0.00000000000E+00  0.00000000000E+00  0.34496563065E+03  0.34496563065E+03  0.00000000000E+00 0.  1.
          1   -1    0    0  501    0  0.00000000000E+00 -0.00000000000E+00 -0.39264242796E+02  0.39264242796E+02  0.00000000000E+00 0. -1.
         25    2    1    2    0    0 -0.38636123295E+02  0.15826895898E+01  0.20219615284E+03  0.24088917587E+03  0.12509618659E+03 0.  0.
         23    2    1    2    0    0  0.38636123295E+02 -0.15826895898E+01  0.10350523502E+03  0.14334069758E+03  0.91312468904E+02 0.  0.
          5    1    3    3  502    0 -0.12265928237E+02 -0.60311641196E+02  0.11684988457E+03  0.13213370116E+03  0.41800000000E+01 0. -1.
         -5    1    3    3    0  502 -0.26370195058E+02  0.61894330786E+02  0.85346268273E+02  0.10875547471E+03  0.41800000000E+01 0. -1.
        -11    1    4    4    0    0  0.30429852519E+02 -0.45346606158E+02  0.55394133015E+02  0.77786892128E+02  0.00000000000E+00 0.  1.
         11    1    4    4    0    0  0.82062707757E+01  0.43763916569E+02  0.48111102003E+02  0.65553805454E+02  0.00000000000E+00 0. -1.
</event>
<event>
 8    1  0.6840032E-009  0.1096383E+03  0.7561462E-02  0.1261241E+00
         -1   -1    0    0    0  501 -0.00000000000E+00  0.00000000000E+00  0.94135893143E+02  0.94135893143E+02  0.00000000000E+00 0.  1.
          1   -1    0    0  501    0  0.00000000000E+00 -0.00000000000E+00 -0.35163628299E+03  0.35163628299E+03  0.00000000000E+00 0. -1.
         25    2    1    2    0    0  0.25142263481E+02  0.67254353755E+02  0.18665010165E+02  0.14543385597E+03  0.12508933746E+03 0.  0.
         23    2    1    2    0    0 -0.25142263481E+02 -0.67254353755E+02 -0.27616540002E+03  0.30033832017E+03  0.93704305579E+02 0.  0.
          5    1    3    3  502    0  0.50491286748E+02  0.28289380158E+02  0.59724259300E+02  0.83271355315E+02  0.41800000000E+01 0. -1.
         -5    1    3    3    0  502 -0.25349023266E+02  0.38964973597E+02 -0.41059249134E+02  0.62162500653E+02  0.41800000000E+01 0. -1.
        -11    1    4    4    0    0  0.15356186259E+02 -0.72166173004E+02 -0.14081607160E+03  0.15897463636E+03  0.00000000000E+00 0.  1.
         11    1    4    4    0    0 -0.40498449740E+02  0.49118192488E+01 -0.13534932841E+03  0.14136368381E+03  0.00000000000E+00 0. -1.
</event>
<event>
 8    1  0.6840032E-009  0.1190561E+03  0.7561462E-02  0.1244662E+00
          1   -1    0    0  501    0  0.00000000000E+00  0.00000000000E+00  0.12930679266E+03  0.12930679266E+03  0.00000000000E+00 0. -1.
         -1   -1    0    0    0  501 -0.00000000000E+00 -0.00000000000E+00 -0.11550065107E+03  0.11550065107E+03  0.00000000000E+00 0.  1.
         25    2    1    2    0    0  0.48586504817E+02 -0.26896948635E+02 -0.91714043734E+00  0.13686634919E+03  0.12508981612E+03 0.  0.
         23    2    1    2    0    0 -0.48586504817E+02  0.26896948635E+02  0.14723282027E+02  0.10794109453E+03  0.91380580865E+02 0.  0.
          5    1    3    3  502    0  0.30074832544E+02 -0.74298840818E+02  0.18276356373E+02  0.82318350941E+02  0.41800000000E+01 0.  1.
         -5    1    3    3    0  502  0.18511672273E+02  0.47401892183E+02 -0.19193496811E+02  0.54547998246E+02  0.41800000000E+01 0.  1.
        -11    1    4    4    0    0  0.21367954070E+02  0.29922584465E+02  0.77321595446E+01  0.37573086291E+02  0.00000000000E+00 0. -1.
         11    1    4    4    0    0 -0.69954458887E+02 -0.30256358301E+01  0.69911224828E+01  0.70368008242E+02  0.00000000000E+00 0.  1.
</event>
<event>
 8    1  0.6840032E-009  0.1410270E+03  0.7561462E-02  0.1211954E+00
         -2   -1    0    0    0  501 -0.00000000000E+00  0.00000000000E+00  0.45686923959E+02  0.45686923959E+02  0.00000000000E+00 0.  1.
          2   -1    0    0  501    0  0.00000000000E+00 -0.00000000000E+00 -0.66248742520E+03  0.66248742520E+03  0.00000000000E+00 0. -1.
         25    2    1    2    0    0 -0.61658376589E+02  0.11362763107E+03 -0.24072220779E+03  0.30051257512E+03  0.12509049740E+03 0.  0.
         23    2    1    2    0    0  0.61658376589E+02 -0.11362763107E+03 -0.37607829345E+03  0.40766177403E+03  0.89667414693E+02 0.  0.
          5    1    3    3  502    0 -0.34564864899E+02  0.92567614981E+02 -0.24637515055E+03  0.26548386097E+03  0.41800000000E+01 0. -1.
         -5    1    3    3    0  502 -0.27093511690E+02  0.21060016085E+02  0.56529427607E+01  0.35028714151E+02  0.41800000000E+01 0. -1.
        -11    1    4    4    0    0  0.55848321354E+02 -0.27480993581E+02 -0.22705977569E+03  0.23543657690E+03  0.00000000000E+00 0. -1.
         11    1    4    4    0    0  0.58100552351E+01 -0.86146637485E+02 -0.14901851777E+03  0.17222519714E+03  0.00000000000E+00 0.  1.
</event>
<event>
 8    1  0.6840032E-009  0.1305976E+03  0.7561462E-02  0.1226572E+00
          1   -1    0    0  501    0  0.00000000000E+00  0.00000000000E+00  0.33923342726E+03  0.33923342726E+03  0.00000000000E+00 0. -1.
         -1   -1    0    0    0  501 -0.00000000000E+00 -0.00000000000E+00 -0.89719534031E+02  0.89719534031E+02  0.00000000000E+00 0.  1.
         25    2    1    2    0    0 -0.26129787322E+00  0.11269621487E+03  0.38278818455E+02  0.17266591748E+03  0.12509095089E+03 0.  0.
         23    2    1    2    0    0  0.26129787322E+00 -0.11269621487E+03  0.21123507477E+03  0.25628704381E+03  0.91445540545E+02 0.  0.
          5    1    3    3  502    0  0.86764027522E+01  0.90582057589E+01 -0.40183611799E+02  0.42302790848E+02  0.41800000000E+01 0. -1.
         -5    1    3    3    0  502 -0.89377006254E+01  0.10363800911E+03  0.78462430254E+02  0.13036312664E+03  0.41800000000E+01 0. -1.
        -11    1    4    4    0    0 -0.41557672947E+02 -0.30183525501E+02  0.92113624376E+02  0.10546565881E+03  0.00000000000E+00 0. -1.
         11    1    4    4    0    0  0.41818970820E+02 -0.82512689369E+02  0.11912145040E+03  0.15082138500E+03  0.00000000000E+00 0.  1.
</event>
<event>
 8    1  0.6840032E-009  0.1136781E+03  0.7561462E-02  0.1253906E+00
         -2   -1    0    0    0  501 -0.00000000000E+00  0.00000000000E+00  0.12041439311E+03  0.12041439311E+03  0.00000000000E+00 0.  1.
          2   -1    0    0  501    0  0.00000000000E+00 -0.00000000000E+00 -0.16982368784E+03  0.16982368784E+03  0.00000000000E+00 0. -1.
         25    2    1    2    0    0  0.52468685401E+02  0.39484508564E+01 -0.10631486497E+03  0.17240091506E+03  0.12510264502E+03 0.  0.
         23    2    1    2    0    0 -0.52468685401E+02 -0.39484508564E+01  0.56905570239E+02  0.11783716589E+03  0.88762607715E+02 0.  0.
          5    1    3    3  502    0 -0.31563978439E+02 -0.29324769683E+02 -0.21273759944E+02  0.48231443209E+02  0.41800000000E+01 0. -1.
         -5    1    3    3    0  502  0.84032663839E+02  0.33273220540E+02 -0.85041105022E+02  0.12416947185E+03  0.41800000000E+01 0. -1.
        -11    1    4    4    0    0  0.20492149497E+02 -0.22163135939E+01 -0.60210125787E+01  0.21473072193E+02  0.00000000000E+00 0. -1.
         11    1    4    4    0    0 -0.72960834897E+02 -0.17321372625E+01  0.62926582817E+02  0.96364093694E+02  0.00000000000E+00 0.  1.
</event>
<event>
 8    1  0.6840032E-009  0.1091591E+03  0.7561462E-02  0.1262135E+00
         -2   -1    0    0    0  501 -0.00000000000E+00  0.00000000000E+00  0.34420966838E+02  0.34420966838E+02  0.00000000000E+00 0.  1.
          2   -1    0    0  501    0  0.00000000000E+00 -0.00000000000E+00 -0.34944263072E+03  0.34944263072E+03  0.00000000000E+00 0. -1.
         25    2    1    2    0    0  0.13220566012E+02 -0.11922839660E+02 -0.19215343951E+03  0.22997406869E+03  0.12509272753E+03 0.  0.
         23    2    1    2    0    0 -0.13220566012E+02  0.11922839660E+02 -0.12286822437E+03  0.15388952887E+03  0.90931012665E+02 0.  0.
          5    1    3    3  502    0  0.68457572069E+02  0.30110771333E+01 -0.96365872139E+02  0.11831888891E+03  0.41800000000E+01 0.  1.
         -5    1    3    3    0  502 -0.55237006057E+02 -0.14933916793E+02 -0.95787567370E+02  0.11165517978E+03  0.41800000000E+01 0.  1.
        -11    1    4    4    0    0  0.33095619593E+02  0.27913728117E+02 -0.64458294879E+02  0.77649005354E+02  0.00000000000E+00 0.  1.
         11    1    4    4    0    0 -0.46316185605E+02 -0.15990888457E+02 -0.58409929490E+02  0.76240523514E+02  0.00000000000E+00 0. -1.
</event>
<event>
 8    1  0.6840032E-009  0.6984657E+02  0.7561462E-02  0.1360616E+00
          2   -1    0    0  501    0  0.00000000000E+00  0.00000000000E+00  0.18399992446E+03  0.18399992446E+03  0.00000000000E+00 0. -1.
         -2   -1    0    0    0  501 -0.00000000000E+00 -0.00000000000E+00 -0.69821573262E+02  0.69821573262E+02  0.00000000000E+00 0.  1.
         25    2    1    2    0    0 -0.89930652951E+01 -0.14553844191E+01  0.10092427699E+03  0.16098543380E+03  0.12509039469E+03 0.  0.
         23    2    1    2    0    0  0.89930652951E+01  0.14553844191E+01  0.13254074209E+02  0.92836063920E+02  0.91432329697E+02 0.  0.
          5    1    3    3  502    0 -0.21662505226E+02  0.34007268318E+02 -0.11673162611E+02  0.42184043861E+02  0.41800000000E+01 0.  1.
         -5    1    3    3    0  502  0.12669439931E+02 -0.35462652737E+02  0.11259743960E+03  0.11880138994E+03  0.41800000000E+01 0.  1.
        -11    1    4    4    0    0  0.27199926390E+02 -0.19529534339E+02  0.41427802407E+02  0.53268203644E+02  0.00000000000E+00 0. -1.
         11    1    4    4    0    0 -0.18206861095E+02  0.20984918759E+02 -0.28173728198E+02  0.39567860276E+02  0.00000000000E+00 0.  1.
</event>
<event>
 8    1  0.6840032E-009  0.1288427E+03  0.7561462E-02  0.1229183E+00
         -2   -1    0    0    0  501 -0.00000000000E+00  0.00000000000E+00  0.33540998033E+03  0.33540998033E+03  0.00000000000E+00 0. -1.
          2   -1    0    0  501    0  0.00000000000E+00 -0.00000000000E+00 -0.68750529668E+02  0.68750529668E+02  0.00000000000E+00 0.  1.
         25    2    1    2    0    0 -0.90927739276E+02 -0.33216757320E+02  0.90096000528E+02  0.18204415240E+03  0.12510626434E+03 0.  0.
         23    2    1    2    0    0  0.90927739276E+02  0.33216757320E+02  0.17656345013E+03  0.22211635759E+03  0.93754027384E+02 0.  0.
          5    1    3    3  502    0 -0.97545073166E+02 -0.64701340387E+02  0.92877202553E+02  0.14948227955E+03  0.41800000000E+01 0. -1.
         -5    1    3    3    0  502  0.66173338896E+01  0.31484583068E+02 -0.27812020248E+01  0.32561872849E+02  0.41800000000E+01 0. -1.
        -11    1    4    4    0    0  0.51625636642E+02 -0.67462169410E+01  0.15245605181E+03  0.16110110346E+03  0.00000000000E+00 0. -1.
         11    1    4    4    0    0  0.39302102634E+02  0.39962974261E+02  0.24107398322E+02  0.61015254135E+02  0.00000000000E+00 0.  1.
</event>
<event>
 8    1  0.6840032E-009  0.1213291E+03  0.7561462E-02  0.1240920E+00
          1   -1    0    0  501    0  0.00000000000E+00  0.00000000000E+00  0.10236396332E+03  0.10236396332E+03  0.00000000000E+00 0. -1.
         -1   -1    0    0    0  501 -0.00000000000E+00 -0.00000000000E+00 -0.19107963664E+03  0.19107963664E+03  0.00000000000E+00 0.  1.
         25    2    1    2    0    0  0.48350890478E+02  0.68582269324E+02 -0.19688620660E+02  0.15191064869E+03  0.12509143507E+03 0.  0.
         23    2    1    2    0    0 -0.48350890478E+02 -0.68582269324E+02 -0.69027052662E+02  0.14153295128E+03  0.90694575484E+02 0.  0.
          5    1    3    3  502    0  0.57476458768E+02 -0.16001796801E+02 -0.28549846571E+02  0.66273425689E+02  0.41800000000E+01 0. -1.
         -5    1    3    3    0  502 -0.91255682896E+01  0.84584066125E+02  0.88612259119E+01  0.85637223002E+02  0.41800000000E+01 0. -1.
        -11    1    4    4    0    0 -0.52946549442E+02 -0.34306222716E+02  0.13656162885E+01  0.63104032539E+02  0.00000000000E+00 0. -1.
         11    1    4    4    0    0  0.45956589637E+01 -0.34276046608E+02 -0.70392668950E+02  0.78428918738E+02  0.00000000000E+00 0.  1.
</event>
<event>
 8    1  0.6840032E-009  0.2468051E+03  0.7561462E-02  0.1115341E+00
          2   -1    0    0  501    0  0.00000000000E+00  0.00000000000E+00  0.96881034419E+03  0.96881034419E+03  0.00000000000E+00 0. -1.
         -2   -1    0    0    0  501 -0.00000000000E+00 -0.00000000000E+00 -0.68049374725E+02  0.68049374725E+02  0.00000000000E+00 0.  1.
         25    2    1    2    0    0  0.20219062005E+03  0.11081510637E+03  0.40207795812E+03  0.48007842900E+03  0.12509028319E+03 0.  0.
         23    2    1    2    0    0 -0.20219062005E+03 -0.11081510637E+03  0.49868301135E+03  0.55678128992E+03  0.90330639100E+02 0.  0.
          5    1    3    3  502    0  0.48242809212E+02  0.91535011499E+02  0.12338588650E+03  0.16108251413E+03  0.41800000000E+01 0. -1.
         -5    1    3    3    0  502  0.15394781084E+03  0.19280094873E+02  0.27869207162E+03  0.31899591487E+03  0.41800000000E+01 0. -1.
        -11    1    4    4    0    0 -0.37078998270E+02 -0.41850481091E+02  0.55245517052E+02  0.78602684653E+02  0.00000000000E+00 0.  1.
         11    1    4    4    0    0 -0.16511162178E+03 -0.68964625281E+02  0.44343749429E+03  0.47817860526E+03  0.00000000000E+00 0. -1.
</event>
<event>
 8    1  0.6840032E-009  0.1342329E+03  0.7561462E-02  0.1221307E+00
          2   -1    0    0  501    0  0.00000000000E+00  0.00000000000E+00  0.78010131816E+02  0.78010131816E+02  0.00000000000E+00 0.  1.
         -2   -1    0    0    0  501 -0.00000000000E+00 -0.00000000000E+00 -0.28932147546E+03  0.28932147546E+03  0.00000000000E+00 0. -1.
         25    2    1    2    0    0 -0.82376021039E+02 -0.27695982705E+02 -0.46145823503E+02  0.15915416080E+03  0.12509090123E+03 0.  0.
         23    2    1    2    0    0  0.82376021039E+02  0.27695982705E+02 -0.16516552014E+03  0.20817744648E+03  0.92224312843E+02 0.  0.
          5    1    3    3  502    0 -0.53090581561E+02 -0.77200716583E+02 -0.36717924600E+02  0.10071861237E+03  0.41800000000E+01 0. -1.
         -5    1    3    3    0  502 -0.29285439479E+02  0.49504733878E+02 -0.94278989029E+01  0.58435548423E+02  0.41800000000E+01 0. -1.
        -11    1    4    4    0    0  0.41288378816E+02 -0.26453166416E+02 -0.31672076548E+02  0.58374829092E+02  0.00000000000E+00 0.  1.
         11    1    4    4    0    0  0.41087642223E+02  0.54149149121E+02 -0.13349344359E+03  0.14980261739E+03  0.00000000000E+00 0. -1.
</event>
<event>
 8    1  0.6840032E-009  0.8936500E+02  0.7561462E-02  0.1304397E+00
          2   -1    0    0  501    0  0.00000000000E+00  0.00000000000E+00  0.30691406009E+03  0.30691406009E+03  0.00000000000E+00 0. -1.
         -2   -1    0    0    0  501 -0.00000000000E+00 -0.00000000000E+00 -0.42910539675E+02  0.42910539675E+02  0.00000000000E+00 0.  1.
         25    2    1    2    0    0 -0.49143455144E+01 -0.31589956165E+02  0.20069170166E+03  0.23863454077E+03  0.12508880370E+03 0.  0.
         23    2    1    2    0    0  0.49143455144E+01  0.31589956165E+02  0.63311818751E+02  0.11119005899E+03  0.85631575381E+02 0.  0.
          5    1    3    3  502    0 -0.58758269185E+02 -0.24355084387E+02  0.15474631843E+03  0.16736068774E+03  0.41800000000E+01 0.  1.
         -5    1    3    3    0  502  0.53843923671E+02 -0.72348717787E+01  0.45945383235E+02  0.71273853036E+02  0.41800000000E+01 0.  1.
        -11    1    4    4    0    0  0.28223089701E+02  0.18799115387E+02 -0.82062806404E+01  0.34889720170E+02  0.00000000000E+00 0.  1.
         11    1    4    4    0    0 -0.23308744187E+02  0.12790840779E+02  0.71518099391E+02  0.76300338819E+02  0.00000000000E+00 0. -1.
</event>
<event>
 8    1  0.6840032E-009  0.1068667E+03  0.7561462E-02  0.1266485E+00
         -1   -1    0    0    0  501 -0.00000000000E+00  0.00000000000E+00  0.54495987064E+02  0.54495987064E+02  0.00000000000E+00 0.  1.
          1   -1    0    0  501    0  0.00000000000E+00 -0.00000000000E+00 -0.22193107417E+03  0.22193107417E+03  0.00000000000E+00 0. -1.
         25    2    1    2    0    0 -0.12926290965E+02 -0.58274866708E+01 -0.12533529177E+03  0.17764793608E+03  0.12509518469E+03 0.  0.
         23    2    1    2    0    0  0.12926290965E+02  0.58274866708E+01 -0.42099795339E+02  0.98779125156E+02  0.88226267064E+02 0.  0.
          5    1    3    3  502    0  0.50830067354E+02  0.22265168292E+02 -0.63106167051E+02  0.84138541621E+02  0.41800000000E+01 0. -1.
         -5    1    3    3    0  502 -0.63756358319E+02 -0.28092654963E+02 -0.62229124720E+02  0.93509394461E+02  0.41800000000E+01 0. -1.
        -11    1    4    4    0    0 -0.17987164231E+01  0.45724313848E+02 -0.14182364392E+02  0.47907073772E+02  0.00000000000E+00 0. -1.
         11    1    4    4    0    0  0.14725007388E+02 -0.39896827177E+02 -0.27917430946E+02  0.50872051384E+02  0.00000000000E+00 0.  1.
</event>
<event>
 8    1  0.6840032E-009  0.1551945E+03  0.7561462E-02  0.1194232E+00
          4   -1    0    0  501    0  0.00000000000E+00  0.00000000000E+00  0.12485010464E+03  0.12485010464E+03  0.00000000000E+00 0. -1.
         -4   -1    0    0    0  501 -0.00000000000E+00 -0.00000000000E+00 -0.27092662979E+03  0.27092662979E+03  0.00000000000E+00 0.  1.
         25    2    1    2    0    0 -0.51780524125E+02 -0.12470109562E+03 -0.11611788560E+02  0.18442944832E+03  0.12509117414E+03 0.  0.
         23    2    1    2    0    0  0.51780524125E+02  0.12470109562E+03 -0.13446473659E+03  0.21134728610E+03  0.91407461546E+02 0.  0.
          5    1    3    3  502    0 -0.34472769837E+02 -0.14385142686E+03 -0.31839700252E+02  0.15136989061E+03  0.41800000000E+01 0. -1.
         -5    1    3    3    0  502 -0.17307754288E+02  0.19150331239E+02  0.20227911691E+02  0.33059557717E+02  0.41800000000E+01 0. -1.
        -11    1    4    4    0    0  0.16387074312E+02  0.63282933991E+02 -0.73221719359E+01  0.65779025083E+02  0.00000000000E+00 0.  1.
         11    1    4    4    0    0  0.35393449813E+02  0.61418161632E+02 -0.12714256465E+03  0.14556826101E+03  0.00000000000E+00 0. -1.
</event>
<event>
 8    1  0.6840032E-009  0.9635754E+02  0.7561462E-02  0.1288148E+00
         -2   -1    0    0    0  501 -0.00000000000E+00  0.00000000000E+00  0.16706139339E+02  0.16706139339E+02  0.00000000000E+00 0.  1.
          2   -1    0    0  501    0  0.00000000000E+00 -0.00000000000E+00 -0.86084263724E+03  0.86084263724E+03  0.00000000000E+00 0. -1.
         25    2    1    2    0    0 -0.33132190848E+02  0.16785770728E+02 -0.34552368325E+03  0.36934137794E+03  0.12508770363E+03 0.  0.
         23    2    1    2    0    0  0.33132190848E+02 -0.16785770728E+02 -0.49861281465E+03  0.50820739864E+03  0.90997345735E+02 0.  0.
          5    1    3    3  502    0 -0.62985870404E+02  0.22192722790E+02 -0.32650462346E+03  0.33329038144E+03  0.41800000000E+01 0.  1.
         -5    1    3    3    0  502  0.29853679556E+02 -0.54069520624E+01 -0.19019059793E+02  0.36050996506E+02  0.41800000000E+01 0.  1.
        -11    1    4    4    0    0 -0.21094201561E+02  0.20463845909E+02 -0.10100889279E+03  0.10519757959E+03  0.00000000000E+00 0.  1.
         11    1    4    4    0    0  0.54226392409E+02 -0.37249616637E+02 -0.39760392186E+03  0.40300981905E+03  0.00000000000E+00 0. -1.
</event>
<event>
 8    1  0.6840032E-009  0.8011816E+02  0.7561462E-02  0.1328716E+00
         -1   -1    0    0    0  501 -0.00000000000E+00  0.00000000000E+00  0.69706685847E+03  0.69706685847E+03  0.00000000000E+00 0.  1.
          1   -1    0    0  501    0  0.00000000000E+00 -0.00000000000E+00 -0.31857948213E+02  0.31857948213E+02  0.00000000000E+00 0. -1.
         25    2    1    2    0    0 -0.60019119549E+01  0.19897097152E+02  0.61455241037E+03  0.62749843127E+03  0.12509076195E+03 0.  0.
         23    2    1    2    0    0  0.60019119549E+01 -0.19897097152E+02  0.50656499885E+02  0.10142637542E+03  0.85377463229E+02 0.  0.
          5    1    3    3  502    0  0.39526765707E+02  0.40695349164E+01  0.68456292006E+02  0.79263248968E+02  0.41800000000E+01 0. -1.
         -5    1    3    3    0  502 -0.45528677662E+02  0.15827562236E+02  0.54609611837E+03  0.54823518230E+03  0.41800000000E+01 0. -1.
        -11    1    4    4    0    0  0.32006197187E+02 -0.30127065099E+02  0.43858122456E+00  0.43957127560E+02  0.00000000000E+00 0.  1.
         11    1    4    4    0    0 -0.26004285232E+02  0.10229967947E+02  0.50217918660E+02  0.57469247856E+02  0.00000000000E+00 0. -1.
</event>
<event>
 8    1  0.6840032E-009  0.1195154E+03  0.7561462E-02  0.1243899E+00
          1   -1    0    0  501    0  0.00000000000E+00  0.00000000000E+00  0.43605501087E+03  0.43605501087E+03  0.00000000000E+00 0. -1.
         -1   -1    0    0    0  501 -0.00000000000E+00 -0.00000000000E+00 -0.44735243411E+02  0.44735243411E+02  0.00000000000E+00 0.  1.
         25    2    1    2    0    0  0.12268407897E+02 -0.72297945950E+02  0.29590984076E+03  0.32952631614E+03  0.12508977718E+03 0.  0.
         23    2    1    2    0    0 -0.12268407897E+02  0.72297945950E+02  0.95409926703E+02  0.15126393814E+03  0.91652703431E+02 0.  0.
          5    1    3    3  502    0  0.53034215197E+02  0.70236469082E+01  0.85311792371E+02  0.10078459165E+03  0.41800000000E+01 0.  1.
         -5    1    3    3    0  502 -0.40765807301E+02 -0.79321592858E+02  0.21059804839E+03  0.22874172449E+03  0.41800000000E+01 0.  1.
        -11    1    4    4    0    0 -0.36099935047E+02  0.27627260533E+02  0.25885302076E+01  0.45532091140E+02  0.00000000000E+00 0.  1.
         11    1    4    4    0    0  0.23831527151E+02  0.44670685417E+02  0.92821396495E+02  0.10573184700E+03  0.00000000000E+00 0. -1.
</event>
<event>
 8    1  0.6840032E-009  0.1292245E+03  0.7561462E-02  0.1228611E+00
         -1   -1    0    0    0  501 -0.00000000000E+00  0.00000000000E+00  0.58466239758E+02  0.58466239758E+02  0.00000000000E+00 0.  1.
          1   -1    0    0  501    0  0.00000000000E+00 -0.00000000000E+00 -0.38579554972E+03  0.38579554972E+03  0.00000000000E+00 0. -1.
         25    2    1    2    0    0  0.51264274600E+02  0.79298392080E+02 -0.11744220805E+03  0.19584806149E+03  0.12509008801E+03 0.  0.
         23    2    1    2    0    0 -0.51264274600E+02 -0.79298392080E+02 -0.20988710191E+03  0.24841372799E+03  0.93490768900E+02 0.  0.
          5    1    3    3  502    0  0.41772508448E+02  0.98873011042E+02 -0.38902448034E+02  0.11424398294E+03  0.41800000000E+01 0.  1.
         -5    1    3    3    0  502  0.94917661517E+01 -0.19574618961E+02 -0.78539760018E+02  0.81604078549E+02  0.41800000000E+01 0.  1.
        -11    1    4    4    0    0 -0.57273154819E+02 -0.85862912334E+01 -0.12503928463E+03  0.13779971466E+03  0.00000000000E+00 0. -1.
         11    1    4    4    0    0  0.60088802192E+01 -0.70712100847E+02 -0.84847817281E+02  0.11061401333E+03  0.00000000000E+00 0.  1.
</event>
<event>
 8    1  0.6840032E-009  0.9132193E+02  0.7561462E-02  0.1299682E+00
          4   -1    0    0  501    0  0.00000000000E+00  0.00000000000E+00  0.30264746014E+03  0.30264746014E+03  0.00000000000E+00 0.  1.
         -4   -1    0    0    0  501 -0.00000000000E+00 -0.00000000000E+00 -0.83498199884E+02  0.83498199884E+02  0.00000000000E+00 0. -1.
         25    2    1    2    0    0 -0.78969478984E+02 -0.26892080562E+02  0.22019282029E+03  0.26663004832E+03  0.12508933588E+03 0.  0.
         23    2    1    2    0    0  0.78969478984E+02  0.26892080562E+02 -0.10435600383E+01  0.11951561170E+03  0.85577624503E+02 0.  0.
          5    1    3    3  502    0 -0.66177427611E+02 -0.32471001933E+02  0.23471879515E+03  0.24605731667E+03  0.41800000000E+01 0. -1.
         -5    1    3    3    0  502 -0.12792051372E+02  0.55789213710E+01 -0.14525974855E+02  0.20572731648E+02  0.41800000000E+01 0. -1.
        -11    1    4    4    0    0  0.19875837624E+02  0.28946584453E+02  0.35559088370E+02  0.49974017634E+02  0.00000000000E+00 0. -1.
         11    1    4    4    0    0  0.59093641360E+02 -0.20545038908E+01 -0.36602648408E+02  0.69541594071E+02  0.00000000000E+00 0.  1.
</event>
<event>
 8    1  0.6840032E-009  0.9574941E+02  0.7561462E-02  0.1289497E+00
         -2   -1    0    0    0  501 -0.00000000000E+00  0.00000000000E+00  0.42589520199E+02  0.42589520199E+02  0.00000000000E+00 0. -1.
          2   -1    0    0  501    0  0.00000000000E+00 -0.00000000000E+00 -0.35513130069E+03  0.35513130069E+03  0.00000000000E+00 0.  1.
         25    2    1    2    0    0 -0.71438597587E+01  0.51507867603E+02 -0.13077247724E+03  0.18830139720E+03  0.12510747470E+03 0.  0.
         23    2    1    2    0    0  0.71438597587E+01 -0.51507867603E+02 -0.18176930325E+03  0.20941942369E+03  0.90068419863E+02 0.  0.
          5    1    3    3  502    0 -0.47234251495E+02  0.62983868545E+02 -0.12235480514E+03  0.14555484516E+03  0.41800000000E+01 0. -1.
         -5    1    3    3    0  502  0.40090391737E+02 -0.11476000941E+02 -0.84176721044E+01  0.42746552035E+02  0.41800000000E+01 0. -1.
        -11    1    4    4    0    0  0.27822409946E+02 -0.29177445946E+02 -0.20359564644E+02  0.45165492576E+02  0.00000000000E+00 0. -1.
         11    1    4    4    0    0 -0.20678550187E+02 -0.22330421657E+02 -0.16140973860E+03  0.16425393111E+03  0.00000000000E+00 0.  1.
</event>
<event>
 7    1  0.6840032E-009  0.9245544E+02  0.7561462E-02  0.1297012E+00
         -2   -1    0    0    0  501 -0.00000000000E+00  0.00000000000E+00  0.33778506302E+02  0.33778506302E+02  0.00000000000E+00 0.  1.
          2   -1    0    0  501    0  0.00000000000E+00 -0.00000000000E+00 -0.44174728152E+03  0.44174728152E+03  0.00000000000E+00 0. -1.
         23    2    1    2    0    0  0.59315645576E+01  0.40491835778E+02 -0.10891795633E+03  0.14876326429E+03  0.92696361137E+02 0.  0.
          5    1    1    2  502    0  0.24098122592E+02  0.34510291972E+02 -0.16371395521E+03  0.16908995031E+03  0.41800000000E+01 0.  1.
         -5    1    1    2    0  502 -0.30029687149E+02 -0.75002127751E+02 -0.13533686367E+03  0.15767257322E+03  0.41800000000E+01 0.  1.
        -11    1    3    3    0    0  0.26242609417E+02  0.23700941645E+02  0.13530905204E+01  0.35387003799E+02  0.00000000000E+00 0.  1.
         11    1    3    3    0    0 -0.20311044860E+02  0.16790894134E+02 -0.11027104685E+03  0.11337626049E+03  0.00000000000E+00 0. -1.
</event>
<event>
 8    1  0.6840032E-009  0.1155310E+03  0.7561462E-02  0.1250657E+00
          3   -1    0    0  501    0  0.00000000000E+00  0.00000000000E+00  0.15778278340E+03  0.15778278340E+03  0.00000000000E+00 0. -1.
         -3   -1    0    0    0  501 -0.00000000000E+00 -0.00000000000E+00 -0.10526816512E+03  0.10526816512E+03  0.00000000000E+00 0.  1.
         25    2    1    2    0    0  0.46949442936E+02  0.48020601450E+02  0.44613678754E+02  0.14882374285E+03  0.12509155746E+03 0.  0.
         23    2    1    2    0    0 -0.46949442936E+02 -0.48020601450E+02  0.79009395306E+01  0.11422720568E+03  0.92060856588E+02 0.  0.
          5    1    3    3  502    0  0.54255087383E+02 -0.24358940801E+02  0.47000039700E+02  0.75917380327E+02  0.41800000000E+01 0. -1.
         -5    1    3    3    0  502 -0.73056444471E+01  0.72379542250E+02 -0.23863609465E+01  0.72906362519E+02  0.41800000000E+01 0. -1.
        -11    1    4    4    0    0  0.10659844829E+02 -0.38794207266E+02  0.31696227779E+02  0.51217903751E+02  0.00000000000E+00 0. -1.
         11    1    4    4    0    0 -0.57609287766E+02 -0.92263941833E+01 -0.23795288248E+02  0.63009301927E+02  0.00000000000E+00 0.  1.
</event>
<event>
 8    1  0.6840032E-009  0.2369289E+03  0.7561462E-02  0.1121856E+00
         -2   -1    0    0    0  501 -0.00000000000E+00  0.00000000000E+00  0.10339338977E+03  0.10339338977E+03  0.00000000000E+00 0.  1.
          2   -1    0    0  501    0  0.00000000000E+00 -0.00000000000E+00 -0.89754794276E+03  0.89754794276E+03  0.00000000000E+00 0. -1.
         25    2    1    2    0    0 -0.21036422931E+03  0.10641977671E+02 -0.71853460721E+03  0.75914768933E+03  0.12508745657E+03 0.  0.
         23    2    1    2    0    0  0.21036422931E+03 -0.10641977671E+02 -0.75619945774E+02  0.24179364320E+03  0.91539221276E+02 0.  0.
          5    1    3    3  502    0 -0.65411452746E+02  0.62891015109E+02 -0.26644210907E+03  0.28150099080E+03  0.41800000000E+01 0. -1.
         -5    1    3    3    0  502 -0.14495277656E+03 -0.52249037439E+02 -0.45209249814E+03  0.47764669853E+03  0.41800000000E+01 0. -1.
        -11    1    4    4    0    0  0.20024438481E+03  0.15505952343E+02 -0.72731198810E+02  0.21360729268E+03  0.00000000000E+00 0.  1.
         11    1    4    4    0    0  0.10119844501E+02 -0.26147930013E+02 -0.28887469642E+01  0.28186350522E+02  0.00000000000E+00 0. -1.
</event>
<event>
 8    1  0.6840032E-009  0.1392003E+03  0.7561462E-02  0.1214409E+00
         -1   -1    0    0    0  501 -0.00000000000E+00  0.00000000000E+00  0.93030953620E+02  0.93030953620E+02  0.00000000000E+00 0.  1.
          1   -1    0    0  501    0  0.00000000000E+00 -0.00000000000E+00 -0.24506633737E+03  0.24506633737E+03  0.00000000000E+00 0. -1.
         25    2    1    2    0    0 -0.25321786031E+02  0.97043737649E+02 -0.11594062924E+03  0.19787096806E+03  0.12510799586E+03 0.  0.
         23    2    1    2    0    0  0.25321786031E+02 -0.97043737649E+02 -0.36094754515E+02  0.14022632293E+03  0.91114820282E+02 0.  0.
          5    1    3    3  502    0 -0.75656208031E+02  0.50384409753E+02 -0.74377045373E+02  0.11752390326E+03  0.41800000000E+01 0. -1.
         -5    1    3    3    0  502  0.50334422001E+02  0.46659327896E+02 -0.41563583863E+02  0.80347064796E+02  0.41800000000E+01 0. -1.
        -11    1    4    4    0    0  0.11467653800E+02 -0.10294848053E+03 -0.27311352672E+01  0.10362121321E+03  0.00000000000E+00 0.  1.
         11    1    4    4    0    0  0.13854132231E+02  0.59047428832E+01 -0.33363619248E+02  0.36605109721E+02  0.00000000000E+00 0. -1.
</event>
<event>
 8    1  0.6840032E-009  0.2006333E+03  0.7561462E-02  0.1149206E+00
          2   -1    0    0  501    0  0.00000000000E+00  0.00000000000E+00  0.69590702453E+03  0.69590702453E+03  0.00000000000E+00 0. -1.
         -2   -1    0    0    0  501 -0.00000000000E+00 -0.00000000000E+00 -0.66247489451E+02  0.66247489451E+02  0.00000000000E+00 0.  1.
         25    2    1    2    0    0  0.83826171068E+02 -0.15543325870E+03  0.23178415984E+03  0.31710983165E+03  0.12509365977E+03 0.  0.
         23    2    1    2    0    0 -0.83826171068E+02  0.15543325870E+03  0.39787537524E+03  0.44504468233E+03  0.92593899248E+02 0.  0.
          5    1    3    3  502    0  0.18615266805E+02 -0.14929085529E+03  0.15392631404E+03  0.21527905189E+03  0.41800000000E+01 0. -1.
         -5    1    3    3    0  502  0.65210904263E+02 -0.61424034118E+01  0.77857845797E+02  0.10183077976E+03  0.41800000000E+01 0. -1.
        -11    1    4    4    0    0 -0.35318920121E+02  0.11991490778E+03  0.18087485716E+03  0.21986979142E+03  0.00000000000E+00 0. -1.
         11    1    4    4    0    0 -0.48507250947E+02  0.35518350916E+02  0.21700051809E+03  0.22517489091E+03  0.00000000000E+00 0.  1.
</event>
<event>
 8    1  0.6840032E-009  0.1079722E+03  0.7561462E-02  0.1264372E+00
         -2   -1    0    0    0  501 -0.00000000000E+00  0.00000000000E+00  0.20408656953E+02  0.20408656953E+02  0.00000000000E+00 0. -1.
          2   -1    0    0  501    0  0.00000000000E+00 -0.00000000000E+00 -0.67278734251E+03  0.67278734251E+03  0.00000000000E+00 0.  1.
         25    2    1    2    0    0 -0.29606288685E+02 -0.13599808139E+02 -0.30245499988E+03  0.32891921025E+03  0.12508929935E+03 0.  0.
         23    2    1    2    0    0  0.29606288685E+02  0.13599808139E+02 -0.34992368568E+03  0.36427678921E+03  0.95861912377E+02 0.  0.
          5    1    3    3  502    0 -0.60945957640E+02 -0.40525445027E+02 -0.25743812270E+03  0.26767252542E+03  0.41800000000E+01 0. -1.
         -5    1    3    3    0  502  0.31339668955E+02  0.26925636888E+02 -0.45016877178E+02  0.61246684832E+02  0.41800000000E+01 0. -1.
        -11    1    4    4    0    0  0.41104479754E+02 -0.33248501047E+02 -0.19252726933E+03  0.19965417730E+03  0.00000000000E+00 0.  1.
         11    1    4    4    0    0 -0.11498191069E+02  0.46848309186E+02 -0.15739641635E+03  0.16462261191E+03  0.00000000000E+00 0. -1.
</event>
<event>
 8    1  0.6840032E-009  0.1303418E+03  0.7561462E-02  0.1226949E+00
          3   -1    0    0  501    0  0.00000000000E+00  0.00000000000E+00  0.95473574592E+03  0.95473574592E+03  0.00000000000E+00 0. -1.
         -3   -1    0    0    0  501 -0.00000000000E+00 -0.00000000000E+00 -0.29229988365E+02  0.29229988365E+02  0.00000000000E+00 0.  1.
         25    2    1    2    0    0 -0.55283003694E+02  0.56168944374E+02  0.78353843015E+03  0.79736561124E+03  0.12509310792E+03 0.  0.
         23    2    1    2    0    0  0.55283003694E+02 -0.56168944374E+02  0.14196732740E+03  0.18660012304E+03  0.91944130110E+02 0.  0.
          5    1    3    3  502    0  0.24300864158E+02  0.55499437957E+02  0.46774122176E+03  0.47166730069E+03  0.41800000000E+01 0. -1.
         -5    1    3    3    0  502 -0.79583867852E+02  0.66950641684E+00  0.31579720840E+03  0.32569831055E+03  0.41800000000E+01 0. -1.
        -11    1    4    4    0    0  0.36728622120E+02  0.20027267781E+02  0.39216490105E+02  0.57341226302E+02  0.00000000000E+00 0. -1.
         11    1    4    4    0    0  0.18554381573E+02 -0.76196212155E+02  0.10275083729E+03  0.12925889674E+03  0.00000000000E+00 0.  1.
</event>
<event>
 8    1  0.6840032E-009  0.1433164E+03  0.7561462E-02  0.1208935E+00
         -1   -1    0    0    0  501 -0.00000000000E+00  0.00000000000E+00  0.14293403360E+03  0.14293403360E+03  0.00000000000E+00 0.  1.
          1   -1    0    0  501    0  0.00000000000E+00 -0.00000000000E+00 -0.19541117921E+03  0.19541117921E+03  0.00000000000E+00 0. -1.
         25    2    1    2    0    0  0.12493598715E+03  0.18000322637E+02 -0.44895241428E+02  0.18329156010E+03  0.12508877168E+03 0.  0.
         23    2    1    2    0    0 -0.12493598715E+03 -0.18000322637E+02 -0.75819041783E+01  0.15505365271E+03  0.89728130756E+02 0.  0.
          5    1    3    3  502    0  0.88472694515E+02  0.30579435933E+02 -0.85702767728E+02  0.12698407921E+03  0.41800000000E+01 0. -1.
         -5    1    3    3    0  502  0.36463292635E+02 -0.12579113296E+02  0.40807526300E+02  0.56307480887E+02  0.41800000000E+01 0. -1.
        -11    1    4    4    0    0 -0.27998854855E+02  0.34068116966E+02 -0.90099303775E+01  0.45008347140E+02  0.00000000000E+00 0.  1.
         11    1    4    4    0    0 -0.96937132294E+02 -0.52068439604E+02  0.14280261991E+01  0.11004530557E+03  0.00000000000E+00 0. -1.
</event>
<event>
 8    1  0.6840032E-009  0.1135505E+03  0.7561462E-02  0.1254133E+00
         -1   -1    0    0    0  501 -0.00000000000E+00  0.00000000000E+00  0.18450576353E+03  0.18450576353E+03  0.00000000000E+00 0.  1.
          1   -1    0    0  501    0  0.00000000000E+00 -0.00000000000E+00 -0.14642856160E+03  0.14642856160E+03  0.00000000000E+00 0. -1.
         25    2    1    2    0    0  0.10900223925E+03 -0.14910559519E+02 -0.35413859386E+02  0.17030757906E+03  0.12508683825E+03 0.  0.
         23    2    1    2    0    0 -0.10900223925E+03  0.14910559519E+02  0.73491061320E+02  0.16062674606E+03  0.91083491974E+02 0.  0.
          5    1    3    3  502    0  0.10192734108E+03 -0.94051294235E+01  0.27939094491E+02  0.10618712126E+03  0.41800000000E+01 0. -1.
         -5    1    3    3    0  502  0.70748981638E+01 -0.55054300955E+01 -0.63352953877E+02  0.64120457808E+02  0.41800000000E+01 0. -1.
        -11    1    4    4    0    0 -0.10646158660E+02 -0.85435108634E+01  0.56462380768E+02  0.58089006826E+02  0.00000000000E+00 0.  1.
         11    1    4    4    0    0 -0.98356080588E+02  0.23454070382E+02  0.17028680552E+02  0.10253773924E+03  0.00000000000E+00 0. -1.
</event>
<event>
 8    1  0.6840032E-009  0.2638388E+03  0.7561462E-02  0.1104858E+00
          1   -1    0    0  501    0  0.00000000000E+00  0.00000000000E+00  0.18266842844E+04  0.18266842844E+04  0.00000000000E+00 0. -1.
         -1   -1    0    0    0  501 -0.00000000000E+00 -0.00000000000E+00 -0.40204579218E+02  0.40204579218E+02  0.00000000000E+00 0.  1.
         25    2    1    2    0    0  0.22256058719E+03  0.95414950963E+02  0.73700517124E+03  0.78578791721E+03  0.12509516602E+03 0.  0.
         23    2    1    2    0    0 -0.22256058719E+03 -0.95414950963E+02  0.10494745339E+04  0.10811009464E+04  0.93515940311E+02 0.  0.
          5    1    3    3  502    0  0.11090948718E+03  0.11353063401E+03  0.40436473699E+03  0.43441734787E+03  0.41800000000E+01 0. -1.
         -5    1    3    3    0  502  0.11165110000E+03 -0.18115683043E+02  0.33264043425E+03  0.35137056934E+03  0.41800000000E+01 0. -1.
        -11    1    4    4    0    0 -0.13849916158E+03 -0.10108955662E+03  0.61093208421E+03  0.63453851556E+03  0.00000000000E+00 0.  1.
         11    1    4    4    0    0 -0.84061425609E+02  0.56746056552E+01  0.43854244970E+03  0.44656243082E+03  0.00000000000E+00 0. -1.
</event>
<event>
 8    1  0.6840032E-009  0.8147114E+02  0.7561462E-02  0.1324928E+00
          1   -1    0    0  501    0  0.00000000000E+00  0.00000000000E+00  0.19160953968E+03  0.19160953968E+03  0.00000000000E+00 0. -1.
         -1   -1    0    0    0  501 -0.00000000000E+00 -0.00000000000E+00 -0.81582347165E+02  0.81582347165E+02  0.00000000000E+00 0.  1.
         25    2    1    2    0    0  0.21166673635E+02  0.58052021655E+02  0.51856976565E+02  0.14884350696E+03  0.12508868157E+03 0.  0.
         23    2    1    2    0    0 -0.21166673635E+02 -0.58052021655E+02  0.58170215950E+02  0.12434837988E+03  0.90888284529E+02 0.  0.
          5    1    3    3  502    0  0.17689211766E+02 -0.71185239021E+01  0.76504764678E+02  0.78955892838E+02  0.41800000000E+01 0.  1.
         -5    1    3    3    0  502  0.34774618690E+01  0.65170545557E+02 -0.24647788113E+02  0.69887614126E+02  0.41800000000E+01 0.  1.
        -11    1    4    4    0    0 -0.35919684272E+02 -0.48859271073E+02 -0.30396714528E+01  0.60718133128E+02  0.00000000000E+00 0.  1.
         11    1    4    4    0    0  0.14753010637E+02 -0.91927505817E+01  0.61209887403E+02  0.63630246754E+02  0.00000000000E+00 0. -1.
</event>
<event>
 8    1  0.6840032E-009  0.3226956E+03  0.7561462E-02  0.1074415E+00
          2   -1    0    0  501    0  0.00000000000E+00  0.00000000000E+00  0.93743092206E+03  0.93743092206E+03  0.00000000000E+00 0. -1.
         -2   -1    0    0    0  501 -0.00000000000E+00 -0.00000000000E+00 -0.13351337400E+03  0.13351337400E+03  0.00000000000E+00 0.  1.
         25    2    1    2    0    0  0.14889426172E+03 -0.26996249425E+03  0.61242254536E+03  0.69696349760E+03  0.12508994141E+03 0.  0.
         23    2    1    2    0    0 -0.14889426172E+03  0.26996249425E+03  0.19149500269E+03  0.37398079846E+03  0.90233320269E+02 0.  0.
          5    1    3    3  502    0  0.52965148512E+02 -0.21238486422E+03  0.36963821037E+03  0.42960739807E+03  0.41800000000E+01 0. -1.
         -5    1    3    3    0  502  0.95929113207E+02 -0.57577630029E+02  0.24278433499E+03  0.26735609953E+03  0.41800000000E+01 0. -1.
        -11    1    4    4    0    0 -0.12472676779E+03  0.16525277215E+03  0.16101140501E+03  0.26227832135E+03  0.00000000000E+00 0. -1.
         11    1    4    4    0    0 -0.24167493927E+02  0.10470972210E+03  0.30483597685E+02  0.11170247711E+03  0.00000000000E+00 0.  1.
</event>
<event>
 8    1  0.6840032E-009  0.1040058E+03  0.7561462E-02  0.1272091E+00
         -1   -1    0    0    0  501 -0.00000000000E+00  0.00000000000E+00  0.15413649494E+03  0.15413649494E+03  0.00000000000E+00 0.  1.
          1   -1    0    0  501    0  0.00000000000E+00 -0.00000000000E+00 -0.99139941576E+02  0.99139941576E+02  0.00000000000E+00 0. -1.
         25    2    1    2    0    0 -0.46354977892E+02  0.51954363924E+01  0.63166095602E+02  0.14769941475E+03  0.12509750177E+03 0.  0.
         23    2    1    2    0    0  0.46354977892E+02 -0.51954363924E+01 -0.81695422365E+01  0.10557702176E+03  0.94360953628E+02 0.  0.
          5    1    3    3  502    0 -0.97030531684E+01 -0.42292441171E+02 -0.17596050176E+02  0.47009501197E+02  0.41800000000E+01 0. -1.
         -5    1    3    3    0  502 -0.36651924724E+02  0.47487877563E+02  0.80762145778E+02  0.10068991356E+03  0.41800000000E+01 0. -1.
        -11    1    4    4    0    0  0.66943346144E+02  0.21739227306E+02 -0.12206605983E+02  0.71435333179E+02  0.00000000000E+00 0.  1.
         11    1    4    4    0    0 -0.20588368252E+02 -0.26934663698E+02  0.40370637462E+01  0.34141688586E+02  0.00000000000E+00 0. -1.
</event>
<event>
 8    1  0.6840032E-009  0.1121943E+03  0.7561462E-02  0.1256559E+00
         -1   -1    0    0    0  501 -0.00000000000E+00  0.00000000000E+00  0.32821969719E+02  0.32821969719E+02  0.00000000000E+00 0.  1.
          1   -1    0    0  501    0  0.00000000000E+00 -0.00000000000E+00 -0.52249417482E+03  0.52249417482E+03  0.00000000000E+00 0. -1.
         25    2    1    2    0    0 -0.57489969771E+02  0.30410161786E+02 -0.34251726251E+03  0.37039799915E+03  0.12508688219E+03 0.  0.
         23    2    1    2    0    0  0.57489969771E+02 -0.30410161786E+02 -0.14715494259E+03  0.18491814539E+03  0.91160675732E+02 0.  0.
          5    1    3    3  502    0 -0.64337131358E+02  0.65640350471E+02 -0.16203953139E+03  0.18633894980E+03  0.41800000000E+01 0. -1.
         -5    1    3    3    0  502  0.68471615870E+01 -0.35230188686E+02 -0.18047773112E+03  0.18405904935E+03  0.41800000000E+01 0. -1.
        -11    1    4    4    0    0  0.39879915637E+02  0.18722292792E+02 -0.11611671256E+03  0.12419348958E+03  0.00000000000E+00 0. -1.
         11    1    4    4    0    0  0.17610054134E+02 -0.49132454578E+02 -0.31038230037E+02  0.60724655810E+02  0.00000000000E+00 0.  1.
</event>
<event>
 8    1  0.6840032E-009  0.1304913E+03  0.7561462E-02  0.1226728E+00
          2   -1    0    0  501    0  0.00000000000E+00  0.00000000000E+00  0.14313104738E+04  0.14313104738E+04  0.00000000000E+00 0. -1.
         -2   -1    0    0    0  501 -0.00000000000E+00 -0.00000000000E+00 -0.13761483617E+02  0.13761483617E+02  0.00000000000E+00 0.  1.
         25    2    1    2    0    0 -0.91106712335E+02  0.49340896900E+02  0.86828670138E+03  0.88334849798E+03  0.12509123052E+03 0.  0.
         23    2    1    2    0    0  0.91106712335E+02 -0.49340896900E+02  0.54926228880E+03  0.56172345944E+03  0.55760432578E+02 0.  0.
          5    1    3    3  502    0  0.19995773642E+02 -0.37329040280E+01  0.35019484109E+03  0.35081001221E+03  0.41800000000E+01 0.  1.
         -5    1    3    3    0  502 -0.11110248598E+03  0.53073800928E+02  0.51809186029E+03  0.53253848578E+03  0.41800000000E+01 0.  1.
        -11    1    4    4    0    0  0.40129150135E+02 -0.52337925377E+02  0.28007266984E+03  0.28773304905E+03  0.00000000000E+00 0. -1.
         11    1    4    4    0    0  0.50977562200E+02  0.29970284766E+01  0.26918961896E+03  0.27399041038E+03  0.00000000000E+00 0.  1.
</event>
<event>
 8    1  0.6840032E-009  0.1545559E+03  0.7561462E-02  0.1194984E+00
         -2   -1    0    0    0  501 -0.00000000000E+00  0.00000000000E+00  0.50441366261E+02  0.50441366261E+02  0.00000000000E+00 0.  1.
          2   -1    0    0  501    0  0.00000000000E+00 -0.00000000000E+00 -0.69639240129E+03  0.69639240129E+03  0.00000000000E+00 0. -1.
         25    2    1    2    0    0 -0.82573746625E+00 -0.13923954249E+03 -0.44724196603E+03  0.48483070201E+03  0.12508837436E+03 0.  0.
         23    2    1    2    0    0  0.82573746625E+00  0.13923954249E+03 -0.19870906900E+03  0.26200306554E+03  0.98853326774E+02 0.  0.
          5    1    3    3  502    0 -0.36913313629E+02 -0.54390342306E+02 -0.32527120240E+03  0.33187306243E+03  0.41800000000E+01 0. -1.
         -5    1    3    3    0  502  0.36087576163E+02 -0.84849200181E+02 -0.12197076363E+03  0.15295763958E+03  0.41800000000E+01 0. -1.
        -11    1    4    4    0    0  0.16123532305E+02  0.65915374286E+01 -0.84556414390E+02  0.86331940058E+02  0.00000000000E+00 0.  1.
         11    1    4    4    0    0 -0.15297794839E+02  0.13264800506E+03 -0.11415265461E+03  0.17567112548E+03  0.00000000000E+00 0. -1.
</event>
<event>
 8    1  0.6840032E-009  0.1170164E+03  0.7561462E-02  0.1248102E+00
          1   -1    0    0  501    0  0.00000000000E+00  0.00000000000E+00  0.32402261705E+02  0.32402261705E+02  0.00000000000E+00 0. -1.
         -1   -1    0    0    0  501 -0.00000000000E+00 -0.00000000000E+00 -0.54502941240E+03  0.54502941240E+03  0.00000000000E+00 0.  1.
         25    2    1    2    0    0  0.27829544647E+02 -0.48252368319E+02 -0.38783031298E+03  0.41129283895E+03  0.12508666237E+03 0.  0.
         23    2    1    2    0    0 -0.27829544647E+02  0.48252368319E+02 -0.12479683772E+03  0.16613883516E+03  0.94472679855E+02 0.  0.
          5    1    3    3  502    0 -0.42266215626E+02  0.41364606103E+01 -0.73583333238E+02  0.85061875244E+02  0.41800000000E+01 0.  1.
         -5    1    3    3    0  502  0.70095760273E+02 -0.52388828929E+02 -0.31424697974E+03  0.32623096371E+03  0.41800000000E+01 0.  1.
        -11    1    4    4    0    0 -0.44968447777E+01 -0.25758477674E+02 -0.10924272439E+02  0.28338322346E+02  0.00000000000E+00 0. -1.
         11    1    4    4    0    0 -0.23332699869E+02  0.74010845993E+02 -0.11387256528E+03  0.13780051281E+03  0.00000000000E+00 0.  1.
</event>
<event>
 8    1  0.6840032E-009  0.5825172E+02  0.7561462E-02  0.1405318E+00
         -2   -1    0    0    0  501 -0.00000000000E+00  0.00000000000E+00  0.37729690908E+02  0.37729690908E+02  0.00000000000E+00 0.  1.
          2   -1    0    0  501    0  0.00000000000E+00 -0.00000000000E+00 -0.33428003300E+03  0.33428003300E+03  0.00000000000E+00 0. -1.
         25    2    1    2    0    0  0.98431571357E+01 -0.27469391862E+02 -0.16462341716E+03  0.20880489798E+03  0.12508861144E+03 0.  0.
         23    2    1    2    0    0 -0.98431571357E+01  0.27469391862E+02 -0.13192692493E+03  0.16320482593E+03  0.91540408851E+02 0.  0.
          5    1    3    3  502    0  0.18982900580E+01 -0.12415169578E+02  0.19653970421E+02  0.23695799081E+02  0.41800000000E+01 0.  1.
         -5    1    3    3    0  502  0.79448670778E+01 -0.15054222284E+02 -0.18427738758E+03  0.18510909890E+03  0.41800000000E+01 0.  1.
        -11    1    4    4    0    0 -0.40449514618E+02 -0.54206672735E+01 -0.26649607904E+02  0.48741650238E+02  0.00000000000E+00 0.  1.
         11    1    4    4    0    0  0.30606357482E+02  0.32890059135E+02 -0.10527731703E+03  0.11446317569E+03  0.00000000000E+00 0. -1.
</event>
<event>
 8    1  0.6840032E-009  0.9600331E+02  0.7561462E-02  0.1288932E+00
         -2   -1    0    0    0  501 -0.00000000000E+00  0.00000000000E+00  0.30463619542E+02  0.30463619542E+02  0.00000000000E+00 0.  1.
          2   -1    0    0  501    0  0.00000000000E+00 -0.00000000000E+00 -0.92495063241E+03  0.92495063241E+03  0.00000000000E+00 0. -1.
         25    2    1    2    0    0  0.70174745344E+02  0.94227335613E+01 -0.77884203596E+03  0.79199411322E+03  0.12508587291E+03 0.  0.
         23    2    1    2    0    0 -0.70174745344E+02 -0.94227335613E+01 -0.11564497692E+03  0.16342013874E+03  0.91209090930E+02 0.  0.
          5    1    3    3  502    0  0.24217686975E+02 -0.29178071211E+02 -0.63410025152E+03  0.63524676904E+03  0.41800000000E+01 0. -1.
         -5    1    3    3    0  502  0.45957058370E+02  0.38600804772E+02 -0.14474178444E+03  0.15674734418E+03  0.41800000000E+01 0. -1.
        -11    1    4    4    0    0 -0.11337889033E+02 -0.29438949577E+02  0.65785491975E+00  0.31553640884E+02  0.00000000000E+00 0.  1.
         11    1    4    4    0    0 -0.58836856311E+02  0.20016216016E+02 -0.11630283183E+03  0.13186649786E+03  0.00000000000E+00 0. -1.
</event>
<event>
 8    1  0.6840032E-009  0.1051262E+03  0.7561462E-02  0.1269871E+00
          1   -1    0    0  501    0  0.00000000000E+00  0.00000000000E+00  0.39796399591E+03  0.39796399591E+03  0.00000000000E+00 0. -1.
         -1   -1    0    0    0  501 -0.00000000000E+00 -0.00000000000E+00 -0.30518727748E+02  0.30518727748E+02  0.00000000000E+00 0.  1.
         25    2    1    2    0    0 -0.12353364751E+01 -0.61774447151E+01  0.23541442307E+03  0.26665827093E+03  0.12508795300E+03 0.  0.
         23    2    1    2    0    0  0.12353364751E+01  0.61774447151E+01  0.13203084509E+03  0.16182445273E+03  0.93355891974E+02 0.  0.
          5    1    3    3  502    0 -0.15404346316E+02  0.54278863584E+02  0.15480523948E+03  0.16481997296E+03  0.41800000000E+01 0. -1.
         -5    1    3    3    0  502  0.14169009841E+02 -0.60456308299E+02  0.80609183592E+02  0.10183829796E+03  0.41800000000E+01 0. -1.
        -11    1    4    4    0    0 -0.23095521363E+02 -0.35986280656E+02  0.44810014269E+02  0.61938298986E+02  0.00000000000E+00 0.  1.
         11    1    4    4    0    0  0.24330857838E+02  0.42163725371E+02  0.87220830819E+02  0.99886153740E+02  0.00000000000E+00 0. -1.
</event>
<event>
 8    1  0.6840032E-009  0.9007423E+02  0.7561462E-02  0.1302672E+00
         -2   -1    0    0    0  501 -0.00000000000E+00  0.00000000000E+00  0.79986205227E+02  0.79986205227E+02  0.00000000000E+00 0.  1.
          2   -1    0    0  501    0  0.00000000000E+00 -0.00000000000E+00 -0.12405103401E+03  0.12405103401E+03  0.00000000000E+00 0. -1.
         25    2    1    2    0    0  0.27608121851E+02 -0.22403013295E+02 -0.27933155290E+02  0.13300976855E+03  0.12508890426E+03 0.  0.
         23    2    1    2    0    0 -0.27608121851E+02  0.22403013295E+02 -0.16131673495E+02  0.71027470688E+02  0.59334368672E+02 0.  0.
          5    1    3    3  502    0 -0.48065008086E+02 -0.38048773211E+01  0.42806301970E+01  0.48585165314E+02  0.41800000000E+01 0. -1.
         -5    1    3    3    0  502  0.75673129937E+02 -0.18598135974E+02 -0.32213785487E+02  0.84424603236E+02  0.41800000000E+01 0. -1.
        -11    1    4    4    0    0 -0.23222709082E+02 -0.67896735389E+01 -0.29892730917E+02  0.38457369197E+02  0.00000000000E+00 0. -1.
         11    1    4    4    0    0 -0.43854127691E+01  0.29192686834E+02  0.13761057422E+02  0.32570101491E+02  0.00000000000E+00 0.  1.
</event>
<event>
 8    1  0.6840032E-009  0.1028739E+03  0.7561462E-02  0.1274366E+00
          1   -1    0    0  501    0  0.00000000000E+00  0.00000000000E+00  0.51689154094E+02  0.51689154094E+02  0.00000000000E+00 0. -1.
         -1   -1    0    0    0  501 -0.00000000000E+00 -0.00000000000E+00 -0.22747445810E+03  0.22747445810E+03  0.00000000000E+00 0.  1.
         25    2    1    2    0    0  0.11922909950E+02  0.12602684199E+02 -0.11641580082E+03  0.17176430625E+03  0.12509738122E+03 0.  0.
         23    2    1    2    0    0 -0.11922909950E+02 -0.12602684199E+02 -0.59369503182E+02  0.10739930595E+03  0.87800282340E+02 0.  0.
          5    1    3    3  502    0  0.22324240484E+00 -0.54156865290E+02 -0.73650162530E+02  0.91514123150E+02  0.41800000000E+01 0. -1.
         -5    1    3    3    0  502  0.11699667546E+02  0.66759549489E+02 -0.42765638293E+02  0.80250183098E+02  0.41800000000E+01 0. -1.
        -11    1    4    4    0    0  0.77724583207E+01  0.32971818203E+02 -0.43791220556E+02  0.55364455219E+02  0.00000000000E+00 0.  1.
         11    1    4    4    0    0 -0.19695368271E+02 -0.45574502403E+02 -0.15578282626E+02  0.52034850727E+02  0.00000000000E+00 0. -1.
</event>
<event>
 8    1  0.6840032E-009  0.2324548E+03  0.7561462E-02  0.1124924E+00
         -1   -1    0    0    0  501 -0.00000000000E+00  0.00000000000E+00  0.39195339475E+03  0.39195339475E+03  0.00000000000E+00 0.  1.
          1   -1    0    0  501    0  0.00000000000E+00 -0.00000000000E+00 -0.14552615412E+03  0.14552615412E+03  0.00000000000E+00 0. -1.
         25    2    1    2    0    0  0.12445422455E+02 -0.21228678034E+03  0.12860547814E+03  0.27822128267E+03  0.12508855854E+03 0.  0.
         23    2    1    2    0    0 -0.12445422455E+02  0.21228678034E+03  0.11782176249E+03  0.25925826621E+03  0.90068391975E+02 0.  0.
          5    1    3    3  502    0  0.55394202280E+02 -0.17024788380E+03  0.64738729970E+02  0.19042435543E+03  0.41800000000E+01 0. -1.
         -5    1    3    3    0  502 -0.42948779824E+02 -0.42038896540E+02  0.63866748165E+02  0.87796927235E+02  0.41800000000E+01 0. -1.
        -11    1    4    4    0    0  0.20457889440E+02  0.17358165472E+03  0.11321991182E+03  0.20824952468E+03  0.00000000000E+00 0. -1.
         11    1    4    4    0    0 -0.32903311896E+02  0.38705125616E+02  0.46018506741E+01  0.51008741528E+02  0.00000000000E+00 0.  1.
</event>
<event>
 7    1  0.6840032E-009  0.1673987E+03  0.7561462E-02  0.1180588E+00
          1   -1    0    0  501    0  0.00000000000E+00  0.00000000000E+00  0.58196755329E+03  0.58196755329E+03  0.00000000000E+00 0. -1.
         -1   -1    0    0    0  501 -0.00000000000E+00 -0.00000000000E+00 -0.60150395715E+02  0.60150395715E+02  0.00000000000E+00 0.  1.
         23    2    1    2    0    0  0.12130907898E+03  0.49147324175E+02  0.11647698452E+03  0.19807895642E+03  0.92396065591E+02 0.  0.
          5    1    1    2  502    0 -0.10026758809E+03 -0.88641682402E+02  0.26900273702E+03  0.30048441225E+03  0.41800000000E+01 0. -1.
         -5    1    1    2    0  502 -0.21041490893E+02  0.39494358227E+02  0.13633743604E+03  0.14355458034E+03  0.41800000000E+01 0. -1.
        -11    1    3    3    0    0  0.60933479528E+02  0.69325072624E+02  0.46056769358E+02  0.10315076648E+03  0.00000000000E+00 0.  1.
         11    1    3    3    0    0  0.60375599453E+02 -0.20177748449E+02  0.70420215162E+02  0.94928189940E+02  0.00000000000E+00 0. -1.
</event>
<event>
 8    1  0.6840032E-009  0.9461362E+02  0.7561462E-02  0.1292049E+00
         -3   -1    0    0    0  501 -0.00000000000E+00  0.00000000000E+00  0.27216286134E+03  0.27216286134E+03  0.00000000000E+00 0.  1.
          3   -1    0    0  501    0  0.00000000000E+00 -0.00000000000E+00 -0.45943197268E+02  0.45943197268E+02  0.00000000000E+00 0. -1.
         25    2    1    2    0    0 -0.19813294823E+02  0.78774534477E+01  0.15645992934E+03  0.20144907569E+03  0.12508956665E+03 0.  0.
         23    2    1    2    0    0  0.19813294823E+02 -0.78774534477E+01  0.69759734738E+02  0.11665698292E+03  0.91037410710E+02 0.  0.
          5    1    3    3  502    0  0.11998644379E+02  0.50702704469E+02  0.21961758203E+02  0.56696762966E+02  0.41800000000E+01 0. -1.
         -5    1    3    3    0  502 -0.31811939202E+02 -0.42825251021E+02  0.13449817113E+03  0.14475231272E+03  0.41800000000E+01 0. -1.
        -11    1    4    4    0    0 -0.29042736468E+02 -0.17133825229E+02  0.55477257260E+02  0.64921295286E+02  0.00000000000E+00 0.  1.
         11    1    4    4    0    0  0.48856031291E+02  0.92563717816E+01  0.14282477478E+02  0.51735687635E+02  0.00000000000E+00 0. -1.
</event>
<event>
 8    1  0.6840032E-009  0.1245787E+03  0.7561462E-02  0.1235729E+00
         -3   -1    0    0    0  501 -0.00000000000E+00  0.00000000000E+00  0.77003466168E+02  0.77003466168E+02  0.00000000000E+00 0.  1.
          3   -1    0    0  501    0  0.00000000000E+00 -0.00000000000E+00 -0.27913915803E+03  0.27913915803E+03  0.00000000000E+00 0. -1.
         25    2    1    2    0    0  0.41729196532E+02 -0.75074549415E+02 -0.16995616585E+03  0.22784702456E+03  0.12510657247E+03 0.  0.
         23    2    1    2    0    0 -0.41729196532E+02  0.75074549415E+02 -0.32179526006E+02  0.12829559964E+03  0.89703540506E+02 0.  0.
          5    1    3    3  502    0  0.85415763708E+02 -0.39408353768E+02 -0.11879918537E+03  0.15159020378E+03  0.41800000000E+01 0. -1.
         -5    1    3    3    0  502 -0.43686567176E+02 -0.35666195647E+02 -0.51156980484E+02  0.76256820782E+02  0.41800000000E+01 0. -1.
        -11    1    4    4    0    0  0.10884918351E+02  0.15812874339E+02  0.24309518114E+02  0.30975492140E+02  0.00000000000E+00 0.  1.
         11    1    4    4    0    0 -0.52614114883E+02  0.59261675076E+02 -0.56489044120E+02  0.97320107497E+02  0.00000000000E+00 0. -1.
</event>
<event>
 8    1  0.6840032E-009  0.1430345E+03  0.7561462E-02  0.1209303E+00
          2   -1    0    0  501    0  0.00000000000E+00  0.00000000000E+00  0.49593897342E+03  0.49593897342E+03  0.00000000000E+00 0. -1.
         -2   -1    0    0    0  501 -0.00000000000E+00 -0.00000000000E+00 -0.54111515628E+02  0.54111515628E+02  0.00000000000E+00 0.  1.
         25    2    1    2    0    0  0.10287779359E+03  0.47187753440E+02  0.15911871210E+03  0.23192274119E+03  0.12513540207E+03 0.  0.
         23    2    1    2    0    0 -0.10287779359E+03 -0.47187753440E+02  0.28270874569E+03  0.31812774786E+03  0.92035344185E+02 0.  0.
          5    1    3    3  502    0 -0.13504371480E+02  0.48764603611E+02  0.34699108980E+02  0.61496789985E+02  0.41800000000E+01 0. -1.
         -5    1    3    3    0  502  0.11638216507E+03 -0.15768501706E+01  0.12441960312E+03  0.17042595121E+03  0.41800000000E+01 0. -1.
        -11    1    4    4    0    0 -0.14943901207E+02  0.59518856211E+01 -0.12685872392E+01  0.16135502450E+02  0.00000000000E+00 0.  1.
         11    1    4    4    0    0 -0.87933892384E+02 -0.53139639061E+02  0.28397733293E+03  0.30199224541E+03  0.00000000000E+00 0. -1.
</event>
<event>
 8    1  0.6840032E-009  0.1262260E+03  0.7561462E-02  0.1233166E+00
         -1   -1    0    0    0  501 -0.00000000000E+00  0.00000000000E+00  0.26068810553E+03  0.26068810553E+03  0.00000000000E+00 0.  1.
          1   -1    0    0  501    0  0.00000000000E+00 -0.00000000000E+00 -0.75263659358E+02  0.75263659358E+02  0.00000000000E+00 0. -1.
         25    2    1    2    0    0  0.74145915810E+02  0.31516290500E+01  0.15562272663E+03  0.21301027292E+03  0.12508954284E+03 0.  0.
         23    2    1    2    0    0 -0.74145915810E+02 -0.31516290500E+01  0.29801719544E+02  0.12294149197E+03  0.93375148530E+02 0.  0.
          5    1    3    3  502    0  0.58240546049E+02 -0.57110953792E+02  0.10210347931E+03  0.13075249571E+03  0.41800000000E+01 0. -1.
         -5    1    3    3    0  502  0.15905369761E+02  0.60262582842E+02  0.53519247322E+02  0.82257777212E+02  0.41800000000E+01 0. -1.
        -11    1    4    4    0    0 -0.44920387545E+02 -0.40776065949E+02  0.41970510303E+02  0.73770268445E+02  0.00000000000E+00 0.  1.
         11    1    4    4    0    0 -0.29225528265E+02  0.37624436899E+02 -0.12168790759E+02  0.49171223524E+02  0.00000000000E+00 0. -1.
</event>
<event>
 8    1  0.6840032E-009  0.2220998E+03  0.7561462E-02  0.1132327E+00
         -2   -1    0    0    0  501 -0.00000000000E+00  0.00000000000E+00  0.34076679266E+02  0.34076679266E+02  0.00000000000E+00 0.  1.
          2   -1    0    0  501    0  0.00000000000E+00 -0.00000000000E+00 -0.16615100077E+04  0.16615100077E+04  0.00000000000E+00 0. -1.
         25    2    1    2    0    0  0.82895993885E+02 -0.18774529255E+03 -0.65460828594E+03  0.69733741607E+03  0.12508966045E+03 0.  0.
         23    2    1    2    0    0 -0.82895993885E+02  0.18774529255E+03 -0.97282504250E+03  0.99824927090E+03  0.89403595355E+02 0.  0.
          5    1    3    3  502    0  0.79555490676E+02 -0.20464512040E+03 -0.56887980895E+03  0.60979538440E+03  0.41800000000E+01 0. -1.
         -5    1    3    3    0  502  0.33405032087E+01  0.16899827842E+02 -0.85728476991E+02  0.87542031676E+02  0.41800000000E+01 0. -1.
        -11    1    4    4    0    0 -0.62859773231E+02  0.11112722390E+03 -0.76997029117E+03  0.78048373479E+03  0.00000000000E+00 0.  1.
         11    1    4    4    0    0 -0.20036220654E+02  0.76618068652E+02 -0.20285475133E+03  0.21776553611E+03  0.00000000000E+00 0. -1.
</event>
<event>
 8    1  0.6840032E-009  0.9174222E+02  0.7561462E-02  0.1298687E+00
         -1   -1    0    0    0  501 -0.00000000000E+00  0.00000000000E+00  0.10546087953E+03  0.10546087953E+03  0.00000000000E+00 0.  1.
          1   -1    0    0  501    0  0.00000000000E+00 -0.00000000000E+00 -0.13498070519E+03  0.13498070519E+03  0.00000000000E+00 0. -1.
         25    2    1    2    0    0  0.18670151127E+02  0.29374611978E+02 -0.51152103323E+02  0.13955542475E+03  0.12509091306E+03 0.  0.
         23    2    1    2    0    0 -0.18670151127E+02 -0.29374611978E+02  0.21632277666E+02  0.10088615997E+03  0.92187957267E+02 0.  0.
          5    1    3    3  502    0 -0.18596314718E+01  0.53364483649E+02 -0.80205177750E+02  0.96444643616E+02  0.41800000000E+01 0. -1.
         -5    1    3    3    0  502  0.20529782599E+02 -0.23989871670E+02  0.29053074427E+02  0.43110781134E+02  0.41800000000E+01 0. -1.
        -11    1    4    4    0    0 -0.48474948645E+02 -0.43463348650E+02  0.96952365593E+01  0.65824622551E+02  0.00000000000E+00 0.  1.
         11    1    4    4    0    0  0.29804797518E+02  0.14088736672E+02  0.11937041107E+02  0.35061537423E+02  0.00000000000E+00 0. -1.
</event>
<event>
 8    1  0.6840032E-009  0.1063989E+03  0.7561462E-02  0.1267388E+00
         -1   -1    0    0    0  501 -0.00000000000E+00  0.00000000000E+00  0.19420062865E+03  0.19420062865E+03  0.00000000000E+00 0.  1.
          1   -1    0    0  501    0  0.00000000000E+00 -0.00000000000E+00 -0.97807153700E+02  0.97807153700E+02  0.00000000000E+00 0. -1.
         25    2    1    2    0    0 -0.40965891111E+02  0.42528762383E+02  0.11619424545E+03  0.18065169273E+03  0.12508809514E+03 0.  0.
         23    2    1    2    0    0  0.40965891111E+02 -0.42528762383E+02 -0.19800770499E+02  0.11135608963E+03  0.92310391181E+02 0.  0.
          5    1    3    3  502    0 -0.22510277075E+02 -0.42932857734E+02  0.26840304056E+02  0.55568130875E+02  0.41800000000E+01 0. -1.
         -5    1    3    3    0  502 -0.18455614036E+02  0.85461620117E+02  0.89353941396E+02  0.12508356185E+03  0.41800000000E+01 0. -1.
        -11    1    4    4    0    0  0.45675077826E+02 -0.14111302098E+02 -0.50307742401E+02  0.69398923096E+02  0.00000000000E+00 0. -1.
         11    1    4    4    0    0 -0.47091867146E+01 -0.28417460285E+02  0.30506971903E+02  0.41957166530E+02  0.00000000000E+00 0.  1.
</event>
<event>
 8    1  0.6840032E-009  0.1068411E+03  0.7561462E-02  0.1266534E+00
          2   -1    0    0  501    0  0.00000000000E+00  0.00000000000E+00  0.11123136840E+04  0.11123136840E+04  0.00000000000E+00 0.  1.
         -2   -1    0    0    0  501 -0.00000000000E+00 -0.00000000000E+00 -0.10985274607E+02  0.10985274607E+02  0.00000000000E+00 0. -1.
         25    2    1    2    0    0 -0.73244717324E+01 -0.92511231123E+01  0.73533812507E+03  0.74599496578E+03  0.12508836722E+03 0.  0.
         23    2    1    2    0    0  0.73244717324E+01  0.92511231123E+01  0.36599028428E+03  0.37730399279E+03  0.90940549935E+02 0.  0.
          5    1    3    3  502    0 -0.61618780705E+02  0.18550364595E+02  0.38343441443E+03  0.38881925458E+03  0.41800000000E+01 0. -1.
         -5    1    3    3    0  502  0.54294308973E+02 -0.27801487707E+02  0.35190371065E+03  0.35717571120E+03  0.41800000000E+01 0. -1.
        -11    1    4    4    0    0 -0.37030149927E+02 -0.11926935945E+02  0.11100778433E+03  0.11762742872E+03  0.00000000000E+00 0. -1.
         11    1    4    4    0    0  0.44354621659E+02  0.21178059057E+02  0.25498249995E+03  0.25967656407E+03  0.00000000000E+00 0.  1.
</event>
<event>
 8    1  0.6840032E-009  0.1051330E+03  0.7561462E-02  0.1269858E+00
         -2   -1    0    0    0  501 -0.00000000000E+00  0.00000000000E+00  0.28566915983E+03  0.28566915983E+03  0.00000000000E+00 0. -1.
          2   -1    0    0  501    0  0.00000000000E+00 -0.00000000000E+00 -0.46283898231E+02  0.46283898231E+02  0.00000000000E+00 0.  1.
         25    2    1    2    0    0 -0.43138165554E+01  0.34242261610E+02  0.13362988877E+03  0.18626413275E+03  0.12508492508E+03 0.  0.
         23    2    1    2    0    0  0.43138165554E+01 -0.34242261610E+02  0.10575537283E+03  0.14568892531E+03  0.94074027145E+02 0.  0.
          5    1    3    3  502    0 -0.52984371470E+02  0.39652712368E+02  0.11680589609E+03  0.13431593718E+03  0.41800000000E+01 0.  1.
         -5    1    3    3    0  502  0.48670554915E+02 -0.54104507577E+01  0.16823992676E+02  0.51948195567E+02  0.41800000000E+01 0.  1.
        -11    1    4    4    0    0 -0.36715596390E+02 -0.38927340692E+02  0.82387262801E+02  0.98239676015E+02  0.00000000000E+00 0. -1.
         11    1    4    4    0    0  0.41029412946E+02  0.46850790813E+01  0.23368110024E+02  0.47449249296E+02  0.00000000000E+00 0.  1.
</event>
<event>
 7    1  0.6840032E-009  0.1413820E+03  0.7561462E-02  0.1211481E+00
          2   -1    0    0  501    0  0.00000000000E+00  0.00000000000E+00  0.11697666070E+03  0.11697666070E+03  0.00000000000E+00 0. -1.
         -2   -1    0    0    0  501 -0.00000000000E+00 -0.00000000000E+00 -0.21652769130E+03  0.21652769130E+03  0.00000000000E+00 0.  1.
         23    2    1    2    0    0 -0.10453775660E+03 -0.10268081738E+02  0.44848205124E+01  0.13989320399E+03  0.92284445325E+02 0.  0.
          5    1    1    2  502    0  0.34349240869E+02 -0.45081866330E+02 -0.84800261691E+02  0.10208232855E+03  0.41800000000E+01 0. -1.
         -5    1    1    2    0  502  0.70188515731E+02  0.55349948068E+02 -0.19235589421E+02  0.91528819461E+02  0.41800000000E+01 0. -1.
        -11    1    3    3    0    0 -0.12322608423E+02  0.32530097145E+02  0.14606078090E+02  0.37727859941E+02  0.00000000000E+00 0.  1.
         11    1    3    3    0    0 -0.92215148176E+02 -0.42798178882E+02 -0.10121257577E+02  0.10216534404E+03  0.00000000000E+00 0. -1.
</event>
<event>
 8    1  0.6840032E-009  0.6551425E+02  0.7561462E-02  0.1376047E+00
          1   -1    0    0  501    0  0.00000000000E+00  0.00000000000E+00  0.24346058705E+03  0.24346058705E+03  0.00000000000E+00 0. -1.
         -1   -1    0    0    0  501 -0.00000000000E+00 -0.00000000000E+00 -0.48226132862E+02  0.48226132862E+02  0.00000000000E+00 0.  1.
         25    2    1    2    0    0 -0.37192745097E+02  0.18341307820E+02  0.10550939908E+03  0.16881806462E+03  0.12509037448E+03 0.  0.
         23    2    1    2    0    0  0.37192745097E+02 -0.18341307820E+02  0.89725055109E+02  0.12286865529E+03  0.72982306612E+02 0.  0.
          5    1    3    3  502    0 -0.33009513300E+02 -0.27604955507E+02 -0.99917891881E+01  0.44373075035E+02  0.41800000000E+01 0. -1.
         -5    1    3    3    0  502 -0.41832317969E+01  0.45946263327E+02  0.11550118827E+03  0.12444498959E+03  0.41800000000E+01 0. -1.
        -11    1    4    4    0    0  0.25722543524E+02 -0.12782134129E+02  0.10151824016E+03  0.10550348470E+03  0.00000000000E+00 0. -1.
         11    1    4    4    0    0  0.11470201572E+02 -0.55591736912E+01 -0.11793185048E+02  0.17365170596E+02  0.00000000000E+00 0.  1.
</event>
<event>
 8    1  0.6840032E-009  0.1486815E+03  0.7561462E-02  0.1202103E+00
         -1   -1    0    0    0  501 -0.00000000000E+00  0.00000000000E+00  0.22954966035E+02  0.22954966035E+02  0.00000000000E+00 0.  1.
          1   -1    0    0  501    0  0.00000000000E+00 -0.00000000000E+00 -0.13575036280E+04  0.13575036280E+04  0.00000000000E+00 0. -1.
         25    2    1    2    0    0 -0.79082375723E+02 -0.67386609251E+02 -0.10731595157E+04  0.10854095299E+04  0.12509006409E+03 0.  0.
         23    2    1    2    0    0  0.79082375723E+02  0.67386609251E+02 -0.26138914625E+03  0.29504906416E+03  0.89076861329E+02 0.  0.
          5    1    3    3  502    0 -0.10740624667E+02 -0.88443488237E+02 -0.67362279130E+03  0.67950183884E+03  0.41800000000E+01 0. -1.
         -5    1    3    3    0  502 -0.68341751057E+02  0.21056878986E+02 -0.39953672444E+03  0.40590769106E+03  0.41800000000E+01 0. -1.
        -11    1    4    4    0    0  0.79704854631E+01 -0.21369384483E+02 -0.36545586393E+02  0.43078522682E+02  0.00000000000E+00 0. -1.
         11    1    4    4    0    0  0.71111890260E+02  0.88755993734E+02 -0.22484355986E+03  0.25197054147E+03  0.00000000000E+00 0.  1.
</event>
<event>
 7    1  0.6840032E-009  0.3480545E+03  0.7561462E-02  0.1063416E+00
          1   -1    0    0  501    0  0.00000000000E+00  0.00000000000E+00  0.33424790172E+03  0.33424790172E+03  0.00000000000E+00 0. -1.
         -1   -1    0    0    0  501 -0.00000000000E+00 -0.00000000000E+00 -0.41109570752E+03  0.41109570752E+03  0.00000000000E+00 0.  1.
         25    2    1    2    0    0  0.32784779096E+03 -0.99202864978E+02 -0.84700077282E+02  0.37435965577E+03  0.12508263795E+03 0.  0.
          5    1    3    3  502    0  0.12697411843E+03 -0.45802599358E+02 -0.96735541690E+02  0.16611906057E+03  0.41800000000E+01 0. -1.
         -5    1    3    3    0  502  0.20087367253E+03 -0.53400265620E+02  0.12035464408E+02  0.20824059519E+03  0.41800000000E+01 0. -1.
        -11    1    1    2    0    0 -0.24537175949E+03  0.11196776401E+03  0.54807831764E+02  0.27522350728E+03  0.00000000000E+00 0.  1.
         11    1    1    2    0    0 -0.82476031467E+02 -0.12764899034E+02 -0.46955560289E+02  0.95760446197E+02  0.00000000000E+00 0. -1.
</event>
<event>
 8    1  0.6840032E-009  0.1270179E+03  0.7561462E-02  0.1231949E+00
         -2   -1    0    0    0  501 -0.00000000000E+00  0.00000000000E+00  0.11966136248E+03  0.11966136248E+03  0.00000000000E+00 0.  1.
          2   -1    0    0  501    0  0.00000000000E+00 -0.00000000000E+00 -0.14705487915E+03  0.14705487915E+03  0.00000000000E+00 0. -1.
         25    2    1    2    0    0 -0.17451371046E+02 -0.69797516702E+02  0.18210261308E+02  0.14545134822E+03  0.12509291504E+03 0.  0.
         23    2    1    2    0    0  0.17451371046E+02  0.69797516702E+02 -0.45603777974E+02  0.12126489342E+03  0.86308899430E+02 0.  0.
          5    1    3    3  502    0 -0.44753032376E+02  0.18930919638E+02  0.19471295233E+02  0.52514925147E+02  0.41800000000E+01 0. -1.
         -5    1    3    3    0  502  0.27301661330E+02 -0.88728436339E+02 -0.12610339251E+01  0.92936423070E+02  0.41800000000E+01 0. -1.
        -11    1    4    4    0    0 -0.27721814984E+02 -0.16886778924E+01 -0.12426393616E+02  0.30426401650E+02  0.00000000000E+00 0.  1.
         11    1    4    4    0    0  0.45173186030E+02  0.71486194594E+02 -0.33177384358E+02  0.90838491767E+02  0.00000000000E+00 0. -1.
</event>
<event>
 8    1  0.6840032E-009  0.1286720E+03  0.7561462E-02  0.1229440E+00
          2   -1    0    0  501    0  0.00000000000E+00  0.00000000000E+00  0.47110596905E+03  0.47110596905E+03  0.00000000000E+00 0. -1.
         -2   -1    0    0    0  501 -0.00000000000E+00 -0.00000000000E+00 -0.42315803088E+02  0.42315803088E+02  0.00000000000E+00 0.  1.
         25    2    1    2    0    0 -0.89449628345E+02  0.24674038263E+02  0.27175378517E+03  0.31322096537E+03  0.12508880532E+03 0.  0.
         23    2    1    2    0    0  0.89449628345E+02 -0.24674038263E+02  0.15703638080E+03  0.20020080678E+03  0.82522081675E+02 0.  0.
          5    1    3    3  502    0 -0.65931612279E+02 -0.44156521083E+02  0.17415822682E+03  0.19142971613E+03  0.41800000000E+01 0. -1.
         -5    1    3    3    0  502 -0.23518016066E+02  0.68830559346E+02  0.97595558351E+02  0.12179124923E+03  0.41800000000E+01 0. -1.
        -11    1    4    4    0    0  0.26262868867E+02  0.15164957194E+02  0.10467313261E+03  0.10897788261E+03  0.00000000000E+00 0. -1.
         11    1    4    4    0    0  0.63186759478E+02 -0.39838995457E+02  0.52363248190E+02  0.91222924166E+02  0.00000000000E+00 0.  1.
</event>
<event>
 8    1  0.6840032E-009  0.1006203E+03  0.7561462E-02  0.1278997E+00
          1   -1    0    0  501    0  0.00000000000E+00  0.00000000000E+00  0.61397792607E+03  0.61397792607E+03  0.00000000000E+00 0. -1.
         -1   -1    0    0    0  501 -0.00000000000E+00 -0.00000000000E+00 -0.24837787514E+02  0.24837787514E+02  0.00000000000E+00 0.  1.
         25    2    1    2    0    0  0.24636998772E+02 -0.15643948149E+02  0.19364137758E+03  0.23237054950E+03  0.12508946537E+03 0.  0.
         23    2    1    2    0    0 -0.24636998772E+02  0.15643948149E+02  0.39549876098E+03  0.40644516408E+03  0.89031941711E+02 0.  0.
          5    1    3    3  502    0 -0.30067272476E+01  0.44373608849E+02  0.24985538818E+02  0.51184051433E+02  0.41800000000E+01 0. -1.
         -5    1    3    3    0  502  0.27643726020E+02 -0.60017556998E+02  0.16865583876E+03  0.18118649807E+03  0.41800000000E+01 0. -1.
        -11    1    4    4    0    0  0.18368386401E+02 -0.25109965508E+02  0.89228324570E+02  0.94496570796E+02  0.00000000000E+00 0.  1.
         11    1    4    4    0    0 -0.43005385174E+02  0.40753913657E+02  0.30627043641E+03  0.31194859328E+03  0.00000000000E+00 0. -1.
</event>
<event>
 8    1  0.6840032E-009  0.1580493E+03  0.7561462E-02  0.1190917E+00
          2   -1    0    0  501    0  0.00000000000E+00  0.00000000000E+00  0.56278396403E+02  0.56278396403E+02  0.00000000000E+00 0. -1.
         -2   -1    0    0    0  501 -0.00000000000E+00 -0.00000000000E+00 -0.49674342151E+03  0.49674342151E+03  0.00000000000E+00 0.  1.
         25    2    1    2    0    0  0.12479442975E+03  0.90395659047E+00 -0.20373123277E+03  0.26968167541E+03  0.12508926417E+03 0.  0.
         23    2    1    2    0    0 -0.12479442975E+03 -0.90395659047E+00 -0.23673379233E+03  0.28334014250E+03  0.93082120109E+02 0.  0.
          5    1    3    3  502    0  0.12728460156E+03 -0.32965016308E+02 -0.11554171710E+03  0.17508690095E+03  0.41800000000E+01 0. -1.
         -5    1    3    3    0  502 -0.24901718057E+01  0.33868972898E+02 -0.88189515676E+02  0.94594774464E+02  0.41800000000E+01 0. -1.
        -11    1    4    4    0    0 -0.22218285568E+02 -0.35669938081E+02 -0.10304241674E+03  0.11128223733E+03  0.00000000000E+00 0. -1.
         11    1    4    4    0    0 -0.10257614418E+03  0.34765981490E+02 -0.13369137559E+03  0.17205790517E+03  0.00000000000E+00 0.  1.
</event>
<event>
 8    1  0.6840032E-009  0.1605101E+03  0.7561462E-02  0.1188122E+00
          2   -1    0    0  501    0  0.00000000000E+00  0.00000000000E+00  0.22663794255E+02  0.22663794255E+02  0.00000000000E+00 0. -1.
         -2   -1    0    0    0  501 -0.00000000000E+00 -0.00000000000E+00 -0.14066629653E+04  0.14066629653E+04  0.00000000000E+00 0.  1.
         25    2    1    2    0    0  0.55210483129E+02  0.12908838682E+03 -0.80150152919E+03  0.82326481242E+03  0.12509292952E+03 0.  0.
         23    2    1    2    0    0 -0.55210483129E+02 -0.12908838682E+03 -0.58249764182E+03  0.60606194710E+03  0.91080030403E+02 0.  0.
          5    1    3    3  502    0  0.40534556038E+02  0.11837507191E+02 -0.67001665293E+02  0.79308715547E+02  0.41800000000E+01 0. -1.
         -5    1    3    3    0  502  0.14675927091E+02  0.11725087963E+03 -0.73449986390E+03  0.74395609688E+03  0.41800000000E+01 0. -1.
        -11    1    4    4    0    0 -0.35355369952E+02 -0.13506142627E+03 -0.55054741456E+03  0.56797363207E+03  0.00000000000E+00 0.  1.
         11    1    4    4    0    0 -0.19855113177E+02  0.59730394569E+01 -0.31950227263E+02  0.38088315030E+02  0.00000000000E+00 0. -1.
</event>
<event>
 8    1  0.6840032E-009  0.1105408E+03  0.7561462E-02  0.1259572E+00
          3   -1    0    0  501    0  0.00000000000E+00  0.00000000000E+00  0.64562074076E+02  0.64562074076E+02  0.00000000000E+00 0. -1.
         -3   -1    0    0    0  501 -0.00000000000E+00 -0.00000000000E+00 -0.23858737219E+03  0.23858737219E+03  0.00000000000E+00 0.  1.
         25    2    1    2    0    0 -0.43416839941E+01 -0.59030157006E+02 -0.10404385416E+03  0.17313512695E+03  0.12508892413E+03 0.  0.
         23    2    1    2    0    0  0.43416839941E+01  0.59030157006E+02 -0.69981443957E+02  0.13001431931E+03  0.92211230727E+02 0.  0.
          5    1    3    3  502    0  0.29256740499E+02 -0.88063621474E+02 -0.60849765551E+02  0.11104649774E+03  0.41800000000E+01 0.  1.
         -5    1    3    3    0  502 -0.33598424493E+02  0.29033464468E+02 -0.43194088608E+02  0.62088629217E+02  0.41800000000E+01 0.  1.
        -11    1    4    4    0    0  0.28718681312E+02  0.13043703053E+02 -0.71283317981E+02  0.77950062656E+02  0.00000000000E+00 0.  1.
         11    1    4    4    0    0 -0.24376997318E+02  0.45986453953E+02  0.13018740234E+01  0.52064256658E+02  0.00000000000E+00 0. -1.
</event>
<event>
 8    1  0.6840032E-009  0.8848893E+02  0.7561462E-02  0.1306553E+00
         -2   -1    0    0    0  501 -0.00000000000E+00  0.00000000000E+00  0.78976590943E+02  0.78976590943E+02  0.00000000000E+00 0.  1.
          2   -1    0    0  501    0  0.00000000000E+00 -0.00000000000E+00 -0.17904189754E+03  0.17904189754E+03  0.00000000000E+00 0. -1.
         25    2    1    2    0    0 -0.18595846353E+02 -0.40515629454E+02 -0.76130034764E+02  0.15307002798E+03  0.12508928628E+03 0.  0.
         23    2    1    2    0    0  0.18595846353E+02  0.40515629454E+02 -0.23935271830E+02  0.10494846050E+03  0.91945420721E+02 0.  0.
          5    1    3    3  502    0 -0.63408268440E+02 -0.55995290912E+02 -0.55056808460E+02  0.10101883819E+03  0.41800000000E+01 0.  1.
         -5    1    3    3    0  502  0.44812422088E+02  0.15479661458E+02 -0.21073226304E+02  0.52051189795E+02  0.41800000000E+01 0.  1.
        -11    1    4    4    0    0  0.14861046419E+02  0.29094786127E+02  0.33190771721E+02  0.46572358840E+02  0.00000000000E+00 0.  1.
         11    1    4    4    0    0  0.37347999338E+01  0.11420843327E+02 -0.57126043551E+02  0.58376101657E+02  0.00000000000E+00 0. -1.
</event>
<event>
 8    1  0.6840032E-009  0.1359583E+03  0.7561462E-02  0.1218873E+00
         -2   -1    0    0    0  501 -0.00000000000E+00  0.00000000000E+00  0.39524489416E+02  0.39524489416E+02  0.00000000000E+00 0.  1.
          2   -1    0    0  501    0  0.00000000000E+00 -0.00000000000E+00 -0.56602154202E+03  0.56602154202E+03  0.00000000000E+00 0. -1.
         25    2    1    2    0    0  0.52951231819E+01 -0.95240396556E+02 -0.35991944735E+03  0.39279588658E+03  0.12509128054E+03 0.  0.
         23    2    1    2    0    0 -0.52951231819E+01  0.95240396556E+02 -0.16657760526E+03  0.21275014486E+03  0.91737419292E+02 0.  0.
          5    1    3    3  502    0  0.54686479333E+02 -0.41543127347E+02 -0.26034352895E+03  0.26928176307E+03  0.41800000000E+01 0.  1.
         -5    1    3    3    0  502 -0.49391356152E+02 -0.53697269208E+02 -0.99575918392E+02  0.12351412351E+03  0.41800000000E+01 0.  1.
        -11    1    4    4    0    0  0.11126268837E+02  0.10841361937E+03 -0.15244273831E+03  0.18739288990E+03  0.00000000000E+00 0. -1.
         11    1    4    4    0    0 -0.16421392019E+02 -0.13173222816E+02 -0.14134866951E+02  0.25357254956E+02  0.00000000000E+00 0.  1.
</event>
<event>
 8    1  0.6840032E-009  0.1480326E+03  0.7561462E-02  0.1202912E+00
          1   -1    0    0  501    0  0.00000000000E+00  0.00000000000E+00  0.32880530708E+03  0.32880530708E+03  0.00000000000E+00 0. -1.
         -1   -1    0    0    0  501 -0.00000000000E+00 -0.00000000000E+00 -0.75984748695E+02  0.75984748695E+02  0.00000000000E+00 0.  1.
         25    2    1    2    0    0  0.25933578224E+02 -0.10265041416E+03  0.19603548833E+03  0.25551064792E+03  0.12508445350E+03 0.  0.
         23    2    1    2    0    0 -0.25933578224E+02  0.10265041416E+03  0.56785070050E+02  0.14927940785E+03  0.88601012532E+02 0.  0.
          5    1    3    3  502    0  0.19235020240E+02 -0.12964126510E+03  0.18133466356E+03  0.22377796190E+03  0.41800000000E+01 0.  1.
         -5    1    3    3    0  502  0.66985579841E+01  0.26990850940E+02  0.14700824771E+02  0.31732686027E+02  0.41800000000E+01 0.  1.
        -11    1    4    4    0    0 -0.17439659946E+02  0.11799532993E+03  0.55877947784E+02  0.13171706295E+03  0.00000000000E+00 0. -1.
         11    1    4    4    0    0 -0.84939182780E+01 -0.15344915768E+02  0.90712226605E+00  0.17562344902E+02  0.00000000000E+00 0.  1.
</event>
<event>
 8    1  0.6840032E-009  0.1262846E+03  0.7561462E-02  0.1233075E+00
         -1   -1    0    0    0  501 -0.00000000000E+00  0.00000000000E+00  0.49118386944E+02  0.49118386944E+02  0.00000000000E+00 0.  1.
          1   -1    0    0  501    0  0.00000000000E+00 -0.00000000000E+00 -0.36727601799E+03  0.36727601799E+03  0.00000000000E+00 0. -1.
         25    2    1    2    0    0  0.34436362319E+02  0.65230784779E+02 -0.20175354563E+03  0.24858623935E+03  0.12509878852E+03 0.  0.
         23    2    1    2    0    0 -0.34436362319E+02 -0.65230784779E+02 -0.11640408542E+03  0.16780816558E+03  0.95753595238E+02 0.  0.
          5    1    3    3  502    0 -0.12052684483E+02 -0.28720063305E+02 -0.16020587822E+02  0.35273798685E+02  0.41800000000E+01 0.  1.
         -5    1    3    3    0  502  0.46489046802E+02  0.93950848085E+02 -0.18573295781E+03  0.21331244067E+03  0.41800000000E+01 0.  1.
        -11    1    4    4    0    0 -0.19353824686E+02  0.21080385987E+02 -0.10798286962E+02  0.30586863270E+02  0.00000000000E+00 0.  1.
         11    1    4    4    0    0 -0.15082537633E+02 -0.86311170767E+02 -0.10560579846E+03  0.13722130231E+03  0.00000000000E+00 0. -1.
</event>
<event>
 8    1  0.6840032E-009  0.1296473E+03  0.7561462E-02  0.1227980E+00
         -1   -1    0    0    0  501 -0.00000000000E+00  0.00000000000E+00  0.32578794840E+02  0.32578794840E+02  0.00000000000E+00 0.  1.
          1   -1    0    0  501    0  0.00000000000E+00 -0.00000000000E+00 -0.57640460954E+03  0.57640460954E+03  0.00000000000E+00 0. -1.
         25    2    1    2    0    0 -0.92164294922E+01  0.82871588123E+02 -0.33306351899E+03  0.36541963141E+03  0.12509019404E+03 0.  0.
         23    2    1    2    0    0  0.92164294922E+01 -0.82871588123E+02 -0.21076229571E+03  0.24356377297E+03  0.89162343634E+02 0.  0.
          5    1    3    3  502    0 -0.95216880315E+01  0.11594051334E+03 -0.24466480721E+03  0.27094502296E+03  0.41800000000E+01 0. -1.
         -5    1    3    3    0  502  0.30525853930E+00 -0.33068925216E+02 -0.88398711781E+02  0.94474608453E+02  0.41800000000E+01 0. -1.
        -11    1    4    4    0    0  0.27635082649E+02 -0.32436717034E+01 -0.15417839651E+02  0.31810831153E+02  0.00000000000E+00 0.  1.
         11    1    4    4    0    0 -0.18418653157E+02 -0.79627916420E+02 -0.19534445606E+03  0.21175294182E+03  0.00000000000E+00 0. -1.
</event>
<event>
 8    1  0.6840032E-009  0.3840422E+03  0.7561462E-02  0.1049450E+00
          1   -1    0    0  501    0  0.00000000000E+00  0.00000000000E+00  0.13475017322E+03  0.13475017322E+03  0.00000000000E+00 0. -1.
         -1   -1    0    0    0  501 -0.00000000000E+00 -0.00000000000E+00 -0.12999141049E+04  0.12999141049E+04  0.00000000000E+00 0.  1.
         25    2    1    2    0    0  0.34991382562E+03 -0.12825819962E+03 -0.31802464025E+03  0.50564443218E+03  0.12508704513E+03 0.  0.
         23    2    1    2    0    0 -0.34991382562E+03  0.12825819962E+03 -0.84713929142E+03  0.92901984594E+03  0.80889084271E+02 0.  0.
          5    1    3    3  502    0  0.74739246668E+02  0.19594813301E+02 -0.38445329851E+02  0.86402705329E+02  0.41800000000E+01 0.  1.
         -5    1    3    3    0  502  0.27517457895E+03 -0.14785301292E+03 -0.27957931040E+03  0.41924172685E+03  0.41800000000E+01 0.  1.
        -11    1    4    4    0    0 -0.26427022166E+03  0.12563500155E+03 -0.70088228057E+03  0.75951226119E+03  0.00000000000E+00 0.  1.
         11    1    4    4    0    0 -0.85643603957E+02  0.26231980660E+01 -0.14625701085E+03  0.16950758475E+03  0.00000000000E+00 0. -1.
</event>
<event>
 8    1  0.6840032E-009  0.1988153E+03  0.7561462E-02  0.1150742E+00
          2   -1    0    0  501    0  0.00000000000E+00  0.00000000000E+00  0.15854657984E+03  0.15854657984E+03  0.00000000000E+00 0. -1.
         -2   -1    0    0    0  501 -0.00000000000E+00 -0.00000000000E+00 -0.26882819796E+03  0.26882819796E+03  0.00000000000E+00 0.  1.
         25    2    1    2    0    0 -0.16165806899E+03 -0.50183609429E+02 -0.10435562908E+03  0.23492632649E+03  0.12509418706E+03 0.  0.
         23    2    1    2    0    0  0.16165806899E+03  0.50183609429E+02 -0.59259890453E+01  0.19244845131E+03  0.91375944008E+02 0.  0.
          5    1    3    3  502    0 -0.15400821686E+03 -0.82589084719E+02 -0.99151674195E+02  0.20096769559E+03  0.41800000000E+01 0.  1.
         -5    1    3    3    0  502 -0.76498521252E+01  0.32405475291E+02 -0.52039548823E+01  0.33958630903E+02  0.41800000000E+01 0.  1.
        -11    1    4    4    0    0  0.31829001034E+02  0.50198205066E+02  0.14089235173E+02  0.61085609160E+02  0.00000000000E+00 0. -1.
         11    1    4    4    0    0  0.12982906795E+03 -0.14595637088E-01 -0.20015224218E+02  0.13136284215E+03  0.00000000000E+00 0.  1.
</event>
<event>
 8    1  0.6840032E-009  0.1008901E+03  0.7561462E-02  0.1278435E+00
          2   -1    0    0  501    0  0.00000000000E+00  0.00000000000E+00  0.27669184915E+03  0.27669184915E+03  0.00000000000E+00 0. -1.
         -2   -1    0    0    0  501 -0.00000000000E+00 -0.00000000000E+00 -0.47070643883E+02  0.47070643883E+02  0.00000000000E+00 0.  1.
         25    2    1    2    0    0  0.26141866022E+02 -0.11296869406E+02  0.10304334424E+03  0.16454952375E+03  0.12509036156E+03 0.  0.
         23    2    1    2    0    0 -0.26141866022E+02  0.11296869406E+02  0.12657786103E+03  0.15921296928E+03  0.92281082937E+02 0.  0.
          5    1    3    3  502    0 -0.15456599719E+02  0.47011274724E+02  0.16943553187E+02  0.52474020435E+02  0.41800000000E+01 0. -1.
         -5    1    3    3    0  502  0.41598465741E+02 -0.58308144130E+02  0.86099791049E+02  0.11207550331E+03  0.41800000000E+01 0. -1.
        -11    1    4    4    0    0  0.26613882114E+02  0.10975436321E+01  0.90879815980E+02  0.94702926437E+02  0.00000000000E+00 0. -1.
         11    1    4    4    0    0 -0.52755748136E+02  0.10199325774E+02  0.35698045046E+02  0.64510042845E+02  0.00000000000E+00 0.  1.
</event>
<event>
 8    1  0.6840032E-009  0.1012111E+03  0.7561462E-02  0.1277770E+00
         -1   -1    0    0    0  501 -0.00000000000E+00  0.00000000000E+00  0.22846702287E+03  0.22846702287E+03  0.00000000000E+00 0.  1.
          1   -1    0    0  501    0  0.00000000000E+00 -0.00000000000E+00 -0.57085339922E+02  0.57085339922E+02  0.00000000000E+00 0. -1.
         25    2    1    2    0    0  0.72272886200E+00  0.26023201806E+02  0.75416191025E+02  0.14836865237E+03  0.12509166946E+03 0.  0.
         23    2    1    2    0    0 -0.72272886200E+00 -0.26023201806E+02  0.95965491920E+02  0.13718371041E+03  0.94510662861E+02 0.  0.
          5    1    3    3  502    0  0.61367748079E+02  0.26412365737E+02  0.41395698006E+02  0.78706351596E+02  0.41800000000E+01 0.  1.
         -5    1    3    3    0  502 -0.60645019217E+02 -0.38916393086E+00  0.34020493019E+02  0.69662300778E+02  0.41800000000E+01 0.  1.
        -11    1    4    4    0    0 -0.47093053104E+01 -0.50082642085E+02  0.14802957427E+02  0.52436400937E+02  0.00000000000E+00 0. -1.
         11    1    4    4    0    0  0.39865764484E+01  0.24059440279E+02  0.81162534493E+02  0.84747309477E+02  0.00000000000E+00 0.  1.
</event>
<event>
 8    1  0.6840032E-009  0.1342494E+03  0.7561462E-02  0.1221283E+00
          2   -1    0    0  501    0  0.00000000000E+00  0.00000000000E+00  0.58587983933E+03  0.58587983933E+03  0.00000000000E+00 0. -1.
         -2   -1    0    0    0  501 -0.00000000000E+00 -0.00000000000E+00 -0.38774556424E+02  0.38774556424E+02  0.00000000000E+00 0.  1.
         25    2    1    2    0    0  0.94465380608E+02  0.26786799920E+02  0.36501758471E+03  0.39815445711E+03  0.12509154161E+03 0.  0.
         23    2    1    2    0    0 -0.94465380608E+02 -0.26786799920E+02  0.18208769819E+03  0.22649993864E+03  0.92222836596E+02 0.  0.
          5    1    3    3  502    0  0.89280859380E+02 -0.18672788993E+02  0.13107638199E+03  0.15974428070E+03  0.41800000000E+01 0.  1.
         -5    1    3    3    0  502  0.51845212285E+01  0.45459588913E+02  0.23394120272E+03  0.23841017641E+03  0.41800000000E+01 0.  1.
        -11    1    4    4    0    0 -0.21044643146E+02  0.31237125132E+02  0.31013513671E+02  0.48790091431E+02  0.00000000000E+00 0. -1.
         11    1    4    4    0    0 -0.73420737462E+02 -0.58023925053E+02  0.15107418452E+03  0.17770984721E+03  0.00000000000E+00 0.  1.
</event>
<event>
 7    1  0.6840032E-009  0.1007894E+03  0.7561462E-02  0.1278645E+00
          2   -1    0    0  501    0  0.00000000000E+00  0.00000000000E+00  0.81826535607E+03  0.81826535607E+03  0.00000000000E+00 0. -1.
         -2   -1    0    0    0  501 -0.00000000000E+00 -0.00000000000E+00 -0.45838854345E+02  0.45838854345E+02  0.00000000000E+00 0.  1.
         23    2    1    2    0    0  0.20520978133E+02  0.27029752614E+02  0.19065459458E+02  0.99685933035E+02  0.91771866228E+02 0.  0.
          5    1    1    2  502    0  0.22785138690E+02 -0.54247638526E+02  0.59573866811E+03  0.59865182027E+03  0.41800000000E+01 0.  1.
         -5    1    1    2    0  502 -0.43306116823E+02  0.27217885912E+02  0.15762237415E+03  0.16576645710E+03  0.41800000000E+01 0.  1.
        -11    1    3    3    0    0 -0.12531949221E+02 -0.25955742990E+02 -0.10389995310E+02  0.30638249754E+02  0.00000000000E+00 0.  1.
         11    1    3    3    0    0  0.33052927354E+02  0.52985495604E+02  0.29455454767E+02  0.69047683282E+02  0.00000000000E+00 0. -1.
</event>
<event>
 8    1  0.6840032E-009  0.1036376E+03  0.7561462E-02  0.1272827E+00
         -1   -1    0    0    0  501 -0.00000000000E+00  0.00000000000E+00  0.46105703479E+02  0.46105703479E+02  0.00000000000E+00 0.  1.
          1   -1    0    0  501    0  0.00000000000E+00 -0.00000000000E+00 -0.33669994115E+03  0.33669994115E+03  0.00000000000E+00 0. -1.
         25    2    1    2    0    0 -0.16515746258E+02 -0.55984642591E+02 -0.12852945573E+03  0.18861249951E+03  0.12509118234E+03 0.  0.
         23    2    1    2    0    0  0.16515746258E+02  0.55984642591E+02 -0.16206478195E+03  0.19419314513E+03  0.89660102534E+02 0.  0.
          5    1    3    3  502    0  0.44689619345E+02 -0.39233931499E+02 -0.20103947708E+02  0.62913468919E+02  0.41800000000E+01 0. -1.
         -5    1    3    3    0  502 -0.61205365603E+02 -0.16750711093E+02 -0.10842550802E+03  0.12569903059E+03  0.41800000000E+01 0. -1.
        -11    1    4    4    0    0  0.38154435838E+02  0.47249843213E+02 -0.47021523020E+02  0.76807110901E+02  0.00000000000E+00 0.  1.
         11    1    4    4    0    0 -0.21638689580E+02  0.87347993780E+01 -0.11504325893E+03  0.11738603423E+03  0.00000000000E+00 0. -1.
</event>
<event>
 8    1  0.6840032E-009  0.1072137E+03  0.7561462E-02  0.1265818E+00
         -1   -1    0    0    0  501 -0.00000000000E+00  0.00000000000E+00  0.21306201160E+03  0.21306201160E+03  0.00000000000E+00 0.  1.
          1   -1    0    0  501    0  0.00000000000E+00 -0.00000000000E+00 -0.10561691917E+03  0.10561691917E+03  0.00000000000E+00 0. -1.
         25    2    1    2    0    0 -0.67456289618E+02 -0.73408065276E+02  0.22334300147E+02  0.16150978877E+03  0.12508995104E+03 0.  0.
         23    2    1    2    0    0  0.67456289618E+02  0.73408065276E+02  0.85110792279E+02  0.15716914200E+03  0.86713304498E+02 0.  0.
          5    1    3    3  502    0 -0.69821852926E+01 -0.75594487055E+01 -0.46999452289E+02  0.48294068907E+02  0.41800000000E+01 0. -1.
         -5    1    3    3    0  502 -0.60474104325E+02 -0.65848616570E+02  0.69333752436E+02  0.11321571987E+03  0.41800000000E+01 0. -1.
        -11    1    4    4    0    0  0.57766569870E+02  0.22496313045E+02  0.85171502121E+02  0.10534346429E+03  0.00000000000E+00 0. -1.
         11    1    4    4    0    0  0.96897197475E+01  0.50911752230E+02 -0.60709841918E-01  0.51825677706E+02  0.00000000000E+00 0.  1.
</event>
<event>
 7    1  0.6840032E-009  0.9830886E+02  0.7561462E-02  0.1283893E+00
          1   -1    0    0  501    0  0.00000000000E+00  0.00000000000E+00  0.49200130456E+02  0.49200130456E+02  0.00000000000E+00 0. -1.
         -1   -1    0    0    0  501 -0.00000000000E+00 -0.00000000000E+00 -0.47289132710E+03  0.47289132710E+03  0.00000000000E+00 0.  1.
         23    2    1    2    0    0  0.39606525350E+02  0.68716414267E+02 -0.70217069054E+02  0.13893841398E+03  0.89904525204E+02 0.  0.
          5    1    1    2  502    0 -0.70009418181E+01 -0.20056966228E+02  0.30148255022E+01  0.21859932603E+02  0.41800000000E+01 0.  1.
         -5    1    1    2    0  502 -0.32605583532E+02 -0.48659448039E+02 -0.35648895309E+03  0.36129311097E+03  0.41800000000E+01 0.  1.
        -11    1    3    3    0    0 -0.92496559033E+01  0.66708494318E+02 -0.57144515192E+02  0.88323694245E+02  0.00000000000E+00 0.  1.
         11    1    3    3    0    0  0.48856181254E+02  0.20079199487E+01 -0.13072553862E+02  0.50614719734E+02  0.00000000000E+00 0. -1.
</event>
<event>
 7    1  0.6840032E-009  0.2551489E+03  0.7561462E-02  0.1110093E+00
          2   -1    0    0  501    0  0.00000000000E+00  0.00000000000E+00  0.81721793889E+02  0.81721793889E+02  0.00000000000E+00 0. -1.
         -2   -1    0    0    0  501 -0.00000000000E+00 -0.00000000000E+00 -0.98999253352E+03  0.98999253352E+03  0.00000000000E+00 0.  1.
         23    2    1    2    0    0  0.22134729187E+03  0.12490323170E+03 -0.56870821519E+03  0.62954638268E+03  0.91127235269E+02 0.  0.
          5    1    1    2  502    0 -0.19595720210E+03 -0.11117143433E+03 -0.34541841469E+03  0.41241928480E+03  0.41800000000E+01 0. -1.
         -5    1    1    2    0  502 -0.25390089771E+02 -0.13731797369E+02  0.58558902453E+01  0.29748659938E+02  0.41800000000E+01 0. -1.
        -11    1    3    3    0    0  0.11820028991E+03  0.83159283404E+02 -0.41750878382E+03  0.44181484755E+03  0.00000000000E+00 0.  1.
         11    1    3    3    0    0  0.10314700196E+03  0.41743948298E+02 -0.15119943137E+03  0.18773153512E+03  0.00000000000E+00 0. -1.
</event>
<event>
 8    1  0.6840032E-009  0.1163878E+03  0.7561462E-02  0.1249178E+00
          1   -1    0    0  501    0  0.00000000000E+00  0.00000000000E+00  0.15365867348E+04  0.15365867348E+04  0.00000000000E+00 0. -1.
         -1   -1    0    0    0  501 -0.00000000000E+00 -0.00000000000E+00 -0.12237307648E+02  0.12237307648E+02  0.00000000000E+00 0.  1.
         25    2    1    2    0    0  0.48890815694E+02  0.72627987916E+02  0.97774067035E+03  0.98959013490E+03  0.12508669051E+03 0.  0.
         23    2    1    2    0    0 -0.48890815694E+02 -0.72627987916E+02  0.54660875683E+03  0.55923390758E+03  0.79349189379E+02 0.  0.
          5    1    3    3  502    0  0.40834851932E+02 -0.42952282971E+00  0.91376124479E+02  0.10017354015E+03  0.41800000000E+01 0.  1.
         -5    1    3    3    0  502  0.80559637616E+01  0.73057510746E+02  0.88636454587E+03  0.88941659475E+03  0.41800000000E+01 0.  1.
        -11    1    4    4    0    0 -0.71010275269E+02 -0.55930403203E+02  0.41115050066E+03  0.42096959913E+03  0.00000000000E+00 0.  1.
         11    1    4    4    0    0  0.22119459575E+02 -0.16697584713E+02  0.13545825617E+03  0.13826430845E+03  0.00000000000E+00 0. -1.
</event>
<event>
 8    1  0.6840032E-009  0.1166727E+03  0.7561462E-02  0.1248689E+00
          2   -1    0    0  501    0  0.00000000000E+00  0.00000000000E+00  0.46373495364E+03  0.46373495364E+03  0.00000000000E+00 0. -1.
         -2   -1    0    0    0  501 -0.00000000000E+00 -0.00000000000E+00 -0.41824126174E+02  0.41824126174E+02  0.00000000000E+00 0.  1.
         25    2    1    2    0    0  0.78490351559E+02 -0.18968959374E+02  0.28959940957E+03  0.32563526033E+03  0.12509975235E+03 0.  0.
         23    2    1    2    0    0 -0.78490351559E+02  0.18968959374E+02  0.13231141790E+03  0.17992381949E+03  0.91354872915E+02 0.  0.
          5    1    3    3  502    0 -0.34347374684E+02 -0.50095761759E+01  0.61809590879E+02  0.71012223777E+02  0.41800000000E+01 0.  1.
         -5    1    3    3    0  502  0.11283772624E+03 -0.13959383198E+02  0.22778981869E+03  0.25462303655E+03  0.41800000000E+01 0.  1.
        -11    1    4    4    0    0 -0.44530031155E+02 -0.22119133594E+01  0.31418951846E+01  0.44695500229E+02  0.00000000000E+00 0.  1.
         11    1    4    4    0    0 -0.33960320404E+02  0.21180872733E+02  0.12916952271E+03  0.13522831926E+03  0.00000000000E+00 0. -1.
</event>
<event>
 8    1  0.6840032E-009  0.1008671E+03  0.7561462E-02  0.1278483E+00
         -1   -1    0    0    0  501 -0.00000000000E+00  0.00000000000E+00  0.39114463306E+03  0.39114463306E+03  0.00000000000E+00 0.  1.
          1   -1    0    0  501    0  0.00000000000E+00 -0.00000000000E+00 -0.35986612740E+02  0.35986612740E+02  0.00000000000E+00 0. -1.
         25    2    1    2    0    0  0.79770372093E+01 -0.46853791238E+02  0.17435729137E+03  0.21978625858E+03  0.12508646421E+03 0.  0.
         23    2    1    2    0    0 -0.79770372093E+01  0.46853791238E+02  0.18080072895E+03  0.20734498722E+03  0.89689069912E+02 0.  0.
          5    1    3    3  502    0  0.41540913168E+02  0.23316413392E+02  0.10544813241E+03  0.11578464332E+03  0.41800000000E+01 0.  1.
         -5    1    3    3    0  502 -0.33563875959E+02 -0.70170204631E+02  0.68909158963E+02  0.10400161526E+03  0.41800000000E+01 0.  1.
        -11    1    4    4    0    0  0.25929379691E+02  0.21405166810E+02  0.15299376617E+03  0.15664484155E+03  0.00000000000E+00 0.  1.
         11    1    4    4    0    0 -0.33906416900E+02  0.25448624428E+02  0.27806962781E+02  0.50700145674E+02  0.00000000000E+00 0. -1.
</event>
<event>
 8    1  0.6840032E-009  0.1006745E+03  0.7561462E-02  0.1278884E+00
          2   -1    0    0  501    0  0.00000000000E+00  0.00000000000E+00  0.12259527789E+03  0.12259527789E+03  0.00000000000E+00 0. -1.
         -2   -1    0    0    0  501 -0.00000000000E+00 -0.00000000000E+00 -0.21192333796E+03  0.21192333796E+03  0.00000000000E+00 0.  1.
         25    2    1    2    0    0  0.27451791309E+02 -0.80378374225E+02  0.37853878321E+02  0.15586649860E+03  0.12508863015E+03 0.  0.
         23    2    1    2    0    0 -0.27451791309E+02  0.80378374225E+02 -0.12718193839E+03  0.17865211725E+03  0.92342025391E+02 0.  0.
          5    1    3    3  502    0  0.44451746416E+01 -0.49609358083E+01 -0.42493712466E+02  0.43215257269E+02  0.41800000000E+01 0. -1.
         -5    1    3    3    0  502  0.23006616668E+02 -0.75417438416E+02  0.80347590787E+02  0.11265124133E+03  0.41800000000E+01 0. -1.
        -11    1    4    4    0    0  0.26519880065E+02  0.18063194306E+02 -0.73707735647E+02  0.80389136837E+02  0.00000000000E+00 0.  1.
         11    1    4    4    0    0 -0.53971671374E+02  0.62315179919E+02 -0.53474202747E+02  0.98262980408E+02  0.00000000000E+00 0. -1.
</event>
<event>
 8    1  0.6840032E-009  0.8731096E+02  0.7561462E-02  0.1309497E+00
          2   -1    0    0  501    0  0.00000000000E+00  0.00000000000E+00  0.13838569042E+03  0.13838569042E+03  0.00000000000E+00 0. -1.
         -2   -1    0    0    0  501 -0.00000000000E+00 -0.00000000000E+00 -0.14506049643E+03  0.14506049643E+03  0.00000000000E+00 0.  1.
         25    2    1    2    0    0 -0.30481068039E+02 -0.11756066038E+02  0.80850742267E+02  0.15248542027E+03  0.12509060824E+03 0.  0.
         23    2    1    2    0    0  0.30481068039E+02  0.11756066038E+02 -0.87525548275E+02  0.13096076658E+03  0.91775270014E+02 0.  0.
          5    1    3    3  502    0 -0.53075237441E+02 -0.49528978713E+02  0.80214844660E+02  0.10826815906E+03  0.41800000000E+01 0.  1.
         -5    1    3    3    0  502  0.22594169403E+02  0.37772912676E+02  0.63589760739E+00  0.44217261208E+02  0.41800000000E+01 0.  1.
        -11    1    4    4    0    0  0.72124155807E+01 -0.18307572374E+02 -0.90701971279E+02  0.92811818960E+02  0.00000000000E+00 0.  1.
         11    1    4    4    0    0  0.23268652458E+02  0.30063638412E+02  0.31764230044E+01  0.38148947624E+02  0.00000000000E+00 0. -1.
</event>
<event>
 8    1  0.6840032E-009  0.1422072E+03  0.7561462E-02  0.1210390E+00
          1   -1    0    0  501    0  0.00000000000E+00  0.00000000000E+00  0.26736965570E+03  0.26736965570E+03  0.00000000000E+00 0. -1.
         -1   -1    0    0    0  501 -0.00000000000E+00 -0.00000000000E+00 -0.10349226008E+03  0.10349226008E+03  0.00000000000E+00 0.  1.
         25    2    1    2    0    0 -0.36713384398E+02  0.90822194139E+02  0.17533817392E+03  0.23661469463E+03  0.12508595020E+03 0.  0.
         23    2    1    2    0    0  0.36713384398E+02 -0.90822194139E+02 -0.11460778304E+02  0.13424722116E+03  0.91073725115E+02 0.  0.
          5    1    3    3  502    0  0.40289275713E+02  0.16254749464E+02  0.20429705439E+02  0.48190122245E+02  0.41800000000E+01 0.  1.
         -5    1    3    3    0  502 -0.77002660111E+02  0.74567444675E+02  0.15490846848E+03  0.18842457238E+03  0.41800000000E+01 0.  1.
        -11    1    4    4    0    0  0.66174678797E+02 -0.49004848872E+02 -0.11129282920E+02  0.83092865309E+02  0.00000000000E+00 0. -1.
         11    1    4    4    0    0 -0.29461294400E+02 -0.41817345267E+02 -0.33149538318E+00  0.51154355846E+02  0.00000000000E+00 0.  1.
</event>
<event>
 8    1  0.6840032E-009  0.1635508E+03  0.7561462E-02  0.1184745E+00
         -1   -1    0    0    0  501 -0.00000000000E+00  0.00000000000E+00  0.76111566670E+03  0.76111566670E+03  0.00000000000E+00 0.  1.
          1   -1    0    0  501    0  0.00000000000E+00 -0.00000000000E+00 -0.37551394467E+02  0.37551394467E+02  0.00000000000E+00 0. -1.
         25    2    1    2    0    0  0.10573763092E+03  0.74263860859E+02  0.34597748980E+03  0.38992742611E+03  0.12508959413E+03 0.  0.
         23    2    1    2    0    0 -0.10573763092E+03 -0.74263860859E+02  0.37758678244E+03  0.40873963506E+03  0.88321817105E+02 0.  0.
          5    1    3    3  502    0  0.25300852344E+02  0.92346791593E+02  0.16102931667E+03  0.18739257262E+03  0.41800000000E+01 0. -1.
         -5    1    3    3    0  502  0.80436778579E+02 -0.18082930734E+02  0.18494817313E+03  0.20253485349E+03  0.41800000000E+01 0. -1.
        -11    1    4    4    0    0 -0.74204462615E+02 -0.87311271580E+02  0.33566655602E+03  0.35468520867E+03  0.00000000000E+00 0.  1.
         11    1    4    4    0    0 -0.31533168308E+02  0.13047410721E+02  0.41920226418E+02  0.54054426396E+02  0.00000000000E+00 0. -1.
</event>
<event>
 8    1  0.6840032E-009  0.1122464E+03  0.7561462E-02  0.1256466E+00
          1   -1    0    0  501    0  0.00000000000E+00  0.00000000000E+00  0.23586485842E+03  0.23586485842E+03  0.00000000000E+00 0. -1.
         -1   -1    0    0    0  501 -0.00000000000E+00 -0.00000000000E+00 -0.89755476401E+02  0.89755476401E+02  0.00000000000E+00 0.  1.
         25    2    1    2    0    0 -0.68345134689E+02 -0.45083686795E+02  0.13616491104E+03  0.20221828561E+03  0.12509099003E+03 0.  0.
         23    2    1    2    0    0  0.68345134689E+02  0.45083686795E+02  0.99444709780E+01  0.12340204921E+03  0.91790941794E+02 0.  0.
          5    1    3    3  502    0 -0.83764815269E+02 -0.26501582506E+02  0.15014066105E+03  0.17400738103E+03  0.41800000000E+01 0.  1.
         -5    1    3    3    0  502  0.15419680579E+02 -0.18582104288E+02 -0.13975750010E+02  0.28210904581E+02  0.41800000000E+01 0.  1.
        -11    1    4    4    0    0 -0.12183289295E+02 -0.88946370657E+01 -0.17052971194E+02  0.22767321606E+02  0.00000000000E+00 0.  1.
         11    1    4    4    0    0  0.80528423984E+02  0.53978323860E+02  0.26997442172E+02  0.10063472760E+03  0.00000000000E+00 0. -1.
</event>
<event>
 8    1  0.6840032E-009  0.1635591E+03  0.7561462E-02  0.1184736E+00
         -2   -1    0    0    0  501 -0.00000000000E+00  0.00000000000E+00  0.34765005819E+02  0.34765005819E+02  0.00000000000E+00 0.  1.
          2   -1    0    0  501    0  0.00000000000E+00 -0.00000000000E+00 -0.88207975032E+03  0.88207975032E+03  0.00000000000E+00 0. -1.
         25    2    1    2    0    0  0.93702561641E+02 -0.96887717780E+02 -0.37702395449E+03  0.41947812302E+03  0.12508970189E+03 0.  0.
         23    2    1    2    0    0 -0.93702561641E+02  0.96887717780E+02 -0.47029079001E+03  0.49736663312E+03  0.89625558046E+02 0.  0.
          5    1    3    3  502    0 -0.30625523656E+02 -0.26299998919E+02 -0.74144784805E+02  0.84525346235E+02  0.41800000000E+01 0. -1.
         -5    1    3    3    0  502  0.12432808530E+03 -0.70587718861E+02 -0.30287916968E+03  0.33495277678E+03  0.41800000000E+01 0. -1.
        -11    1    4    4    0    0 -0.40031278023E+02  0.76025144095E+02 -0.15837785905E+03  0.18018288485E+03  0.00000000000E+00 0.  1.
         11    1    4    4    0    0 -0.53671283619E+02  0.20862573685E+02 -0.31191293096E+03  0.31718374827E+03  0.00000000000E+00 0. -1.
</event>
<event>
 8    1  0.6840032E-009  0.1624736E+03  0.7561462E-02  0.1185932E+00
          4   -1    0    0  501    0  0.00000000000E+00  0.00000000000E+00  0.10514027488E+04  0.10514027488E+04  0.00000000000E+00 0. -1.
         -4   -1    0    0    0  501 -0.00000000000E+00 -0.00000000000E+00 -0.31344888504E+02  0.31344888504E+02  0.00000000000E+00 0.  1.
         25    2    1    2    0    0 -0.74282401115E+02  0.10458645945E+03  0.36898381110E+03  0.41018507498E+03  0.12508613140E+03 0.  0.
         23    2    1    2    0    0  0.74282401115E+02 -0.10458645945E+03  0.65107404924E+03  0.67256256237E+03  0.10948415450E+03 0.  0.
          5    1    3    3  502    0 -0.10430763786E+03  0.76506753359E+02  0.21682402661E+03  0.25251435116E+03  0.41800000000E+01 0. -1.
         -5    1    3    3    0  502  0.30025236741E+02  0.28079706093E+02  0.15215978449E+03  0.15767072382E+03  0.41800000000E+01 0. -1.
        -11    1    4    4    0    0 -0.94744235941E+01 -0.57177715072E+02  0.12533281928E+03  0.13808465299E+03  0.00000000000E+00 0.  1.
         11    1    4    4    0    0  0.83756824709E+02 -0.47408744380E+02  0.52574122997E+03  0.53447790938E+03  0.00000000000E+00 0. -1.
</event>
<event>
 8    1  0.6840032E-009  0.1000589E+03  0.7561462E-02  0.1280172E+00
          1   -1    0    0  501    0  0.00000000000E+00  0.00000000000E+00  0.48998671245E+03  0.48998671245E+03  0.00000000000E+00 0. -1.
         -1   -1    0    0    0  501 -0.00000000000E+00 -0.00000000000E+00 -0.41864910767E+02  0.41864910767E+02  0.00000000000E+00 0.  1.
         25    2    1    2    0    0  0.81429848394E+02  0.46334011025E+01  0.33191441618E+03  0.36396048280E+03  0.12509102589E+03 0.  0.
         23    2    1    2    0    0 -0.81429848394E+02 -0.46334011025E+01  0.11620738551E+03  0.16789114042E+03  0.89615790851E+02 0.  0.
          5    1    3    3  502    0  0.89986244279E+02 -0.17557302879E+02  0.32657929092E+03  0.33923043599E+03  0.41800000000E+01 0. -1.
         -5    1    3    3    0  502 -0.85563958857E+01  0.22190703981E+02  0.53351252587E+01  0.24730046811E+02  0.41800000000E+01 0. -1.
        -11    1    4    4    0    0 -0.33849486456E+02  0.83652744634E+01 -0.66554087081E+01  0.35497324058E+02  0.00000000000E+00 0.  1.
         11    1    4    4    0    0 -0.47580361937E+02 -0.12998675566E+02  0.12286279421E+03  0.13239381636E+03  0.00000000000E+00 0. -1.
</event>
<event>
 8    1  0.6840032E-009  0.1439472E+03  0.7561462E-02  0.1208114E+00
         -1   -1    0    0    0  501 -0.00000000000E+00  0.00000000000E+00  0.18752027922E+03  0.18752027922E+03  0.00000000000E+00 0.  1.
          1   -1    0    0  501    0  0.00000000000E+00 -0.00000000000E+00 -0.13401486668E+03  0.13401486668E+03  0.00000000000E+00 0. -1.
         25    2    1    2    0    0  0.68390658176E+02  0.80534002012E+02 -0.18735941159E+02  0.16480596461E+03  0.12508782064E+03 0.  0.
         23    2    1    2    0    0 -0.68390658176E+02 -0.80534002012E+02  0.72241353700E+02  0.15672918128E+03  0.90455599471E+02 0.  0.
          5    1    3    3  502    0  0.91951865677E+02  0.22088548113E+02  0.10447445844E+02  0.95234820753E+02  0.41800000000E+01 0.  1.
         -5    1    3    3    0  502 -0.23561207500E+02  0.58445453899E+02 -0.29183387003E+02  0.69571143855E+02  0.41800000000E+01 0.  1.
        -11    1    4    4    0    0 -0.18509766550E+02 -0.77965994154E+02  0.70532969632E+02  0.10675302107E+03  0.00000000000E+00 0.  1.
         11    1    4    4    0    0 -0.49880891626E+02 -0.25680078585E+01  0.17083840681E+01  0.49976160216E+02  0.00000000000E+00 0. -1.
</event>
<event>
 8    1  0.6840032E-009  0.1762318E+03  0.7561462E-02  0.1171501E+00
          1   -1    0    0  501    0  0.00000000000E+00  0.00000000000E+00  0.65183372653E+02  0.65183372653E+02  0.00000000000E+00 0. -1.
         -1   -1    0    0    0  501 -0.00000000000E+00 -0.00000000000E+00 -0.60718506436E+03  0.60718506436E+03  0.00000000000E+00 0.  1.
         25    2    1    2    0    0  0.15748398113E+03  0.49385316517E+02 -0.25407837195E+03  0.32778744846E+03  0.12509467803E+03 0.  0.
         23    2    1    2    0    0 -0.15748398113E+03 -0.49385316517E+02 -0.28792331976E+03  0.34458098856E+03  0.92715186531E+02 0.  0.
          5    1    3    3  502    0  0.31323899200E+01 -0.93960248738E+01 -0.10408654033E+03  0.10464022853E+03  0.41800000000E+01 0. -1.
         -5    1    3    3    0  502  0.15435159121E+03  0.58781341391E+02 -0.14999183162E+03  0.22314721992E+03  0.41800000000E+01 0. -1.
        -11    1    4    4    0    0 -0.15520084734E+03 -0.31375087479E+02 -0.20148867431E+03  0.25626038517E+03  0.00000000000E+00 0.  1.
         11    1    4    4    0    0 -0.22831337927E+01 -0.18010229038E+02 -0.86434645446E+02  0.88320603391E+02  0.00000000000E+00 0. -1.
</event>
<event>
 8    1  0.6840032E-009  0.2694285E+03  0.7561462E-02  0.1101607E+00
         -2   -1    0    0    0  501 -0.00000000000E+00  0.00000000000E+00  0.97989688662E+02  0.97989688662E+02  0.00000000000E+00 0.  1.
          2   -1    0    0  501    0  0.00000000000E+00 -0.00000000000E+00 -0.11179383643E+04  0.11179383643E+04  0.00000000000E+00 0. -1.
         25    2    1    2    0    0  0.20034961370E+03 -0.15593848478E+03 -0.85151321281E+03  0.89731779117E+03  0.12509071912E+03 0.  0.
         23    2    1    2    0    0 -0.20034961370E+03  0.15593848478E+03 -0.16843546280E+03  0.31861026176E+03  0.93194501049E+02 0.  0.
          5    1    3    3  502    0  0.13989773807E+03 -0.16743208700E+03 -0.71404478212E+03  0.74664737604E+03  0.41800000000E+01 0. -1.
         -5    1    3    3    0  502  0.60451875627E+02  0.11493602212E+02 -0.13746843070E+03  0.15067041514E+03  0.41800000000E+01 0. -1.
        -11    1    4    4    0    0 -0.96702837982E+02  0.10735317901E+03 -0.13883040204E+03  0.20037471010E+03  0.00000000000E+00 0.  1.
         11    1    4    4    0    0 -0.10364677572E+03  0.48585305771E+02 -0.29605060756E+02  0.11823555166E+03  0.00000000000E+00 0. -1.
</event>
<event>
 8    1  0.6840032E-009  0.2484589E+03  0.7561462E-02  0.1114283E+00
         -2   -1    0    0    0  501 -0.00000000000E+00  0.00000000000E+00  0.14146293536E+03  0.14146293536E+03  0.00000000000E+00 0.  1.
          2   -1    0    0  501    0  0.00000000000E+00 -0.00000000000E+00 -0.63257230093E+03  0.63257230093E+03  0.00000000000E+00 0. -1.
         25    2    1    2    0    0 -0.22777672543E+03 -0.29614886879E+02 -0.45403055320E+03  0.52397699637E+03  0.12509544881E+03 0.  0.
         23    2    1    2    0    0  0.22777672543E+03  0.29614886879E+02 -0.37078812370E+02  0.25005823993E+03  0.91624270010E+02 0.  0.
          5    1    3    3  502    0 -0.58986466187E+02 -0.64101555954E+02 -0.12305398787E+03  0.15082496146E+03  0.41800000000E+01 0. -1.
         -5    1    3    3    0  502 -0.16879025924E+03  0.34486669075E+02 -0.33097656533E+03  0.37315203491E+03  0.41800000000E+01 0. -1.
        -11    1    4    4    0    0  0.16421683795E+03  0.48221830122E+02 -0.57828741435E+02  0.18065624291E+03  0.00000000000E+00 0. -1.
         11    1    4    4    0    0  0.63559887480E+02 -0.18606943243E+02  0.20749929065E+02  0.69401997014E+02  0.00000000000E+00 0.  1.
</event>
<event>
 8    1  0.6840032E-009  0.1157075E+03  0.7561462E-02  0.1250351E+00
          2   -1    0    0  501    0  0.00000000000E+00  0.00000000000E+00  0.84285508690E+03  0.84285508690E+03  0.00000000000E+00 0. -1.
         -2   -1    0    0    0  501 -0.00000000000E+00 -0.00000000000E+00 -0.24407091482E+02  0.24407091482E+02  0.00000000000E+00 0.  1.
         25    2    1    2    0    0 -0.57116023907E+02  0.66521151790E+02  0.53817759797E+03  0.55943820769E+03  0.12509467394E+03 0.  0.
         23    2    1    2    0    0  0.57116023907E+02 -0.66521151790E+02  0.28027039745E+03  0.30782397069E+03  0.92286496431E+02 0.  0.
          5    1    3    3  502    0 -0.31166330670E+02  0.82005980981E+02  0.51127559532E+03  0.51876442423E+03  0.41800000000E+01 0. -1.
         -5    1    3    3    0  502 -0.25949693238E+02 -0.15484829191E+02  0.26902002657E+02  0.40673783462E+02  0.41800000000E+01 0. -1.
        -11    1    4    4    0    0 -0.14020849231E+02  0.21749595542E+01  0.45420476103E+01  0.14897813890E+02  0.00000000000E+00 0.  1.
         11    1    4    4    0    0  0.71136873138E+02 -0.68696111345E+02  0.27572834984E+03  0.29292615680E+03  0.00000000000E+00 0. -1.
</event>
<event>
 8    1  0.6840032E-009  0.1081277E+03  0.7561462E-02  0.1264077E+00
         -2   -1    0    0    0  501 -0.00000000000E+00  0.00000000000E+00  0.12555137040E+03  0.12555137040E+03  0.00000000000E+00 0.  1.
          2   -1    0    0  501    0  0.00000000000E+00 -0.00000000000E+00 -0.14001053850E+03  0.14001053850E+03  0.00000000000E+00 0. -1.
         25    2    1    2    0    0  0.51841740659E+02  0.18153648376E+02  0.43987739480E+02  0.14354594751E+03  0.12511353563E+03 0.  0.
         23    2    1    2    0    0 -0.51841740659E+02 -0.18153648376E+02 -0.58446907576E+02  0.12201596140E+03  0.91949621023E+02 0.  0.
          5    1    3    3  502    0  0.28388766087E+02  0.67702140362E+02  0.48964823379E+02  0.88343240704E+02  0.41800000000E+01 0. -1.
         -5    1    3    3    0  502  0.23452974573E+02 -0.49548491985E+02 -0.49770838992E+01  0.55202706804E+02  0.41800000000E+01 0. -1.
        -11    1    4    4    0    0 -0.36277486263E+02  0.23537114980E+02  0.60408196761E+01  0.43663981649E+02  0.00000000000E+00 0.  1.
         11    1    4    4    0    0 -0.15564254396E+02 -0.41690763356E+02 -0.64487727252E+02  0.78351979747E+02  0.00000000000E+00 0. -1.
</event>
<event>
 8    1  0.6840032E-009  0.1118084E+03  0.7561462E-02  0.1257257E+00
         -2   -1    0    0    0  501 -0.00000000000E+00  0.00000000000E+00  0.15424433523E+02  0.15424433523E+02  0.00000000000E+00 0. -1.
          2   -1    0    0  501    0  0.00000000000E+00 -0.00000000000E+00 -0.20783685186E+04  0.20783685186E+04  0.00000000000E+00 0.  1.
         25    2    1    2    0    0  0.48607291807E+02 -0.14727128430E+02 -0.18941657271E+04  0.18989711727E+04  0.12509258925E+03 0.  0.
         23    2    1    2    0    0 -0.48607291807E+02  0.14727128430E+02 -0.16877835799E+03  0.19482177944E+03  0.83005026889E+02 0.  0.
          5    1    3    3  502    0  0.13664382999E+02  0.50556076764E+02 -0.11284142711E+04  0.11296366106E+04  0.41800000000E+01 0. -1.
         -5    1    3    3    0  502  0.34942908808E+02 -0.65283205193E+02 -0.76575145599E+03  0.76933456214E+03  0.41800000000E+01 0. -1.
        -11    1    4    4    0    0  0.17304825969E+02  0.24797435948E+02 -0.61050612281E+02  0.68128900559E+02  0.00000000000E+00 0.  1.
         11    1    4    4    0    0 -0.65912117775E+02 -0.10070307519E+02 -0.10772774571E+03  0.12669287888E+03  0.00000000000E+00 0. -1.
</event>
<event>
 8    1  0.6840032E-009  0.1176080E+03  0.7561462E-02  0.1247096E+00
         -1   -1    0    0    0  501 -0.00000000000E+00  0.00000000000E+00  0.56339352193E+03  0.56339352193E+03  0.00000000000E+00 0.  1.
          1   -1    0    0  501    0  0.00000000000E+00 -0.00000000000E+00 -0.27015516563E+02  0.27015516563E+02  0.00000000000E+00 0. -1.
         25    2    1    2    0    0 -0.52465870083E+02  0.21490043704E+02  0.26594788986E+03  0.29931061366E+03  0.12507627204E+03 0.  0.
         23    2    1    2    0    0  0.52465870083E+02 -0.21490043704E+02  0.27043011552E+03  0.29109842484E+03  0.91604345227E+02 0.  0.
          5    1    3    3  502    0 -0.41805486977E+02 -0.45013239568E+02  0.17870202671E+03  0.18901263774E+03  0.41800000000E+01 0.  1.
         -5    1    3    3    0  502 -0.10660383106E+02  0.66503283272E+02  0.87245863148E+02  0.11029797591E+03  0.41800000000E+01 0.  1.
        -11    1    4    4    0    0 -0.14244926400E+02 -0.35272507388E+02  0.12178891300E+03  0.12759156334E+03  0.00000000000E+00 0. -1.
         11    1    4    4    0    0  0.66710796483E+02  0.13782463684E+02  0.14864120252E+03  0.16350686150E+03  0.00000000000E+00 0.  1.
</event>
<event>
 8    1  0.6840032E-009  0.8663527E+02  0.7561462E-02  0.1311211E+00
         -2   -1    0    0    0  501 -0.00000000000E+00  0.00000000000E+00  0.26204138421E+02  0.26204138421E+02  0.00000000000E+00 0.  1.
          2   -1    0    0  501    0  0.00000000000E+00 -0.00000000000E+00 -0.49606018792E+03  0.49606018792E+03  0.00000000000E+00 0. -1.
         25    2    1    2    0    0  0.15104103379E+02  0.27710865707E+02 -0.29517538289E+03  0.32213604619E+03  0.12508836707E+03 0.  0.
         23    2    1    2    0    0 -0.15104103379E+02 -0.27710865707E+02 -0.17468066661E+03  0.20012828015E+03  0.92422763484E+02 0.  0.
          5    1    3    3  502    0  0.50506996713E+02  0.58396927474E+01 -0.26670947613E+03  0.27154461104E+03  0.41800000000E+01 0. -1.
         -5    1    3    3    0  502 -0.35402893334E+02  0.21871172960E+02 -0.28465906756E+02  0.50591435150E+02  0.41800000000E+01 0. -1.
        -11    1    4    4    0    0 -0.63459949075E+01 -0.53150113306E+02 -0.52340928002E+02  0.74865071561E+02  0.00000000000E+00 0.  1.
         11    1    4    4    0    0 -0.87581084712E+01  0.25439247598E+02 -0.12233973861E+03  0.12526320859E+03  0.00000000000E+00 0. -1.
</event>
<event>
 8    1  0.6840032E-009  0.9629666E+02  0.7561462E-02  0.1288282E+00
         -2   -1    0    0    0  501 -0.00000000000E+00  0.00000000000E+00  0.35213598734E+02  0.35213598734E+02  0.00000000000E+00 0.  1.
          2   -1    0    0  501    0  0.00000000000E+00 -0.00000000000E+00 -0.37350835780E+03  0.37350835780E+03  0.00000000000E+00 0. -1.
         25    2    1    2    0    0 -0.10062233412E+02  0.61901947081E+01 -0.12828296208E+03  0.17956653661E+03  0.12509218865E+03 0.  0.
         23    2    1    2    0    0  0.10062233412E+02 -0.61901947081E+01 -0.21001179699E+03  0.22915541992E+03  0.90926808768E+02 0.  0.
          5    1    3    3  502    0 -0.66279434485E+02  0.12631249485E+01 -0.87303324497E+02  0.10969914215E+03  0.41800000000E+01 0.  1.
         -5    1    3    3    0  502  0.56217201073E+02  0.49270697596E+01 -0.40979637582E+02  0.69867394464E+02  0.41800000000E+01 0.  1.
        -11    1    4    4    0    0 -0.25575510069E+02  0.13444747403E+02 -0.16875130308E+03  0.17120709751E+03  0.00000000000E+00 0. -1.
         11    1    4    4    0    0  0.35637743481E+02 -0.19634942111E+02 -0.41260493907E+02  0.57948322405E+02  0.00000000000E+00 0.  1.
</event>
<event>
 8    1  0.6840032E-009  0.1555330E+03  0.7561462E-02  0.1193834E+00
         -2   -1    0    0    0  501 -0.00000000000E+00  0.00000000000E+00  0.10561715265E+03  0.10561715265E+03  0.00000000000E+00 0. -1.
          2   -1    0    0  501    0  0.00000000000E+00 -0.00000000000E+00 -0.31591624281E+03  0.31591624281E+03  0.00000000000E+00 0.  1.
         25    2    1    2    0    0  0.14359674225E+03 -0.20033553370E+02 -0.84743875049E+02  0.20940512846E+03  0.12509043058E+03 0.  0.
         23    2    1    2    0    0 -0.14359674225E+03  0.20033553370E+02 -0.12555521511E+03  0.21212826699E+03  0.90625172946E+02 0.  0.
          5    1    3    3  502    0  0.40472342123E+02 -0.44184861746E+02  0.17056984058E+02  0.62439775701E+02  0.41800000000E+01 0. -1.
         -5    1    3    3    0  502  0.10312440012E+03  0.24151308377E+02 -0.10180085911E+03  0.14696535276E+03  0.41800000000E+01 0. -1.
        -11    1    4    4    0    0 -0.29579704311E+02  0.32364397178E+01  0.12514160368E+02  0.32280608093E+02  0.00000000000E+00 0. -1.
         11    1    4    4    0    0 -0.11401703794E+03  0.16797113652E+02 -0.13806937548E+03  0.17984765890E+03  0.00000000000E+00 0.  1.
</event>
<event>
 8    1  0.6840032E-009  0.1385424E+03  0.7561462E-02  0.1215304E+00
         -1   -1    0    0    0  501 -0.00000000000E+00  0.00000000000E+00  0.68918199370E+02  0.68918199370E+02  0.00000000000E+00 0.  1.
          1   -1    0    0  501    0  0.00000000000E+00 -0.00000000000E+00 -0.31994494303E+03  0.31994494303E+03  0.00000000000E+00 0. -1.
         25    2    1    2    0    0 -0.74248031565E+02  0.62090354299E+02 -0.95962473572E+02  0.18499533990E+03  0.12508595909E+03 0.  0.
         23    2    1    2    0    0  0.74248031565E+02 -0.62090354299E+02 -0.15506427009E+03  0.20386780250E+03  0.90272757523E+02 0.  0.
          5    1    3    3  502    0 -0.92722589171E+02  0.14677318529E+02 -0.95438397367E+02  0.13393603814E+03  0.41800000000E+01 0.  1.
         -5    1    3    3    0  502  0.18474557606E+02  0.47413035770E+02 -0.52407620573E+00  0.51059301753E+02  0.41800000000E+01 0.  1.
        -11    1    4    4    0    0  0.79522978234E+02 -0.10516668291E+02 -0.87480173618E+02  0.11868986964E+03  0.00000000000E+00 0.  1.
         11    1    4    4    0    0 -0.52749466684E+01 -0.51573686009E+02 -0.67584096471E+02  0.85177932862E+02  0.00000000000E+00 0. -1.
</event>
<event>
 8    1  0.6840032E-009  0.9917692E+02  0.7561462E-02  0.1282036E+00
          2   -1    0    0  501    0  0.00000000000E+00  0.00000000000E+00  0.76397124651E+02  0.76397124651E+02  0.00000000000E+00 0. -1.
         -2   -1    0    0    0  501 -0.00000000000E+00 -0.00000000000E+00 -0.18084266133E+03  0.18084266133E+03  0.00000000000E+00 0.  1.
         25    2    1    2    0    0 -0.11223568134E+02 -0.44177367722E+02 -0.52733313078E+02  0.14320735385E+03  0.12509970259E+03 0.  0.
         23    2    1    2    0    0  0.11223568134E+02  0.44177367722E+02 -0.51712223606E+02  0.11403243214E+03  0.90838500691E+02 0.  0.
          5    1    3    3  502    0 -0.22007560945E+02 -0.67687517903E+02  0.12973968707E+02  0.72468814553E+02  0.41800000000E+01 0. -1.
         -5    1    3    3    0  502  0.10783992811E+02  0.23510150181E+02 -0.65707281785E+02  0.70738539298E+02  0.41800000000E+01 0. -1.
        -11    1    4    4    0    0  0.15957767464E+02 -0.26006150854E+02 -0.22278632386E+02  0.37779725855E+02  0.00000000000E+00 0.  1.
         11    1    4    4    0    0 -0.47341993301E+01  0.70183518576E+02 -0.29433591220E+02  0.76252706280E+02  0.00000000000E+00 0. -1.
</event>
<event>
 8    1  0.6840032E-009  0.1173555E+03  0.7561462E-02  0.1247524E+00
         -2   -1    0    0    0  501 -0.00000000000E+00  0.00000000000E+00  0.15596558670E+03  0.15596558670E+03  0.00000000000E+00 0.  1.
          2   -1    0    0  501    0  0.00000000000E+00 -0.00000000000E+00 -0.19459722064E+03  0.19459722064E+03  0.00000000000E+00 0. -1.
         25    2    1    2    0    0 -0.87938616297E+02  0.19180345144E+02  0.79999520076E+02  0.17363473237E+03  0.12509201092E+03 0.  0.
         23    2    1    2    0    0  0.87938616297E+02 -0.19180345144E+02 -0.11863115402E+03  0.17692807497E+03  0.95546361167E+02 0.  0.
          5    1    3    3  502    0 -0.40475335473E+02  0.65495721587E+02  0.11078458622E+02  0.77898311749E+02  0.41800000000E+01 0. -1.
         -5    1    3    3    0  502 -0.47463280825E+02 -0.46315376443E+02  0.68921061454E+02  0.95736420623E+02  0.41800000000E+01 0. -1.
        -11    1    4    4    0    0  0.24954737746E+02 -0.12229240043E+02 -0.10942231864E+03  0.11289613397E+03  0.00000000000E+00 0. -1.
         11    1    4    4    0    0  0.62983878551E+02 -0.69511051012E+01 -0.92088353773E+01  0.64031941002E+02  0.00000000000E+00 0.  1.
</event>
<event>
 8    1  0.6840032E-009  0.1441415E+03  0.7561462E-02  0.1207862E+00
          1   -1    0    0  501    0  0.00000000000E+00  0.00000000000E+00  0.29888432292E+02  0.29888432292E+02  0.00000000000E+00 0. -1.
         -1   -1    0    0    0  501 -0.00000000000E+00 -0.00000000000E+00 -0.93355895822E+03  0.93355895822E+03  0.00000000000E+00 0.  1.
         25    2    1    2    0    0 -0.12689695168E+03 -0.78693688648E+01 -0.46091126903E+03  0.49421586672E+03  0.12508142024E+03 0.  0.
         23    2    1    2    0    0  0.12689695168E+03  0.78693688648E+01 -0.44275925690E+03  0.46923152379E+03  0.89317971509E+02 0.  0.
          5    1    3    3  502    0 -0.31199255409E+02  0.41088882649E+02 -0.27148092822E+03  0.27637122969E+03  0.41800000000E+01 0. -1.
         -5    1    3    3    0  502 -0.95697696275E+02 -0.48958251514E+02 -0.18943034081E+03  0.21784463703E+03  0.41800000000E+01 0. -1.
        -11    1    4    4    0    0  0.11743632331E+03  0.13255229349E+01 -0.44239907194E+03  0.45772260803E+03  0.00000000000E+00 0.  1.
         11    1    4    4    0    0  0.94606283738E+01  0.65438459299E+01 -0.36018495535E+00  0.11508915761E+02  0.00000000000E+00 0. -1.
</event>
<event>
 8    1  0.6840032E-009  0.1512002E+03  0.7561462E-02  0.1199006E+00
          1   -1    0    0  501    0  0.00000000000E+00  0.00000000000E+00  0.51027279452E+02  0.51027279452E+02  0.00000000000E+00 0. -1.
         -1   -1    0    0    0  501 -0.00000000000E+00 -0.00000000000E+00 -0.56042917136E+03  0.56042917136E+03  0.00000000000E+00 0.  1.
         25    2    1    2    0    0  0.11767292732E+03 -0.50608598909E+02 -0.29728907512E+03  0.34704085165E+03  0.12509360665E+03 0.  0.
         23    2    1    2    0    0 -0.11767292732E+03  0.50608598909E+02 -0.21211281679E+03  0.26441559916E+03  0.92280084116E+02 0.  0.
          5    1    3    3  502    0  0.52045233214E+02  0.15152396116E+02 -0.26019961998E+02  0.60272815022E+02  0.41800000000E+01 0.  1.
         -5    1    3    3    0  502  0.65627694105E+02 -0.65760995025E+02 -0.27126911312E+03  0.28676803663E+03  0.41800000000E+01 0.  1.
        -11    1    4    4    0    0 -0.71053421246E+02  0.74243420275E+02 -0.11572041519E+03  0.15476397713E+03  0.00000000000E+00 0. -1.
         11    1    4    4    0    0 -0.46619506072E+02 -0.23634821367E+02 -0.96392401600E+02  0.10965162203E+03  0.00000000000E+00 0.  1.
</event>
<event>
 8    1  0.6840032E-009  0.1272658E+03  0.7561462E-02  0.1231570E+00
         -1   -1    0    0    0  501 -0.00000000000E+00  0.00000000000E+00  0.19867743184E+03  0.19867743184E+03  0.00000000000E+00 0.  1.
          1   -1    0    0  501    0  0.00000000000E+00 -0.00000000000E+00 -0.24309096142E+03  0.24309096142E+03  0.00000000000E+00 0. -1.
         25    2    1    2    0    0  0.39208293060E+02  0.71544936720E+02 -0.19623865405E+03  0.24660096252E+03  0.12508579919E+03 0.  0.
         23    2    1    2    0    0 -0.39208293060E+02 -0.71544936720E+02  0.15182512447E+03  0.19516743074E+03  0.91561396810E+02 0.  0.
          5    1    3    3  502    0  0.78214224011E+02  0.56563165469E+02 -0.17414641601E+03  0.19915145777E+03  0.41800000000E+01 0.  1.
         -5    1    3    3    0  502 -0.39005930951E+02  0.14981771252E+02 -0.22092238048E+02  0.47449504752E+02  0.41800000000E+01 0.  1.
        -11    1    4    4    0    0 -0.14447470653E+02 -0.86032286404E+02  0.82196464548E+02  0.11986051267E+03  0.00000000000E+00 0. -1.
         11    1    4    4    0    0 -0.24760822406E+02  0.14487349684E+02  0.69628659926E+02  0.75306918076E+02  0.00000000000E+00 0.  1.
</event>
<event>
 8    1  0.6840032E-009  0.8571455E+02  0.7561462E-02  0.1313574E+00
          2   -1    0    0  501    0  0.00000000000E+00  0.00000000000E+00  0.73237642007E+03  0.73237642007E+03  0.00000000000E+00 0. -1.
         -2   -1    0    0    0  501 -0.00000000000E+00 -0.00000000000E+00 -0.29409380337E+02  0.29409380337E+02  0.00000000000E+00 0.  1.
         25    2    1    2    0    0  0.24506512954E+02 -0.10717899937E+01  0.63119633252E+03  0.64394015185E+03  0.12509352925E+03 0.  0.
         23    2    1    2    0    0 -0.24506512954E+02  0.10717899937E+01  0.71770707210E+02  0.11784564856E+03  0.90193373148E+02 0.  0.
          5    1    3    3  502    0  0.98282723991E+01  0.36262463401E+02  0.56610440027E+03  0.56736516072E+03  0.41800000000E+01 0. -1.
         -5    1    3    3    0  502  0.14678240555E+02 -0.37334253394E+02  0.65091932249E+02  0.76574991127E+02  0.41800000000E+01 0. -1.
        -11    1    4    4    0    0 -0.46945085586E+02  0.30726047432E+02  0.39593248084E+02  0.68669908587E+02  0.00000000000E+00 0. -1.
         11    1    4    4    0    0  0.22438572631E+02 -0.29654257439E+02  0.32177459126E+02  0.49175739972E+02  0.00000000000E+00 0.  1.
</event>
<event>
 8    1  0.6840032E-009  0.1324707E+03  0.7561462E-02  0.1223835E+00
         -3   -1    0    0    0  501 -0.00000000000E+00  0.00000000000E+00  0.27001117499E+02  0.27001117499E+02  0.00000000000E+00 0.  1.
          3   -1    0    0  501    0  0.00000000000E+00 -0.00000000000E+00 -0.66839735721E+03  0.66839735721E+03  0.00000000000E+00 0. -1.
         25    2    1    2    0    0  0.44302865584E+02 -0.63935938444E+02 -0.39855817294E+03  0.42490838900E+03  0.12509186106E+03 0.  0.
         23    2    1    2    0    0 -0.44302865584E+02  0.63935938444E+02 -0.24283806677E+03  0.27049008571E+03  0.90244178028E+02 0.  0.
          5    1    3    3  502    0 -0.25234399104E+02  0.23737070517E+02 -0.10910633985E+03  0.11455081497E+03  0.41800000000E+01 0.  1.
         -5    1    3    3    0  502  0.69537264688E+02 -0.87673008961E+02 -0.28945183309E+03  0.31035757403E+03  0.41800000000E+01 0.  1.
        -11    1    4    4    0    0 -0.52382612361E+02  0.82553872346E+02 -0.18589325014E+03  0.21003661673E+03  0.00000000000E+00 0.  1.
         11    1    4    4    0    0  0.80797467764E+01 -0.18617933902E+02 -0.56944816632E+02  0.60453468982E+02  0.00000000000E+00 0. -1.
</event>
<event>
 8    1  0.6840032E-009  0.1111380E+03  0.7561462E-02  0.1258477E+00
          2   -1    0    0  501    0  0.00000000000E+00  0.00000000000E+00  0.27679049306E+03  0.27679049306E+03  0.00000000000E+00 0. -1.
         -2   -1    0    0    0  501 -0.00000000000E+00 -0.00000000000E+00 -0.70021726546E+02  0.70021726546E+02  0.00000000000E+00 0.  1.
         25    2    1    2    0    0  0.10578042975E+01  0.75035498630E+02  0.14735000518E+03  0.20734277558E+03  0.12509019768E+03 0.  0.
         23    2    1    2    0    0 -0.10578042975E+01 -0.75035498630E+02  0.59418761333E+02  0.13946944403E+03  0.10143811716E+03 0.  0.
          5    1    3    3  502    0 -0.47055451398E+02  0.21758610540E+02  0.10953052109E+02  0.53151616997E+02  0.41800000000E+01 0.  1.
         -5    1    3    3    0  502  0.48113255696E+02  0.53276888091E+02  0.13639695307E+03  0.15419115859E+03  0.41800000000E+01 0.  1.
        -11    1    4    4    0    0 -0.29376299072E+02 -0.58761462344E+02 -0.63858590103E+01  0.66004966475E+02  0.00000000000E+00 0.  1.
         11    1    4    4    0    0  0.28318494774E+02 -0.16274036286E+02  0.65804620343E+02  0.73464477551E+02  0.00000000000E+00 0. -1.
</event>
<event>
 8    1  0.6840032E-009  0.1276396E+03  0.7561462E-02  0.1231001E+00
         -1   -1    0    0    0  501 -0.00000000000E+00  0.00000000000E+00  0.51966494744E+02  0.51966494744E+02  0.00000000000E+00 0.  1.
          1   -1    0    0  501    0  0.00000000000E+00 -0.00000000000E+00 -0.46450295454E+03  0.46450295454E+03  0.00000000000E+00 0. -1.
         25    2    1    2    0    0  0.40428639051E+02  0.86294389768E+02 -0.12811784544E+03  0.20283813519E+03  0.12509168721E+03 0.  0.
         23    2    1    2    0    0 -0.40428639051E+02 -0.86294389768E+02 -0.28441861436E+03  0.31363131409E+03  0.91593975906E+02 0.  0.
          5    1    3    3  502    0  0.45279577908E+02  0.11087553084E+03 -0.68498718764E+02  0.13803322204E+03  0.41800000000E+01 0. -1.
         -5    1    3    3    0  502 -0.48509388573E+01 -0.24581141069E+02 -0.59619126672E+02  0.64804913156E+02  0.41800000000E+01 0. -1.
        -11    1    4    4    0    0 -0.38972831161E+02 -0.20139297969E+02 -0.20786186527E+03  0.21244064566E+03  0.00000000000E+00 0. -1.
         11    1    4    4    0    0 -0.14558078893E+01 -0.66155091799E+02 -0.76556749087E+02  0.10119066843E+03  0.00000000000E+00 0.  1.
</event>
<event>
 8    1  0.6840032E-009  0.2719402E+03  0.7561462E-02  0.1100174E+00
         -1   -1    0    0    0  501 -0.00000000000E+00  0.00000000000E+00  0.44369065418E+02  0.44369065418E+02  0.00000000000E+00 0.  1.
          1   -1    0    0  501    0  0.00000000000E+00 -0.00000000000E+00 -0.27930758309E+04  0.27930758309E+04  0.00000000000E+00 0. -1.
         25    2    1    2    0    0  0.24125994339E+03 -0.12003902684E+03 -0.21929302061E+04  0.22129637644E+04  0.12509998111E+03 0.  0.
         23    2    1    2    0    0 -0.24125994339E+03  0.12003902684E+03 -0.55577655939E+03  0.62448113197E+03  0.92050920544E+02 0.  0.
          5    1    3    3  502    0  0.96983771391E+02 -0.76658568063E+02 -0.14266831207E+04  0.14320351208E+04  0.41800000000E+01 0. -1.
         -5    1    3    3    0  502  0.14427617200E+03 -0.43380458772E+02 -0.76624708539E+03  0.78092864352E+03  0.41800000000E+01 0. -1.
        -11    1    4    4    0    0 -0.96543654434E+02  0.48068771066E+02 -0.32734507992E+03  0.34465357290E+03  0.00000000000E+00 0. -1.
         11    1    4    4    0    0 -0.14471628895E+03  0.71970255769E+02 -0.22843147947E+03  0.27982755907E+03  0.00000000000E+00 0.  1.
</event>
<event>
 8    1  0.6840032E-009  0.1025363E+03  0.7561462E-02  0.1275051E+00
          1   -1    0    0  501    0  0.00000000000E+00  0.00000000000E+00  0.17420865370E+03  0.17420865370E+03  0.00000000000E+00 0. -1.
         -1   -1    0    0    0  501 -0.00000000000E+00 -0.00000000000E+00 -0.89513383881E+02  0.89513383881E+02  0.00000000000E+00 0.  1.
         25    2    1    2    0    0  0.21308777154E+02  0.18363018851E+02  0.63373556969E+02  0.14302139302E+03  0.12509055397E+03 0.  0.
         23    2    1    2    0    0 -0.21308777154E+02 -0.18363018851E+02  0.21321712850E+02  0.12070064456E+03  0.11542428563E+03 0.  0.
          5    1    3    3  502    0  0.50057119238E+02 -0.20992091319E+02  0.75064064932E+02  0.92727931760E+02  0.41800000000E+01 0.  1.
         -5    1    3    3    0  502 -0.28748342084E+02  0.39355110170E+02 -0.11690507963E+02  0.50293461260E+02  0.41800000000E+01 0.  1.
        -11    1    4    4    0    0  0.36797210553E+02  0.83974333346E+01  0.39058760079E+02  0.54315175872E+02  0.00000000000E+00 0. -1.
         11    1    4    4    0    0 -0.58105987707E+02 -0.26760452185E+02 -0.17737047229E+02  0.66385468688E+02  0.00000000000E+00 0.  1.
</event>
<event>
 8    1  0.6840032E-009  0.2567965E+03  0.7561462E-02  0.1109083E+00
          1   -1    0    0  501    0  0.00000000000E+00  0.00000000000E+00  0.24709749140E+03  0.24709749140E+03  0.00000000000E+00 0. -1.
         -1   -1    0    0    0  501 -0.00000000000E+00 -0.00000000000E+00 -0.33638009244E+03  0.33638009244E+03  0.00000000000E+00 0.  1.
         25    2    1    2    0    0  0.20725171415E+03  0.13528383506E+03 -0.14613174998E+03  0.31345995217E+03  0.12509062403E+03 0.  0.
         23    2    1    2    0    0 -0.20725171415E+03 -0.13528383506E+03  0.56849148937E+02  0.27001763166E+03  0.91775305110E+02 0.  0.
          5    1    3    3  502    0  0.18642058815E+03  0.76009814248E+02 -0.14889231529E+03  0.25043266860E+03  0.41800000000E+01 0.  1.
         -5    1    3    3    0  502  0.20831125993E+02  0.59274020815E+02  0.27605653185E+01  0.63027283573E+02  0.41800000000E+01 0.  1.
        -11    1    4    4    0    0 -0.10001523961E+03 -0.47718285283E+02 -0.18571339383E+02  0.11236092537E+03  0.00000000000E+00 0. -1.
         11    1    4    4    0    0 -0.10723647454E+03 -0.87565549779E+02  0.75420488321E+02  0.15765670629E+03  0.00000000000E+00 0.  1.
</event>
<event>
 8    1  0.6840032E-009  0.1105899E+03  0.7561462E-02  0.1259481E+00
         -1   -1    0    0    0  501 -0.00000000000E+00  0.00000000000E+00  0.44477049661E+02  0.44477049661E+02  0.00000000000E+00 0.  1.
          1   -1    0    0  501    0  0.00000000000E+00 -0.00000000000E+00 -0.50565557080E+03  0.50565557080E+03  0.00000000000E+00 0. -1.
         25    2    1    2    0    0  0.98858165976E+02  0.36223588329E+02 -0.25714349516E+03  0.30472627487E+03  0.12510091991E+03 0.  0.
         23    2    1    2    0    0 -0.98858165976E+02 -0.36223588329E+02 -0.20403502598E+03  0.24540634559E+03  0.86653893730E+02 0.  0.
          5    1    3    3  502    0  0.59392868053E+02  0.40964784439E+02 -0.25462049015E+03  0.26467847050E+03  0.41800000000E+01 0.  1.
         -5    1    3    3    0  502  0.39465297923E+02 -0.47411961108E+01 -0.25230050073E+01  0.40047804371E+02  0.41800000000E+01 0.  1.
        -11    1    4    4    0    0 -0.57124144177E+02 -0.60549506781E+01 -0.31844516571E+02  0.65680312966E+02  0.00000000000E+00 0.  1.
         11    1    4    4    0    0 -0.41734021799E+02 -0.30168637651E+02 -0.17219050941E+03  0.17972603262E+03  0.00000000000E+00 0. -1.
</event>
<event>
 8    1  0.6840032E-009  0.8778266E+02  0.7561462E-02  0.1308312E+00
          1   -1    0    0  501    0  0.00000000000E+00  0.00000000000E+00  0.75425907259E+03  0.75425907259E+03  0.00000000000E+00 0. -1.
         -1   -1    0    0    0  501 -0.00000000000E+00 -0.00000000000E+00 -0.22953109207E+02  0.22953109207E+02  0.00000000000E+00 0.  1.
         25    2    1    2    0    0 -0.55221482904E+02  0.22861500648E+02  0.27171445931E+03  0.30503560209E+03  0.12508361509E+03 0.  0.
         23    2    1    2    0    0  0.55221482904E+02 -0.22861500648E+02  0.45959150408E+03  0.47217657970E+03  0.90301225981E+02 0.  0.
          5    1    3    3  502    0 -0.29724958088E+02 -0.45927386236E+01 -0.35277287334E+00  0.30368787103E+02  0.41800000000E+01 0.  1.
         -5    1    3    3    0  502 -0.25496524816E+02  0.27454239272E+02  0.27206723218E+03  0.27466681499E+03  0.41800000000E+01 0.  1.
        -11    1    4    4    0    0  0.78636189948E+02 -0.64398836720E+01  0.36096085401E+03  0.36948323453E+03  0.00000000000E+00 0. -1.
         11    1    4    4    0    0 -0.23414707044E+02 -0.16421616976E+02  0.98630650067E+02  0.10269334517E+03  0.00000000000E+00 0.  1.
</event>
<event>
 8    1  0.6840032E-009  0.8456544E+02  0.7561462E-02  0.1316573E+00
          2   -1    0    0  501    0  0.00000000000E+00  0.00000000000E+00  0.13437581877E+04  0.13437581877E+04  0.00000000000E+00 0. -1.
         -2   -1    0    0    0  501 -0.00000000000E+00 -0.00000000000E+00 -0.10497812544E+02  0.10497812544E+02  0.00000000000E+00 0.  1.
         25    2    1    2    0    0 -0.18630581204E+01  0.43677090153E+02  0.10021762857E+04  0.10108983325E+04  0.12508785637E+03 0.  0.
         23    2    1    2    0    0  0.18630581204E+01 -0.43677090153E+02  0.33108408939E+03  0.34335766769E+03  0.79791318615E+02 0.  0.
          5    1    3    3  502    0  0.31436207861E+02  0.41901893985E+02  0.92773763972E+03  0.92922473301E+03  0.41800000000E+01 0.  1.
         -5    1    3    3    0  502 -0.33299265982E+02  0.17751961685E+01  0.74438646012E+02  0.81673599507E+02  0.41800000000E+01 0.  1.
        -11    1    4    4    0    0  0.17052028485E+02  0.14785897292E+02  0.38710104372E+02  0.44809224660E+02  0.00000000000E+00 0.  1.
         11    1    4    4    0    0 -0.15188970364E+02 -0.58462987445E+02  0.29237398502E+03  0.29854844303E+03  0.00000000000E+00 0. -1.
</event>
<event>
 8    1  0.6840032E-009  0.1161141E+03  0.7561462E-02  0.1249649E+00
         -2   -1    0    0    0  501 -0.00000000000E+00  0.00000000000E+00  0.44661914807E+02  0.44661914807E+02  0.00000000000E+00 0.  1.
          2   -1    0    0  501    0  0.00000000000E+00 -0.00000000000E+00 -0.51786893000E+03  0.51786893000E+03  0.00000000000E+00 0. -1.
         25    2    1    2    0    0 -0.97457876686E+00 -0.10179201127E+03 -0.31165191219E+03  0.35090834089E+03  0.12508871240E+03 0.  0.
         23    2    1    2    0    0  0.97457876686E+00  0.10179201127E+03 -0.16155510300E+03  0.21162250392E+03  0.91222088870E+02 0.  0.
          5    1    3    3  502    0 -0.11718512180E+02 -0.22628875114E+02 -0.24618878172E+03  0.24753944768E+03  0.41800000000E+01 0. -1.
         -5    1    3    3    0  502  0.10743933413E+02 -0.79163136152E+02 -0.65463130476E+02  0.10336889320E+03  0.41800000000E+01 0. -1.
        -11    1    4    4    0    0  0.21601184255E+02 -0.94243574052E+00 -0.67283649105E+02  0.70672404680E+02  0.00000000000E+00 0. -1.
         11    1    4    4    0    0 -0.20626605488E+02  0.10273444701E+03 -0.94271453892E+02  0.14095009924E+03  0.00000000000E+00 0.  1.
</event>
<event>
 8    1  0.6840032E-009  0.1351935E+03  0.7561462E-02  0.1219947E+00
          2   -1    0    0  501    0  0.00000000000E+00  0.00000000000E+00  0.70870341598E+03  0.70870341598E+03  0.00000000000E+00 0. -1.
         -2   -1    0    0    0  501 -0.00000000000E+00 -0.00000000000E+00 -0.31490938018E+02  0.31490938018E+02  0.00000000000E+00 0.  1.
         25    2    1    2    0    0 -0.80916802713E+02  0.36066751148E+02  0.49747269302E+03  0.52055483419E+03  0.12509962269E+03 0.  0.
         23    2    1    2    0    0  0.80916802713E+02 -0.36066751148E+02  0.17973978494E+03  0.21963951981E+03  0.89926574890E+02 0.  0.
          5    1    3    3  502    0 -0.93987741959E+02 -0.11391079384E+02  0.23348584908E+03  0.25198525046E+03  0.41800000000E+01 0.  1.
         -5    1    3    3    0  502  0.13070939246E+02  0.47457830532E+02  0.26398684394E+03  0.26856958373E+03  0.41800000000E+01 0.  1.
        -11    1    4    4    0    0  0.13557123124E+02  0.29343851419E+02  0.44456938289E+02  0.54966140173E+02  0.00000000000E+00 0. -1.
         11    1    4    4    0    0  0.67359679589E+02 -0.65410602567E+02  0.13528284665E+03  0.16467337964E+03  0.00000000000E+00 0.  1.
</event>
<event>
 8    1  0.6840032E-009  0.1154404E+03  0.7561462E-02  0.1250814E+00
          3   -1    0    0  501    0  0.00000000000E+00  0.00000000000E+00  0.18963608738E+03  0.18963608738E+03  0.00000000000E+00 0. -1.
         -3   -1    0    0    0  501 -0.00000000000E+00 -0.00000000000E+00 -0.97913540830E+02  0.97913540830E+02  0.00000000000E+00 0.  1.
         25    2    1    2    0    0 -0.67456333193E+02  0.43332018108E+02  0.64228209962E+02  0.16186187785E+03  0.12508390729E+03 0.  0.
         23    2    1    2    0    0  0.67456333193E+02 -0.43332018108E+02  0.27494336589E+02  0.12568775037E+03  0.92808681525E+02 0.  0.
          5    1    3    3  502    0 -0.92407492552E+02 -0.40509793072E+01  0.26790776175E+02  0.96388657015E+02  0.41800000000E+01 0. -1.
         -5    1    3    3    0  502  0.24951159359E+02  0.47382997415E+02  0.37437433787E+02  0.65473220831E+02  0.41800000000E+01 0. -1.
        -11    1    4    4    0    0  0.49134950045E+02 -0.44399907274E+02 -0.24452701079E+02  0.70594119245E+02  0.00000000000E+00 0.  1.
         11    1    4    4    0    0  0.18321383148E+02  0.10678891655E+01  0.51947037667E+02  0.55093631121E+02  0.00000000000E+00 0. -1.
</event>
<event>
 8    1  0.6840032E-009  0.8291305E+02  0.7561462E-02  0.1320982E+00
          4   -1    0    0  501    0  0.00000000000E+00  0.00000000000E+00  0.59909655054E+03  0.59909655054E+03  0.00000000000E+00 0. -1.
         -4   -1    0    0    0  501 -0.00000000000E+00 -0.00000000000E+00 -0.20110638531E+02  0.20110638531E+02  0.00000000000E+00 0.  1.
         25    2    1    2    0    0 -0.13276792021E+02  0.10488020182E+02  0.32735965292E+03  0.35085372587E+03  0.12509085826E+03 0.  0.
         23    2    1    2    0    0  0.13276792021E+02 -0.10488020182E+02  0.25162625909E+03  0.26835346320E+03  0.91714421861E+02 0.  0.
          5    1    3    3  502    0 -0.35911567209E+02  0.44566666151E+02  0.71362836245E+02  0.91574861114E+02  0.41800000000E+01 0.  1.
         -5    1    3    3    0  502  0.22634775188E+02 -0.34078645969E+02  0.25599681668E+03  0.25927886475E+03  0.41800000000E+01 0.  1.
        -11    1    4    4    0    0 -0.26452852365E+02 -0.73854604460E+01  0.21709224528E+02  0.35008411187E+02  0.00000000000E+00 0.  1.
         11    1    4    4    0    0  0.39729644386E+02 -0.31025597357E+01  0.22991703456E+03  0.23334505202E+03  0.00000000000E+00 0. -1.
</event>
<event>
 8    1  0.6840032E-009  0.1312508E+03  0.7561462E-02  0.1225612E+00
          1   -1    0    0  501    0  0.00000000000E+00  0.00000000000E+00  0.14234891318E+04  0.14234891318E+04  0.00000000000E+00 0.  1.
         -1   -1    0    0    0  501 -0.00000000000E+00 -0.00000000000E+00 -0.12759816759E+02  0.12759816759E+02  0.00000000000E+00 0. -1.
         25    2    1    2    0    0 -0.70488189194E+02  0.29890534187E+02  0.89966462962E+03  0.91153992073E+03  0.12508618006E+03 0.  0.
         23    2    1    2    0    0  0.70488189194E+02 -0.29890534187E+02  0.51106468541E+03  0.52470902782E+03  0.90941862482E+02 0.  0.
          5    1    3    3  502    0 -0.83903825438E+02  0.65567081530E+02  0.59449050004E+03  0.60396632451E+03  0.41800000000E+01 0. -1.
         -5    1    3    3    0  502  0.13415636244E+02 -0.35676547343E+02  0.30517412958E+03  0.30757359621E+03  0.41800000000E+01 0. -1.
        -11    1    4    4    0    0  0.36240379944E+02 -0.61241279527E+02  0.34579770920E+03  0.35304378644E+03  0.00000000000E+00 0.  1.
         11    1    4    4    0    0  0.34247809250E+02  0.31350745340E+02  0.16526697621E+03  0.17166524138E+03  0.00000000000E+00 0. -1.
</event>
<event>
 8    1  0.6840032E-009  0.1914315E+03  0.7561462E-02  0.1157176E+00
          1   -1    0    0  501    0  0.00000000000E+00  0.00000000000E+00  0.19768348603E+03  0.19768348603E+03  0.00000000000E+00 0. -1.
         -1   -1    0    0    0  501 -0.00000000000E+00 -0.00000000000E+00 -0.22827334694E+03  0.22827334694E+03  0.00000000000E+00 0.  1.
         25    2    1    2    0    0  0.13529077517E+03 -0.10061491193E+03 -0.86331394914E+02  0.22699666884E+03  0.12508966212E+03 0.  0.
         23    2    1    2    0    0 -0.13529077517E+03  0.10061491193E+03  0.55741534004E+02  0.19896016413E+03  0.89727776918E+02 0.  0.
          5    1    3    3  502    0  0.32790458465E+02  0.29318137235E+02 -0.14133777439E+02  0.46389690686E+02  0.41800000000E+01 0. -1.
         -5    1    3    3    0  502  0.10250031670E+03 -0.12993304916E+03 -0.72197617475E+02  0.18060697815E+03  0.41800000000E+01 0. -1.
        -11    1    4    4    0    0 -0.27135471995E+02  0.27573377084E+01 -0.20744046624E+02  0.34267363802E+02  0.00000000000E+00 0.  1.
         11    1    4    4    0    0 -0.10815530317E+03  0.97857574220E+02  0.76485580627E+02  0.16469280033E+03  0.00000000000E+00 0. -1.
</event>
<event>
 8    1  0.6840032E-009  0.1230358E+03  0.7561462E-02  0.1238171E+00
         -1   -1    0    0    0  501 -0.00000000000E+00  0.00000000000E+00  0.29284615187E+02  0.29284615187E+02  0.00000000000E+00 0.  1.
          1   -1    0    0  501    0  0.00000000000E+00 -0.00000000000E+00 -0.57671454053E+03  0.57671454053E+03  0.00000000000E+00 0. -1.
         25    2    1    2    0    0 -0.58864431799E+02 -0.14730102558E+02 -0.21464648834E+03  0.25573685368E+03  0.12508487567E+03 0.  0.
         23    2    1    2    0    0  0.58864431799E+02  0.14730102558E+02 -0.33278343700E+03  0.35026230204E+03  0.90867304536E+02 0.  0.
          5    1    3    3  502    0 -0.55235914018E+02  0.48368241612E+02 -0.13739651505E+03  0.15583891600E+03  0.41800000000E+01 0. -1.
         -5    1    3    3    0  502 -0.36285177813E+01 -0.63098344169E+02 -0.77249973298E+02  0.99897937680E+02  0.41800000000E+01 0. -1.
        -11    1    4    4    0    0  0.90678438008E+01  0.48295442166E+02 -0.14341420527E+03  0.15159917479E+03  0.00000000000E+00 0.  1.
         11    1    4    4    0    0  0.49796587999E+02 -0.33565339608E+02 -0.18936923173E+03  0.19866312724E+03  0.00000000000E+00 0. -1.
</event>
<event>
 8    1  0.6840032E-009  0.9898442E+02  0.7561462E-02  0.1282446E+00
         -2   -1    0    0    0  501 -0.00000000000E+00  0.00000000000E+00  0.35848916126E+03  0.35848916126E+03  0.00000000000E+00 0.  1.
          2   -1    0    0  501    0  0.00000000000E+00 -0.00000000000E+00 -0.67039096716E+02  0.67039096716E+02  0.00000000000E+00 0. -1.
         25    2    1    2    0    0 -0.34119153452E+02  0.41746026594E+02  0.28364200300E+03  0.31465552838E+03  0.12509383800E+03 0.  0.
         23    2    1    2    0    0  0.34119153452E+02 -0.41746026594E+02  0.78080615453E+01  0.11087272960E+03  0.96565775382E+02 0.  0.
          5    1    3    3  502    0 -0.15809292167E+02  0.86183945203E+02  0.19201280964E+03  0.21110186545E+03  0.41800000000E+01 0.  1.
         -5    1    3    3    0  502 -0.18309861284E+02 -0.44437918609E+02  0.91629193358E+02  0.10355366293E+03  0.41800000000E+01 0.  1.
        -11    1    4    4    0    0  0.36345320322E+02 -0.22751515738E+02  0.49207992805E+02  0.65268984469E+02  0.00000000000E+00 0.  1.
         11    1    4    4    0    0 -0.22261668707E+01 -0.18994510856E+02 -0.41399931260E+02  0.45603745130E+02  0.00000000000E+00 0. -1.
</event>
<event>
 8    1  0.6840032E-009  0.1641318E+03  0.7561462E-02  0.1184109E+00
         -4   -1    0    0    0  501 -0.00000000000E+00  0.00000000000E+00  0.81660344248E+02  0.81660344248E+02  0.00000000000E+00 0. -1.
          4   -1    0    0  501    0  0.00000000000E+00 -0.00000000000E+00 -0.49031436762E+03  0.49031436762E+03  0.00000000000E+00 0.  1.
         25    2    1    2    0    0  0.11006734821E+03 -0.10988070920E+03 -0.13033749511E+03  0.23837369475E+03  0.12508223024E+03 0.  0.
         23    2    1    2    0    0 -0.11006734821E+03  0.10988070920E+03 -0.27831652826E+03  0.33360101712E+03  0.98188376728E+02 0.  0.
          5    1    3    3  502    0  0.10197598962E+03 -0.91966254112E+02 -0.15463073431E+03  0.20684542718E+03  0.41800000000E+01 0. -1.
         -5    1    3    3    0  502  0.80913585914E+01 -0.17914455085E+02  0.24293239199E+02  0.31528267565E+02  0.41800000000E+01 0. -1.
        -11    1    4    4    0    0 -0.11153544138E+03  0.71742170111E+02 -0.25864761177E+03  0.29066420614E+03  0.00000000000E+00 0.  1.
         11    1    4    4    0    0  0.14680931670E+01  0.38138539086E+02 -0.19668916485E+02  0.42936810977E+02  0.00000000000E+00 0. -1.
</event>
<event>
 8    1  0.6840032E-009  0.1137650E+03  0.7561462E-02  0.1253752E+00
          2   -1    0    0  501    0  0.00000000000E+00  0.00000000000E+00  0.10572642600E+04  0.10572642600E+04  0.00000000000E+00 0.  1.
         -2   -1    0    0    0  501 -0.00000000000E+00 -0.00000000000E+00 -0.15944911738E+02  0.15944911738E+02  0.00000000000E+00 0. -1.
         25    2    1    2    0    0 -0.50246730024E+02  0.19745778116E+02  0.77443383597E+03  0.78632637608E+03  0.12508706485E+03 0.  0.
         23    2    1    2    0    0  0.50246730024E+02 -0.19745778116E+02  0.26688551228E+03  0.28688279565E+03  0.90328468056E+02 0.  0.
          5    1    3    3  502    0 -0.84547520425E+02  0.50402786183E+01  0.67001089992E+03  0.67535602909E+03  0.41800000000E+01 0.  1.
         -5    1    3    3    0  502  0.34300790401E+02  0.14705499498E+02  0.10442293605E+03  0.11097034699E+03  0.41800000000E+01 0.  1.
        -11    1    4    4    0    0  0.18950368116E+02 -0.54917911747E+02  0.14272111561E+03  0.15409221370E+03  0.00000000000E+00 0. -1.
         11    1    4    4    0    0  0.31296361908E+02  0.35172133631E+02  0.12416439667E+03  0.13279058195E+03  0.00000000000E+00 0.  1.
</event>
<event>
 8    1  0.6840032E-009  0.1295521E+03  0.7561462E-02  0.1228122E+00
         -2   -1    0    0    0  501 -0.00000000000E+00  0.00000000000E+00  0.23006848137E+02  0.23006848137E+02  0.00000000000E+00 0.  1.
          2   -1    0    0  501    0  0.00000000000E+00 -0.00000000000E+00 -0.91002506323E+03  0.91002506323E+03  0.00000000000E+00 0. -1.
         25    2    1    2    0    0  0.70587463556E+02 -0.22795911732E+02 -0.68624639066E+03  0.70148807768E+03  0.12509664599E+03 0.  0.
         23    2    1    2    0    0 -0.70587463556E+02  0.22795911732E+02 -0.20077182443E+03  0.23154383368E+03  0.88323144342E+02 0.  0.
          5    1    3    3  502    0  0.86024479515E+02  0.28116747430E+02 -0.47817297997E+03  0.48668021712E+03  0.41800000000E+01 0.  1.
         -5    1    3    3    0  502 -0.15437015959E+02 -0.50912659163E+02 -0.20807341069E+03  0.21480786057E+03  0.41800000000E+01 0.  1.
        -11    1    4    4    0    0 -0.13118153315E+02  0.49902731743E+02 -0.96789269617E+02  0.10968377863E+03  0.00000000000E+00 0. -1.
         11    1    4    4    0    0 -0.57469310240E+02 -0.27106820011E+02 -0.10398255481E+03  0.12186005505E+03  0.00000000000E+00 0.  1.
</event>
<event>
 8    1  0.6840032E-009  0.2245107E+03  0.7561462E-02  0.1130564E+00
         -1   -1    0    0    0  501 -0.00000000000E+00  0.00000000000E+00  0.15167971849E+03  0.15167971849E+03  0.00000000000E+00 0.  1.
          1   -1    0    0  501    0  0.00000000000E+00 -0.00000000000E+00 -0.43378934442E+03  0.43378934442E+03  0.00000000000E+00 0. -1.
         25    2    1    2    0    0 -0.20406293108E+03 -0.85612210566E+01 -0.19669846200E+02  0.24031008257E+03  0.12508820323E+03 0.  0.
         23    2    1    2    0    0  0.20406293108E+03  0.85612210566E+01 -0.26243977973E+03  0.34515898035E+03  0.92439760826E+02 0.  0.
          5    1    3    3  502    0 -0.12498309180E+02  0.30835955577E+02  0.22258043014E+02  0.40248686531E+02  0.41800000000E+01 0. -1.
         -5    1    3    3    0  502 -0.19156462190E+03 -0.39397176634E+02 -0.41927889214E+02  0.20006139604E+03  0.41800000000E+01 0. -1.
        -11    1    4    4    0    0  0.17772011336E+03 -0.22502607569E+02 -0.23719186165E+03  0.29723859990E+03  0.00000000000E+00 0. -1.
         11    1    4    4    0    0  0.26342817723E+02  0.31063828626E+02 -0.25247918082E+02  0.47920380445E+02  0.00000000000E+00 0.  1.
</event>
<event>
 8    1  0.6840032E-009  0.1400077E+03  0.7561462E-02  0.1213319E+00
          2   -1    0    0  501    0  0.00000000000E+00  0.00000000000E+00  0.15548223468E+04  0.15548223468E+04  0.00000000000E+00 0. -1.
         -2   -1    0    0    0  501 -0.00000000000E+00 -0.00000000000E+00 -0.13629234889E+02  0.13629234889E+02  0.00000000000E+00 0.  1.
         25    2    1    2    0    0 -0.36274670732E+02  0.88555550220E+02  0.98595523725E+03  0.99845570005E+03  0.12509243742E+03 0.  0.
         23    2    1    2    0    0  0.36274670732E+02 -0.88555550220E+02  0.55523787462E+03  0.56999588159E+03  0.86303362677E+02 0.  0.
          5    1    3    3  502    0  0.38348897413E+02 -0.16342372779E+01  0.18551488452E+03  0.18949024630E+03  0.41800000000E+01 0. -1.
         -5    1    3    3    0  502 -0.74623568145E+02  0.90189787498E+02  0.80044035273E+03  0.80896545375E+03  0.41800000000E+01 0. -1.
        -11    1    4    4    0    0 -0.25415549147E+02 -0.23470118051E+02  0.95001797722E+02  0.10110459015E+03  0.00000000000E+00 0.  1.
         11    1    4    4    0    0  0.61690219879E+02 -0.65085432169E+02  0.46023607690E+03  0.46889129144E+03  0.00000000000E+00 0. -1.
</event>
<event>
 8    1  0.6840032E-009  0.1184749E+03  0.7561462E-02  0.1245634E+00
          1   -1    0    0  501    0  0.00000000000E+00  0.00000000000E+00  0.13734448118E+03  0.13734448118E+03  0.00000000000E+00 0. -1.
         -1   -1    0    0    0  501 -0.00000000000E+00 -0.00000000000E+00 -0.13937998335E+03  0.13937998335E+03  0.00000000000E+00 0.  1.
         25    2    1    2    0    0  0.55470766914E+02 -0.31570568375E+02 -0.58142465612E+02  0.15199277606E+03  0.12509017106E+03 0.  0.
         23    2    1    2    0    0 -0.55470766914E+02  0.31570568375E+02  0.56106963448E+02  0.12473168847E+03  0.91303318627E+02 0.  0.
          5    1    3    3  502    0 -0.36014541138E+02 -0.20328582721E+02  0.23991003787E+01  0.41635640159E+02  0.41800000000E+01 0.  1.
         -5    1    3    3    0  502  0.91485308053E+02 -0.11241985653E+02 -0.60541565991E+02  0.11035713590E+03  0.41800000000E+01 0.  1.
        -11    1    4    4    0    0  0.11417700566E+02 -0.16981542671E+02 -0.60240263584E+01  0.21331328400E+02  0.00000000000E+00 0.  1.
         11    1    4    4    0    0 -0.66888467481E+02  0.48552111046E+02  0.62130989806E+02  0.10340036007E+03  0.00000000000E+00 0. -1.
</event>
<event>
 8    1  0.6840032E-009  0.8562058E+02  0.7561462E-02  0.1313818E+00
         -1   -1    0    0    0  501 -0.00000000000E+00  0.00000000000E+00  0.31253635919E+02  0.31253635919E+02  0.00000000000E+00 0.  1.
          1   -1    0    0  501    0  0.00000000000E+00 -0.00000000000E+00 -0.54850804171E+03  0.54850804171E+03  0.00000000000E+00 0. -1.
         25    2    1    2    0    0 -0.23503288621E+02  0.29128291270E+02 -0.41150446776E+03  0.43172234155E+03  0.12508953303E+03 0.  0.
         23    2    1    2    0    0  0.23503288621E+02 -0.29128291270E+02 -0.10574993803E+03  0.14803933609E+03  0.96600899101E+02 0.  0.
          5    1    3    3  502    0  0.25591047090E+01 -0.30464018599E+02 -0.30708546585E+03  0.30863175660E+03  0.41800000000E+01 0.  1.
         -5    1    3    3    0  502 -0.26062393330E+02  0.59592309869E+02 -0.10441900191E+03  0.12309058494E+03  0.41800000000E+01 0.  1.
        -11    1    4    4    0    0 -0.18371162331E+02  0.72398801434E+01  0.81432824874E+01  0.21359506538E+02  0.00000000000E+00 0.  1.
         11    1    4    4    0    0  0.41874450951E+02 -0.36368171414E+02 -0.11389322052E+03  0.12667982955E+03  0.00000000000E+00 0. -1.
</event>
<event>
 8    1  0.6840032E-009  0.9913308E+02  0.7561462E-02  0.1282130E+00
         -2   -1    0    0    0  501 -0.00000000000E+00  0.00000000000E+00  0.81419842535E+02  0.81419842535E+02  0.00000000000E+00 0.  1.
          2   -1    0    0  501    0  0.00000000000E+00 -0.00000000000E+00 -0.17266550606E+03  0.17266550606E+03  0.00000000000E+00 0. -1.
         25    2    1    2    0    0 -0.50780815647E+01  0.47766089379E+02 -0.58507875609E+02  0.14621353626E+03  0.12509132852E+03 0.  0.
         23    2    1    2    0    0  0.50780815647E+01 -0.47766089379E+02 -0.32737787918E+02  0.10787181234E+03  0.90869020751E+02 0.  0.
          5    1    3    3  502    0 -0.44176126013E+02  0.30787911072E+02  0.19335768971E+02  0.57365232845E+02  0.41800000000E+01 0.  1.
         -5    1    3    3    0  502  0.39098044448E+02  0.16978178308E+02 -0.77843644580E+02  0.88848303416E+02  0.41800000000E+01 0.  1.
        -11    1    4    4    0    0  0.46071254500E+02 -0.36879261736E+02 -0.27595106721E+02  0.65146990356E+02  0.00000000000E+00 0. -1.
         11    1    4    4    0    0 -0.40993172936E+02 -0.10886827643E+02 -0.51426811963E+01  0.42724821981E+02  0.00000000000E+00 0.  1.
</event>
<event>
 8    1  0.6840032E-009  0.1510705E+03  0.7561462E-02  0.1199164E+00
          2   -1    0    0  501    0  0.00000000000E+00  0.00000000000E+00  0.60637139964E+03  0.60637139964E+03  0.00000000000E+00 0. -1.
         -2   -1    0    0    0  501 -0.00000000000E+00 -0.00000000000E+00 -0.44221047234E+02  0.44221047234E+02  0.00000000000E+00 0.  1.
         25    2    1    2    0    0  0.11207536812E+03 -0.10749454851E+02  0.20766441798E+03  0.26730575608E+03  0.12510562664E+03 0.  0.
         23    2    1    2    0    0 -0.11207536812E+03  0.10749454851E+02  0.35448593442E+03  0.38328669080E+03  0.92584937861E+02 0.  0.
          5    1    3    3  502    0  0.11217811765E+03 -0.48454461554E+02  0.11788949794E+03  0.16984454966E+03  0.41800000000E+01 0. -1.
         -5    1    3    3    0  502 -0.10274952529E+00  0.37705006703E+02  0.89774920046E+02  0.97461206422E+02  0.41800000000E+01 0. -1.
        -11    1    4    4    0    0 -0.40837721343E+02 -0.37866647282E+02  0.98392600989E+02  0.11306063148E+03  0.00000000000E+00 0.  1.
         11    1    4    4    0    0 -0.71237646781E+02  0.48616102134E+02  0.25609333344E+03  0.27022605932E+03  0.00000000000E+00 0. -1.
</event>
<event>
 8    1  0.6840032E-009  0.1191588E+03  0.7561462E-02  0.1244491E+00
         -1   -1    0    0    0  501 -0.00000000000E+00  0.00000000000E+00  0.17792548396E+03  0.17792548396E+03  0.00000000000E+00 0.  1.
          1   -1    0    0  501    0  0.00000000000E+00 -0.00000000000E+00 -0.83894824200E+02  0.83894824200E+02  0.00000000000E+00 0. -1.
         25    2    1    2    0    0 -0.48235471969E+02 -0.17245560754E+02  0.79209116210E+02  0.15666824453E+03  0.12508710817E+03 0.  0.
         23    2    1    2    0    0  0.48235471969E+02  0.17245560754E+02  0.14821543552E+02  0.10515206363E+03  0.90626752181E+02 0.  0.
          5    1    3    3  502    0  0.37152525747E+02 -0.30858044738E+02  0.25213902026E+02  0.54641946797E+02  0.41800000000E+01 0.  1.
         -5    1    3    3    0  502 -0.85387997717E+02  0.13612483984E+02  0.53995214185E+02  0.10202629773E+03  0.41800000000E+01 0.  1.
        -11    1    4    4    0    0  0.46093204531E+02  0.51406787092E+02  0.36300824881E+01  0.69140572473E+02  0.00000000000E+00 0.  1.
         11    1    4    4    0    0  0.21422674384E+01 -0.34161226338E+02  0.11191461064E+02  0.36011491158E+02  0.00000000000E+00 0. -1.
</event>
<event>
 8    1  0.6840032E-009  0.1046281E+03  0.7561462E-02  0.1270854E+00
          2   -1    0    0  501    0  0.00000000000E+00  0.00000000000E+00  0.66125359949E+03  0.66125359949E+03  0.00000000000E+00 0. -1.
         -2   -1    0    0    0  501 -0.00000000000E+00 -0.00000000000E+00 -0.27214524177E+02  0.27214524177E+02  0.00000000000E+00 0.  1.
         25    2    1    2    0    0 -0.13234640314E+02 -0.45223310966E+02  0.50456916762E+03  0.52197506986E+03  0.12509046759E+03 0.  0.
         23    2    1    2    0    0  0.13234640314E+02  0.45223310966E+02  0.12946990769E+03  0.16649305380E+03  0.93472864561E+02 0.  0.
          5    1    3    3  502    0  0.36981968110E+02 -0.52215905619E+02  0.14139686119E+03  0.15525692100E+03  0.41800000000E+01 0.  1.
         -5    1    3    3    0  502 -0.50216608423E+02  0.69925946530E+01  0.36317230643E+03  0.36671814886E+03  0.41800000000E+01 0.  1.
        -11    1    4    4    0    0  0.13115581138E+02 -0.22764873801E+02  0.74708221607E+02  0.79193284585E+02  0.00000000000E+00 0. -1.
         11    1    4    4    0    0  0.11905917544E+00  0.67988184768E+02  0.54761686080E+02  0.87299769217E+02  0.00000000000E+00 0.  1.
</event>
<event>
 8    1  0.6840032E-009  0.1248211E+03  0.7561462E-02  0.1235349E+00
         -2   -1    0    0    0  501 -0.00000000000E+00  0.00000000000E+00  0.28889121053E+03  0.28889121053E+03  0.00000000000E+00 0.  1.
          2   -1    0    0  501    0  0.00000000000E+00 -0.00000000000E+00 -0.91420389868E+02  0.91420389868E+02  0.00000000000E+00 0. -1.
         25    2    1    2    0    0  0.10599469992E+03  0.30713993433E+01  0.38079653347E+02  0.16834967717E+03  0.12508894395E+03 0.  0.
         23    2    1    2    0    0 -0.10599469992E+03 -0.30713993433E+01  0.15939116732E+03  0.21196192323E+03  0.90983530236E+02 0.  0.
          5    1    3    3  502    0  0.11590659525E+02 -0.10791610585E+02 -0.41128679269E+02  0.44270113007E+02  0.41800000000E+01 0. -1.
         -5    1    3    3    0  502  0.94404040397E+02  0.13863009929E+02  0.79208332616E+02  0.12407956416E+03  0.41800000000E+01 0. -1.
        -11    1    4    4    0    0 -0.84357209571E+02  0.37078227984E+02  0.12257526584E+03  0.15334806681E+03  0.00000000000E+00 0. -1.
         11    1    4    4    0    0 -0.21637490351E+02 -0.40149627327E+02  0.36815901475E+02  0.58613856422E+02  0.00000000000E+00 0.  1.
</event>
<event>
 8    1  0.6840032E-009  0.1196983E+03  0.7561462E-02  0.1243596E+00
          2   -1    0    0  501    0  0.00000000000E+00  0.00000000000E+00  0.93625039964E+02  0.93625039964E+02  0.00000000000E+00 0. -1.
         -2   -1    0    0    0  501 -0.00000000000E+00 -0.00000000000E+00 -0.20014028764E+03  0.20014028764E+03  0.00000000000E+00 0.  1.
         25    2    1    2    0    0 -0.57929285690E+02  0.39733669089E+02 -0.10619717993E+03  0.17849433859E+03  0.12509125182E+03 0.  0.
         23    2    1    2    0    0  0.57929285690E+02 -0.39733669089E+02 -0.31806774912E+00  0.11527098902E+03  0.91393288280E+02 0.  0.
          5    1    3    3  502    0 -0.28959003781E+02 -0.34083673842E+02  0.11907991503E+01  0.44935633134E+02  0.41800000000E+01 0. -1.
         -5    1    3    3    0  502 -0.28970281909E+02  0.73817342931E+02 -0.10738797908E+03  0.13355870545E+03  0.41800000000E+01 0. -1.
        -11    1    4    4    0    0 -0.14310059401E+02 -0.40364297518E+02  0.31839837642E+01  0.42944057410E+02  0.00000000000E+00 0. -1.
         11    1    4    4    0    0  0.72239345091E+02  0.63062842892E+00 -0.35020515133E+01  0.72326931610E+02  0.00000000000E+00 0.  1.
</event>
<event>
 8    1  0.6840032E-009  0.3653592E+03  0.7561462E-02  0.1056482E+00
         -1   -1    0    0    0  501 -0.00000000000E+00  0.00000000000E+00  0.70101539196E+02  0.70101539196E+02  0.00000000000E+00 0.  1.
          1   -1    0    0  501    0  0.00000000000E+00 -0.00000000000E+00 -0.20473761040E+04  0.20473761040E+04  0.00000000000E+00 0. -1.
         25    2    1    2    0    0  0.35426469933E+03 -0.24606860764E+02 -0.78535699541E+03  0.87094323620E+03  0.12509011014E+03 0.  0.
         23    2    1    2    0    0 -0.35426469933E+03  0.24606860764E+02 -0.11919175694E+04  0.12465344070E+04  0.84092572887E+02 0.  0.
          5    1    3    3  502    0  0.46351863199E+02  0.36363720755E+02 -0.85603845252E+02  0.10400147177E+03  0.41800000000E+01 0. -1.
         -5    1    3    3    0  502  0.30791283613E+03 -0.60970581519E+02 -0.69975315015E+03  0.76694176442E+03  0.41800000000E+01 0. -1.
        -11    1    4    4    0    0 -0.22082873901E+03  0.36291925415E+02 -0.85919749738E+03  0.88786416491E+03  0.00000000000E+00 0. -1.
         11    1    4    4    0    0 -0.13343596031E+03 -0.11685064652E+02 -0.33272007206E+03  0.35867024214E+03  0.00000000000E+00 0.  1.
</event>
<event>
 8    1  0.6840032E-009  0.9237876E+02  0.7561462E-02  0.1297191E+00
          1   -1    0    0  501    0  0.00000000000E+00  0.00000000000E+00  0.27721497514E+03  0.27721497514E+03  0.00000000000E+00 0. -1.
         -1   -1    0    0    0  501 -0.00000000000E+00 -0.00000000000E+00 -0.44293188465E+02  0.44293188465E+02  0.00000000000E+00 0.  1.
         25    2    1    2    0    0  0.20812976091E+02  0.88044307469E+01  0.12351878189E+03  0.17724378339E+03  0.12509105203E+03 0.  0.
         23    2    1    2    0    0 -0.20812976091E+02 -0.88044307469E+01  0.10940300478E+03  0.14426438021E+03  0.91282506358E+02 0.  0.
          5    1    3    3  502    0 -0.36327805994E+02 -0.32576326917E+01  0.11161347693E+03  0.11749622246E+03  0.41800000000E+01 0. -1.
         -5    1    3    3    0  502  0.57140782086E+02  0.12062063439E+02  0.11905304960E+02  0.59747560937E+02  0.41800000000E+01 0. -1.
        -11    1    4    4    0    0 -0.34934161123E+01 -0.47223875014E+02  0.35472037136E+02  0.59165562163E+02  0.00000000000E+00 0.  1.
         11    1    4    4    0    0 -0.17319559979E+02  0.38419444267E+02  0.73930967644E+02  0.85098818044E+02  0.00000000000E+00 0. -1.
</event>
<event>
 8    1  0.6840032E-009  0.1232267E+03  0.7561462E-02  0.1237867E+00
          1   -1    0    0  501    0  0.00000000000E+00  0.00000000000E+00  0.12696442082E+04  0.12696442082E+04  0.00000000000E+00 0. -1.
         -1   -1    0    0    0  501 -0.00000000000E+00 -0.00000000000E+00 -0.12241746249E+02  0.12241746249E+02  0.00000000000E+00 0.  1.
         25    2    1    2    0    0 -0.26154484000E+02 -0.55451359861E+02  0.76960332737E+03  0.78210325240E+03  0.12504921263E+03 0.  0.
         23    2    1    2    0    0  0.26154484000E+02  0.55451359861E+02  0.48779913458E+03  0.49978270204E+03  0.89865695459E+02 0.  0.
          5    1    3    3  502    0 -0.50561262324E+02 -0.85096184916E+02  0.49714290996E+03  0.50691848187E+03  0.41800000000E+01 0.  1.
         -5    1    3    3    0  502  0.24406778324E+02  0.29644825055E+02  0.27246041741E+03  0.27518477053E+03  0.41800000000E+01 0.  1.
        -11    1    4    4    0    0  0.36554699282E+02  0.76773494043E+02  0.37626983890E+03  0.38575822362E+03  0.00000000000E+00 0.  1.
         11    1    4    4    0    0 -0.10400215281E+02 -0.21322134182E+02  0.11152929568E+03  0.11402447842E+03  0.00000000000E+00 0. -1.
</event>
<event>
 8    1  0.6840032E-009  0.1031635E+03  0.7561462E-02  0.1273781E+00
          2   -1    0    0  501    0  0.00000000000E+00  0.00000000000E+00  0.10006703859E+04  0.10006703859E+04  0.00000000000E+00 0. -1.
         -2   -1    0    0    0  501 -0.00000000000E+00 -0.00000000000E+00 -0.11694428374E+02  0.11694428374E+02  0.00000000000E+00 0.  1.
         25    2    1    2    0    0 -0.81663191176E+00 -0.81709278634E+01  0.59830881335E+03  0.61130045511E+03  0.12508948527E+03 0.  0.
         23    2    1    2    0    0  0.81663191176E+00  0.81709278634E+01  0.39066714421E+03  0.40106435920E+03  0.90356912906E+02 0.  0.
          5    1    3    3  502    0 -0.31132792767E+02 -0.54975437526E+02  0.41011516480E+03  0.41497405981E+03  0.41800000000E+01 0.  1.
         -5    1    3    3    0  502  0.30316160855E+02  0.46804509663E+02  0.18819364856E+03  0.19632639530E+03  0.41800000000E+01 0.  1.
        -11    1    4    4    0    0  0.15832573830E+02 -0.36594178957E+02  0.23620678466E+03  0.23954842819E+03  0.00000000000E+00 0. -1.
         11    1    4    4    0    0 -0.15015941918E+02  0.44765106820E+02  0.15446035955E+03  0.16151593102E+03  0.00000000000E+00 0.  1.
</event>
<event>
 7    1  0.6840032E-009  0.1288016E+03  0.7561462E-02  0.1229245E+00
         -1   -1    0    0    0  501 -0.00000000000E+00  0.00000000000E+00  0.11144604347E+03  0.11144604347E+03  0.00000000000E+00 0.  1.
          1   -1    0    0  501    0  0.00000000000E+00 -0.00000000000E+00 -0.19212078766E+03  0.19212078766E+03  0.00000000000E+00 0. -1.
         25    2    1    2    0    0  0.26413018522E+02 -0.31732495376E+02 -0.60305516114E+02  0.14487682157E+03  0.12509172372E+03 0.  0.
          5    1    3    3  502    0  0.42391341719E+02  0.39102618926E+02 -0.17195117389E+02  0.60325658900E+02  0.41800000000E+01 0.  1.
         -5    1    3    3    0  502 -0.15978323197E+02 -0.70835114302E+02 -0.43110398725E+02  0.84551162668E+02  0.41800000000E+01 0.  1.
        -11    1    1    2    0    0  0.19208536071E+02  0.66797721624E+02 -0.57502756942E+02  0.90207929408E+02  0.00000000000E+00 0. -1.
         11    1    1    2    0    0 -0.45621554593E+02 -0.35065226248E+02  0.37133528872E+02  0.68482080151E+02  0.00000000000E+00 0.  1.
</event>
<event>
 8    1  0.6840032E-009  0.1057102E+03  0.7561462E-02  0.1268727E+00
         -3   -1    0    0    0  501 -0.00000000000E+00  0.00000000000E+00  0.16042187420E+03  0.16042187420E+03  0.00000000000E+00 0.  1.
          3   -1    0    0  501    0  0.00000000000E+00 -0.00000000000E+00 -0.11129683136E+03  0.11129683136E+03  0.00000000000E+00 0. -1.
         25    2    1    2    0    0  0.22571846111E+02 -0.65963886054E+02 -0.84882164376E+01  0.14346226435E+03  0.12509456013E+03 0.  0.
         23    2    1    2    0    0 -0.22571846111E+02  0.65963886054E+02  0.57613259278E+02  0.12825644122E+03  0.90937916014E+02 0.  0.
          5    1    3    3  502    0 -0.14316001236E+02 -0.69220073480E+02 -0.50749486141E+02  0.87116870969E+02  0.41800000000E+01 0. -1.
         -5    1    3    3    0  502  0.36887847347E+02  0.32561874259E+01  0.42261269704E+02  0.56345393382E+02  0.41800000000E+01 0. -1.
        -11    1    4    4    0    0  0.28244558428E+02  0.29197589820E+02  0.50977807357E+02  0.65184286258E+02  0.00000000000E+00 0.  1.
         11    1    4    4    0    0 -0.50816404539E+02  0.36766296233E+02  0.66354519211E+01  0.63072154959E+02  0.00000000000E+00 0. -1.
</event>
<event>
 8    1  0.6840032E-009  0.6244216E+02  0.7561462E-02  0.1387860E+00
          1   -1    0    0  501    0  0.00000000000E+00  0.00000000000E+00  0.23077133301E+03  0.23077133301E+03  0.00000000000E+00 0. -1.
         -1   -1    0    0    0  501 -0.00000000000E+00 -0.00000000000E+00 -0.85819185866E+02  0.85819185866E+02  0.00000000000E+00 0.  1.
         25    2    1    2    0    0 -0.96996202483E+01  0.11202447335E+02 -0.19123168519E+02  0.12741709484E+03  0.12509933262E+03 0.  0.
         23    2    1    2    0    0  0.96996202483E+01 -0.11202447335E+02  0.16407531566E+03  0.18917342404E+03  0.92985470336E+02 0.  0.
          5    1    3    3  502    0 -0.10680206203E+02  0.28575949791E+02  0.48509413399E+02  0.57456829876E+02  0.41800000000E+01 0. -1.
         -5    1    3    3    0  502  0.98058595501E+00 -0.17373502456E+02 -0.67632581918E+02  0.69960264961E+02  0.41800000000E+01 0. -1.
        -11    1    4    4    0    0 -0.20420039729E+02 -0.33145955246E+02  0.13877171584E+03  0.14412918333E+03  0.00000000000E+00 0. -1.
         11    1    4    4    0    0  0.30119659977E+02  0.21943507912E+02  0.25303599823E+02  0.45044240704E+02  0.00000000000E+00 0.  1.
</event>
<event>
 7    1  0.6840032E-009  0.1171467E+03  0.7561462E-02  0.1247880E+00
         -1   -1    0    0    0  501 -0.00000000000E+00  0.00000000000E+00  0.63211781382E+02  0.63211781382E+02  0.00000000000E+00 0.  1.
          1   -1    0    0  501    0  0.00000000000E+00 -0.00000000000E+00 -0.47633595516E+03  0.47633595516E+03  0.00000000000E+00 0. -1.
         23    2    1    2    0    0 -0.67930375490E+02  0.77062892116E+02 -0.59108624148E+02  0.15031243848E+03  0.92448766662E+02 0.  0.
          5    1    1    2  502    0  0.56857564371E+02 -0.66381994027E+02 -0.92855347061E+02  0.12758894793E+03  0.41800000000E+01 0.  1.
         -5    1    1    2    0  502  0.11072811120E+02 -0.10680898089E+02 -0.26116020256E+03  0.26164635012E+03  0.41800000000E+01 0.  1.
        -11    1    3    3    0    0 -0.14119339137E+02  0.75714602950E+02 -0.10401844866E+02  0.77719078830E+02  0.00000000000E+00 0.  1.
         11    1    3    3    0    0 -0.53811036353E+02  0.13482891661E+01 -0.48706779282E+02  0.72593359649E+02  0.00000000000E+00 0. -1.
</event>
<event>
 8    1  0.6840032E-009  0.1103157E+03  0.7561462E-02  0.1259986E+00
          1   -1    0    0  501    0  0.00000000000E+00  0.00000000000E+00  0.77393084756E+02  0.77393084756E+02  0.00000000000E+00 0. -1.
         -1   -1    0    0    0  501 -0.00000000000E+00 -0.00000000000E+00 -0.17281802066E+03  0.17281802066E+03  0.00000000000E+00 0.  1.
         25    2    1    2    0    0 -0.27091887429E+02  0.32715678958E+01 -0.22557109586E+02  0.13000182495E+03  0.12508788022E+03 0.  0.
         23    2    1    2    0    0  0.27091887429E+02 -0.32715678958E+01 -0.72867826314E+02  0.12020928046E+03  0.91629020929E+02 0.  0.
          5    1    3    3  502    0  0.81030166743E+01  0.60118375397E+02 -0.68141268021E+01  0.61186458173E+02  0.41800000000E+01 0.  1.
         -5    1    3    3    0  502 -0.35194904103E+02 -0.56846807501E+02 -0.15742982783E+02  0.68815366778E+02  0.41800000000E+01 0.  1.
        -11    1    4    4    0    0 -0.23746002961E+02  0.25152439377E+02 -0.13761842530E+02  0.37227760785E+02  0.00000000000E+00 0. -1.
         11    1    4    4    0    0  0.50837890390E+02 -0.28424007273E+02 -0.59105983784E+02  0.82981519677E+02  0.00000000000E+00 0.  1.
</event>
<event>
 8    1  0.6840032E-009  0.8785634E+02  0.7561462E-02  0.1308127E+00
         -3   -1    0    0    0  501 -0.00000000000E+00  0.00000000000E+00  0.58017780656E+03  0.58017780656E+03  0.00000000000E+00 0.  1.
          3   -1    0    0  501    0  0.00000000000E+00 -0.00000000000E+00 -0.24331939126E+02  0.24331939126E+02  0.00000000000E+00 0. -1.
         25    2    1    2    0    0  0.39862025129E+02 -0.93143304053E+01  0.40298805186E+03  0.42393712691E+03  0.12509028670E+03 0.  0.
         23    2    1    2    0    0 -0.39862025129E+02  0.93143304053E+01  0.15285781556E+03  0.18057261878E+03  0.86978279323E+02 0.  0.
          5    1    3    3  502    0  0.18107010204E+02  0.30167119716E+02  0.25279711689E+02  0.43525339213E+02  0.41800000000E+01 0.  1.
         -5    1    3    3    0  502  0.21755014925E+02 -0.39481450122E+02  0.37770834018E+03  0.38041178769E+03  0.41800000000E+01 0.  1.
        -11    1    4    4    0    0 -0.64101549417E+02 -0.88629509667E+01  0.90636259270E+02  0.11136647625E+03  0.00000000000E+00 0.  1.
         11    1    4    4    0    0  0.24239524288E+02  0.18177281372E+02  0.62221556294E+02  0.69206142527E+02  0.00000000000E+00 0. -1.
</event>
<event>
 8    1  0.6840032E-009  0.1101607E+03  0.7561462E-02  0.1260273E+00
         -1   -1    0    0    0  501 -0.00000000000E+00  0.00000000000E+00  0.23185523459E+02  0.23185523459E+02  0.00000000000E+00 0.  1.
          1   -1    0    0  501    0  0.00000000000E+00 -0.00000000000E+00 -0.74437745437E+03  0.74437745437E+03  0.00000000000E+00 0. -1.
         25    2    1    2    0    0 -0.25886582405E+02  0.51378966267E+02 -0.30463950011E+03  0.33430781443E+03  0.12508627597E+03 0.  0.
         23    2    1    2    0    0  0.25886582405E+02 -0.51378966267E+02 -0.41655243080E+03  0.43325516340E+03  0.10432734869E+03 0.  0.
          5    1    3    3  502    0 -0.33480027043E+02  0.80204346467E+02 -0.28590715865E+03  0.29885452175E+03  0.41800000000E+01 0.  1.
         -5    1    3    3    0  502  0.75934446382E+01 -0.28825380200E+02 -0.18732341461E+02  0.35453292679E+02  0.41800000000E+01 0.  1.
        -11    1    4    4    0    0  0.27657111953E+02 -0.74785309054E+02 -0.38886963588E+03  0.39696013906E+03  0.00000000000E+00 0. -1.
         11    1    4    4    0    0 -0.17705295483E+01  0.23406342786E+02 -0.27682794921E+02  0.36295024344E+02  0.00000000000E+00 0.  1.
</event>
<event>
 8    1  0.6840032E-009  0.1085408E+03  0.7561462E-02  0.1263296E+00
         -2   -1    0    0    0  501 -0.00000000000E+00  0.00000000000E+00  0.73700333637E+02  0.73700333637E+02  0.00000000000E+00 0. -1.
          2   -1    0    0  501    0  0.00000000000E+00 -0.00000000000E+00 -0.18102563384E+03  0.18102563384E+03  0.00000000000E+00 0.  1.
         25    2    1    2    0    0  0.25625733951E+02 -0.31822873379E+02 -0.60384990454E+02  0.14479057571E+03  0.12509432534E+03 0.  0.
         23    2    1    2    0    0 -0.25625733951E+02  0.31822873379E+02 -0.46940309750E+02  0.10993539177E+03  0.90625736812E+02 0.  0.
          5    1    3    3  502    0  0.73117525184E+02 -0.21309524552E+02 -0.14198413276E+02  0.77584377714E+02  0.41800000000E+01 0.  1.
         -5    1    3    3    0  502 -0.47491791232E+02 -0.10513348826E+02 -0.46186577178E+02  0.67206197998E+02  0.41800000000E+01 0.  1.
        -11    1    4    4    0    0 -0.26981693097E+02  0.58946940713E+02 -0.50988026794E+02  0.82477466366E+02  0.00000000000E+00 0.  1.
         11    1    4    4    0    0  0.13559591457E+01 -0.27124067335E+02  0.40477170441E+01  0.27457925400E+02  0.00000000000E+00 0. -1.
</event>
<event>
 8    1  0.6840032E-009  0.6309317E+02  0.7561462E-02  0.1385291E+00
          3   -1    0    0  501    0  0.00000000000E+00  0.00000000000E+00  0.18877295100E+03  0.18877295100E+03  0.00000000000E+00 0. -1.
         -3   -1    0    0    0  501 -0.00000000000E+00 -0.00000000000E+00 -0.66522712744E+02  0.66522712744E+02  0.00000000000E+00 0.  1.
         25    2    1    2    0    0 -0.99671509288E+01  0.22542448974E+02  0.86863064429E+02  0.15427382954E+03  0.12509083266E+03 0.  0.
         23    2    1    2    0    0  0.99671509288E+01 -0.22542448974E+02  0.35387173824E+02  0.10102183420E+03  0.91354544558E+02 0.  0.
          5    1    3    3  502    0 -0.19900253050E+02 -0.48505690992E+01  0.11299436114E+03  0.11491190600E+03  0.41800000000E+01 0.  1.
         -5    1    3    3    0  502  0.99331021209E+01  0.27393018073E+02 -0.26131296707E+02  0.39361923536E+02  0.41800000000E+01 0.  1.
        -11    1    4    4    0    0  0.36998486753E+02 -0.30189547757E+02  0.50182404037E+02  0.69271714940E+02  0.00000000000E+00 0. -1.
         11    1    4    4    0    0 -0.27031335824E+02  0.76470987836E+01 -0.14795230213E+02  0.31750119264E+02  0.00000000000E+00 0.  1.
</event>
<event>
 8    1  0.6840032E-009  0.1066211E+03  0.7561462E-02  0.1266958E+00
          1   -1    0    0  501    0  0.00000000000E+00  0.00000000000E+00  0.14691098972E+03  0.14691098972E+03  0.00000000000E+00 0. -1.
         -1   -1    0    0    0  501 -0.00000000000E+00 -0.00000000000E+00 -0.12986469707E+03  0.12986469707E+03  0.00000000000E+00 0.  1.
         25    2    1    2    0    0 -0.67024747596E+02 -0.27339632142E+01  0.61984406407E+02  0.15488419549E+03  0.12508899243E+03 0.  0.
         23    2    1    2    0    0  0.67024747596E+02  0.27339632142E+01 -0.44938113752E+02  0.12189149130E+03  0.91314348483E+02 0.  0.
          5    1    3    3  502    0 -0.70357035101E+01  0.35042503202E+02 -0.24083278280E+02  0.43300748807E+02  0.41800000000E+01 0.  1.
         -5    1    3    3    0  502 -0.59989044086E+02 -0.37776466417E+02  0.86067684687E+02  0.11158344668E+03  0.41800000000E+01 0.  1.
        -11    1    4    4    0    0  0.44526720089E+02 -0.38764462372E+02 -0.45736218856E+02  0.74680078067E+02  0.00000000000E+00 0.  1.
         11    1    4    4    0    0  0.22498027507E+02  0.41498425586E+02  0.79810510377E+00  0.47211413234E+02  0.00000000000E+00 0. -1.
</event>
<event>
 8    1  0.6840032E-009  0.1474402E+03  0.7561462E-02  0.1203654E+00
         -3   -1    0    0    0  501 -0.00000000000E+00  0.00000000000E+00  0.91285175930E+03  0.91285175930E+03  0.00000000000E+00 0.  1.
          3   -1    0    0  501    0  0.00000000000E+00 -0.00000000000E+00 -0.30478773748E+02  0.30478773748E+02  0.00000000000E+00 0. -1.
         25    2    1    2    0    0 -0.25412397643E+02  0.12204234573E+03  0.40722737563E+03  0.44387161573E+03  0.12509097360E+03 0.  0.
         23    2    1    2    0    0  0.25412397643E+02 -0.12204234573E+03  0.47514560992E+03  0.49945891732E+03  0.90309110066E+02 0.  0.
          5    1    3    3  502    0 -0.15111263714E+02 -0.16487618441E+02  0.13777906243E+02  0.26598777290E+02  0.41800000000E+01 0. -1.
         -5    1    3    3    0  502 -0.10301133929E+02  0.13852996417E+03  0.39344946939E+03  0.41727283844E+03  0.41800000000E+01 0. -1.
        -11    1    4    4    0    0 -0.13634534885E+02 -0.40721611205E+02  0.55218543872E+02  0.69951681524E+02  0.00000000000E+00 0.  1.
         11    1    4    4    0    0  0.39046932528E+02 -0.81320734528E+02  0.41992706604E+03  0.42950723580E+03  0.00000000000E+00 0. -1.
</event>
<event>
 8    1  0.6840032E-009  0.1491927E+03  0.7561462E-02  0.1201468E+00
          2   -1    0    0  501    0  0.00000000000E+00  0.00000000000E+00  0.44531691648E+03  0.44531691648E+03  0.00000000000E+00 0. -1.
         -2   -1    0    0    0  501 -0.00000000000E+00 -0.00000000000E+00 -0.66595872110E+02  0.66595872110E+02  0.00000000000E+00 0.  1.
         25    2    1    2    0    0  0.60840516772E+02  0.10857508937E+03  0.14499963387E+03  0.22839355788E+03  0.12509438417E+03 0.  0.
         23    2    1    2    0    0 -0.60840516772E+02 -0.10857508937E+03  0.23372141050E+03  0.28351923070E+03  0.10132787346E+03 0.  0.
          5    1    3    3  502    0 -0.36539672009E+02  0.27403299055E+02  0.19120826866E+02  0.49690711905E+02  0.41800000000E+01 0.  1.
         -5    1    3    3    0  502  0.97380188781E+02  0.81171790310E+02  0.12587880700E+03  0.17870284598E+03  0.41800000000E+01 0.  1.
        -11    1    4    4    0    0 -0.24714069617E+02 -0.61925160048E+02  0.33172623237E+02  0.74471025349E+02  0.00000000000E+00 0.  1.
         11    1    4    4    0    0 -0.36126447155E+02 -0.46649929317E+02  0.20054878726E+03  0.20904820535E+03  0.00000000000E+00 0. -1.
</event>
<event>
 8    1  0.6840032E-009  0.3542205E+03  0.7561462E-02  0.1060896E+00
          1   -1    0    0  501    0  0.00000000000E+00  0.00000000000E+00  0.11436063671E+04  0.11436063671E+04  0.00000000000E+00 0. -1.
         -1   -1    0    0    0  501 -0.00000000000E+00 -0.00000000000E+00 -0.15070843257E+03  0.15070843257E+03  0.00000000000E+00 0.  1.
         25    2    1    2    0    0  0.53720723057E+02 -0.33342209932E+03  0.16512041511E+03  0.39619205648E+03  0.12508869546E+03 0.  0.
         23    2    1    2    0    0 -0.53720723057E+02  0.33342209932E+03  0.82777751947E+03  0.89812274324E+03  0.85747465140E+02 0.  0.
          5    1    3    3  502    0  0.77662925306E+02 -0.10648205782E+03  0.57472757958E+02  0.14384209715E+03  0.41800000000E+01 0.  1.
         -5    1    3    3    0  502 -0.23942202249E+02 -0.22694004150E+03  0.10764765715E+03  0.25234995933E+03  0.41800000000E+01 0.  1.
        -11    1    4    4    0    0 -0.53734683921E+02  0.89305441260E+02  0.25741544392E+03  0.27771494173E+03  0.00000000000E+00 0.  1.
         11    1    4    4    0    0  0.13960863645E-01  0.24411665806E+03  0.57036207555E+03  0.62040780150E+03  0.00000000000E+00 0. -1.
</event>
<event>
 8    1  0.6840032E-009  0.1907656E+03  0.7561462E-02  0.1157773E+00
          1   -1    0    0  501    0  0.00000000000E+00  0.00000000000E+00  0.57587320967E+03  0.57587320967E+03  0.00000000000E+00 0. -1.
         -1   -1    0    0    0  501 -0.00000000000E+00 -0.00000000000E+00 -0.69460311886E+02  0.69460311886E+02  0.00000000000E+00 0.  1.
         25    2    1    2    0    0  0.16862081579E+03 -0.61556600125E+01  0.27497355406E+03  0.34601845154E+03  0.12508973462E+03 0.  0.
         23    2    1    2    0    0 -0.16862081579E+03  0.61556600125E+01  0.23143934372E+03  0.29931507001E+03  0.86916452116E+02 0.  0.
          5    1    3    3  502    0  0.20094494125E+02  0.47363210747E+02  0.78298516727E+02  0.93782687891E+02  0.41800000000E+01 0.  1.
         -5    1    3    3    0  502  0.14852632166E+03 -0.53518870760E+02  0.19667503734E+03  0.25223576365E+03  0.41800000000E+01 0.  1.
        -11    1    4    4    0    0 -0.93098338247E+02 -0.13172846643E+02  0.61511817664E+02  0.11235892570E+03  0.00000000000E+00 0. -1.
         11    1    4    4    0    0 -0.75522477541E+02  0.19328506656E+02  0.16992752606E+03  0.18695614431E+03  0.00000000000E+00 0.  1.
</event>
<event>
 8    1  0.6840032E-009  0.2091743E+03  0.7561462E-02  0.1142222E+00
          2   -1    0    0  501    0  0.00000000000E+00  0.00000000000E+00  0.16196643375E+04  0.16196643375E+04  0.00000000000E+00 0. -1.
         -2   -1    0    0    0  501 -0.00000000000E+00 -0.00000000000E+00 -0.29821999911E+02  0.29821999911E+02  0.00000000000E+00 0.  1.
         25    2    1    2    0    0 -0.18555746920E+03 -0.24753056466E+02  0.69452282390E+03  0.73010567410E+03  0.12509218304E+03 0.  0.
         23    2    1    2    0    0  0.18555746920E+03  0.24753056466E+02  0.89531951374E+03  0.91938066336E+03  0.92841177783E+02 0.  0.
          5    1    3    3  502    0  0.10683602732E+02 -0.17155904854E+02  0.25302371749E+02  0.32651904306E+02  0.41800000000E+01 0.  1.
         -5    1    3    3    0  502 -0.19624107193E+03 -0.75971516121E+01  0.66922045215E+03  0.69745376979E+03  0.41800000000E+01 0.  1.
        -11    1    4    4    0    0  0.89844585595E+02  0.49279931202E+02  0.57869754951E+03  0.58770010634E+03  0.00000000000E+00 0.  1.
         11    1    4    4    0    0  0.95712883608E+02 -0.24526874736E+02  0.31662196423E+03  0.33168055702E+03  0.00000000000E+00 0. -1.
</event>
<event>
 8    1  0.6840032E-009  0.4555556E+03  0.7561462E-02  0.1026078E+00
          2   -1    0    0  501    0  0.00000000000E+00  0.00000000000E+00  0.18125840347E+04  0.18125840347E+04  0.00000000000E+00 0. -1.
         -2   -1    0    0    0  501 -0.00000000000E+00 -0.00000000000E+00 -0.11761025802E+03  0.11761025802E+03  0.00000000000E+00 0.  1.
         25    2    1    2    0    0 -0.22729407979E+03  0.38478920359E+03  0.77521862306E+03  0.90351327788E+03  0.12508796847E+03 0.  0.
         23    2    1    2    0    0  0.22729407979E+03 -0.38478920359E+03  0.91975515361E+03  0.10266810148E+04  0.91646242227E+02 0.  0.
          5    1    3    3  502    0 -0.20313039163E+03  0.22805467134E+03  0.51294837995E+03  0.59699614908E+03  0.41800000000E+01 0.  1.
         -5    1    3    3    0  502 -0.24163688157E+02  0.15673453225E+03  0.26227024311E+03  0.30651712880E+03  0.41800000000E+01 0.  1.
        -11    1    4    4    0    0  0.51171659282E+02 -0.77950560637E+02  0.28656694977E+03  0.30135601092E+03  0.00000000000E+00 0. -1.
         11    1    4    4    0    0  0.17612242051E+03 -0.30683864296E+03  0.63318820384E+03  0.72532500391E+03  0.00000000000E+00 0.  1.
</event>
<event>
 8    1  0.6840032E-009  0.9717133E+02  0.7561462E-02  0.1286359E+00
         -1   -1    0    0    0  501 -0.00000000000E+00  0.00000000000E+00  0.53697365328E+02  0.53697365328E+02  0.00000000000E+00 0.  1.
          1   -1    0    0  501    0  0.00000000000E+00 -0.00000000000E+00 -0.27857082716E+03  0.27857082716E+03  0.00000000000E+00 0. -1.
         25    2    1    2    0    0  0.23411061984E+01 -0.45264417542E+02 -0.17197649033E+03  0.21743474440E+03  0.12509039361E+03 0.  0.
         23    2    1    2    0    0 -0.23411061984E+01  0.45264417542E+02 -0.52896971508E+02  0.11483344809E+03  0.91292293935E+02 0.  0.
          5    1    3    3  502    0  0.13882250719E+02  0.39995966740E+02 -0.32637392738E+02  0.53619642345E+02  0.41800000000E+01 0.  1.
         -5    1    3    3    0  502 -0.11541144521E+02 -0.85260384282E+02 -0.13933909759E+03  0.16381510206E+03  0.41800000000E+01 0.  1.
        -11    1    4    4    0    0 -0.19940586418E+02  0.43647865563E+02  0.10412126705E+02  0.49103722236E+02  0.00000000000E+00 0.  1.
         11    1    4    4    0    0  0.17599480220E+02  0.16165519798E+01 -0.63309098213E+02  0.65729725854E+02  0.00000000000E+00 0. -1.
</event>
<event>
 8    1  0.6840032E-009  0.2768240E+03  0.7561462E-02  0.1097436E+00
          2   -1    0    0  501    0  0.00000000000E+00  0.00000000000E+00  0.35947153427E+03  0.35947153427E+03  0.00000000000E+00 0.  1.
         -2   -1    0    0    0  501 -0.00000000000E+00 -0.00000000000E+00 -0.33579197039E+03  0.33579197039E+03  0.00000000000E+00 0. -1.
         25    2    1    2    0    0 -0.11503495050E+03 -0.23588067562E+03  0.21196148937E+03  0.35978710561E+03  0.12508539253E+03 0.  0.
         23    2    1    2    0    0  0.11503495050E+03  0.23588067562E+03 -0.18828192549E+03  0.33547639904E+03  0.90673027311E+02 0.  0.
          5    1    3    3  502    0 -0.62723129449E+01 -0.12285354332E+03  0.14218242028E+03  0.18805756580E+03  0.41800000000E+01 0.  1.
         -5    1    3    3    0  502 -0.10876263756E+03 -0.11302713229E+03  0.69779069088E+02  0.17172953982E+03  0.41800000000E+01 0.  1.
        -11    1    4    4    0    0  0.98142828038E+02  0.11323869272E+03 -0.13112114764E+03  0.19911748186E+03  0.00000000000E+00 0. -1.
         11    1    4    4    0    0  0.16892122466E+02  0.12264198290E+03 -0.57160777850E+02  0.13635891718E+03  0.00000000000E+00 0.  1.
</event>
<event>
 8    1  0.6840032E-009  0.1681091E+03  0.7561462E-02  0.1179834E+00
          2   -1    0    0  501    0  0.00000000000E+00  0.00000000000E+00  0.27724973516E+03  0.27724973516E+03  0.00000000000E+00 0. -1.
         -2   -1    0    0    0  501 -0.00000000000E+00 -0.00000000000E+00 -0.12645495440E+03  0.12645495440E+03  0.00000000000E+00 0.  1.
         25    2    1    2    0    0 -0.22863466768E+02  0.13867688032E+03  0.16281255204E+02  0.18885517068E+03  0.12508869243E+03 0.  0.
         23    2    1    2    0    0  0.22863466768E+02 -0.13867688032E+03  0.13451352555E+03  0.21484951888E+03  0.91172429808E+02 0.  0.
          5    1    3    3  502    0 -0.11953907917E+02 -0.12819467115E+02  0.31354006916E+02  0.36163252084E+02  0.41800000000E+01 0. -1.
         -5    1    3    3    0  502 -0.10909558850E+02  0.15149634744E+03 -0.15072751713E+02  0.15269191860E+03  0.41800000000E+01 0. -1.
        -11    1    4    4    0    0 -0.31913658670E+02 -0.79232054640E+02  0.82321705538E+02  0.11862994266E+03  0.00000000000E+00 0. -1.
         11    1    4    4    0    0  0.54777125438E+02 -0.59444825684E+02  0.52191820014E+02  0.96219576221E+02  0.00000000000E+00 0.  1.
</event>
<event>
 8    1  0.6840032E-009  0.1699600E+03  0.7561462E-02  0.1177890E+00
         -1   -1    0    0    0  501 -0.00000000000E+00  0.00000000000E+00  0.53421825010E+02  0.53421825010E+02  0.00000000000E+00 0.  1.
          1   -1    0    0  501    0  0.00000000000E+00 -0.00000000000E+00 -0.75443875388E+03  0.75443875388E+03  0.00000000000E+00 0. -1.
         25    2    1    2    0    0 -0.16198421172E+02 -0.15398660961E+03 -0.23159213359E+03  0.30537956017E+03  0.12508994620E+03 0.  0.
         23    2    1    2    0    0  0.16198421172E+02  0.15398660961E+03 -0.46942479527E+03  0.50248101872E+03  0.90295464802E+02 0.  0.
          5    1    3    3  502    0 -0.25891573972E+02 -0.36328888394E+02  0.65977992809E+00  0.44811487861E+02  0.41800000000E+01 0.  1.
         -5    1    3    3    0  502  0.96931528001E+01 -0.11765772122E+03 -0.23225191352E+03  0.26056807231E+03  0.41800000000E+01 0.  1.
        -11    1    4    4    0    0 -0.30290163690E+02  0.23122749750E+02 -0.71541403392E+02  0.81057559621E+02  0.00000000000E+00 0. -1.
         11    1    4    4    0    0  0.46488584863E+02  0.13086385986E+03 -0.39788339188E+03  0.42142345910E+03  0.00000000000E+00 0.  1.
</event>
<event>
 8    1  0.6840032E-009  0.1747388E+03  0.7561462E-02  0.1172994E+00
          1   -1    0    0  501    0  0.00000000000E+00  0.00000000000E+00  0.78053557416E+03  0.78053557416E+03  0.00000000000E+00 0. -1.
         -1   -1    0    0    0  501 -0.00000000000E+00 -0.00000000000E+00 -0.41986167695E+02  0.41986167695E+02  0.00000000000E+00 0.  1.
         25    2    1    2    0    0 -0.18568421340E+02 -0.13864296933E+03  0.29867632454E+03  0.35273567443E+03  0.12509296526E+03 0.  0.
         23    2    1    2    0    0  0.18568421340E+02  0.13864296933E+03  0.43987308193E+03  0.46978606743E+03  0.87429753136E+02 0.  0.
          5    1    3    3  502    0  0.51537509735E+02 -0.62312053284E+02  0.10054219682E+03  0.12909342600E+03  0.41800000000E+01 0. -1.
         -5    1    3    3    0  502 -0.70105931075E+02 -0.76330916041E+02  0.19813412772E+03  0.22364224843E+03  0.41800000000E+01 0. -1.
        -11    1    4    4    0    0  0.39777356034E+02  0.20497742543E+02  0.11005376448E+03  0.11880331047E+03  0.00000000000E+00 0. -1.
         11    1    4    4    0    0 -0.21208934694E+02  0.11814522678E+03  0.32981931745E+03  0.35098275696E+03  0.00000000000E+00 0.  1.
</event>
<event>
 8    1  0.6840032E-009  0.1042691E+03  0.7561462E-02  0.1271566E+00
          1   -1    0    0  501    0  0.00000000000E+00  0.00000000000E+00  0.81258417642E+02  0.81258417642E+02  0.00000000000E+00 0. -1.
         -1   -1    0    0    0  501 -0.00000000000E+00 -0.00000000000E+00 -0.16188644615E+03  0.16188644615E+03  0.00000000000E+00 0.  1.
         25    2    1    2    0    0 -0.26248152253E+02  0.10071220476E+02 -0.73479037494E+02  0.14777618329E+03  0.12509291114E+03 0.  0.
         23    2    1    2    0    0  0.26248152253E+02 -0.10071220476E+02 -0.71489910173E+01  0.95368680508E+02  0.90849778045E+02 0.  0.
          5    1    3    3  502    0 -0.75259481343E+02 -0.58286824001E+01 -0.34871351734E+02  0.83255309995E+02  0.41800000000E+01 0. -1.
         -5    1    3    3    0  502  0.49011329090E+02  0.15899902876E+02 -0.38607685760E+02  0.64520873293E+02  0.41800000000E+01 0. -1.
        -11    1    4    4    0    0  0.19512330094E+02 -0.43217831262E+02 -0.28543200406E+02  0.55346420427E+02  0.00000000000E+00 0.  1.
         11    1    4    4    0    0  0.67358221593E+01  0.33146610785E+02  0.21394209388E+02  0.40022260082E+02  0.00000000000E+00 0. -1.
</event>
<event>
 8    1  0.6840032E-009  0.2592498E+03  0.7561462E-02  0.1107595E+00
          1   -1    0    0  501    0  0.00000000000E+00  0.00000000000E+00  0.30331543132E+03  0.30331543132E+03  0.00000000000E+00 0. -1.
         -1   -1    0    0    0  501 -0.00000000000E+00 -0.00000000000E+00 -0.26382923298E+03  0.26382923298E+03  0.00000000000E+00 0.  1.
         25    2    1    2    0    0  0.11325212388E+03 -0.21128258369E+03  0.12248235681E+03  0.29684306384E+03  0.12508997998E+03 0.  0.
         23    2    1    2    0    0 -0.11325212388E+03  0.21128258369E+03 -0.82996158469E+02  0.27030160046E+03  0.93317839449E+02 0.  0.
          5    1    3    3  502    0  0.63727399405E+02 -0.20949642107E+03  0.11210714336E+03  0.24603945999E+03  0.41800000000E+01 0.  1.
         -5    1    3    3    0  502  0.49524724473E+02 -0.17861626134E+01  0.10375213450E+02  0.50803603859E+02  0.41800000000E+01 0.  1.
        -11    1    4    4    0    0 -0.86557073069E+01  0.86490120155E+02 -0.60547853789E+02  0.10593160412E+03  0.00000000000E+00 0.  1.
         11    1    4    4    0    0 -0.10459641657E+03  0.12479246353E+03 -0.22448304680E+02  0.16436999634E+03  0.00000000000E+00 0. -1.
</event>
<event>
 8    1  0.6840032E-009  0.1047850E+03  0.7561462E-02  0.1270544E+00
          2   -1    0    0  501    0  0.00000000000E+00  0.00000000000E+00  0.25453384804E+03  0.25453384804E+03  0.00000000000E+00 0. -1.
         -2   -1    0    0    0  501 -0.00000000000E+00 -0.00000000000E+00 -0.73359128868E+02  0.73359128868E+02  0.00000000000E+00 0.  1.
         25    2    1    2    0    0  0.20559904733E+02 -0.67428739408E+02  0.15366684675E+03  0.21030905856E+03  0.12508819185E+03 0.  0.
         23    2    1    2    0    0 -0.20559904733E+02  0.67428739408E+02  0.27507872421E+02  0.11758391835E+03  0.89999723487E+02 0.  0.
          5    1    3    3  502    0  0.54743008740E+02  0.68910469761E+01  0.93607698005E+02  0.10873893994E+03  0.41800000000E+01 0. -1.
         -5    1    3    3    0  502 -0.34183104007E+02 -0.74319786384E+02  0.60059148745E+02  0.10157011862E+03  0.41800000000E+01 0. -1.
        -11    1    4    4    0    0  0.31353607349E+00  0.25374325137E+02 -0.32600471188E+02  0.41312775296E+02  0.00000000000E+00 0.  1.
         11    1    4    4    0    0 -0.20873440807E+02  0.42054414271E+02  0.60108343609E+02  0.76271143050E+02  0.00000000000E+00 0. -1.
</event>
<event>
 8    1  0.6840032E-009  0.8530279E+02  0.7561462E-02  0.1314643E+00
         -1   -1    0    0    0  501 -0.00000000000E+00  0.00000000000E+00  0.39703157585E+02  0.39703157585E+02  0.00000000000E+00 0.  1.
          1   -1    0    0  501    0  0.00000000000E+00 -0.00000000000E+00 -0.55446126687E+03  0.55446126687E+03  0.00000000000E+00 0. -1.
         25    2    1    2    0    0  0.34024898276E+02  0.30066387342E+01 -0.46828209218E+03  0.48589267601E+03  0.12504735570E+03 0.  0.
         23    2    1    2    0    0 -0.34024898276E+02 -0.30066387342E+01 -0.46476017111E+02  0.10827174845E+03  0.91629786456E+02 0.  0.
          5    1    3    3  502    0  0.37371644783E+02  0.31925741289E+02 -0.44669362919E+03  0.44940912713E+03  0.41800000000E+01 0. -1.
         -5    1    3    3    0  502 -0.33467465066E+01 -0.28919102555E+02 -0.21588462990E+02  0.36483548882E+02  0.41800000000E+01 0. -1.
        -11    1    4    4    0    0  0.27489684274E+02  0.95147205334E+01  0.17016765530E+01  0.29139463815E+02  0.00000000000E+00 0.  1.
         11    1    4    4    0    0 -0.61514582550E+02 -0.12521359268E+02 -0.48177693664E+02  0.79132284632E+02  0.00000000000E+00 0. -1.
</event>
<event>
 8    1  0.6840032E-009  0.1246461E+03  0.7561462E-02  0.1235623E+00
          2   -1    0    0  501    0  0.00000000000E+00  0.00000000000E+00  0.18178742947E+02  0.18178742947E+02  0.00000000000E+00 0.  1.
         -2   -1    0    0    0  501 -0.00000000000E+00 -0.00000000000E+00 -0.14359165443E+04  0.14359165443E+04  0.00000000000E+00 0. -1.
         25    2    1    2    0    0 -0.83303618180E+02 -0.65318975275E+02 -0.98416124713E+03  0.99771066715E+03  0.12508858324E+03 0.  0.
         23    2    1    2    0    0  0.83303618180E+02  0.65318975275E+02 -0.43357655418E+03  0.45638462006E+03  0.95353194787E+02 0.  0.
          5    1    3    3  502    0 -0.80944752539E+01 -0.15255238199E+02 -0.68372075112E+03  0.68395159239E+03  0.41800000000E+01 0. -1.
         -5    1    3    3    0  502 -0.75209142926E+02 -0.50063737076E+02 -0.30044049601E+03  0.31375907476E+03  0.41800000000E+01 0. -1.
        -11    1    4    4    0    0 -0.18201994948E+02  0.27039582030E+02 -0.12938615001E+03  0.13342873540E+03  0.00000000000E+00 0. -1.
         11    1    4    4    0    0  0.10150561313E+03  0.38279393244E+02 -0.30419040417E+03  0.32295588466E+03  0.00000000000E+00 0.  1.
</event>
<event>
 7    1  0.6840032E-009  0.9420335E+02  0.7561462E-02  0.1292980E+00
         -2   -1    0    0    0  501 -0.00000000000E+00  0.00000000000E+00  0.16847342793E+03  0.16847342793E+03  0.00000000000E+00 0.  1.
          2   -1    0    0  501    0  0.00000000000E+00 -0.00000000000E+00 -0.10232661909E+03  0.10232661909E+03  0.00000000000E+00 0. -1.
         23    2    1    2    0    0 -0.19273568328E+00 -0.75832363320E+02  0.29811048628E+02  0.11998395270E+03  0.88073070865E+02 0.  0.
          5    1    1    2  502    0  0.15646897767E+01  0.27386638232E+02 -0.46850268129E+02  0.54450860705E+02  0.41800000000E+01 0. -1.
         -5    1    1    2    0  502 -0.13719540934E+01  0.48445725088E+02  0.83186028342E+02  0.96365233610E+02  0.41800000000E+01 0. -1.
        -11    1    3    3    0    0 -0.21416372840E+01 -0.93858281874E+02  0.36400907370E+02  0.10069255059E+03  0.00000000000E+00 0.  1.
         11    1    3    3    0    0  0.19489016008E+01  0.18025918555E+02 -0.65898587423E+01  0.19291402112E+02  0.00000000000E+00 0. -1.
</event>
<event>
 8    1  0.6840032E-009  0.1335126E+03  0.7561462E-02  0.1222335E+00
          3   -1    0    0  501    0  0.00000000000E+00  0.00000000000E+00  0.91150644380E+02  0.91150644380E+02  0.00000000000E+00 0. -1.
         -3   -1    0    0    0  501 -0.00000000000E+00 -0.00000000000E+00 -0.26020798266E+03  0.26020798266E+03  0.00000000000E+00 0.  1.
         25    2    1    2    0    0  0.93211016315E+02 -0.42526218801E+02 -0.13738357933E+03  0.21217455095E+03  0.12508804640E+03 0.  0.
         23    2    1    2    0    0 -0.93211016315E+02  0.42526218801E+02 -0.31673758950E+02  0.13918407609E+03  0.88725459610E+02 0.  0.
          5    1    3    3  502    0  0.11271499012E+03 -0.54399217354E+00 -0.11310898714E+03  0.15973753565E+03  0.41800000000E+01 0. -1.
         -5    1    3    3    0  502 -0.19503973807E+02 -0.41982226628E+02 -0.24274592193E+02  0.52437015295E+02  0.41800000000E+01 0. -1.
        -11    1    4    4    0    0 -0.52333811816E+02  0.41617172520E+02 -0.59680388120E+02  0.89624581639E+02  0.00000000000E+00 0.  1.
         11    1    4    4    0    0 -0.40877204499E+02  0.90904628063E+00  0.28006629170E+02  0.49559494451E+02  0.00000000000E+00 0. -1.
</event>
<event>
 8    1  0.6840032E-009  0.1134896E+03  0.7561462E-02  0.1254241E+00
          2   -1    0    0  501    0  0.00000000000E+00  0.00000000000E+00  0.28390547131E+03  0.28390547131E+03  0.00000000000E+00 0. -1.
         -2   -1    0    0    0  501 -0.00000000000E+00 -0.00000000000E+00 -0.62059207913E+02  0.62059207913E+02  0.00000000000E+00 0.  1.
         25    2    1    2    0    0 -0.11378147495E+02 -0.68646457116E+02  0.10110783204E+03  0.17524816830E+03  0.12508928203E+03 0.  0.
         23    2    1    2    0    0  0.11378147495E+02  0.68646457116E+02  0.12073843136E+03  0.17071651092E+03  0.98613183601E+02 0.  0.
          5    1    3    3  502    0 -0.52806759121E+02 -0.27914414922E+01  0.76853091551E+01  0.53599275474E+02  0.41800000000E+01 0.  1.
         -5    1    3    3    0  502  0.41428611626E+02 -0.65855015624E+02  0.93422522885E+02  0.12164889283E+03  0.41800000000E+01 0.  1.
        -11    1    4    4    0    0  0.96040730122E+01  0.81993823380E+02  0.45460260859E+02  0.94243623701E+02  0.00000000000E+00 0.  1.
         11    1    4    4    0    0  0.17740744831E+01 -0.13347366264E+02  0.75278170499E+02  0.76472887222E+02  0.00000000000E+00 0. -1.
</event>
<event>
 8    1  0.6840032E-009  0.9374833E+02  0.7561462E-02  0.1294020E+00
          1   -1    0    0  501    0  0.00000000000E+00  0.00000000000E+00  0.18434603076E+03  0.18434603076E+03  0.00000000000E+00 0. -1.
         -1   -1    0    0    0  501 -0.00000000000E+00 -0.00000000000E+00 -0.81953845214E+02  0.81953845214E+02  0.00000000000E+00 0.  1.
         25    2    1    2    0    0 -0.12250849216E+02  0.12932950117E+02  0.11672543780E+03  0.17201548803E+03  0.12508859175E+03 0.  0.
         23    2    1    2    0    0  0.12250849216E+02 -0.12932950117E+02 -0.14333252258E+02  0.94284387942E+02  0.91469990621E+02 0.  0.
          5    1    3    3  502    0  0.30736753091E+02 -0.27510447892E+02  0.10334460688E+03  0.11135148362E+03  0.41800000000E+01 0. -1.
         -5    1    3    3    0  502 -0.42987602307E+02  0.40443398009E+02  0.13380830924E+02  0.60664004408E+02  0.41800000000E+01 0. -1.
        -11    1    4    4    0    0  0.44359574690E+02  0.12294354707E+02 -0.24581936370E+02  0.52184237275E+02  0.00000000000E+00 0. -1.
         11    1    4    4    0    0 -0.32108725473E+02 -0.25227304824E+02  0.10248684112E+02  0.42100150667E+02  0.00000000000E+00 0.  1.
</event>
<event>
 8    1  0.6840032E-009  0.2006385E+03  0.7561462E-02  0.1149201E+00
          2   -1    0    0  501    0  0.00000000000E+00  0.00000000000E+00  0.35295505745E+03  0.35295505745E+03  0.00000000000E+00 0.  1.
         -2   -1    0    0    0  501 -0.00000000000E+00 -0.00000000000E+00 -0.12926196922E+03  0.12926196922E+03  0.00000000000E+00 0. -1.
         25    2    1    2    0    0 -0.16484306253E+03  0.42483185019E+02  0.39733537474E+02  0.21494205138E+03  0.12507307935E+03 0.  0.
         23    2    1    2    0    0  0.16484306253E+03 -0.42483185019E+02  0.18395955076E+03  0.26727497528E+03  0.92826396164E+02 0.  0.
          5    1    3    3  502    0 -0.18423581722E+03  0.47710996112E+02  0.32068722557E+02  0.19304157807E+03  0.41800000000E+01 0. -1.
         -5    1    3    3    0  502  0.19392754695E+02 -0.52278110929E+01  0.76648149164E+01  0.21900473310E+02  0.41800000000E+01 0. -1.
        -11    1    4    4    0    0  0.77587971574E+02 -0.63949194087E+02  0.12216731552E+03  0.15822214048E+03  0.00000000000E+00 0.  1.
         11    1    4    4    0    0  0.87255090954E+02  0.21466009067E+02  0.61792235240E+02  0.10905283480E+03  0.00000000000E+00 0. -1.
</event>
<event>
 8    1  0.6840032E-009  0.8485811E+02  0.7561462E-02  0.1315804E+00
          2   -1    0    0  501    0  0.00000000000E+00  0.00000000000E+00  0.33076022940E+03  0.33076022940E+03  0.00000000000E+00 0. -1.
         -2   -1    0    0    0  501 -0.00000000000E+00 -0.00000000000E+00 -0.44899485835E+02  0.44899485835E+02  0.00000000000E+00 0.  1.
         25    2    1    2    0    0 -0.47104992296E+02  0.19687802259E+02  0.18252076965E+03  0.22708408563E+03  0.12508741238E+03 0.  0.
         23    2    1    2    0    0  0.47104992296E+02 -0.19687802259E+02  0.10333997391E+03  0.14857562960E+03  0.93750080782E+02 0.  0.
          5    1    3    3  502    0  0.16847762106E+01  0.48601922136E+02  0.16388392632E+02  0.51488223113E+02  0.41800000000E+01 0. -1.
         -5    1    3    3    0  502 -0.48789768507E+02 -0.28914119878E+02  0.16613237702E+03  0.17559586252E+03  0.41800000000E+01 0. -1.
        -11    1    4    4    0    0  0.16191946637E+02 -0.27716344464E+02 -0.77197346376E+01  0.33014681420E+02  0.00000000000E+00 0.  1.
         11    1    4    4    0    0  0.30913045659E+02  0.80285422058E+01  0.11105970855E+03  0.11556094818E+03  0.00000000000E+00 0. -1.
</event>
<event>
 8    1  0.6840032E-009  0.1147616E+03  0.7561462E-02  0.1251998E+00
          2   -1    0    0  501    0  0.00000000000E+00  0.00000000000E+00  0.34853536798E+02  0.34853536798E+02  0.00000000000E+00 0. -1.
         -2   -1    0    0    0  501 -0.00000000000E+00 -0.00000000000E+00 -0.42282464442E+03  0.42282464442E+03  0.00000000000E+00 0.  1.
         25    2    1    2    0    0 -0.55193680758E+02 -0.86119138189E+01 -0.24147377966E+03  0.27763828953E+03  0.12511165451E+03 0.  0.
         23    2    1    2    0    0  0.55193680758E+02  0.86119138189E+01 -0.14649732797E+03  0.18003989169E+03  0.88500779908E+02 0.  0.
          5    1    3    3  502    0 -0.89310345662E+02  0.23620112219E+01 -0.21507632422E+03  0.23293178096E+03  0.41800000000E+01 0. -1.
         -5    1    3    3    0  502  0.34116664904E+02 -0.10973925041E+02 -0.26397455435E+02  0.44706508569E+02  0.41800000000E+01 0. -1.
        -11    1    4    4    0    0 -0.18106708774E+02 -0.18464839428E+02 -0.28186133448E+02  0.38252598820E+02  0.00000000000E+00 0. -1.
         11    1    4    4    0    0  0.73300389532E+02  0.27076753247E+02 -0.11831119452E+03  0.14178729287E+03  0.00000000000E+00 0.  1.
</event>
<event>
 8    1  0.6840032E-009  0.1126870E+03  0.7561462E-02  0.1255673E+00
         -4   -1    0    0    0  501 -0.00000000000E+00  0.00000000000E+00  0.42669427764E+02  0.42669427764E+02  0.00000000000E+00 0.  1.
          4   -1    0    0  501    0  0.00000000000E+00 -0.00000000000E+00 -0.30605472095E+03  0.30605472095E+03  0.00000000000E+00 0. -1.
         25    2    1    2    0    0 -0.20893785902E+02  0.24295360613E+02 -0.16088027501E+03  0.20629908076E+03  0.12510009191E+03 0.  0.
         23    2    1    2    0    0  0.20893785902E+02 -0.24295360613E+02 -0.10250501818E+03  0.14242506796E+03  0.93545744937E+02 0.  0.
          5    1    3    3  502    0  0.47220603411E+01  0.72523030445E+02 -0.10743161949E+03  0.12977254357E+03  0.41800000000E+01 0. -1.
         -5    1    3    3    0  502 -0.25615846243E+02 -0.48227669831E+02 -0.53448655522E+02  0.76526537183E+02  0.41800000000E+01 0. -1.
        -11    1    4    4    0    0  0.55009328751E+02 -0.30850292575E+02 -0.55754561188E+02  0.84180389016E+02  0.00000000000E+00 0. -1.
         11    1    4    4    0    0 -0.34115542849E+02  0.65549319618E+01 -0.46750456987E+02  0.58244678945E+02  0.00000000000E+00 0.  1.
</event>
<event>
 8    1  0.6840032E-009  0.1057347E+03  0.7561462E-02  0.1268679E+00
          2   -1    0    0  501    0  0.00000000000E+00  0.00000000000E+00  0.12694973719E+04  0.12694973719E+04  0.00000000000E+00 0. -1.
         -2   -1    0    0    0  501 -0.00000000000E+00 -0.00000000000E+00 -0.15406489508E+02  0.15406489508E+02  0.00000000000E+00 0.  1.
         25    2    1    2    0    0  0.54326745894E+02  0.35342328658E+02  0.95195145622E+03  0.96231979462E+03  0.12508931447E+03 0.  0.
         23    2    1    2    0    0 -0.54326745894E+02 -0.35342328658E+02  0.30213942614E+03  0.32258406677E+03  0.92583863526E+02 0.  0.
          5    1    3    3  502    0  0.48059296092E+01 -0.33086196102E+02  0.87852143553E+02  0.94091789539E+02  0.41800000000E+01 0. -1.
         -5    1    3    3    0  502  0.49520816285E+02  0.68428524760E+02  0.86409931267E+03  0.86822800508E+03  0.41800000000E+01 0. -1.
        -11    1    4    4    0    0  0.88196186940E+01 -0.28328940996E+02  0.26709893853E+02  0.39921585658E+02  0.00000000000E+00 0.  1.
         11    1    4    4    0    0 -0.63146364588E+02 -0.70133876622E+01  0.27542953229E+03  0.28266248111E+03  0.00000000000E+00 0. -1.
</event>
<event>
 8    1  0.6840032E-009  0.7569163E+02  0.7561462E-02  0.1341743E+00
          1   -1    0    0  501    0  0.00000000000E+00  0.00000000000E+00  0.94401666767E+02  0.94401666767E+02  0.00000000000E+00 0. -1.
         -1   -1    0    0    0  501 -0.00000000000E+00 -0.00000000000E+00 -0.20591448543E+03  0.20591448543E+03  0.00000000000E+00 0.  1.
         25    2    1    2    0    0 -0.31485186710E+02 -0.42264407732E+02 -0.15054220024E+03  0.20270380668E+03  0.12509309352E+03 0.  0.
         23    2    1    2    0    0  0.31485186710E+02  0.42264407732E+02  0.39029381577E+02  0.97612345516E+02  0.72299932417E+02 0.  0.
          5    1    3    3  502    0  0.12895933105E+02  0.10620011750E+01 -0.13877067505E+03  0.13943530970E+03  0.41800000000E+01 0. -1.
         -5    1    3    3    0  502 -0.44381119815E+02 -0.43326408907E+02 -0.11771525190E+02  0.63268496980E+02  0.41800000000E+01 0. -1.
        -11    1    4    4    0    0  0.38787826516E+02  0.51103132553E+02  0.50308624320E+02  0.81529033623E+02  0.00000000000E+00 0.  1.
         11    1    4    4    0    0 -0.73026398054E+01 -0.88387248208E+01 -0.11279242742E+02  0.16083311892E+02  0.00000000000E+00 0. -1.
</event>
<event>
 8    1  0.6840032E-009  0.2239929E+03  0.7561462E-02  0.1130941E+00
          1   -1    0    0  501    0  0.00000000000E+00  0.00000000000E+00  0.57532136927E+03  0.57532136927E+03  0.00000000000E+00 0. -1.
         -1   -1    0    0    0  501 -0.00000000000E+00 -0.00000000000E+00 -0.13180765443E+03  0.13180765443E+03  0.00000000000E+00 0.  1.
         25    2    1    2    0    0  0.37896830123E+02 -0.20872415278E+03  0.39710726120E+03  0.46727225572E+03  0.12508893787E+03 0.  0.
         23    2    1    2    0    0 -0.37896830123E+02  0.20872415278E+03  0.46406453643E+02  0.23985676799E+03  0.10186151639E+03 0.  0.
          5    1    3    3  502    0  0.47602823880E+02 -0.40934332474E+02  0.19210836741E+03  0.20215030459E+03  0.41800000000E+01 0. -1.
         -5    1    3    3    0  502 -0.97059937575E+01 -0.16778982031E+03  0.20499889378E+03  0.26512195112E+03  0.41800000000E+01 0. -1.
        -11    1    4    4    0    0 -0.39793767637E+02  0.92427981027E+02 -0.24587103917E+02  0.10359054638E+03  0.00000000000E+00 0.  1.
         11    1    4    4    0    0  0.18969375142E+01  0.11629617176E+03  0.70993557560E+02  0.13626622161E+03  0.00000000000E+00 0. -1.
</event>
<event>
 8    1  0.6840032E-009  0.9162577E+02  0.7561462E-02  0.1298962E+00
          2   -1    0    0  501    0  0.00000000000E+00  0.00000000000E+00  0.53474300523E+03  0.53474300523E+03  0.00000000000E+00 0. -1.
         -2   -1    0    0    0  501 -0.00000000000E+00 -0.00000000000E+00 -0.22990099973E+02  0.22990099973E+02  0.00000000000E+00 0.  1.
         25    2    1    2    0    0  0.63675310266E+01  0.22480188343E+02  0.32081857071E+03  0.34513480506E+03  0.12509026353E+03 0.  0.
         23    2    1    2    0    0 -0.63675310266E+01 -0.22480188343E+02  0.19093433454E+03  0.21259830014E+03  0.90532937636E+02 0.  0.
          5    1    3    3  502    0  0.82167519772E+01  0.56666833092E+02  0.63866060789E+02  0.85877768407E+02  0.41800000000E+01 0. -1.
         -5    1    3    3    0  502 -0.18492209507E+01 -0.34186644749E+02  0.25695250992E+03  0.25925703665E+03  0.41800000000E+01 0. -1.
        -11    1    4    4    0    0 -0.13700794121E+02  0.32819812761E+02  0.53166581195E+02  0.63965125070E+02  0.00000000000E+00 0.  1.
         11    1    4    4    0    0  0.73332630945E+01 -0.55300001105E+02  0.13776775335E+03  0.14863317507E+03  0.00000000000E+00 0. -1.
</event>
<event>
 8    1  0.6840032E-009  0.7426117E+02  0.7561462E-02  0.1346174E+00
          1   -1    0    0  501    0  0.00000000000E+00  0.00000000000E+00  0.12213251600E+03  0.12213251600E+03  0.00000000000E+00 0. -1.
         -1   -1    0    0    0  501 -0.00000000000E+00 -0.00000000000E+00 -0.10595772875E+03  0.10595772875E+03  0.00000000000E+00 0.  1.
         25    2    1    2    0    0  0.13572337949E+02  0.80113027518E+01  0.40431899772E+02  0.13240064365E+03  0.12508717996E+03 0.  0.
         23    2    1    2    0    0 -0.13572337949E+02 -0.80113027518E+01 -0.24257112519E+02  0.95689601100E+02  0.91212405525E+02 0.  0.
          5    1    3    3  502    0 -0.37625978733E+02  0.37318807181E+02  0.49417554856E+02  0.72580815461E+02  0.41800000000E+01 0. -1.
         -5    1    3    3    0  502  0.51198316682E+02 -0.29307504430E+02 -0.89856550840E+01  0.59819828186E+02  0.41800000000E+01 0. -1.
        -11    1    4    4    0    0 -0.20638118921E+02  0.51617533321E+01  0.31473570355E+02  0.37988962620E+02  0.00000000000E+00 0. -1.
         11    1    4    4    0    0  0.70657809716E+01 -0.13173056084E+02 -0.55730682874E+02  0.57700638480E+02  0.00000000000E+00 0.  1.
</event>
<event>
 8    1  0.6840032E-009  0.1451936E+03  0.7561462E-02  0.1206507E+00
          2   -1    0    0  501    0  0.00000000000E+00  0.00000000000E+00  0.57977663471E+03  0.57977663471E+03  0.00000000000E+00 0. -1.
         -2   -1    0    0    0  501 -0.00000000000E+00 -0.00000000000E+00 -0.60698696369E+02  0.60698696369E+02  0.00000000000E+00 0.  1.
         25    2    1    2    0    0  0.81527450340E+02  0.83384194220E+02  0.44202720801E+03  0.47395722242E+03  0.12509095514E+03 0.  0.
         23    2    1    2    0    0 -0.81527450340E+02 -0.83384194220E+02  0.77050730331E+02  0.16651810866E+03  0.90508654074E+02 0.  0.
          5    1    3    3  502    0  0.10254411057E+03  0.88043141355E+02  0.42558129479E+03  0.44654652638E+03  0.41800000000E+01 0. -1.
         -5    1    3    3    0  502 -0.21016660226E+02 -0.46589471348E+01  0.16445913219E+02  0.27410696034E+02  0.41800000000E+01 0. -1.
        -11    1    4    4    0    0 -0.81763251066E+02 -0.42121431147E+02  0.16807805579E+02  0.93498377072E+02  0.00000000000E+00 0.  1.
         11    1    4    4    0    0  0.23580072609E+00 -0.41262763072E+02  0.60242924752E+02  0.73019731587E+02  0.00000000000E+00 0. -1.
</event>
<event>
 8    1  0.6840032E-009  0.9889279E+02  0.7561462E-02  0.1282642E+00
         -3   -1    0    0    0  501 -0.00000000000E+00  0.00000000000E+00  0.30829118229E+03  0.30829118229E+03  0.00000000000E+00 0.  1.
          3   -1    0    0  501    0  0.00000000000E+00 -0.00000000000E+00 -0.49389324691E+02  0.49389324691E+02  0.00000000000E+00 0. -1.
         25    2    1    2    0    0  0.14740275557E+02  0.51292174510E+02  0.10736938095E+03  0.17327099343E+03  0.12508593170E+03 0.  0.
         23    2    1    2    0    0 -0.14740275557E+02 -0.51292174510E+02  0.15153247665E+03  0.18440951355E+03  0.90535155157E+02 0.  0.
          5    1    3    3  502    0 -0.28523536285E+02  0.79074497618E+02  0.71556599495E+02  0.11047256504E+03  0.41800000000E+01 0.  1.
         -5    1    3    3    0  502  0.43263811842E+02 -0.27782323107E+02  0.35812781454E+02  0.62798428386E+02  0.41800000000E+01 0.  1.
        -11    1    4    4    0    0  0.87277817513E+01 -0.26482425117E+02 -0.11962736636E+01  0.27909211473E+02  0.00000000000E+00 0. -1.
         11    1    4    4    0    0 -0.23468057308E+02 -0.24809749394E+02  0.15272875031E+03  0.15650030208E+03  0.00000000000E+00 0.  1.
</event>
<event>
 8    1  0.6840032E-009  0.1322791E+03  0.7561462E-02  0.1224113E+00
         -1   -1    0    0    0  501 -0.00000000000E+00  0.00000000000E+00  0.46072984307E+03  0.46072984307E+03  0.00000000000E+00 0.  1.
          1   -1    0    0  501    0  0.00000000000E+00 -0.00000000000E+00 -0.43057248556E+02  0.43057248556E+02  0.00000000000E+00 0. -1.
         25    2    1    2    0    0 -0.51506276254E+02 -0.68737271003E+02  0.18494150825E+03  0.23922651584E+03  0.12509298737E+03 0.  0.
         23    2    1    2    0    0  0.51506276254E+02  0.68737271003E+02  0.23273108627E+03  0.26456057579E+03  0.91928400553E+02 0.  0.
          5    1    3    3  502    0 -0.85969314808E+02 -0.48883281681E+02  0.16964152425E+03  0.19640778362E+03  0.41800000000E+01 0.  1.
         -5    1    3    3    0  502  0.34463038554E+02 -0.19853989322E+02  0.15299983994E+02  0.42818732216E+02  0.41800000000E+01 0.  1.
        -11    1    4    4    0    0 -0.19024218194E+02  0.48665313886E+02  0.10476732534E+03  0.11707444688E+03  0.00000000000E+00 0. -1.
         11    1    4    4    0    0  0.70530494449E+02  0.20071957117E+02  0.12796376092E+03  0.14748612891E+03  0.00000000000E+00 0.  1.
</event>
<event>
 8    1  0.6840032E-009  0.2222760E+03  0.7561462E-02  0.1132198E+00
         -2   -1    0    0    0  501 -0.00000000000E+00  0.00000000000E+00  0.12310989382E+03  0.12310989382E+03  0.00000000000E+00 0.  1.
          2   -1    0    0  501    0  0.00000000000E+00 -0.00000000000E+00 -0.40399759482E+03  0.40399759482E+03  0.00000000000E+00 0. -1.
         25    2    1    2    0    0 -0.19343518031E+03 -0.48290526294E+01 -0.15058680605E+03  0.27525681276E+03  0.12509771415E+03 0.  0.
         23    2    1    2    0    0  0.19343518031E+03  0.48290526294E+01 -0.13030089496E+03  0.25185067588E+03  0.94920761618E+02 0.  0.
          5    1    3    3  502    0 -0.31801682903E+02  0.49421103341E+02 -0.28049560857E+02  0.65253680012E+02  0.41800000000E+01 0. -1.
         -5    1    3    3    0  502 -0.16163349741E+03 -0.54250155970E+02 -0.12253724519E+03  0.21000313275E+03  0.41800000000E+01 0. -1.
        -11    1    4    4    0    0  0.82708065132E+02  0.48707176630E+02 -0.66127220092E+02  0.11655823579E+03  0.00000000000E+00 0.  1.
         11    1    4    4    0    0  0.11072711518E+03 -0.43878124000E+02 -0.64173674863E+02  0.13529244010E+03  0.00000000000E+00 0. -1.
</event>
<event>
 7    1  0.6840032E-009  0.1525037E+03  0.7561462E-02  0.1197430E+00
          3   -1    0    0  501    0  0.00000000000E+00  0.00000000000E+00  0.16724605995E+04  0.16724605995E+04  0.00000000000E+00 0. -1.
         -3   -1    0    0    0  501 -0.00000000000E+00 -0.00000000000E+00 -0.14194342423E+02  0.14194342423E+02  0.00000000000E+00 0.  1.
         23    2    1    2    0    0  0.55670507930E+02  0.90590013327E+02  0.77153164857E+03  0.78484103263E+03  0.96997967946E+02 0.  0.
          5    1    1    2  502    0 -0.86280882127E+02 -0.27143565839E+02  0.40958195817E+03  0.41947111539E+03  0.41800000000E+01 0. -1.
         -5    1    1    2    0  502  0.30610374197E+02 -0.63446447488E+02  0.47715265031E+03  0.48234279388E+03  0.41800000000E+01 0. -1.
        -11    1    3    3    0    0  0.34907930048E+01  0.91635823496E+02  0.48364548264E+03  0.49226239208E+03  0.00000000000E+00 0.  1.
         11    1    3    3    0    0  0.52179714925E+02 -0.10458101689E+01  0.28788616593E+03  0.29257864054E+03  0.00000000000E+00 0. -1.
</event>
<event>
 7    1  0.6840032E-009  0.1297422E+03  0.7561462E-02  0.1227839E+00
         -1   -1    0    0    0  501 -0.00000000000E+00  0.00000000000E+00  0.28266910082E+02  0.28266910082E+02  0.00000000000E+00 0.  1.
          1   -1    0    0  501    0  0.00000000000E+00 -0.00000000000E+00 -0.10755665664E+04  0.10755665664E+04  0.00000000000E+00 0. -1.
         23    2    1    2    0    0 -0.61696163420E+02  0.95186247592E+02 -0.23782951654E+03  0.27707372249E+03  0.85674561257E+02 0.  0.
          5    1    1    2  502    0  0.20396414381E+02 -0.61533956607E+02 -0.13133461234E+03  0.14652199266E+03  0.41800000000E+01 0.  1.
         -5    1    1    2    0  502  0.41299749039E+02 -0.33652290985E+02 -0.67813552746E+03  0.68023776134E+03  0.41800000000E+01 0.  1.
        -11    1    3    3    0    0  0.18983986955E+01 -0.14323999493E+02 -0.36167595791E+02  0.38947090577E+02  0.00000000000E+00 0. -1.
         11    1    3    3    0    0 -0.63594562116E+02  0.10951024708E+03 -0.20166192074E+03  0.23812663191E+03  0.00000000000E+00 0.  1.
</event>
<event>
 8    1  0.6840032E-009  0.1389503E+03  0.7561462E-02  0.1214748E+00
         -1   -1    0    0    0  501 -0.00000000000E+00  0.00000000000E+00  0.20015111824E+03  0.20015111824E+03  0.00000000000E+00 0.  1.
          1   -1    0    0  501    0  0.00000000000E+00 -0.00000000000E+00 -0.13622835603E+03  0.13622835603E+03  0.00000000000E+00 0. -1.
         25    2    1    2    0    0  0.26016832948E+02 -0.10940801897E+03  0.88382219014E+02  0.19001088845E+03  0.12508289604E+03 0.  0.
         23    2    1    2    0    0 -0.26016832948E+02  0.10940801897E+03 -0.24459456804E+02  0.14636858581E+03  0.90435101998E+02 0.  0.
          5    1    3    3  502    0  0.20929028674E+02  0.10817006723E+02  0.62405684797E+02  0.66835423023E+02  0.41800000000E+01 0.  1.
         -5    1    3    3    0  502  0.50878042741E+01 -0.12022502569E+03  0.25976534217E+02  0.12317546543E+03  0.41800000000E+01 0.  1.
        -11    1    4    4    0    0 -0.51079015917E+02  0.80164041006E+02  0.88273868007E+01  0.95463407101E+02  0.00000000000E+00 0.  1.
         11    1    4    4    0    0  0.25062182969E+02  0.29243977961E+02 -0.33286843604E+02  0.50905178708E+02  0.00000000000E+00 0. -1.
</event>
<event>
 8    1  0.6840032E-009  0.1564086E+03  0.7561462E-02  0.1192812E+00
         -1   -1    0    0    0  501 -0.00000000000E+00  0.00000000000E+00  0.33477639582E+03  0.33477639582E+03  0.00000000000E+00 0.  1.
          1   -1    0    0  501    0  0.00000000000E+00 -0.00000000000E+00 -0.10942770762E+03  0.10942770762E+03  0.00000000000E+00 0. -1.
         25    2    1    2    0    0 -0.81336254380E+01 -0.13225469927E+03  0.16485935871E+02  0.18296651502E+03  0.12508996040E+03 0.  0.
         23    2    1    2    0    0  0.81336254380E+01  0.13225469927E+03  0.20886275233E+03  0.26123758843E+03  0.84047408957E+02 0.  0.
          5    1    3    3  502    0  0.38968734820E+02 -0.78034522053E+02  0.53141707012E+02  0.10222261173E+03  0.41800000000E+01 0. -1.
         -5    1    3    3    0  502 -0.47102360258E+02 -0.54220177219E+02 -0.36655771141E+02  0.80743903284E+02  0.41800000000E+01 0. -1.
        -11    1    4    4    0    0  0.28539321661E+02  0.10993467124E+02  0.66004791546E+02  0.72746008188E+02  0.00000000000E+00 0.  1.
         11    1    4    4    0    0 -0.20405696223E+02  0.12126123215E+03  0.14285796079E+03  0.18849158024E+03  0.00000000000E+00 0. -1.
</event>
<event>
 7    1  0.6840032E-009  0.2285369E+03  0.7561462E-02  0.1127674E+00
          2   -1    0    0  501    0  0.00000000000E+00  0.00000000000E+00  0.14541225421E+04  0.14541225421E+04  0.00000000000E+00 0. -1.
         -2   -1    0    0    0  501 -0.00000000000E+00 -0.00000000000E+00 -0.42398884055E+02  0.42398884055E+02  0.00000000000E+00 0.  1.
         23    2    1    2    0    0  0.14736776066E+03 -0.16187828480E+03  0.80721171773E+03  0.84151593782E+03  0.92932665924E+02 0.  0.
          5    1    1    2  502    0 -0.63702567796E+00  0.58125105446E+02  0.70041357768E+02  0.91116397443E+02  0.41800000000E+01 0. -1.
         -5    1    1    2    0  502 -0.14673073498E+03  0.10375317936E+03  0.53447058250E+03  0.56388909084E+03  0.41800000000E+01 0. -1.
        -11    1    3    3    0    0  0.77568585087E+02 -0.79625988593E+02  0.57260776612E+03  0.58329824042E+03  0.00000000000E+00 0. -1.
         11    1    3    3    0    0  0.69799175570E+02 -0.82252296212E+02  0.23460395160E+03  0.25821769740E+03  0.00000000000E+00 0.  1.
</event>
<event>
 8    1  0.6840032E-009  0.1165870E+03  0.7561462E-02  0.1248836E+00
         -1   -1    0    0    0  501 -0.00000000000E+00  0.00000000000E+00  0.30216747139E+02  0.30216747139E+02  0.00000000000E+00 0.  1.
          1   -1    0    0  501    0  0.00000000000E+00 -0.00000000000E+00 -0.60211336421E+03  0.60211336421E+03  0.00000000000E+00 0. -1.
         25    2    1    2    0    0  0.54023317515E+02 -0.23339441528E+02 -0.44650615142E+03  0.46741376630E+03  0.12507852456E+03 0.  0.
         23    2    1    2    0    0 -0.54023317515E+02  0.23339441528E+02 -0.12539046565E+03  0.16491634505E+03  0.89506332860E+02 0.  0.
          5    1    3    3  502    0  0.82042146324E+02 -0.51266755607E+02 -0.34679301558E+03  0.36005841478E+03  0.41800000000E+01 0.  1.
         -5    1    3    3    0  502 -0.28018828809E+02  0.27927314079E+02 -0.99713135843E+02  0.10735535152E+03  0.41800000000E+01 0.  1.
        -11    1    4    4    0    0 -0.47282462607E+02 -0.20982462905E+02 -0.10195883999E+03  0.11433066112E+03  0.00000000000E+00 0. -1.
         11    1    4    4    0    0 -0.67408549082E+01  0.44321904434E+02 -0.23431625660E+02  0.50585683929E+02  0.00000000000E+00 0.  1.
</event>
<event>
 8    1  0.6840032E-009  0.1504488E+03  0.7561462E-02  0.1199923E+00
          1   -1    0    0  501    0  0.00000000000E+00  0.00000000000E+00  0.62938638324E+02  0.62938638324E+02  0.00000000000E+00 0. -1.
         -1   -1    0    0    0  501 -0.00000000000E+00 -0.00000000000E+00 -0.46628190051E+03  0.46628190051E+03  0.00000000000E+00 0.  1.
         25    2    1    2    0    0 -0.85254984113E+02  0.95811298902E+02 -0.16328339321E+03  0.24239815595E+03  0.12508869732E+03 0.  0.
         23    2    1    2    0    0  0.85254984113E+02 -0.95811298902E+02 -0.24005986897E+03  0.28682238288E+03  0.90499289042E+02 0.  0.
          5    1    3    3  502    0  0.20107775032E+02 -0.93887172774E+01 -0.51295104592E+02  0.56045791849E+02  0.41800000000E+01 0. -1.
         -5    1    3    3    0  502 -0.10536275914E+03  0.10520001618E+03 -0.11198828862E+03  0.18635236410E+03  0.41800000000E+01 0. -1.
        -11    1    4    4    0    0  0.64198911668E+01 -0.15742118719E+02  0.45835316289E+01  0.17607897846E+02  0.00000000000E+00 0. -1.
         11    1    4    4    0    0  0.78835092946E+02 -0.80069180182E+02 -0.24464340060E+03  0.26921448503E+03  0.00000000000E+00 0.  1.
</event>
<event>
 8    1  0.6840032E-009  0.1142180E+03  0.7561462E-02  0.1252952E+00
          1   -1    0    0  501    0  0.00000000000E+00  0.00000000000E+00  0.77673851500E+03  0.77673851500E+03  0.00000000000E+00 0. -1.
         -1   -1    0    0    0  501 -0.00000000000E+00 -0.00000000000E+00 -0.20826850099E+02  0.20826850099E+02  0.00000000000E+00 0.  1.
         25    2    1    2    0    0  0.65286975393E+02  0.12563037708E+02  0.41760074536E+03  0.44097439692E+03  0.12509123527E+03 0.  0.
         23    2    1    2    0    0 -0.65286975393E+02 -0.12563037708E+02  0.33831091954E+03  0.35659096818E+03  0.91008907447E+02 0.  0.
          5    1    3    3  502    0  0.76603818712E+02  0.41693432752E+02  0.38808146150E+03  0.39778283087E+03  0.41800000000E+01 0. -1.
         -5    1    3    3    0  502 -0.11316843320E+02 -0.29130395044E+02  0.29519283864E+02  0.43191566051E+02  0.41800000000E+01 0. -1.
        -11    1    4    4    0    0  0.21556581521E+02 -0.65940668053E+01  0.40878072896E+02  0.46681739124E+02  0.00000000000E+00 0. -1.
         11    1    4    4    0    0 -0.86843556914E+02 -0.59689709029E+01  0.29743284665E+03  0.30990922906E+03  0.00000000000E+00 0.  1.
</event>
<event>
 8    1  0.6840032E-009  0.1377262E+03  0.7561462E-02  0.1216422E+00
         -2   -1    0    0    0  501 -0.00000000000E+00  0.00000000000E+00  0.56437439617E+02  0.56437439617E+02  0.00000000000E+00 0.  1.
          2   -1    0    0  501    0  0.00000000000E+00 -0.00000000000E+00 -0.64348296281E+03  0.64348296281E+03  0.00000000000E+00 0. -1.
         25    2    1    2    0    0 -0.63835615228E+02  0.10962557462E+03 -0.14106673945E+03  0.22724472368E+03  0.12509031569E+03 0.  0.
         23    2    1    2    0    0  0.63835615228E+02 -0.10962557462E+03 -0.44597878373E+03  0.47267567874E+03  0.91828477879E+02 0.  0.
          5    1    3    3  502    0 -0.56968518640E+02  0.83678885888E+02 -0.20132590407E+02  0.10329744264E+03  0.41800000000E+01 0. -1.
         -5    1    3    3    0  502 -0.68670965877E+01  0.25946688734E+02 -0.12093414905E+03  0.12394728104E+03  0.41800000000E+01 0. -1.
        -11    1    4    4    0    0  0.79010481962E+02 -0.74014191721E+02 -0.24281342350E+03  0.26585544092E+03  0.00000000000E+00 0.  1.
         11    1    4    4    0    0 -0.15174866734E+02 -0.35611382900E+02 -0.20316536023E+03  0.20682023782E+03  0.00000000000E+00 0. -1.
</event>
<event>
 8    1  0.6840032E-009  0.1438321E+03  0.7561462E-02  0.1208264E+00
         -2   -1    0    0    0  501 -0.00000000000E+00  0.00000000000E+00  0.29577926320E+02  0.29577926320E+02  0.00000000000E+00 0.  1.
          2   -1    0    0  501    0  0.00000000000E+00 -0.00000000000E+00 -0.89820143598E+03  0.89820143598E+03  0.00000000000E+00 0. -1.
         25    2    1    2    0    0 -0.10217243013E+03 -0.44306821862E+02 -0.61719339810E+03  0.63951426190E+03  0.12509396696E+03 0.  0.
         23    2    1    2    0    0  0.10217243013E+03  0.44306821862E+02 -0.25143011156E+03  0.28826510040E+03  0.86471770937E+02 0.  0.
          5    1    3    3  502    0 -0.75764558635E+02  0.18763817361E+02 -0.17005912850E+03  0.18716284026E+03  0.41800000000E+01 0.  1.
         -5    1    3    3    0  502 -0.26407871494E+02 -0.63070639223E+02 -0.44713426960E+03  0.45235142164E+03  0.41800000000E+01 0.  1.
        -11    1    4    4    0    0  0.58298606899E+02  0.69253467524E+02 -0.16153183357E+03  0.18516831151E+03  0.00000000000E+00 0. -1.
         11    1    4    4    0    0  0.43873823230E+02 -0.24946645663E+02 -0.89898277984E+02  0.10309678889E+03  0.00000000000E+00 0.  1.
</event>
<event>
 8    1  0.6840032E-009  0.1574532E+03  0.7561462E-02  0.1191602E+00
         -1   -1    0    0    0  501 -0.00000000000E+00  0.00000000000E+00  0.29244229054E+03  0.29244229054E+03  0.00000000000E+00 0. -1.
          1   -1    0    0  501    0  0.00000000000E+00 -0.00000000000E+00 -0.11392464014E+03  0.11392464014E+03  0.00000000000E+00 0.  1.
         25    2    1    2    0    0  0.10360238288E+03  0.68046939990E+02  0.76743993460E+01  0.17627355684E+03  0.12509848382E+03 0.  0.
         23    2    1    2    0    0 -0.10360238288E+03 -0.68046939990E+02  0.17084325105E+03  0.23009337384E+03  0.91606246925E+02 0.  0.
          5    1    3    3  502    0  0.39877979387E+02  0.93664846467E+02  0.25831971672E+02  0.10511003693E+03  0.41800000000E+01 0.  1.
         -5    1    3    3    0  502  0.63724403489E+02 -0.25617906477E+02 -0.18157572325E+02  0.71163519904E+02  0.41800000000E+01 0.  1.
        -11    1    4    4    0    0 -0.98084736707E+02 -0.82863323742E+02  0.11608145011E+03  0.17309491343E+03  0.00000000000E+00 0.  1.
         11    1    4    4    0    0 -0.55176461698E+01  0.14816383751E+02  0.54761800936E+02  0.56998460405E+02  0.00000000000E+00 0. -1.
</event>
<event>
 8    1  0.6840032E-009  0.1217671E+03  0.7561462E-02  0.1240210E+00
         -1   -1    0    0    0  501 -0.00000000000E+00  0.00000000000E+00  0.50772856926E+02  0.50772856926E+02  0.00000000000E+00 0.  1.
          1   -1    0    0  501    0  0.00000000000E+00 -0.00000000000E+00 -0.40640860739E+03  0.40640860739E+03  0.00000000000E+00 0. -1.
         25    2    1    2    0    0 -0.47945067010E+02 -0.80933065864E+02 -0.17467888995E+03  0.23453923527E+03  0.12508815965E+03 0.  0.
         23    2    1    2    0    0  0.47945067010E+02  0.80933065864E+02 -0.18095686052E+03  0.22264222905E+03  0.89304457832E+02 0.  0.
          5    1    3    3  502    0 -0.58247291203E+02 -0.85527309787E+02 -0.18919598052E+03  0.21568555607E+03  0.41800000000E+01 0.  1.
         -5    1    3    3    0  502  0.10302224193E+02  0.45942439230E+01  0.14517090571E+02  0.18853679195E+02  0.41800000000E+01 0.  1.
        -11    1    4    4    0    0  0.70743394049E+02  0.77421765197E+02 -0.16097342618E+03  0.19212288116E+03  0.00000000000E+00 0. -1.
         11    1    4    4    0    0 -0.22798327039E+02  0.35113006672E+01 -0.19983434338E+02  0.30519347898E+02  0.00000000000E+00 0.  1.
</event>
<event>
 8    1  0.6840032E-009  0.1002983E+03  0.7561462E-02  0.1279670E+00
         -2   -1    0    0    0  501 -0.00000000000E+00  0.00000000000E+00  0.33871839358E+03  0.33871839358E+03  0.00000000000E+00 0. -1.
          2   -1    0    0  501    0  0.00000000000E+00 -0.00000000000E+00 -0.53627669902E+02  0.53627669902E+02  0.00000000000E+00 0.  1.
         25    2    1    2    0    0  0.87876545163E+02  0.39676311621E+01  0.12997805541E+03  0.20069985339E+03  0.12509239377E+03 0.  0.
         23    2    1    2    0    0 -0.87876545163E+02 -0.39676311621E+01  0.15511266828E+03  0.19164621009E+03  0.70216099981E+02 0.  0.
          5    1    3    3  502    0  0.24323661661E+02 -0.23490942482E+01  0.13428316379E+03  0.13655255119E+03  0.41800000000E+01 0.  1.
         -5    1    3    3    0  502  0.63552883501E+02  0.63167254102E+01 -0.43051083830E+01  0.64147302199E+02  0.41800000000E+01 0.  1.
        -11    1    4    4    0    0  0.62582686233E+01 -0.15735808926E+02  0.16238398594E+02  0.23462037372E+02  0.00000000000E+00 0. -1.
         11    1    4    4    0    0 -0.94134813786E+02  0.11768177764E+02  0.13887426968E+03  0.16818417272E+03  0.00000000000E+00 0.  1.
</event>
<event>
 8    1  0.6840032E-009  0.1216024E+03  0.7561462E-02  0.1240477E+00
          2   -1    0    0  501    0  0.00000000000E+00  0.00000000000E+00  0.14259717764E+03  0.14259717764E+03  0.00000000000E+00 0. -1.
         -2   -1    0    0    0  501 -0.00000000000E+00 -0.00000000000E+00 -0.11387068310E+03  0.11387068310E+03  0.00000000000E+00 0.  1.
         25    2    1    2    0    0 -0.59705538983E+02  0.21069331158E+02  0.27194835001E+02  0.14281158917E+03  0.12508766067E+03 0.  0.
         23    2    1    2    0    0  0.59705538983E+02 -0.21069331158E+02  0.15316595394E+01  0.11365627157E+03  0.94375494621E+02 0.  0.
          5    1    3    3  502    0 -0.68492450485E+02  0.59920188303E+02  0.41733179980E+02  0.10020366985E+03  0.41800000000E+01 0. -1.
         -5    1    3    3    0  502  0.87869115016E+01 -0.38850857145E+02 -0.14538344979E+02  0.42607919327E+02  0.41800000000E+01 0. -1.
        -11    1    4    4    0    0  0.63012580621E+02  0.23582134980E+02 -0.83738354496E+01  0.67799878517E+02  0.00000000000E+00 0.  1.
         11    1    4    4    0    0 -0.33070416383E+01 -0.44651466138E+02  0.99054949890E+01  0.45856393051E+02  0.00000000000E+00 0. -1.
</event>
<event>
 8    1  0.6840032E-009  0.1717658E+03  0.7561462E-02  0.1176019E+00
         -1   -1    0    0    0  501 -0.00000000000E+00  0.00000000000E+00  0.69292419226E+02  0.69292419226E+02  0.00000000000E+00 0.  1.
          1   -1    0    0  501    0  0.00000000000E+00 -0.00000000000E+00 -0.51890872375E+03  0.51890872375E+03  0.00000000000E+00 0. -1.
         25    2    1    2    0    0  0.40059453786E+02 -0.13776343683E+03 -0.32706135429E+03  0.37842130026E+03  0.12510006658E+03 0.  0.
         23    2    1    2    0    0 -0.40059453786E+02  0.13776343683E+03 -0.12255495023E+03  0.20977984271E+03  0.91675199575E+02 0.  0.
          5    1    3    3  502    0 -0.28228661260E+02 -0.13665307056E+02 -0.14119335805E+03  0.14469497120E+03  0.41800000000E+01 0.  1.
         -5    1    3    3    0  502  0.68288115046E+02 -0.12409812977E+03 -0.18586799624E+03  0.23372632906E+03  0.41800000000E+01 0.  1.
        -11    1    4    4    0    0 -0.29186826030E+02 -0.26900086396E+01 -0.23479181242E+02  0.37555011809E+02  0.00000000000E+00 0. -1.
         11    1    4    4    0    0 -0.10872627756E+02  0.14045344547E+03 -0.99075768987E+02  0.17222483090E+03  0.00000000000E+00 0.  1.
</event>
<event>
 8    1  0.6840032E-009  0.2678162E+03  0.7561462E-02  0.1102536E+00
         -2   -1    0    0    0  501 -0.00000000000E+00  0.00000000000E+00  0.12913727313E+03  0.12913727313E+03  0.00000000000E+00 0.  1.
          2   -1    0    0  501    0  0.00000000000E+00 -0.00000000000E+00 -0.58476508862E+03  0.58476508862E+03  0.00000000000E+00 0. -1.
         25    2    1    2    0    0  0.19001325899E+03  0.16649503296E+03 -0.20729030103E+03  0.34992364321E+03  0.12510656491E+03 0.  0.
         23    2    1    2    0    0 -0.19001325899E+03 -0.16649503296E+03 -0.24833751445E+03  0.36397871854E+03  0.83566451852E+02 0.  0.
          5    1    3    3  502    0  0.20247948895E+03  0.12687570473E+03 -0.16437829875E+03  0.29005703817E+03  0.41800000000E+01 0. -1.
         -5    1    3    3    0  502 -0.12466229959E+02  0.39619328227E+02 -0.42912002285E+02  0.59866605037E+02  0.41800000000E+01 0. -1.
        -11    1    4    4    0    0 -0.89982875550E+02 -0.10135455121E+03 -0.18352739516E+03  0.22814900333E+03  0.00000000000E+00 0.  1.
         11    1    4    4    0    0 -0.10003038344E+03 -0.65140481746E+02 -0.64810119290E+02  0.13582971521E+03  0.00000000000E+00 0. -1.
</event>
<event>
 8    1  0.6840032E-009  0.1124067E+03  0.7561462E-02  0.1256177E+00
          1   -1    0    0  501    0  0.00000000000E+00  0.00000000000E+00  0.32514925414E+03  0.32514925414E+03  0.00000000000E+00 0. -1.
         -1   -1    0    0    0  501 -0.00000000000E+00 -0.00000000000E+00 -0.48234311556E+02  0.48234311556E+02  0.00000000000E+00 0.  1.
         25    2    1    2    0    0 -0.43474724461E+02 -0.45932355238E+02  0.14242224704E+03  0.19982757887E+03  0.12508849627E+03 0.  0.
         23    2    1    2    0    0  0.43474724461E+02  0.45932355238E+02  0.13449269554E+03  0.17355598682E+03  0.89630142720E+02 0.  0.
          5    1    3    3  502    0 -0.26229767615E+02  0.30953012224E+02  0.46391940882E+01  0.41049777060E+02  0.41800000000E+01 0. -1.
         -5    1    3    3    0  502 -0.17244956847E+02 -0.76885367462E+02  0.13778305295E+03  0.15877780181E+03  0.41800000000E+01 0. -1.
        -11    1    4    4    0    0  0.28705242392E+02  0.70687624221E+02  0.72768867355E+02  0.10543262880E+03  0.00000000000E+00 0.  1.
         11    1    4    4    0    0  0.14769482070E+02 -0.24755268984E+02  0.61723828184E+02  0.68123358026E+02  0.00000000000E+00 0. -1.
</event>
<event>
 8    1  0.6840032E-009  0.2191402E+03  0.7561462E-02  0.1134526E+00
          1   -1    0    0  501    0  0.00000000000E+00  0.00000000000E+00  0.16173579025E+03  0.16173579025E+03  0.00000000000E+00 0. -1.
         -1   -1    0    0    0  501 -0.00000000000E+00 -0.00000000000E+00 -0.59669837271E+03  0.59669837271E+03  0.00000000000E+00 0.  1.
         25    2    1    2    0    0 -0.19897045261E+03  0.35891407764E+02 -0.47408106995E+03  0.53035764344E+03  0.12509570299E+03 0.  0.
         23    2    1    2    0    0  0.19897045261E+03 -0.35891407764E+02  0.39118487486E+02  0.22807651952E+03  0.98036771314E+02 0.  0.
          5    1    3    3  502    0 -0.20254631520E+03  0.31634517248E+01 -0.42836119304E+03  0.47386263973E+03  0.41800000000E+01 0. -1.
         -5    1    3    3    0  502  0.35758625877E+01  0.32727956039E+02 -0.45719876904E+02  0.56495003707E+02  0.41800000000E+01 0. -1.
        -11    1    4    4    0    0  0.12903281628E+03 -0.17935649913E+02 -0.23649452270E+02  0.13240261254E+03  0.00000000000E+00 0.  1.
         11    1    4    4    0    0  0.69937636333E+02 -0.17955757851E+02  0.62767939756E+02  0.95673906981E+02  0.00000000000E+00 0. -1.
</event>
<event>
 8    1  0.6840032E-009  0.1589937E+03  0.7561462E-02  0.1189838E+00
         -2   -1    0    0    0  501 -0.00000000000E+00  0.00000000000E+00  0.24130424182E+03  0.24130424182E+03  0.00000000000E+00 0.  1.
          2   -1    0    0  501    0  0.00000000000E+00 -0.00000000000E+00 -0.12977825899E+03  0.12977825899E+03  0.00000000000E+00 0. -1.
         25    2    1    2    0    0  0.80586197687E+02 -0.10710566491E+03  0.20156658831E+02  0.18443895994E+03  0.12508269399E+03 0.  0.
         23    2    1    2    0    0 -0.80586197687E+02  0.10710566491E+03  0.91369323995E+02  0.18664354087E+03  0.92313050367E+02 0.  0.
          5    1    3    3  502    0  0.33821061812E+02  0.25562518687E+02  0.51074710528E+01  0.42905305549E+02  0.41800000000E+01 0. -1.
         -5    1    3    3    0  502  0.46765135875E+02 -0.13266818360E+03  0.15049187778E+02  0.14153365439E+03  0.41800000000E+01 0. -1.
        -11    1    4    4    0    0 -0.32533718112E+02  0.53947290507E+02  0.96012549748E+02  0.11483537206E+03  0.00000000000E+00 0.  1.
         11    1    4    4    0    0 -0.48052479575E+02  0.53158374403E+02 -0.46432257527E+01  0.71808168810E+02  0.00000000000E+00 0. -1.
</event>
<event>
 8    1  0.6840032E-009  0.1455303E+03  0.7561462E-02  0.1206075E+00
         -1   -1    0    0    0  501 -0.00000000000E+00  0.00000000000E+00  0.68405541503E+02  0.68405541503E+02  0.00000000000E+00 0. -1.
          1   -1    0    0  501    0  0.00000000000E+00 -0.00000000000E+00 -0.41466599987E+03  0.41466599987E+03  0.00000000000E+00 0.  1.
         25    2    1    2    0    0  0.10077856615E+03  0.51740162489E+02 -0.26774068069E+03  0.31648908050E+03  0.12508757799E+03 0.  0.
         23    2    1    2    0    0 -0.10077856615E+03 -0.51740162489E+02 -0.78519777681E+02  0.16658246088E+03  0.93546763582E+02 0.  0.
          5    1    3    3  502    0  0.20233608232E+02 -0.40598790001E+02 -0.84875989635E+02  0.96327912196E+02  0.41800000000E+01 0.  1.
         -5    1    3    3    0  502  0.80544957917E+02  0.92338952490E+02 -0.18286469105E+03  0.22016116830E+03  0.41800000000E+01 0.  1.
        -11    1    4    4    0    0 -0.55428456419E+02 -0.18171262041E+01  0.89010960830E+01  0.56168009046E+02  0.00000000000E+00 0. -1.
         11    1    4    4    0    0 -0.45350109730E+02 -0.49923036285E+02 -0.87420873764E+02  0.11041445184E+03  0.00000000000E+00 0.  1.
</event>
<event>
 8    1  0.6840032E-009  0.7443140E+02  0.7561462E-02  0.1345641E+00
         -2   -1    0    0    0  501 -0.00000000000E+00  0.00000000000E+00  0.64744859173E+02  0.64744859173E+02  0.00000000000E+00 0.  1.
          2   -1    0    0  501    0  0.00000000000E+00 -0.00000000000E+00 -0.29481269939E+03  0.29481269939E+03  0.00000000000E+00 0. -1.
         25    2    1    2    0    0  0.16123007396E+01  0.23928131124E+02 -0.19705598958E+02  0.12888364571E+03  0.12509008166E+03 0.  0.
         23    2    1    2    0    0 -0.16123007396E+01 -0.23928131124E+02 -0.21036224126E+03  0.23067391285E+03  0.91558869311E+02 0.  0.
          5    1    3    3  502    0  0.41821050855E+02  0.23553298081E+02  0.35936724527E+02  0.60105563094E+02  0.41800000000E+01 0. -1.
         -5    1    3    3    0  502 -0.40208750116E+02  0.37483304370E+00 -0.55642323485E+02  0.68778082617E+02  0.41800000000E+01 0. -1.
        -11    1    4    4    0    0 -0.23410237930E+02 -0.29594344927E+02 -0.20373047461E+03  0.20719548928E+03  0.00000000000E+00 0. -1.
         11    1    4    4    0    0  0.21797937190E+02  0.56662138022E+01 -0.66317666473E+01  0.23478423573E+02  0.00000000000E+00 0.  1.
</event>
<event>
 8    1  0.6840032E-009  0.8230986E+02  0.7561462E-02  0.1322621E+00
         -1   -1    0    0    0  501 -0.00000000000E+00  0.00000000000E+00  0.19612126396E+02  0.19612126396E+02  0.00000000000E+00 0.  1.
          1   -1    0    0  501    0  0.00000000000E+00 -0.00000000000E+00 -0.69366175812E+03  0.69366175812E+03  0.00000000000E+00 0. -1.
         25    2    1    2    0    0 -0.21185219192E+02 -0.18487110109E+02 -0.28629366886E+03  0.31369207061E+03  0.12509222031E+03 0.  0.
         23    2    1    2    0    0  0.21185219192E+02  0.18487110109E+02 -0.38775596286E+03  0.39958181390E+03  0.92305755594E+02 0.  0.
          5    1    3    3  502    0 -0.41779481974E+02 -0.14793290181E+00 -0.28243045212E+03  0.28553455077E+03  0.41800000000E+01 0.  1.
         -5    1    3    3    0  502  0.20594262782E+02 -0.18339177207E+02 -0.38632167443E+01  0.28157519844E+02  0.41800000000E+01 0.  1.
        -11    1    4    4    0    0  0.43036957815E+02 -0.22297722045E+02 -0.16031824149E+03  0.16748524324E+03  0.00000000000E+00 0.  1.
         11    1    4    4    0    0 -0.21851738623E+02  0.40784832154E+02 -0.22743772137E+03  0.23209657067E+03  0.00000000000E+00 0. -1.
</event>
<event>
 8    1  0.6840032E-009  0.1267221E+03  0.7561462E-02  0.1232402E+00
         -2   -1    0    0    0  501 -0.00000000000E+00  0.00000000000E+00  0.27167697355E+02  0.27167697355E+02  0.00000000000E+00 0.  1.
          2   -1    0    0  501    0  0.00000000000E+00 -0.00000000000E+00 -0.70447194785E+03  0.70447194785E+03  0.00000000000E+00 0. -1.
         25    2    1    2    0    0  0.38518524877E+02 -0.69245432315E+02 -0.45529839324E+03  0.47877113646E+03  0.12508624050E+03 0.  0.
         23    2    1    2    0    0 -0.38518524877E+02  0.69245432315E+02 -0.22200585726E+03  0.25286850875E+03  0.91527457114E+02 0.  0.
          5    1    3    3  502    0  0.14209557282E+02  0.29811154617E+02 -0.45056608545E+02  0.56019521877E+02  0.41800000000E+01 0. -1.
         -5    1    3    3    0  502  0.24308967595E+02 -0.99056586932E+02 -0.41024178470E+03  0.42275161458E+03  0.41800000000E+01 0. -1.
        -11    1    4    4    0    0 -0.77280327558E+01  0.83702993254E+02 -0.18117093173E+03  0.19972185677E+03  0.00000000000E+00 0. -1.
         11    1    4    4    0    0 -0.30790492121E+02 -0.14457560938E+02 -0.40834925529E+02  0.53146651976E+02  0.00000000000E+00 0.  1.
</event>
<event>
 8    1  0.6840032E-009  0.1697144E+03  0.7561462E-02  0.1178146E+00
         -1   -1    0    0    0  501 -0.00000000000E+00  0.00000000000E+00  0.64267868576E+03  0.64267868576E+03  0.00000000000E+00 0.  1.
          1   -1    0    0  501    0  0.00000000000E+00 -0.00000000000E+00 -0.64006220455E+02  0.64006220455E+02  0.00000000000E+00 0. -1.
         25    2    1    2    0    0  0.14226062849E+03  0.44785977714E+02  0.43582891263E+03  0.47732453754E+03  0.12509197752E+03 0.  0.
         23    2    1    2    0    0 -0.14226062849E+03 -0.44785977714E+02  0.14284355268E+03  0.22936036867E+03  0.99789919123E+02 0.  0.
          5    1    3    3  502    0  0.68092110087E+02 -0.25036984247E+02  0.29278093884E+03  0.30166460944E+03  0.41800000000E+01 0. -1.
         -5    1    3    3    0  502  0.74168518401E+02  0.69822961960E+02  0.14304797378E+03  0.17565992811E+03  0.41800000000E+01 0. -1.
        -11    1    4    4    0    0 -0.70755422734E+02 -0.58734458618E+02  0.12351481388E+03  0.15398693361E+03  0.00000000000E+00 0.  1.
         11    1    4    4    0    0 -0.71505205755E+02  0.13948480904E+02  0.19328738799E+02  0.75373435062E+02  0.00000000000E+00 0. -1.
</event>
<event>
 8    1  0.6840032E-009  0.9833298E+02  0.7561462E-02  0.1283841E+00
          2   -1    0    0  501    0  0.00000000000E+00  0.00000000000E+00  0.78093367051E+02  0.78093367051E+02  0.00000000000E+00 0. -1.
         -2   -1    0    0    0  501 -0.00000000000E+00 -0.00000000000E+00 -0.16825866992E+03  0.16825866992E+03  0.00000000000E+00 0.  1.
         25    2    1    2    0    0 -0.87521971540E+01 -0.20554383674E+02 -0.83686003825E+02  0.15214862390E+03  0.12508706118E+03 0.  0.
         23    2    1    2    0    0  0.87521971540E+01  0.20554383674E+02 -0.64792990456E+01  0.94203413075E+02  0.91286461622E+02 0.  0.
          5    1    3    3  502    0  0.49550214753E+02 -0.12852760674E+01 -0.18831315254E+01  0.49778452175E+02  0.41800000000E+01 0. -1.
         -5    1    3    3    0  502 -0.58302411907E+02 -0.19269107607E+02 -0.81802872300E+02  0.10237017172E+03  0.41800000000E+01 0. -1.
        -11    1    4    4    0    0  0.23600742622E+02  0.48384365944E+02 -0.23063630572E+02  0.58565971138E+02  0.00000000000E+00 0.  1.
         11    1    4    4    0    0 -0.14848545468E+02 -0.27829982270E+02  0.16584331526E+02  0.35637441937E+02  0.00000000000E+00 0. -1.
</event>
<event>
 8    1  0.6840032E-009  0.1218825E+03  0.7561462E-02  0.1240023E+00
          1   -1    0    0  501    0  0.00000000000E+00  0.00000000000E+00  0.42963457080E+03  0.42963457080E+03  0.00000000000E+00 0. -1.
         -1   -1    0    0    0  501 -0.00000000000E+00 -0.00000000000E+00 -0.48227036395E+02  0.48227036395E+02  0.00000000000E+00 0.  1.
         25    2    1    2    0    0 -0.53932955294E+02  0.18931173192E+02  0.82874906736E+02  0.16056216364E+03  0.12507919587E+03 0.  0.
         23    2    1    2    0    0  0.53932955294E+02 -0.18931173192E+02  0.29853262767E+03  0.31729944356E+03  0.91049734289E+02 0.  0.
          5    1    3    3  502    0 -0.72774751908E+02  0.57940066892E+02  0.64752465936E+02  0.11341767989E+03  0.41800000000E+01 0. -1.
         -5    1    3    3    0  502  0.18841796614E+02 -0.39008893700E+02  0.18122440801E+02  0.47144483749E+02  0.41800000000E+01 0. -1.
        -11    1    4    4    0    0  0.18600157155E+02 -0.54139849498E+02  0.14619309698E+03  0.15700162660E+03  0.00000000000E+00 0.  1.
         11    1    4    4    0    0  0.35332798139E+02  0.35208676306E+02  0.15233953069E+03  0.16029781696E+03  0.00000000000E+00 0. -1.
</event>
<event>
 8    1  0.6840032E-009  0.1066064E+03  0.7561462E-02  0.1266987E+00
         -2   -1    0    0    0  501 -0.00000000000E+00  0.00000000000E+00  0.26876587832E+03  0.26876587832E+03  0.00000000000E+00 0.  1.
          2   -1    0    0  501    0  0.00000000000E+00 -0.00000000000E+00 -0.63956380640E+02  0.63956380640E+02  0.00000000000E+00 0. -1.
         25    2    1    2    0    0 -0.24751501988E+02  0.50433005567E+02  0.15701630316E+03  0.20846720843E+03  0.12509329571E+03 0.  0.
         23    2    1    2    0    0  0.24751501988E+02 -0.50433005567E+02  0.47793194517E+02  0.12425505053E+03  0.99995016064E+02 0.  0.
          5    1    3    3  502    0  0.30470547191E+02  0.71344385471E+02  0.82952139157E+02  0.11365300425E+03  0.41800000000E+01 0.  1.
         -5    1    3    3    0  502 -0.55222049179E+02 -0.20911379904E+02  0.74064164003E+02  0.94814204181E+02  0.41800000000E+01 0.  1.
        -11    1    4    4    0    0 -0.15026640414E+02 -0.47697603844E+01  0.60377630863E+02  0.62401993918E+02  0.00000000000E+00 0.  1.
         11    1    4    4    0    0  0.39778142402E+02 -0.45663245182E+02 -0.12584436346E+02  0.61853056607E+02  0.00000000000E+00 0. -1.
</event>
<event>
 8    1  0.6840032E-009  0.1450987E+03  0.7561462E-02  0.1206628E+00
          2   -1    0    0  501    0  0.00000000000E+00  0.00000000000E+00  0.31446567060E+03  0.31446567060E+03  0.00000000000E+00 0.  1.
         -2   -1    0    0    0  501 -0.00000000000E+00 -0.00000000000E+00 -0.71903274288E+02  0.71903274288E+02  0.00000000000E+00 0. -1.
         25    2    1    2    0    0 -0.97627058333E+02  0.27179924892E+02  0.10342960915E+03  0.19134009327E+03  0.12507420361E+03 0.  0.
         23    2    1    2    0    0  0.97627058333E+02 -0.27179924892E+02  0.13913278716E+03  0.19502885162E+03  0.91698035223E+02 0.  0.
          5    1    3    3  502    0 -0.12068815966E+03 -0.35647111909E+01  0.89081318083E+02  0.15010427269E+03  0.41800000000E+01 0. -1.
         -5    1    3    3    0  502  0.23061101331E+02  0.30744636083E+02  0.14348291072E+02  0.41235820583E+02  0.41800000000E+01 0. -1.
        -11    1    4    4    0    0  0.23383128300E+02  0.29266265164E+02  0.16431535548E+02  0.40905749305E+02  0.00000000000E+00 0. -1.
         11    1    4    4    0    0  0.74243930033E+02 -0.56446190056E+02  0.12270125161E+03  0.15412310231E+03  0.00000000000E+00 0.  1.
</event>
<event>
 8    1  0.6840032E-009  0.1037879E+03  0.7561462E-02  0.1272526E+00
          1   -1    0    0  501    0  0.00000000000E+00  0.00000000000E+00  0.18850955388E+03  0.18850955388E+03  0.00000000000E+00 0. -1.
         -1   -1    0    0    0  501 -0.00000000000E+00 -0.00000000000E+00 -0.11597451141E+03  0.11597451141E+03  0.00000000000E+00 0.  1.
         25    2    1    2    0    0  0.68150506150E+01  0.70449429597E+02 -0.37019419398E+02  0.14842303612E+03  0.12509753472E+03 0.  0.
         23    2    1    2    0    0 -0.68150506150E+01 -0.70449429597E+02  0.10955446187E+03  0.15606102917E+03  0.85693043268E+02 0.  0.
          5    1    3    3  502    0  0.19114584812E+02 -0.18028070519E+02 -0.51371854880E+02  0.57852558742E+02  0.41800000000E+01 0. -1.
         -5    1    3    3    0  502 -0.12299534197E+02  0.88477500116E+02  0.14352435481E+02  0.90570477378E+02  0.41800000000E+01 0. -1.
        -11    1    4    4    0    0  0.23151822510E+02 -0.12513938998E+02 -0.24675702505E+01  0.26432829166E+02  0.00000000000E+00 0.  1.
         11    1    4    4    0    0 -0.29966873125E+02 -0.57935490599E+02  0.11202203212E+03  0.12962820000E+03  0.00000000000E+00 0. -1.
</event>
<event>
 8    1  0.6840032E-009  0.1838593E+03  0.7561462E-02  0.1164119E+00
          2   -1    0    0  501    0  0.00000000000E+00  0.00000000000E+00  0.10576825896E+04  0.10576825896E+04  0.00000000000E+00 0.  1.
         -2   -1    0    0    0  501 -0.00000000000E+00 -0.00000000000E+00 -0.86235453073E+02  0.86235453073E+02  0.00000000000E+00 0. -1.
         25    2    1    2    0    0  0.10039401207E+03  0.13842158045E+03  0.91829264961E+03  0.94241633576E+03  0.12509063902E+03 0.  0.
         23    2    1    2    0    0 -0.10039401207E+03 -0.13842158045E+03  0.53154486882E+02  0.20150170689E+03  0.92401551979E+02 0.  0.
          5    1    3    3  502    0  0.11458730974E+03  0.10010286759E+03  0.84315504012E+03  0.85678394577E+03  0.41800000000E+01 0.  1.
         -5    1    3    3    0  502 -0.14193297666E+02  0.38318712862E+02  0.75137609494E+02  0.85632389985E+02  0.41800000000E+01 0.  1.
        -11    1    4    4    0    0 -0.96555829135E+02 -0.11261799110E+03  0.76130933119E+02  0.16673859492E+03  0.00000000000E+00 0. -1.
         11    1    4    4    0    0 -0.38381829358E+01 -0.25803589356E+02 -0.22976446237E+02  0.34763111966E+02  0.00000000000E+00 0.  1.
</event>
<event>
 8    1  0.6840032E-009  0.6522964E+02  0.7561462E-02  0.1377110E+00
          2   -1    0    0  501    0  0.00000000000E+00  0.00000000000E+00  0.11789670577E+03  0.11789670577E+03  0.00000000000E+00 0. -1.
         -2   -1    0    0    0  501 -0.00000000000E+00 -0.00000000000E+00 -0.11105313133E+03  0.11105313133E+03  0.00000000000E+00 0.  1.
         25    2    1    2    0    0 -0.26550154445E+01  0.40091213193E+01 -0.72957266404E+01  0.12539256025E+03  0.12508774671E+03 0.  0.
         23    2    1    2    0    0  0.26550154445E+01 -0.40091213193E+01  0.14139301077E+02  0.10355727685E+03  0.10247471685E+03 0.  0.
          5    1    3    3  502    0  0.16991770519E+02 -0.26687823133E+02  0.48834652060E+02  0.58337430615E+02  0.41800000000E+01 0. -1.
         -5    1    3    3    0  502 -0.19646785964E+02  0.30696944452E+02 -0.56130378700E+02  0.67055129636E+02  0.41800000000E+01 0. -1.
        -11    1    4    4    0    0 -0.32194526176E+01  0.28573189254E+02 -0.34379477118E+02  0.44818974400E+02  0.00000000000E+00 0.  1.
         11    1    4    4    0    0  0.58744680621E+01 -0.32582310573E+02  0.48518778196E+02  0.58738302452E+02  0.00000000000E+00 0. -1.
</event>
<event>
 8    1  0.6840032E-009  0.6958027E+02  0.7561462E-02  0.1361526E+00
          1   -1    0    0  501    0  0.00000000000E+00  0.00000000000E+00  0.14728566731E+03  0.14728566731E+03  0.00000000000E+00 0. -1.
         -1   -1    0    0    0  501 -0.00000000000E+00 -0.00000000000E+00 -0.97218968084E+02  0.97218968084E+02  0.00000000000E+00 0.  1.
         25    2    1    2    0    0  0.24160836619E+02  0.21604143217E+02 -0.11460455063E+02  0.12972826801E+03  0.12509035318E+03 0.  0.
         23    2    1    2    0    0 -0.24160836619E+02 -0.21604143217E+02  0.61527154291E+02  0.11477636739E+03  0.91310124115E+02 0.  0.
          5    1    3    3  502    0 -0.23991699846E+02  0.40678030216E+01  0.46254723938E+02  0.52432056697E+02  0.41800000000E+01 0.  1.
         -5    1    3    3    0  502  0.48152536465E+02  0.17536340195E+02 -0.57715179001E+02  0.77296211308E+02  0.41800000000E+01 0.  1.
        -11    1    4    4    0    0 -0.19636780179E+02 -0.39758748658E+02 -0.59611915784E+01  0.44742564027E+02  0.00000000000E+00 0.  1.
         11    1    4    4    0    0 -0.45240564401E+01  0.18154605441E+02  0.67488345869E+02  0.70033803363E+02  0.00000000000E+00 0. -1.
</event>
<event>
 7    1  0.6840032E-009  0.1863624E+03  0.7561462E-02  0.1161784E+00
         -2   -1    0    0    0  501 -0.00000000000E+00  0.00000000000E+00  0.31437531124E+02  0.31437531124E+02  0.00000000000E+00 0.  1.
          2   -1    0    0  501    0  0.00000000000E+00 -0.00000000000E+00 -0.12322902964E+04  0.12322902964E+04  0.00000000000E+00 0. -1.
         25    2    1    2    0    0  0.12204074432E+03  0.66517689029E+02 -0.44359163651E+03  0.48139346877E+03  0.12509030964E+03 0.  0.
          5    1    3    3  502    0  0.40326415807E+02 -0.37009324442E+02 -0.12193137957E+03  0.13371852389E+03  0.41800000000E+01 0.  1.
         -5    1    3    3    0  502  0.81714328516E+02  0.10352701347E+03 -0.32166025693E+03  0.34767494487E+03  0.41800000000E+01 0.  1.
        -11    1    1    2    0    0 -0.11461728032E+03  0.42712244463E+01 -0.58158039242E+03  0.59278252095E+03  0.00000000000E+00 0.  1.
         11    1    1    2    0    0 -0.74234640083E+01 -0.70788913475E+02 -0.17568073636E+03  0.18955183781E+03  0.00000000000E+00 0. -1.
</event>
<event>
 8    1  0.6840032E-009  0.1242481E+03  0.7561462E-02  0.1236249E+00
          2   -1    0    0  501    0  0.00000000000E+00  0.00000000000E+00  0.67521389939E+03  0.67521389939E+03  0.00000000000E+00 0. -1.
         -2   -1    0    0    0  501 -0.00000000000E+00 -0.00000000000E+00 -0.58456861397E+02  0.58456861397E+02  0.00000000000E+00 0.  1.
         25    2    1    2    0    0  0.10493798796E+03 -0.59521780220E+02  0.53546734776E+03  0.56296254167E+03  0.12508684648E+03 0.  0.
         23    2    1    2    0    0 -0.10493798796E+03  0.59521780220E+02  0.81289690224E+02  0.17070821911E+03  0.89322218398E+02 0.  0.
          5    1    3    3  502    0  0.89511172887E+00  0.28627029226E+01  0.28078965350E+03  0.28083678215E+03  0.41800000000E+01 0.  1.
         -5    1    3    3    0  502  0.10404287623E+03 -0.62384483143E+02  0.25467769426E+03  0.28212575952E+03  0.41800000000E+01 0.  1.
        -11    1    4    4    0    0 -0.92531456664E+02  0.45082502970E+02  0.10036227416E+03  0.14376052526E+03  0.00000000000E+00 0. -1.
         11    1    4    4    0    0 -0.12406531292E+02  0.14439277250E+02 -0.19072583939E+02  0.26947693859E+02  0.00000000000E+00 0.  1.
</event>
<event>
 8    1  0.6840032E-009  0.1105116E+03  0.7561462E-02  0.1259625E+00
         -2   -1    0    0    0  501 -0.00000000000E+00  0.00000000000E+00  0.35147575315E+02  0.35147575315E+02  0.00000000000E+00 0.  1.
          2   -1    0    0  501    0  0.00000000000E+00 -0.00000000000E+00 -0.44444064238E+03  0.44444064238E+03  0.00000000000E+00 0. -1.
         25    2    1    2    0    0 -0.57519697285E+01 -0.58896666190E+02 -0.28202163262E+03  0.31414222117E+03  0.12508889405E+03 0.  0.
         23    2    1    2    0    0  0.57519697285E+01  0.58896666190E+02 -0.12727143445E+03  0.16544599653E+03  0.87592564157E+02 0.  0.
          5    1    3    3  502    0 -0.52964258413E+02 -0.67960246091E+02 -0.14322852688E+03  0.16719955452E+03  0.41800000000E+01 0. -1.
         -5    1    3    3    0  502  0.47212288684E+02  0.90635799009E+01 -0.13879310573E+03  0.14694266665E+03  0.41800000000E+01 0. -1.
        -11    1    4    4    0    0 -0.21816657763E+02  0.54347835305E+02 -0.33214403492E+02  0.67326446198E+02  0.00000000000E+00 0.  1.
         11    1    4    4    0    0  0.27568627491E+02  0.45488308850E+01 -0.94057030956E+02  0.98119550328E+02  0.00000000000E+00 0. -1.
</event>
<event>
 8    1  0.6840032E-009  0.1522055E+03  0.7561462E-02  0.1197789E+00
         -2   -1    0    0    0  501 -0.00000000000E+00  0.00000000000E+00  0.20046361629E+02  0.20046361629E+02  0.00000000000E+00 0.  1.
          2   -1    0    0  501    0  0.00000000000E+00 -0.00000000000E+00 -0.15653281805E+04  0.15653281805E+04  0.00000000000E+00 0. -1.
         25    2    1    2    0    0  0.11897870297E+03  0.59966117976E+01 -0.11495912271E+04  0.11624972449E+04  0.12509182189E+03 0.  0.
         23    2    1    2    0    0 -0.11897870297E+03 -0.59966117976E+01 -0.39569059176E+03  0.42287729720E+03  0.89790160730E+02 0.  0.
          5    1    3    3  502    0  0.13501275345E+03  0.19488131991E+02 -0.74870615499E+03  0.76104310640E+03  0.41800000000E+01 0.  1.
         -5    1    3    3    0  502 -0.16034050474E+02 -0.13491520193E+02 -0.40088507211E+03  0.40145413852E+03  0.41800000000E+01 0.  1.
        -11    1    4    4    0    0 -0.12558412880E+03  0.13190344376E+02 -0.30822372750E+03  0.33308741313E+03  0.00000000000E+00 0.  1.
         11    1    4    4    0    0  0.66054258269E+01 -0.19186956174E+02 -0.87466864256E+02  0.89789884064E+02  0.00000000000E+00 0. -1.
</event>
<event>
 8    1  0.6840032E-009  0.1205529E+03  0.7561462E-02  0.1242188E+00
          1   -1    0    0  501    0  0.00000000000E+00  0.00000000000E+00  0.12395406880E+03  0.12395406880E+03  0.00000000000E+00 0.  1.
         -1   -1    0    0    0  501 -0.00000000000E+00 -0.00000000000E+00 -0.26541336859E+03  0.26541336859E+03  0.00000000000E+00 0. -1.
         25    2    1    2    0    0  0.50930296097E+01 -0.93197182537E+02  0.44398157064E+02  0.16226641055E+03  0.12509011895E+03 0.  0.
         23    2    1    2    0    0 -0.50930296097E+01  0.93197182537E+02 -0.18585745686E+03  0.22710102684E+03  0.91215285646E+02 0.  0.
          5    1    3    3  502    0 -0.32924312662E+02 -0.16163302539E+02 -0.30757870485E+02  0.48049783663E+02  0.41800000000E+01 0.  1.
         -5    1    3    3    0  502  0.38017342272E+02 -0.77033879998E+02  0.75156027550E+02  0.11421662689E+03  0.41800000000E+01 0.  1.
        -11    1    4    4    0    0 -0.37003844876E+02  0.30975721064E+02 -0.12645067097E+03  0.13534604545E+03  0.00000000000E+00 0. -1.
         11    1    4    4    0    0  0.31910815266E+02  0.62221461474E+02 -0.59406785897E+02  0.91754981388E+02  0.00000000000E+00 0.  1.
</event>
<event>
 8    1  0.6840032E-009  0.1172619E+03  0.7561462E-02  0.1247684E+00
          4   -1    0    0  501    0  0.00000000000E+00  0.00000000000E+00  0.36311884663E+02  0.36311884663E+02  0.00000000000E+00 0. -1.
         -4   -1    0    0    0  501 -0.00000000000E+00 -0.00000000000E+00 -0.63396579597E+03  0.63396579597E+03  0.00000000000E+00 0.  1.
         25    2    1    2    0    0  0.46958611782E+02 -0.35675282858E+02 -0.45597230135E+03  0.47648519081E+03  0.12509820313E+03 0.  0.
         23    2    1    2    0    0 -0.46958611782E+02  0.35675282858E+02 -0.14168160995E+03  0.19379248983E+03  0.11833855453E+03 0.  0.
          5    1    3    3  502    0  0.85760105268E+02 -0.20528761080E+02 -0.37593034079E+03  0.38615711727E+03  0.41800000000E+01 0.  1.
         -5    1    3    3    0  502 -0.38801493486E+02 -0.15146521778E+02 -0.80041960563E+02  0.90328073540E+02  0.41800000000E+01 0.  1.
        -11    1    4    4    0    0 -0.48408757358E+02 -0.17283005119E+02 -0.10701172910E+02  0.52503572798E+02  0.00000000000E+00 0. -1.
         11    1    4    4    0    0  0.14501455761E+01  0.52958287976E+02 -0.13098043704E+03  0.14128891703E+03  0.00000000000E+00 0.  1.
</event>
<event>
 8    1  0.6840032E-009  0.9639303E+02  0.7561462E-02  0.1288069E+00
          2   -1    0    0  501    0  0.00000000000E+00  0.00000000000E+00  0.24411337966E+03  0.24411337966E+03  0.00000000000E+00 0. -1.
         -2   -1    0    0    0  501 -0.00000000000E+00 -0.00000000000E+00 -0.56940352791E+02  0.56940352791E+02  0.00000000000E+00 0.  1.
         25    2    1    2    0    0 -0.34832879579E+01 -0.19613485772E+02  0.15586583975E+03  0.20085598741E+03  0.12510853510E+03 0.  0.
         23    2    1    2    0    0  0.34832879579E+01  0.19613485772E+02  0.31307187118E+02  0.10019774505E+03  0.93073229388E+02 0.  0.
          5    1    3    3  502    0 -0.30086139344E+02  0.44663440968E+02  0.90007022205E+02  0.10497016331E+03  0.41800000000E+01 0. -1.
         -5    1    3    3    0  502  0.26602851386E+02 -0.64276926740E+02  0.65858817550E+02  0.95885824093E+02  0.41800000000E+01 0. -1.
        -11    1    4    4    0    0  0.57543607506E+01 -0.24370065081E+02 -0.20384174931E+02  0.32288191763E+02  0.00000000000E+00 0.  1.
         11    1    4    4    0    0 -0.22710727927E+01  0.43983550853E+02  0.51691362049E+02  0.67909553288E+02  0.00000000000E+00 0. -1.
</event>
<event>
 8    1  0.6840032E-009  0.7972153E+02  0.7561462E-02  0.1329844E+00
         -1   -1    0    0    0  501 -0.00000000000E+00  0.00000000000E+00  0.21579540872E+03  0.21579540872E+03  0.00000000000E+00 0. -1.
          1   -1    0    0  501    0  0.00000000000E+00 -0.00000000000E+00 -0.62518533494E+02  0.62518533494E+02  0.00000000000E+00 0.  1.
         25    2    1    2    0    0 -0.29324019218E+02 -0.23266773167E+02  0.11223113370E+03  0.17217629188E+03  0.12509039642E+03 0.  0.
         23    2    1    2    0    0  0.29324019218E+02  0.23266773167E+02  0.41045741529E+02  0.10613765034E+03  0.90438968844E+02 0.  0.
          5    1    3    3  502    0 -0.12102295910E+02  0.46211357904E+02  0.80645600209E+02  0.93825052085E+02  0.41800000000E+01 0. -1.
         -5    1    3    3    0  502 -0.17221723308E+02 -0.69478131071E+02  0.31585533490E+02  0.78351239790E+02  0.41800000000E+01 0. -1.
        -11    1    4    4    0    0  0.11047877148E+02  0.17367100300E+02 -0.27841213770E+02  0.34623762744E+02  0.00000000000E+00 0.  1.
         11    1    4    4    0    0  0.18276142070E+02  0.58996728663E+01  0.68886955300E+02  0.71513887598E+02  0.00000000000E+00 0. -1.
</event>
<event>
 8    1  0.6840032E-009  0.1745184E+03  0.7561462E-02  0.1173216E+00
          2   -1    0    0  501    0  0.00000000000E+00  0.00000000000E+00  0.56917474573E+03  0.56917474573E+03  0.00000000000E+00 0. -1.
         -2   -1    0    0    0  501 -0.00000000000E+00 -0.00000000000E+00 -0.61681314357E+02  0.61681314357E+02  0.00000000000E+00 0.  1.
         25    2    1    2    0    0 -0.10975321842E+03  0.89575232711E+02  0.16932216900E+03  0.25372679163E+03  0.12505117596E+03 0.  0.
         23    2    1    2    0    0  0.10975321842E+03 -0.89575232711E+02  0.33817126238E+03  0.37712926846E+03  0.88301705312E+02 0.  0.
          5    1    3    3  502    0 -0.55594280729E+02  0.11244847554E+03  0.13957057553E+03  0.18770402674E+03  0.41800000000E+01 0. -1.
         -5    1    3    3    0  502 -0.54158937694E+02 -0.22873242830E+02  0.29751593466E+02  0.66022764888E+02  0.41800000000E+01 0. -1.
        -11    1    4    4    0    0 -0.65214365447E+01 -0.35959890420E+02  0.51364788139E+02  0.63039545638E+02  0.00000000000E+00 0.  1.
         11    1    4    4    0    0  0.11627465497E+03 -0.53615342290E+02  0.28680647424E+03  0.31408972282E+03  0.00000000000E+00 0. -1.
</event>
<event>
 8    1  0.6840032E-009  0.1086550E+03  0.7561462E-02  0.1263081E+00
          2   -1    0    0  501    0  0.00000000000E+00  0.00000000000E+00  0.77552411730E+02  0.77552411730E+02  0.00000000000E+00 0. -1.
         -2   -1    0    0    0  501 -0.00000000000E+00 -0.00000000000E+00 -0.17281335506E+03  0.17281335506E+03  0.00000000000E+00 0.  1.
         25    2    1    2    0    0 -0.37977252650E+02 -0.12716409867E+02 -0.55217346942E+02  0.14249898437E+03  0.12511205516E+03 0.  0.
         23    2    1    2    0    0  0.37977252650E+02  0.12716409867E+02 -0.40043596388E+02  0.10786678242E+03  0.91802910294E+02 0.  0.
          5    1    3    3  502    0 -0.78173159483E+02 -0.31829582833E+02 -0.23593724233E+02  0.87739964840E+02  0.41800000000E+01 0.  1.
         -5    1    3    3    0  502  0.40195906833E+02  0.19113172966E+02 -0.31623622709E+02  0.54759019533E+02  0.41800000000E+01 0.  1.
        -11    1    4    4    0    0  0.62358558380E+02  0.51598028785E+01 -0.50375089287E+02  0.80329714239E+02  0.00000000000E+00 0.  1.
         11    1    4    4    0    0 -0.24381305730E+02  0.75566069885E+01  0.10331492899E+02  0.27537068177E+02  0.00000000000E+00 0. -1.
</event>
<event>
 7    1  0.6840032E-009  0.5811976E+02  0.7561462E-02  0.1405896E+00
         -4   -1    0    0    0  501 -0.00000000000E+00  0.00000000000E+00  0.15212773423E+03  0.15212773423E+03  0.00000000000E+00 0.  1.
          4   -1    0    0  501    0  0.00000000000E+00 -0.00000000000E+00 -0.10133855532E+03  0.10133855532E+03  0.00000000000E+00 0. -1.
         25    2    1    2    0    0 -0.40760392336E+02 -0.23063454253E+02 -0.40843483549E+02  0.13967680446E+03  0.12509231411E+03 0.  0.
          5    1    3    3  502    0 -0.20119130575E+02 -0.19896138178E+00  0.44409329236E+02  0.48933423382E+02  0.41800000000E+01 0.  1.
         -5    1    3    3    0  502 -0.20641261762E+02 -0.22864492871E+02 -0.85252812785E+02  0.90743381076E+02  0.41800000000E+01 0.  1.
        -11    1    1    2    0    0  0.17266435498E+02  0.34421008197E+02  0.70001292111E+02  0.79894408423E+02  0.00000000000E+00 0.  1.
         11    1    1    2    0    0  0.23493956838E+02 -0.11357553944E+02  0.21631370343E+02  0.33895076669E+02  0.00000000000E+00 0. -1.
</event>
<event>
 8    1  0.6840032E-009  0.6456912E+02  0.7561462E-02  0.1379600E+00
          2   -1    0    0  501    0  0.00000000000E+00  0.00000000000E+00  0.18366925686E+03  0.18366925686E+03  0.00000000000E+00 0. -1.
         -2   -1    0    0    0  501 -0.00000000000E+00 -0.00000000000E+00 -0.68483663250E+02  0.68483663250E+02  0.00000000000E+00 0.  1.
         25    2    1    2    0    0 -0.11669679493E+02 -0.29460724398E+01  0.94584211265E+02  0.15732029777E+03  0.12513449688E+03 0.  0.
         23    2    1    2    0    0  0.11669679493E+02  0.29460724398E+01  0.20601382344E+02  0.94832622335E+02  0.91782070918E+02 0.  0.
          5    1    3    3  502    0 -0.26045399857E+02  0.38288977895E+02 -0.66694252452E+01  0.46971931140E+02  0.41800000000E+01 0. -1.
         -5    1    3    3    0  502  0.14375720364E+02 -0.41235050335E+02  0.10125363651E+03  0.11034836663E+03  0.41800000000E+01 0. -1.
        -11    1    4    4    0    0 -0.13012233909E+02  0.51479812217E+01  0.52560927518E+02  0.54391828831E+02  0.00000000000E+00 0. -1.
         11    1    4    4    0    0  0.24681913402E+02 -0.22019087819E+01 -0.31959545174E+02  0.40440793504E+02  0.00000000000E+00 0.  1.
</event>
<event>
 8    1  0.6840032E-009  0.2086105E+03  0.7561462E-02  0.1142671E+00
          1   -1    0    0  501    0  0.00000000000E+00  0.00000000000E+00  0.36591283309E+03  0.36591283309E+03  0.00000000000E+00 0. -1.
         -1   -1    0    0    0  501 -0.00000000000E+00 -0.00000000000E+00 -0.13980519462E+03  0.13980519462E+03  0.00000000000E+00 0.  1.
         25    2    1    2    0    0 -0.15331365771E+03 -0.12548112976E+03  0.11773354531E+03  0.26222379600E+03  0.12509812121E+03 0.  0.
         23    2    1    2    0    0  0.15331365771E+03  0.12548112976E+03  0.10837409316E+03  0.24349423172E+03  0.91070880334E+02 0.  0.
          5    1    3    3  502    0 -0.13433932825E+02 -0.32085619406E+02 -0.23808311643E+02  0.42358772729E+02  0.41800000000E+01 0.  1.
         -5    1    3    3    0  502 -0.13987972489E+03 -0.93395510352E+02  0.14154185695E+03  0.21986502327E+03  0.41800000000E+01 0.  1.
        -11    1    4    4    0    0  0.39251377994E+02  0.83736616054E+02  0.70427835382E+02  0.11624358709E+03  0.00000000000E+00 0. -1.
         11    1    4    4    0    0  0.11406227972E+03  0.41744513704E+02  0.37946257777E+02  0.12725064463E+03  0.00000000000E+00 0.  1.
</event>
<event>
 8    1  0.6840032E-009  0.1241383E+03  0.7561462E-02  0.1236422E+00
         -1   -1    0    0    0  501 -0.00000000000E+00  0.00000000000E+00  0.56247092645E+02  0.56247092645E+02  0.00000000000E+00 0.  1.
          1   -1    0    0  501    0  0.00000000000E+00 -0.00000000000E+00 -0.32168439331E+03  0.32168439331E+03  0.00000000000E+00 0. -1.
         25    2    1    2    0    0 -0.35268350232E+02  0.68288341886E+02 -0.10167091837E+03  0.17858111549E+03  0.12508830882E+03 0.  0.
         23    2    1    2    0    0  0.35268350232E+02 -0.68288341886E+02 -0.16376638230E+03  0.19935037046E+03  0.83749555618E+02 0.  0.
          5    1    3    3  502    0 -0.14577978793E+02  0.99710566649E+02 -0.97869277877E+02  0.14053676572E+03  0.41800000000E+01 0. -1.
         -5    1    3    3    0  502 -0.20690371439E+02 -0.31422224762E+02 -0.38016404908E+01  0.38044349774E+02  0.41800000000E+01 0. -1.
        -11    1    4    4    0    0  0.28060906838E+02 -0.85989943403E+02 -0.11074870742E+03  0.14299287064E+03  0.00000000000E+00 0.  1.
         11    1    4    4    0    0  0.72074433939E+01  0.17701601517E+02 -0.53017674873E+02  0.56357499815E+02  0.00000000000E+00 0. -1.
</event>
<event>
 8    1  0.6840032E-009  0.8550801E+02  0.7561462E-02  0.1314109E+00
          1   -1    0    0  501    0  0.00000000000E+00  0.00000000000E+00  0.93438854404E+02  0.93438854404E+02  0.00000000000E+00 0. -1.
         -1   -1    0    0    0  501 -0.00000000000E+00 -0.00000000000E+00 -0.16163937999E+03  0.16163937999E+03  0.00000000000E+00 0.  1.
         25    2    1    2    0    0  0.48120914643E+02  0.48556247217E+01 -0.73906376443E+01  0.13431389535E+03  0.12508557647E+03 0.  0.
         23    2    1    2    0    0 -0.48120914643E+02 -0.48556247217E+01 -0.60809887940E+02  0.12076433904E+03  0.92449897758E+02 0.  0.
          5    1    3    3  502    0 -0.62388828490E+01 -0.35028291455E+02 -0.44589157131E+02  0.57197641517E+02  0.41800000000E+01 0.  1.
         -5    1    3    3    0  502  0.54359797492E+02  0.39883916177E+02  0.37198519487E+02  0.77116253832E+02  0.41800000000E+01 0.  1.
        -11    1    4    4    0    0 -0.52973331769E+02  0.82988873742E+01  0.46490633231E+01  0.53820620585E+02  0.00000000000E+00 0. -1.
         11    1    4    4    0    0  0.48524171256E+01 -0.13154512096E+02 -0.65458951263E+02  0.66943718458E+02  0.00000000000E+00 0.  1.
</event>
<event>
 8    1  0.6840032E-009  0.8033806E+02  0.7561462E-02  0.1328095E+00
         -2   -1    0    0    0  501 -0.00000000000E+00  0.00000000000E+00  0.27381708029E+03  0.27381708029E+03  0.00000000000E+00 0.  1.
          2   -1    0    0  501    0  0.00000000000E+00 -0.00000000000E+00 -0.47298273610E+02  0.47298273610E+02  0.00000000000E+00 0. -1.
         25    2    1    2    0    0 -0.34509403567E+02  0.21156775586E+01  0.14225352725E+03  0.19256007634E+03  0.12509173417E+03 0.  0.
         23    2    1    2    0    0  0.34509403567E+02 -0.21156775586E+01  0.84265279423E+02  0.12855527756E+03  0.90721811303E+02 0.  0.
          5    1    3    3  502    0  0.92293861781E+01  0.36064827035E+02  0.13054475218E+03  0.13581332055E+03  0.41800000000E+01 0. -1.
         -5    1    3    3    0  502 -0.43738789745E+02 -0.33949149477E+02  0.11708775077E+02  0.56746755787E+02  0.41800000000E+01 0. -1.
        -11    1    4    4    0    0  0.39815257234E+02  0.20273884029E+02  0.37730536807E+01  0.44838833797E+02  0.00000000000E+00 0. -1.
         11    1    4    4    0    0 -0.53058536667E+01 -0.22389561588E+02  0.80492225742E+02  0.83716443762E+02  0.00000000000E+00 0.  1.
</event>
<event>
 8    1  0.6840032E-009  0.1018201E+03  0.7561462E-02  0.1276514E+00
          2   -1    0    0  501    0  0.00000000000E+00  0.00000000000E+00  0.72333234939E+03  0.72333234939E+03  0.00000000000E+00 0. -1.
         -2   -1    0    0    0  501 -0.00000000000E+00 -0.00000000000E+00 -0.29170862110E+02  0.29170862110E+02  0.00000000000E+00 0.  1.
         25    2    1    2    0    0 -0.26202774097E+02 -0.54314227893E+02  0.57112062774E+03  0.58776054438E+03  0.12508823038E+03 0.  0.
         23    2    1    2    0    0  0.26202774097E+02  0.54314227893E+02  0.12304085954E+03  0.16474266712E+03  0.91457490294E+02 0.  0.
          5    1    3    3  502    0  0.73737734169E+01 -0.67392781846E+02  0.52354576229E+03  0.52793351588E+03  0.41800000000E+01 0.  1.
         -5    1    3    3    0  502 -0.33576547514E+02  0.13078553953E+02  0.47574865451E+02  0.59827028500E+02  0.41800000000E+01 0.  1.
        -11    1    4    4    0    0 -0.21237510746E+02  0.46821363631E+02  0.28702462704E+02  0.58882113755E+02  0.00000000000E+00 0.  1.
         11    1    4    4    0    0  0.47440284844E+02  0.74928642618E+01  0.94338396835E+02  0.10586055336E+03  0.00000000000E+00 0. -1.
</event>
<event>
 8    1  0.6840032E-009  0.1044173E+03  0.7561462E-02  0.1271272E+00
         -2   -1    0    0    0  501 -0.00000000000E+00  0.00000000000E+00  0.30832181460E+03  0.30832181460E+03  0.00000000000E+00 0.  1.
          2   -1    0    0  501    0  0.00000000000E+00 -0.00000000000E+00 -0.39600587910E+02  0.39600587910E+02  0.00000000000E+00 0. -1.
         25    2    1    2    0    0 -0.47381363597E+01  0.13138896612E+02  0.12715406479E+03  0.17891638787E+03  0.12509131510E+03 0.  0.
         23    2    1    2    0    0  0.47381363597E+01 -0.13138896612E+02  0.14156716190E+03  0.16900601464E+03  0.91250704748E+02 0.  0.
          5    1    3    3  502    0  0.47303182046E+02  0.38124706491E+02  0.35421833108E+02  0.70450428937E+02  0.41800000000E+01 0. -1.
         -5    1    3    3    0  502 -0.52041318406E+02 -0.24985809879E+02  0.91732231685E+02  0.10846595893E+03  0.41800000000E+01 0. -1.
        -11    1    4    4    0    0 -0.10439674078E+02  0.36596904233E+02  0.78710000112E+02  0.87427594682E+02  0.00000000000E+00 0.  1.
         11    1    4    4    0    0  0.15177810438E+02 -0.49735800845E+02  0.62857161783E+02  0.81578419957E+02  0.00000000000E+00 0. -1.
</event>
<event>
 8    1  0.6840032E-009  0.1466247E+03  0.7561462E-02  0.1204683E+00
         -2   -1    0    0    0  501 -0.00000000000E+00  0.00000000000E+00  0.17627639013E+02  0.17627639013E+02  0.00000000000E+00 0. -1.
          2   -1    0    0  501    0  0.00000000000E+00 -0.00000000000E+00 -0.21789372829E+04  0.21789372829E+04  0.00000000000E+00 0.  1.
         25    2    1    2    0    0 -0.74689339027E+02  0.12540479016E+03 -0.15622858209E+04  0.15740675764E+04  0.12508753024E+03 0.  0.
         23    2    1    2    0    0  0.74689339027E+02 -0.12540479016E+03 -0.59902382305E+03  0.62249734555E+03  0.85840234561E+02 0.  0.
          5    1    3    3  502    0 -0.53177152165E+02  0.98220873753E+02 -0.55322486749E+03  0.56440267182E+03  0.41800000000E+01 0. -1.
         -5    1    3    3    0  502 -0.21512186862E+02  0.27183916410E+02 -0.10090609534E+04  0.10096649046E+04  0.41800000000E+01 0. -1.
        -11    1    4    4    0    0  0.44670605368E+02 -0.87183660005E+02 -0.52420253814E+03  0.53327737112E+03  0.00000000000E+00 0.  1.
         11    1    4    4    0    0  0.30018733659E+02 -0.38221130158E+02 -0.74821284914E+02  0.89219974430E+02  0.00000000000E+00 0. -1.
</event>
<event>
 8    1  0.6840032E-009  0.1044316E+03  0.7561462E-02  0.1271244E+00
          2   -1    0    0  501    0  0.00000000000E+00  0.00000000000E+00  0.10209761658E+04  0.10209761658E+04  0.00000000000E+00 0. -1.
         -2   -1    0    0    0  501 -0.00000000000E+00 -0.00000000000E+00 -0.12709131633E+02  0.12709131633E+02  0.00000000000E+00 0.  1.
         25    2    1    2    0    0 -0.29254962363E+02 -0.82723203499E+01  0.59363355438E+03  0.60743107210E+03  0.12508967330E+03 0.  0.
         23    2    1    2    0    0  0.29254962363E+02  0.82723203499E+01  0.41463347979E+03  0.42625422533E+03  0.94060926758E+02 0.  0.
          5    1    3    3  502    0  0.50731030041E+01 -0.57787187674E+02  0.17373722946E+03  0.18321351679E+03  0.41800000000E+01 0.  1.
         -5    1    3    3    0  502 -0.34328065367E+02  0.49514867324E+02  0.41989632491E+03  0.42421755531E+03  0.41800000000E+01 0.  1.
        -11    1    4    4    0    0 -0.24083480820E+02  0.24699066390E+02  0.81842435535E+02  0.88815776657E+02  0.00000000000E+00 0.  1.
         11    1    4    4    0    0  0.53338443183E+02 -0.16426746040E+02  0.33279104425E+03  0.33743844867E+03  0.00000000000E+00 0. -1.
</event>
<event>
 8    1  0.6840032E-009  0.9482232E+02  0.7561462E-02  0.1291577E+00
         -1   -1    0    0    0  501 -0.00000000000E+00  0.00000000000E+00  0.40388781155E+03  0.40388781155E+03  0.00000000000E+00 0.  1.
          1   -1    0    0  501    0  0.00000000000E+00 -0.00000000000E+00 -0.35157234150E+02  0.35157234150E+02  0.00000000000E+00 0. -1.
         25    2    1    2    0    0 -0.28515801118E+02  0.38556550037E+02  0.22500976536E+03  0.26187191280E+03  0.12509094990E+03 0.  0.
         23    2    1    2    0    0  0.28515801118E+02 -0.38556550037E+02  0.14372081205E+03  0.17717313290E+03  0.91841650363E+02 0.  0.
          5    1    3    3  502    0 -0.58175875834E+02 -0.18748538926E+02  0.65155876217E+02  0.89435456316E+02  0.41800000000E+01 0. -1.
         -5    1    3    3    0  502  0.29660074716E+02  0.57305088963E+02  0.15985388914E+03  0.17243645649E+03  0.41800000000E+01 0. -1.
        -11    1    4    4    0    0 -0.73911723037E+01 -0.23758490969E+02  0.13512469017E+03  0.13739642358E+03  0.00000000000E+00 0.  1.
         11    1    4    4    0    0  0.35906973422E+02 -0.14798059068E+02  0.85961218810E+01  0.39776709314E+02  0.00000000000E+00 0. -1.
</event>
<event>
 8    1  0.6840032E-009  0.1679106E+03  0.7561462E-02  0.1180044E+00
         -1   -1    0    0    0  501 -0.00000000000E+00  0.00000000000E+00  0.35173658014E+03  0.35173658014E+03  0.00000000000E+00 0.  1.
          1   -1    0    0  501    0  0.00000000000E+00 -0.00000000000E+00 -0.10896813912E+03  0.10896813912E+03  0.00000000000E+00 0. -1.
         25    2    1    2    0    0 -0.15737211639E+03  0.25820555571E+02  0.16517952920E+03  0.26148009426E+03  0.12511945779E+03 0.  0.
         23    2    1    2    0    0  0.15737211639E+03 -0.25820555571E+02  0.77588911814E+02  0.19922462500E+03  0.90761929598E+02 0.  0.
          5    1    3    3  502    0 -0.13010524775E+03 -0.35439283182E+01  0.17677026958E+03  0.21955667953E+03  0.41800000000E+01 0.  1.
         -5    1    3    3    0  502 -0.27266868644E+02  0.29364483889E+02 -0.11590740379E+02  0.41923414726E+02  0.41800000000E+01 0.  1.
        -11    1    4    4    0    0  0.83822221497E+02 -0.35686389354E+02  0.85062335882E+02  0.12464062013E+03  0.00000000000E+00 0.  1.
         11    1    4    4    0    0  0.73549894893E+02  0.98658337832E+01 -0.74734240680E+01  0.74584004869E+02  0.00000000000E+00 0. -1.
</event>
<event>
 8    1  0.6840032E-009  0.9607787E+02  0.7561462E-02  0.1288767E+00
         -3   -1    0    0    0  501 -0.00000000000E+00  0.00000000000E+00  0.11688452630E+03  0.11688452630E+03  0.00000000000E+00 0.  1.
          3   -1    0    0  501    0  0.00000000000E+00 -0.00000000000E+00 -0.98468620161E+02  0.98468620161E+02  0.00000000000E+00 0. -1.
         25    2    1    2    0    0 -0.54634303117E+01 -0.14489283660E+02 -0.37919786153E+01  0.12610330392E+03  0.12509146952E+03 0.  0.
         23    2    1    2    0    0  0.54634303117E+01  0.14489283660E+02  0.22207884750E+02  0.89249842537E+02  0.85044434480E+02 0.  0.
          5    1    3    3  502    0 -0.54930661915E+02 -0.14413832903E+02 -0.35588215216E+02  0.67150053311E+02  0.41800000000E+01 0.  1.
         -5    1    3    3    0  502  0.49467231604E+02 -0.75450757248E-01  0.31796236601E+02  0.58953250609E+02  0.41800000000E+01 0.  1.
        -11    1    4    4    0    0  0.44876822377E+02  0.63603188480E+01  0.18070616243E+02  0.48794774453E+02  0.00000000000E+00 0. -1.
         11    1    4    4    0    0 -0.39413392065E+02  0.81289648120E+01  0.41372685062E+01  0.40455068084E+02  0.00000000000E+00 0.  1.
</event>
<event>
 8    1  0.6840032E-009  0.1195995E+03  0.7561462E-02  0.1243759E+00
         -2   -1    0    0    0  501 -0.00000000000E+00  0.00000000000E+00  0.90197222630E+02  0.90197222630E+02  0.00000000000E+00 0.  1.
          2   -1    0    0  501    0  0.00000000000E+00 -0.00000000000E+00 -0.20556443667E+03  0.20556443667E+03  0.00000000000E+00 0. -1.
         25    2    1    2    0    0  0.78121374196E+02 -0.23608486422E+02 -0.57940465607E+02  0.16020202499E+03  0.12508909432E+03 0.  0.
         23    2    1    2    0    0 -0.78121374196E+02  0.23608486422E+02 -0.57426748429E+02  0.13555963431E+03  0.91751148668E+02 0.  0.
          5    1    3    3  502    0  0.31514409571E+00  0.45159090652E+02 -0.20022769815E+02  0.49576471187E+02  0.41800000000E+01 0.  1.
         -5    1    3    3    0  502  0.77806230100E+02 -0.68767577075E+02 -0.37917695792E+02  0.11062555380E+03  0.41800000000E+01 0.  1.
        -11    1    4    4    0    0 -0.42846403902E+02  0.32221705276E+02 -0.77372747629E+02  0.94130731931E+02  0.00000000000E+00 0. -1.
         11    1    4    4    0    0 -0.35274970294E+02 -0.86132188531E+01  0.19945999200E+02  0.41428902380E+02  0.00000000000E+00 0.  1.
</event>
<event>
 8    1  0.6840032E-009  0.8492802E+02  0.7561462E-02  0.1315621E+00
         -1   -1    0    0    0  501 -0.00000000000E+00  0.00000000000E+00  0.25198576884E+03  0.25198576884E+03  0.00000000000E+00 0.  1.
          1   -1    0    0  501    0  0.00000000000E+00 -0.00000000000E+00 -0.67520449945E+02  0.67520449945E+02  0.00000000000E+00 0. -1.
         25    2    1    2    0    0 -0.31286972804E+01  0.29901276795E+02  0.20725313326E+02  0.13030732277E+03  0.12508630882E+03 0.  0.
         23    2    1    2    0    0  0.31286972804E+01 -0.29901276795E+02  0.16374000557E+03  0.18919889601E+03  0.89897484547E+02 0.  0.
          5    1    3    3  502    0  0.11915938098E+02  0.54624037995E+02 -0.35902858432E+02  0.66575241278E+02  0.41800000000E+01 0. -1.
         -5    1    3    3    0  502 -0.15044635378E+02 -0.24722761200E+02  0.56628171758E+02  0.63732081495E+02  0.41800000000E+01 0. -1.
        -11    1    4    4    0    0  0.23865405782E+02 -0.50167718867E+02  0.14338688617E+03  0.15377306895E+03  0.00000000000E+00 0. -1.
         11    1    4    4    0    0 -0.20736708502E+02  0.20266442071E+02  0.20353119404E+02  0.35425827064E+02  0.00000000000E+00 0.  1.
</event>
<event>
 8    1  0.6840032E-009  0.1692304E+03  0.7561462E-02  0.1178653E+00
          2   -1    0    0  501    0  0.00000000000E+00  0.00000000000E+00  0.54438137301E+03  0.54438137301E+03  0.00000000000E+00 0. -1.
         -2   -1    0    0    0  501 -0.00000000000E+00 -0.00000000000E+00 -0.11024404620E+03  0.11024404620E+03  0.00000000000E+00 0.  1.
         25    2    1    2    0    0  0.80636834520E+02  0.12272256005E+03  0.54631365871E+01  0.19297288951E+03  0.12508223054E+03 0.  0.
         23    2    1    2    0    0 -0.80636834520E+02 -0.12272256005E+03  0.42867419023E+03  0.46165252970E+03  0.88308385680E+02 0.  0.
          5    1    3    3  502    0  0.54498562787E+02 -0.92861320976E+01 -0.13355065870E+02  0.57027675558E+02  0.41800000000E+01 0. -1.
         -5    1    3    3    0  502  0.26138271733E+02  0.13200869215E+03  0.18818202457E+02  0.13594521395E+03  0.41800000000E+01 0. -1.
        -11    1    4    4    0    0 -0.42500881050E+02 -0.45533713629E+02  0.30287056657E+03  0.30920902973E+03  0.00000000000E+00 0. -1.
         11    1    4    4    0    0 -0.38135953470E+02 -0.77188846424E+02  0.12580362365E+03  0.15244349997E+03  0.00000000000E+00 0.  1.
</event>
<event>
 8    1  0.6840032E-009  0.1247759E+03  0.7561462E-02  0.1235420E+00
         -4   -1    0    0    0  501 -0.00000000000E+00  0.00000000000E+00  0.36158925284E+03  0.36158925284E+03  0.00000000000E+00 0.  1.
          4   -1    0    0  501    0  0.00000000000E+00 -0.00000000000E+00 -0.78385140748E+02  0.78385140748E+02  0.00000000000E+00 0. -1.
         25    2    1    2    0    0 -0.76308107620E+01 -0.11887367519E+03  0.87031978462E+02  0.19342050773E+03  0.12509095735E+03 0.  0.
         23    2    1    2    0    0  0.76308107620E+01  0.11887367519E+03  0.19617213363E+03  0.24655388586E+03  0.90089581483E+02 0.  0.
          5    1    3    3  502    0 -0.92011342582E+01 -0.94153536482E+02 -0.80882915604E+01  0.95039161213E+02  0.41800000000E+01 0. -1.
         -5    1    3    3    0  502  0.15703234961E+01 -0.24720138708E+02  0.95120270022E+02  0.98381346518E+02  0.41800000000E+01 0. -1.
        -11    1    4    4    0    0  0.29302424870E+02  0.55498836444E+02  0.15672285112E+03  0.16882181439E+03  0.00000000000E+00 0.  1.
         11    1    4    4    0    0 -0.21671614108E+02  0.63374838746E+02  0.39449282509E+02  0.77732071467E+02  0.00000000000E+00 0. -1.
</event>
<event>
 8    1  0.6840032E-009  0.1035231E+03  0.7561462E-02  0.1273057E+00
          1   -1    0    0  501    0  0.00000000000E+00  0.00000000000E+00  0.17912110911E+03  0.17912110911E+03  0.00000000000E+00 0. -1.
         -1   -1    0    0    0  501 -0.00000000000E+00 -0.00000000000E+00 -0.78240834635E+02  0.78240834635E+02  0.00000000000E+00 0.  1.
         25    2    1    2    0    0 -0.46849271932E+02  0.30096587092E+02  0.18297336656E+02  0.13814237120E+03  0.12509142000E+03 0.  0.
         23    2    1    2    0    0  0.46849271932E+02 -0.30096587092E+02  0.82582937819E+02  0.11921957255E+03  0.65518745592E+02 0.  0.
          5    1    3    3  502    0  0.34534366688E+02 -0.14920014952E+02  0.24085646651E+02  0.44864463702E+02  0.41800000000E+01 0. -1.
         -5    1    3    3    0  502 -0.81383638620E+02  0.45016602044E+02 -0.57883099949E+01  0.93277907498E+02  0.41800000000E+01 0. -1.
        -11    1    4    4    0    0  0.33035031534E+02 -0.44968807795E+02  0.31101935599E+02  0.63881432208E+02  0.00000000000E+00 0.  1.
         11    1    4    4    0    0  0.13814240398E+02  0.14872220703E+02  0.51481002220E+02  0.55338140338E+02  0.00000000000E+00 0. -1.
</event>
<event>
 8    1  0.6840032E-009  0.1050673E+03  0.7561462E-02  0.1269987E+00
         -1   -1    0    0    0  501 -0.00000000000E+00  0.00000000000E+00  0.30573460012E+02  0.30573460012E+02  0.00000000000E+00 0.  1.
          1   -1    0    0  501    0  0.00000000000E+00 -0.00000000000E+00 -0.64500248864E+03  0.64500248864E+03  0.00000000000E+00 0. -1.
         25    2    1    2    0    0  0.66640164929E+02  0.47769106516E+02 -0.42164498196E+03  0.44738625139E+03  0.12508864058E+03 0.  0.
         23    2    1    2    0    0 -0.66640164929E+02 -0.47769106516E+02 -0.19278404666E+03  0.22818969726E+03  0.90454685717E+02 0.  0.
          5    1    3    3  502    0  0.48560435918E+02  0.51706686087E+02 -0.87567958347E+02  0.11277108252E+03  0.41800000000E+01 0.  1.
         -5    1    3    3    0  502  0.18079729011E+02 -0.39375795715E+01 -0.33407702362E+03  0.33461516888E+03  0.41800000000E+01 0.  1.
        -11    1    4    4    0    0 -0.87920190214E+02 -0.44622757567E+02 -0.14040513921E+03  0.17156559520E+03  0.00000000000E+00 0.  1.
         11    1    4    4    0    0  0.21280025285E+02 -0.31463489491E+01 -0.52378907455E+02  0.56624102059E+02  0.00000000000E+00 0. -1.
</event>
<event>
 8    1  0.6840032E-009  0.1297507E+03  0.7561462E-02  0.1227826E+00
         -2   -1    0    0    0  501 -0.00000000000E+00  0.00000000000E+00  0.56584095721E+02  0.56584095721E+02  0.00000000000E+00 0.  1.
          2   -1    0    0  501    0  0.00000000000E+00 -0.00000000000E+00 -0.45789065537E+03  0.45789065537E+03  0.00000000000E+00 0. -1.
         25    2    1    2    0    0 -0.11249310627E+03  0.21431516071E+02 -0.16763670317E+03  0.23845995552E+03  0.12508827803E+03 0.  0.
         23    2    1    2    0    0  0.11249310627E+03 -0.21431516071E+02 -0.23366985648E+03  0.27601479557E+03  0.92024761369E+02 0.  0.
          5    1    3    3  502    0 -0.10693437794E+03  0.63049312599E+01 -0.47634390183E+02  0.11730823019E+03  0.41800000000E+01 0.  1.
         -5    1    3    3    0  502 -0.55587283323E+01  0.15126584811E+02 -0.12000231299E+03  0.12115172533E+03  0.41800000000E+01 0.  1.
        -11    1    4    4    0    0 -0.99596337401E+01 -0.73774084925E+01 -0.65843638370E+00  0.12411849128E+02  0.00000000000E+00 0.  1.
         11    1    4    4    0    0  0.12245274001E+03 -0.14054107578E+02 -0.23301142010E+03  0.26360294644E+03  0.00000000000E+00 0. -1.
</event>
<event>
 8    1  0.6840032E-009  0.9113605E+02  0.7561462E-02  0.1300124E+00
          2   -1    0    0  501    0  0.00000000000E+00  0.00000000000E+00  0.54978340717E+02  0.54978340717E+02  0.00000000000E+00 0.  1.
         -2   -1    0    0    0  501 -0.00000000000E+00 -0.00000000000E+00 -0.18167883783E+03  0.18167883783E+03  0.00000000000E+00 0. -1.
         25    2    1    2    0    0  0.12182698407E+02  0.35245725331E+02 -0.82739818420E+02  0.15454514281E+03  0.12509054449E+03 0.  0.
         23    2    1    2    0    0 -0.12182698407E+02 -0.35245725331E+02 -0.43960678688E+02  0.82112035732E+02  0.58473633774E+02 0.  0.
          5    1    3    3  502    0  0.32757006549E+02 -0.40091072839E+02 -0.27273474009E+02  0.58665410456E+02  0.41800000000E+01 0.  1.
         -5    1    3    3    0  502 -0.20574308142E+02  0.75336798171E+02 -0.55466344411E+02  0.95879732355E+02  0.41800000000E+01 0.  1.
        -11    1    4    4    0    0 -0.17594010325E+02 -0.11821423805E+01  0.83051062209E+01  0.19491573802E+02  0.00000000000E+00 0.  1.
         11    1    4    4    0    0  0.54113119181E+01 -0.34063582951E+02 -0.52265784909E+02  0.62620461930E+02  0.00000000000E+00 0. -1.
</event>
<event>
 8    1  0.6840032E-009  0.1258592E+03  0.7561462E-02  0.1233733E+00
          1   -1    0    0  501    0  0.00000000000E+00  0.00000000000E+00  0.29811914274E+03  0.29811914274E+03  0.00000000000E+00 0. -1.
         -1   -1    0    0    0  501 -0.00000000000E+00 -0.00000000000E+00 -0.68657129155E+02  0.68657129155E+02  0.00000000000E+00 0.  1.
         25    2    1    2    0    0 -0.81942310042E+02 -0.35662230201E+02  0.91132516775E+02  0.17871712785E+03  0.12509332251E+03 0.  0.
         23    2    1    2    0    0  0.81942310042E+02  0.35662230201E+02  0.13832949681E+03  0.18805914404E+03  0.90801184642E+02 0.  0.
          5    1    3    3  502    0 -0.64535856103E+01 -0.70078911793E+02  0.37696516698E+02  0.79944996194E+02  0.41800000000E+01 0.  1.
         -5    1    3    3    0  502 -0.75488724432E+02  0.34416681592E+02  0.53436000078E+02  0.98772131659E+02  0.41800000000E+01 0.  1.
        -11    1    4    4    0    0  0.11884111214E+02  0.24469722003E+02  0.10717513801E+03  0.11057354838E+03  0.00000000000E+00 0. -1.
         11    1    4    4    0    0  0.70058198828E+02  0.11192508198E+02  0.31154358799E+02  0.77485595662E+02  0.00000000000E+00 0.  1.
</event>
<event>
 8    1  0.6840032E-009  0.1151613E+03  0.7561462E-02  0.1251300E+00
          1   -1    0    0  501    0  0.00000000000E+00  0.00000000000E+00  0.40855544506E+02  0.40855544506E+02  0.00000000000E+00 0. -1.
         -1   -1    0    0    0  501 -0.00000000000E+00 -0.00000000000E+00 -0.61473243276E+03  0.61473243276E+03  0.00000000000E+00 0.  1.
         25    2    1    2    0    0  0.10739810170E+03 -0.24781780440E+01 -0.37918541027E+03  0.41348200970E+03  0.12508118710E+03 0.  0.
         23    2    1    2    0    0 -0.10739810170E+03  0.24781780440E+01 -0.19469147799E+03  0.24210596757E+03  0.95760296136E+02 0.  0.
          5    1    3    3  502    0  0.99092721380E+02  0.73114159478E+01 -0.38582526108E+03  0.39843622917E+03  0.41800000000E+01 0.  1.
         -5    1    3    3    0  502  0.83053803234E+01 -0.97895939918E+01  0.66398508074E+01  0.15045780524E+02  0.41800000000E+01 0.  1.
        -11    1    4    4    0    0 -0.54579191283E+02 -0.22387127626E+02 -0.16773006006E+03  0.17780170037E+03  0.00000000000E+00 0. -1.
         11    1    4    4    0    0 -0.52818910421E+02  0.24865305670E+02 -0.26961417925E+02  0.64304267204E+02  0.00000000000E+00 0.  1.
</event>
<event>
 8    1  0.6840032E-009  0.2102147E+03  0.7561462E-02  0.1141396E+00
          2   -1    0    0  501    0  0.00000000000E+00  0.00000000000E+00  0.16676089780E+04  0.16676089780E+04  0.00000000000E+00 0. -1.
         -2   -1    0    0    0  501 -0.00000000000E+00 -0.00000000000E+00 -0.30868198617E+02  0.30868198617E+02  0.00000000000E+00 0.  1.
         25    2    1    2    0    0  0.28910060797E+02  0.19614816093E+03  0.84245707238E+03  0.87446653612E+03  0.12509161179E+03 0.  0.
         23    2    1    2    0    0 -0.28910060797E+02 -0.19614816093E+03  0.79428370700E+03  0.82401064049E+03  0.93792514537E+02 0.  0.
          5    1    3    3  502    0 -0.27681099591E+01  0.18490074360E+03  0.55479855703E+03  0.58482036447E+03  0.41800000000E+01 0. -1.
         -5    1    3    3    0  502  0.31678170756E+02  0.11247417334E+02  0.28765851534E+03  0.28964617165E+03  0.41800000000E+01 0. -1.
        -11    1    4    4    0    0  0.80522162074E+01 -0.58903070770E+02  0.10916676803E+03  0.12430524194E+03  0.00000000000E+00 0.  1.
         11    1    4    4    0    0 -0.36962277004E+02 -0.13724509016E+03  0.68511693897E+03  0.69970539855E+03  0.00000000000E+00 0. -1.
</event>
<event>
 8    1  0.6840032E-009  0.1290736E+03  0.7561462E-02  0.1228837E+00
         -2   -1    0    0    0  501 -0.00000000000E+00  0.00000000000E+00  0.41657007071E+02  0.41657007071E+02  0.00000000000E+00 0.  1.
          2   -1    0    0  501    0  0.00000000000E+00 -0.00000000000E+00 -0.47398555351E+03  0.47398555351E+03  0.00000000000E+00 0. -1.
         25    2    1    2    0    0  0.38824911995E+02 -0.61647772406E+02 -0.33225738582E+03  0.36242321457E+03  0.12509114433E+03 0.  0.
         23    2    1    2    0    0 -0.38824911995E+02  0.61647772406E+02 -0.10007116062E+03  0.15321934601E+03  0.90300106155E+02 0.  0.
          5    1    3    3  502    0  0.75594411788E+02 -0.43018404925E+01 -0.15728502511E+03  0.17461120368E+03  0.41800000000E+01 0. -1.
         -5    1    3    3    0  502 -0.36769499793E+02 -0.57345931913E+02 -0.17497236071E+03  0.18781201089E+03  0.41800000000E+01 0. -1.
        -11    1    4    4    0    0  0.28551776695E+02  0.19916719831E+02 -0.18241266941E+02  0.39301698448E+02  0.00000000000E+00 0.  1.
         11    1    4    4    0    0 -0.67376688690E+02  0.41731052575E+02 -0.81829893675E+02  0.11391764757E+03  0.00000000000E+00 0. -1.
</event>
<event>
 8    1  0.6840032E-009  0.1471165E+03  0.7561462E-02  0.1204062E+00
          4   -1    0    0  501    0  0.00000000000E+00  0.00000000000E+00  0.38970671398E+03  0.38970671398E+03  0.00000000000E+00 0. -1.
         -4   -1    0    0    0  501 -0.00000000000E+00 -0.00000000000E+00 -0.60535889788E+02  0.60535889788E+02  0.00000000000E+00 0.  1.
         25    2    1    2    0    0 -0.40225666572E+01 -0.10815380973E+03  0.17346217346E+03  0.23968774232E+03  0.12509060955E+03 0.  0.
         23    2    1    2    0    0  0.40225666572E+01  0.10815380973E+03  0.15570865073E+03  0.21055486145E+03  0.91513595517E+02 0.  0.
          5    1    3    3  502    0 -0.32123195760E+02  0.16285414236E+02  0.25771044348E+02  0.44482957967E+02  0.41800000000E+01 0.  1.
         -5    1    3    3    0  502  0.28100629103E+02 -0.12443922396E+03  0.14769112911E+03  0.19520478435E+03  0.41800000000E+01 0.  1.
        -11    1    4    4    0    0 -0.31330754157E+02  0.77311359643E+02  0.56324467129E+02  0.10065340572E+03  0.00000000000E+00 0.  1.
         11    1    4    4    0    0  0.35353320814E+02  0.30842450085E+02  0.99384183605E+02  0.10990145573E+03  0.00000000000E+00 0. -1.
</event>
<event>
 8    1  0.6840032E-009  0.1098403E+03  0.7561462E-02  0.1260866E+00
          2   -1    0    0  501    0  0.00000000000E+00  0.00000000000E+00  0.11816536935E+03  0.11816536935E+03  0.00000000000E+00 0. -1.
         -2   -1    0    0    0  501 -0.00000000000E+00 -0.00000000000E+00 -0.17707736317E+03  0.17707736317E+03  0.00000000000E+00 0.  1.
         25    2    1    2    0    0  0.58216753199E+02 -0.74643343371E+02 -0.47520737091E+02  0.16390757800E+03  0.12508658845E+03 0.  0.
         23    2    1    2    0    0 -0.58216753199E+02  0.74643343371E+02 -0.11391256730E+02  0.13133515452E+03  0.90323546325E+02 0.  0.
          5    1    3    3  502    0  0.16476364246E+02 -0.36616281682E+02 -0.86303798164E+02  0.95278752304E+02  0.41800000000E+01 0.  1.
         -5    1    3    3    0  502  0.41740388953E+02 -0.38027061689E+02  0.38783061073E+02  0.68628825699E+02  0.41800000000E+01 0.  1.
        -11    1    4    4    0    0 -0.61846779700E+01  0.70197801172E+02 -0.29030119277E+02  0.76215020542E+02  0.00000000000E+00 0.  1.
         11    1    4    4    0    0 -0.52032075229E+02  0.44455421999E+01  0.17638862547E+02  0.55120133981E+02  0.00000000000E+00 0. -1.
</event>
<event>
 8    1  0.6840032E-009  0.1061132E+03  0.7561462E-02  0.1267942E+00
          1   -1    0    0  501    0  0.00000000000E+00  0.00000000000E+00  0.63827906464E+02  0.63827906464E+02  0.00000000000E+00 0. -1.
         -1   -1    0    0    0  501 -0.00000000000E+00 -0.00000000000E+00 -0.27688577153E+03  0.27688577153E+03  0.00000000000E+00 0.  1.
         25    2    1    2    0    0 -0.86085725487E+01  0.75558927307E+02 -0.12515323769E+03  0.19262173976E+03  0.12512610721E+03 0.  0.
         23    2    1    2    0    0  0.86085725487E+01 -0.75558927307E+02 -0.87904627369E+02  0.14809193823E+03  0.91764588157E+02 0.  0.
          5    1    3    3  502    0  0.34299901917E+02  0.77739683357E+02 -0.33722120133E+02  0.91512815639E+02  0.41800000000E+01 0.  1.
         -5    1    3    3    0  502 -0.42908474466E+02 -0.21807560499E+01 -0.91431117561E+02  0.10110892412E+03  0.41800000000E+01 0.  1.
        -11    1    4    4    0    0  0.16607041382E+02 -0.13465517851E+02  0.16054449185E+02  0.26736853463E+02  0.00000000000E+00 0. -1.
         11    1    4    4    0    0 -0.79984688334E+01 -0.62093409456E+02 -0.10395907655E+03  0.12135508477E+03  0.00000000000E+00 0.  1.
</event>
<event>
 8    1  0.6840032E-009  0.9018075E+02  0.7561462E-02  0.1302415E+00
          3   -1    0    0  501    0  0.00000000000E+00  0.00000000000E+00  0.54251826199E+02  0.54251826199E+02  0.00000000000E+00 0. -1.
         -3   -1    0    0    0  501 -0.00000000000E+00 -0.00000000000E+00 -0.22172535441E+03  0.22172535441E+03  0.00000000000E+00 0.  1.
         25    2    1    2    0    0  0.22072412464E+02 -0.10034101363E+02 -0.89872073747E+02  0.15592349661E+03  0.12508905856E+03 0.  0.
         23    2    1    2    0    0 -0.22072412464E+02  0.10034101363E+02 -0.77601454462E+02  0.12005368400E+03  0.88334742460E+02 0.  0.
          5    1    3    3  502    0 -0.51975931243E+02  0.88961201864E+00 -0.42164849668E+02  0.67064415197E+02  0.41800000000E+01 0. -1.
         -5    1    3    3    0  502  0.74048343707E+02 -0.10923713381E+02 -0.47707224078E+02  0.88859081410E+02  0.41800000000E+01 0. -1.
        -11    1    4    4    0    0  0.15107451360E+02  0.26657819103E+01 -0.80586195391E+02  0.82033385687E+02  0.00000000000E+00 0.  1.
         11    1    4    4    0    0 -0.37179863823E+02  0.73683194523E+01  0.29847409284E+01  0.38020298314E+02  0.00000000000E+00 0. -1.
</event>
<event>
 8    1  0.6840032E-009  0.1066304E+03  0.7561462E-02  0.1266940E+00
          1   -1    0    0  501    0  0.00000000000E+00  0.00000000000E+00  0.13154205357E+04  0.13154205357E+04  0.00000000000E+00 0. -1.
         -1   -1    0    0    0  501 -0.00000000000E+00 -0.00000000000E+00 -0.10728724126E+02  0.10728724126E+02  0.00000000000E+00 0.  1.
         25    2    1    2    0    0  0.52171404092E+01 -0.10751769434E+02  0.10023584562E+04  0.10102043563E+04  0.12509015804E+03 0.  0.
         23    2    1    2    0    0 -0.52171404092E+01  0.10751769434E+02  0.30233335539E+03  0.31594490356E+03  0.90955512220E+02 0.  0.
          5    1    3    3  502    0  0.56215075674E+02 -0.34547585910E+02  0.65025538012E+03  0.65360783517E+03  0.41800000000E+01 0.  1.
         -5    1    3    3    0  502 -0.50997935265E+02  0.23795816477E+02  0.35210307607E+03  0.35659652110E+03  0.41800000000E+01 0.  1.
        -11    1    4    4    0    0 -0.46794568592E+02  0.14445972938E+02  0.18639737380E+03  0.19272363307E+03  0.00000000000E+00 0. -1.
         11    1    4    4    0    0  0.41577428182E+02 -0.36942035040E+01  0.11593598159E+03  0.12322127049E+03  0.00000000000E+00 0.  1.
</event>
<event>
 8    1  0.6840032E-009  0.8936085E+02  0.7561462E-02  0.1304407E+00
          2   -1    0    0  501    0  0.00000000000E+00  0.00000000000E+00  0.92160302496E+02  0.92160302496E+02  0.00000000000E+00 0. -1.
         -2   -1    0    0    0  501 -0.00000000000E+00 -0.00000000000E+00 -0.16672117944E+03  0.16672117944E+03  0.00000000000E+00 0.  1.
         25    2    1    2    0    0 -0.44898707794E+02 -0.18671165286E+02 -0.61993507905E+02  0.14783740547E+03  0.12509275383E+03 0.  0.
         23    2    1    2    0    0  0.44898707794E+02  0.18671165286E+02 -0.12567369036E+02  0.11104407646E+03  0.99037072743E+02 0.  0.
          5    1    3    3  502    0 -0.62975778983E+02  0.35677881875E+02 -0.15960968061E+02  0.74236681601E+02  0.41800000000E+01 0.  1.
         -5    1    3    3    0  502  0.18077071189E+02 -0.54349047161E+02 -0.46032539844E+02  0.73600723873E+02  0.41800000000E+01 0.  1.
        -11    1    4    4    0    0  0.32004965447E+02  0.11305982648E+02 -0.55810812816E+02  0.65322200546E+02  0.00000000000E+00 0.  1.
         11    1    4    4    0    0  0.12893742346E+02  0.73651826383E+01  0.43243443781E+02  0.45721875913E+02  0.00000000000E+00 0. -1.
</event>
<event>
 8    1  0.6840032E-009  0.1180241E+03  0.7561462E-02  0.1246393E+00
          4   -1    0    0  501    0  0.00000000000E+00  0.00000000000E+00  0.11854930366E+03  0.11854930366E+03  0.00000000000E+00 0. -1.
         -4   -1    0    0    0  501 -0.00000000000E+00 -0.00000000000E+00 -0.32426315130E+03  0.32426315130E+03  0.00000000000E+00 0.  1.
         25    2    1    2    0    0 -0.56314776593E+02 -0.74774526576E+02 -0.25888434470E+03  0.30236696732E+03  0.12506836173E+03 0.  0.
         23    2    1    2    0    0  0.56314776593E+02  0.74774526576E+02  0.53170497057E+02  0.14044548764E+03  0.90195617161E+02 0.  0.
          5    1    3    3  502    0  0.82643262828E+01 -0.32550400380E+02 -0.17657397517E+01  0.33888314958E+02  0.41800000000E+01 0. -1.
         -5    1    3    3    0  502 -0.64579102876E+02 -0.42224126196E+02 -0.25711860495E+03  0.26847865236E+03  0.41800000000E+01 0. -1.
        -11    1    4    4    0    0  0.84308286676E+01 -0.18364860734E+02  0.24708305293E+02  0.31919388030E+02  0.00000000000E+00 0. -1.
         11    1    4    4    0    0  0.47883947925E+02  0.93139387310E+02  0.28462191764E+02  0.10852609961E+03  0.00000000000E+00 0.  1.
</event>
<event>
 8    1  0.6840032E-009  0.1187153E+03  0.7561462E-02  0.1245232E+00
         -1   -1    0    0    0  501 -0.00000000000E+00  0.00000000000E+00  0.88214128338E+02  0.88214128338E+02  0.00000000000E+00 0.  1.
          1   -1    0    0  501    0  0.00000000000E+00 -0.00000000000E+00 -0.16254726398E+03  0.16254726398E+03  0.00000000000E+00 0. -1.
         25    2    1    2    0    0 -0.45572308488E+02 -0.11173563979E+02 -0.46650363844E+02  0.14151037040E+03  0.12508894696E+03 0.  0.
         23    2    1    2    0    0  0.45572308488E+02  0.11173563979E+02 -0.27682771796E+02  0.10925102191E+03  0.94698289858E+02 0.  0.
          5    1    3    3  502    0 -0.88721312029E+02 -0.66021876132E+01 -0.23314330605E+02  0.92065685796E+02  0.41800000000E+01 0. -1.
         -5    1    3    3    0  502  0.43149003541E+02 -0.45713763660E+01 -0.23336033239E+02  0.49444684606E+02  0.41800000000E+01 0. -1.
        -11    1    4    4    0    0  0.69328069807E+02  0.28923788936E+02 -0.26205773599E+02  0.79559470835E+02  0.00000000000E+00 0. -1.
         11    1    4    4    0    0 -0.23755761319E+02 -0.17750224957E+02 -0.14769981967E+01  0.29691551080E+02  0.00000000000E+00 0.  1.
</event>
<event>
 8    1  0.6840032E-009  0.1815986E+03  0.7561462E-02  0.1166265E+00
          2   -1    0    0  501    0  0.00000000000E+00  0.00000000000E+00  0.92829253168E+03  0.92829253168E+03  0.00000000000E+00 0.  1.
         -2   -1    0    0    0  501 -0.00000000000E+00 -0.00000000000E+00 -0.84454723728E+02  0.84454723728E+02  0.00000000000E+00 0. -1.
         25    2    1    2    0    0 -0.13498850757E+03  0.10062729546E+03  0.78674851938E+02  0.22402136873E+03  0.12509233210E+03 0.  0.
         23    2    1    2    0    0  0.13498850757E+03 -0.10062729546E+03  0.76516295602E+03  0.78872588668E+03  0.90919883950E+02 0.  0.
          5    1    3    3  502    0 -0.10345890597E+03  0.57978501542E+02 -0.11599321069E+02  0.11923618794E+03  0.41800000000E+01 0. -1.
         -5    1    3    3    0  502 -0.31529601597E+02  0.42648793919E+02  0.90274173007E+02  0.10478518078E+03  0.41800000000E+01 0. -1.
        -11    1    4    4    0    0  0.21359016622E+02 -0.70648338956E+02  0.30130010032E+03  0.31020822981E+03  0.00000000000E+00 0.  1.
         11    1    4    4    0    0  0.11362949095E+03 -0.29978956505E+02  0.46386285569E+03  0.47851765687E+03  0.00000000000E+00 0. -1.
</event>
<event>
 8    1  0.6840032E-009  0.1400708E+03  0.7561462E-02  0.1213234E+00
         -1   -1    0    0    0  501 -0.00000000000E+00  0.00000000000E+00  0.27030679163E+02  0.27030679163E+02  0.00000000000E+00 0.  1.
          1   -1    0    0  501    0  0.00000000000E+00 -0.00000000000E+00 -0.86722271147E+03  0.86722271147E+03  0.00000000000E+00 0. -1.
         25    2    1    2    0    0 -0.36443960684E+02  0.10257867317E+03 -0.47969829878E+03  0.50755133158E+03  0.12508936759E+03 0.  0.
         23    2    1    2    0    0  0.36443960684E+02 -0.10257867317E+03 -0.36049373353E+03  0.38670205905E+03  0.87932952285E+02 0.  0.
          5    1    3    3  502    0  0.44223205080E+02  0.18709747651E+02 -0.16943184640E+03  0.17615439109E+03  0.41800000000E+01 0.  1.
         -5    1    3    3    0  502 -0.80667165763E+02  0.83868925520E+02 -0.31026645237E+03  0.33139694049E+03  0.41800000000E+01 0.  1.
        -11    1    4    4    0    0  0.42956544793E+02 -0.68873325624E+02 -0.33291395846E+03  0.34266675278E+03  0.00000000000E+00 0. -1.
         11    1    4    4    0    0 -0.65125841090E+01 -0.33705347547E+02 -0.27579775065E+02  0.44035306263E+02  0.00000000000E+00 0.  1.
</event>
<event>
 8    1  0.6840032E-009  0.1176570E+03  0.7561462E-02  0.1247013E+00
          2   -1    0    0  501    0  0.00000000000E+00  0.00000000000E+00  0.10617710978E+04  0.10617710978E+04  0.00000000000E+00 0. -1.
         -2   -1    0    0    0  501 -0.00000000000E+00 -0.00000000000E+00 -0.13285562325E+02  0.13285562325E+02  0.00000000000E+00 0.  1.
         25    2    1    2    0    0  0.44648381345E+02  0.19782990637E+02  0.66274348470E+03  0.67621070174E+03  0.12508853646E+03 0.  0.
         23    2    1    2    0    0 -0.44648381345E+02 -0.19782990637E+02  0.38574205074E+03  0.39884595835E+03  0.88861263281E+02 0.  0.
          5    1    3    3  502    0 -0.16900957513E+01  0.67450698491E+02  0.32277095409E+03  0.32977418691E+03  0.41800000000E+01 0. -1.
         -5    1    3    3    0  502  0.46338477097E+02 -0.47667707854E+02  0.33997253061E+03  0.34643651482E+03  0.41800000000E+01 0. -1.
        -11    1    4    4    0    0 -0.71065506845E+02 -0.22508811497E+02  0.27052399913E+03  0.28060681917E+03  0.00000000000E+00 0. -1.
         11    1    4    4    0    0  0.26417125499E+02  0.27258208597E+01  0.11521805160E+03  0.11823913918E+03  0.00000000000E+00 0.  1.
</event>
<event>
 8    1  0.6840032E-009  0.1253583E+03  0.7561462E-02  0.1234510E+00
          2   -1    0    0  501    0  0.00000000000E+00  0.00000000000E+00  0.18057298743E+04  0.18057298743E+04  0.00000000000E+00 0. -1.
         -2   -1    0    0    0  501 -0.00000000000E+00 -0.00000000000E+00 -0.23265933706E+02  0.23265933706E+02  0.00000000000E+00 0.  1.
         25    2    1    2    0    0  0.55166487956E+02  0.54945183922E+02  0.16167728249E+04  0.16234688499E+04  0.12503769214E+03 0.  0.
         23    2    1    2    0    0 -0.55166487956E+02 -0.54945183922E+02  0.16569111565E+03  0.20552695811E+03  0.93410224693E+02 0.  0.
          5    1    3    3  502    0  0.90617697678E+02  0.59618849508E+02  0.10633780467E+04  0.10689042600E+04  0.41800000000E+01 0.  1.
         -5    1    3    3    0  502 -0.35451209721E+02 -0.46736655862E+01  0.55339477821E+03  0.55456458990E+03  0.41800000000E+01 0.  1.
        -11    1    4    4    0    0 -0.39743752830E+02  0.86928270429E+01  0.11716069643E+03  0.12402322330E+03  0.00000000000E+00 0. -1.
         11    1    4    4    0    0 -0.15422735126E+02 -0.63638010965E+02  0.48530419217E+02  0.81503734808E+02  0.00000000000E+00 0.  1.
</event>
<event>
 8    1  0.6840032E-009  0.1602379E+03  0.7561462E-02  0.1188428E+00
         -1   -1    0    0    0  501 -0.00000000000E+00  0.00000000000E+00  0.45909148862E+02  0.45909148862E+02  0.00000000000E+00 0.  1.
          1   -1    0    0  501    0  0.00000000000E+00 -0.00000000000E+00 -0.65495870461E+03  0.65495870461E+03  0.00000000000E+00 0. -1.
         25    2    1    2    0    0 -0.12895242246E+03 -0.33475170419E+02 -0.27910123037E+03  0.33361101477E+03  0.12509795399E+03 0.  0.
         23    2    1    2    0    0  0.12895242246E+03  0.33475170419E+02 -0.32994832538E+03  0.36725683870E+03  0.90897600939E+02 0.  0.
          5    1    3    3  502    0 -0.14457729729E+03 -0.14237110213E+02 -0.17988310038E+03  0.23125892934E+03  0.41800000000E+01 0. -1.
         -5    1    3    3    0  502  0.15624874828E+02 -0.19238060206E+02 -0.99218129991E+02  0.10235208543E+03  0.41800000000E+01 0. -1.
        -11    1    4    4    0    0  0.11897380372E+03  0.41691571622E+01 -0.30528525135E+03  0.32767549883E+03  0.00000000000E+00 0. -1.
         11    1    4    4    0    0  0.99786187357E+01  0.29306013257E+02 -0.24663074031E+02  0.39581339866E+02  0.00000000000E+00 0.  1.
</event>
<event>
 8    1  0.6840032E-009  0.1148963E+03  0.7561462E-02  0.1251762E+00
         -4   -1    0    0    0  501 -0.00000000000E+00  0.00000000000E+00  0.77833156230E+03  0.77833156230E+03  0.00000000000E+00 0.  1.
          4   -1    0    0  501    0  0.00000000000E+00 -0.00000000000E+00 -0.21404857387E+02  0.21404857387E+02  0.00000000000E+00 0. -1.
         25    2    1    2    0    0 -0.69662008985E+02  0.19845550075E+01  0.44365109770E+03  0.46617483876E+03  0.12504379173E+03 0.  0.
         23    2    1    2    0    0  0.69662008985E+02 -0.19845550075E+01  0.31327560721E+03  0.33356158093E+03  0.90911980732E+02 0.  0.
          5    1    3    3  502    0  0.86885810699E+01  0.30325872098E+02  0.28480036406E+02  0.42705208502E+02  0.41800000000E+01 0.  1.
         -5    1    3    3    0  502 -0.78350590055E+02 -0.28341317091E+02  0.41517106129E+03  0.42346963026E+03  0.41800000000E+01 0.  1.
        -11    1    4    4    0    0  0.52992318952E+02 -0.44297759776E+02  0.19008217752E+03  0.20224171577E+03  0.00000000000E+00 0. -1.
         11    1    4    4    0    0  0.16669690032E+02  0.42313204768E+02  0.12319342970E+03  0.13131986515E+03  0.00000000000E+00 0.  1.
</event>
<event>
 8    1  0.6840032E-009  0.1157578E+03  0.7561462E-02  0.1250264E+00
         -4   -1    0    0    0  501 -0.00000000000E+00  0.00000000000E+00  0.67676600406E+02  0.67676600406E+02  0.00000000000E+00 0.  1.
          4   -1    0    0  501    0  0.00000000000E+00 -0.00000000000E+00 -0.30512170472E+03  0.30512170472E+03  0.00000000000E+00 0. -1.
         25    2    1    2    0    0  0.64191786288E+02 -0.18491338912E+02 -0.21743948123E+03  0.25959883280E+03  0.12509640663E+03 0.  0.
         23    2    1    2    0    0 -0.64191786288E+02  0.18491338912E+02 -0.20005623081E+02  0.11319947233E+03  0.89170513839E+02 0.  0.
          5    1    3    3  502    0 -0.30286184010E+01  0.45415640371E+02 -0.99522830916E+02  0.10951720958E+03  0.41800000000E+01 0.  1.
         -5    1    3    3    0  502  0.67220404689E+02 -0.63906979282E+02 -0.11791665031E+03  0.15008162322E+03  0.41800000000E+01 0.  1.
        -11    1    4    4    0    0 -0.75509200753E+02  0.25443329960E+02 -0.40029918560E+02  0.89170605121E+02  0.00000000000E+00 0. -1.
         11    1    4    4    0    0  0.11317414465E+02 -0.69519910487E+01  0.20024295479E+02  0.24028867204E+02  0.00000000000E+00 0.  1.
</event>
<event>
 8    1  0.6840032E-009  0.1597419E+03  0.7561462E-02  0.1188988E+00
         -2   -1    0    0    0  501 -0.00000000000E+00  0.00000000000E+00  0.16647643556E+02  0.16647643556E+02  0.00000000000E+00 0.  1.
          2   -1    0    0  501    0  0.00000000000E+00 -0.00000000000E+00 -0.20158401458E+04  0.20158401458E+04  0.00000000000E+00 0. -1.
         25    2    1    2    0    0  0.13387671976E+02  0.14999355822E+03 -0.11039747121E+04  0.11211981882E+04  0.12509162642E+03 0.  0.
         23    2    1    2    0    0 -0.13387671976E+02 -0.14999355822E+03 -0.89521779012E+03  0.91128960113E+03  0.79727963188E+02 0.  0.
          5    1    3    3  502    0  0.13736340023E+02  0.13370307432E+03 -0.52399320278E+03  0.54097277943E+03  0.41800000000E+01 0.  1.
         -5    1    3    3    0  502 -0.34866804644E+00  0.16290483902E+02 -0.57998150930E+03  0.58022540876E+03  0.41800000000E+01 0.  1.
        -11    1    4    4    0    0 -0.44287981097E+02 -0.10075084755E+03 -0.65179493692E+03  0.66102102716E+03  0.00000000000E+00 0.  1.
         11    1    4    4    0    0  0.30900309121E+02 -0.49242710679E+02 -0.24342285320E+03  0.25026857397E+03  0.00000000000E+00 0. -1.
</event>
<event>
 8    1  0.6840032E-009  0.1457164E+03  0.7561462E-02  0.1205838E+00
          2   -1    0    0  501    0  0.00000000000E+00  0.00000000000E+00  0.60050230046E+03  0.60050230046E+03  0.00000000000E+00 0. -1.
         -2   -1    0    0    0  501 -0.00000000000E+00 -0.00000000000E+00 -0.51571251550E+02  0.51571251550E+02  0.00000000000E+00 0.  1.
         25    2    1    2    0    0 -0.99479554528E+02  0.64976935180E+02  0.42077324665E+03  0.45476995546E+03  0.12508958159E+03 0.  0.
         23    2    1    2    0    0  0.99479554528E+02 -0.64976935180E+02  0.12815780226E+03  0.19730359655E+03  0.91575668467E+02 0.  0.
          5    1    3    3  502    0 -0.82482186447E+00  0.48888474356E+02  0.47407636150E+02  0.68232833895E+02  0.41800000000E+01 0. -1.
         -5    1    3    3    0  502 -0.98654732663E+02  0.16088460824E+02  0.37336561050E+03  0.38653712157E+03  0.41800000000E+01 0. -1.
        -11    1    4    4    0    0  0.71896899893E+02 -0.82657409262E+02  0.68391879631E+02  0.12914666360E+03  0.00000000000E+00 0.  1.
         11    1    4    4    0    0  0.27582654635E+02  0.17680474081E+02  0.59765922633E+02  0.68156932946E+02  0.00000000000E+00 0. -1.
</event>
<event>
 8    1  0.6840032E-009  0.1474891E+03  0.7561462E-02  0.1203593E+00
          2   -1    0    0  501    0  0.00000000000E+00  0.00000000000E+00  0.40654930812E+02  0.40654930812E+02  0.00000000000E+00 0.  1.
         -2   -1    0    0    0  501 -0.00000000000E+00 -0.00000000000E+00 -0.94757623481E+03  0.94757623481E+03  0.00000000000E+00 0. -1.
         25    2    1    2    0    0  0.16395240923E+02  0.12280623685E+03 -0.20751508586E+03  0.27213771525E+03  0.12508496899E+03 0.  0.
         23    2    1    2    0    0 -0.16395240923E+02 -0.12280623685E+03 -0.69940621814E+03  0.71609345037E+03  0.90942816978E+02 0.  0.
          5    1    3    3  502    0  0.26047429536E+02  0.87855532188E+01  0.72673349008E+01  0.28739190791E+02  0.41800000000E+01 0. -1.
         -5    1    3    3    0  502 -0.96521886121E+01  0.11402068363E+03 -0.21478242076E+03  0.24339852446E+03  0.41800000000E+01 0. -1.
        -11    1    4    4    0    0 -0.50658733344E+02 -0.45431548416E+02 -0.27125191862E+03  0.27965681864E+03  0.00000000000E+00 0.  1.
         11    1    4    4    0    0  0.34263492420E+02 -0.77374688435E+02 -0.42815429951E+03  0.43643663173E+03  0.00000000000E+00 0. -1.
</event>
<event>
 8    1  0.6840032E-009  0.1852298E+03  0.7561462E-02  0.1162836E+00
         -2   -1    0    0    0  501 -0.00000000000E+00  0.00000000000E+00  0.28437394603E+03  0.28437394603E+03  0.00000000000E+00 0.  1.
          2   -1    0    0  501    0  0.00000000000E+00 -0.00000000000E+00 -0.15467572113E+03  0.15467572113E+03  0.00000000000E+00 0. -1.
         25    2    1    2    0    0 -0.87653319808E+02  0.14176013733E+03  0.13137822011E+03  0.24634230807E+03  0.12508099381E+03 0.  0.
         23    2    1    2    0    0  0.87653319808E+02 -0.14176013733E+03 -0.16799952143E+01  0.19270735909E+03  0.96717438211E+02 0.  0.
          5    1    3    3  502    0 -0.63858804658E+01  0.11878950514E+03  0.10221847185E+03  0.15690065133E+03  0.41800000000E+01 0. -1.
         -5    1    3    3    0  502 -0.81267439342E+02  0.22970632193E+02  0.29159748264E+02  0.89441656734E+02  0.41800000000E+01 0. -1.
        -11    1    4    4    0    0  0.58641445118E+02 -0.10191917123E+03  0.43961748742E+02  0.12553474380E+03  0.00000000000E+00 0.  1.
         11    1    4    4    0    0  0.29011874690E+02 -0.39840966104E+02 -0.45641743957E+02  0.67172615287E+02  0.00000000000E+00 0. -1.
</event>
<event>
 8    1  0.6840032E-009  0.9862662E+02  0.7561462E-02  0.1283211E+00
         -1   -1    0    0    0  501 -0.00000000000E+00  0.00000000000E+00  0.38247818570E+02  0.38247818570E+02  0.00000000000E+00 0.  1.
          1   -1    0    0  501    0  0.00000000000E+00 -0.00000000000E+00 -0.40722971194E+03  0.40722971194E+03  0.00000000000E+00 0. -1.
         25    2    1    2    0    0  0.37308690142E+02 -0.43324837686E+02 -0.25491151002E+03  0.28963824701E+03  0.12506580776E+03 0.  0.
         23    2    1    2    0    0 -0.37308690142E+02  0.43324837686E+02 -0.11407038335E+03  0.15583928350E+03  0.89469827327E+02 0.  0.
          5    1    3    3  502    0 -0.24175346023E+02 -0.63034958640E+02 -0.90740515568E+02  0.11317759024E+03  0.41800000000E+01 0.  1.
         -5    1    3    3    0  502  0.61484036165E+02  0.19710120954E+02 -0.16417099445E+03  0.17646065677E+03  0.41800000000E+01 0.  1.
        -11    1    4    4    0    0  0.44404058128E+01  0.11765728441E+02  0.13198176018E+02  0.18230233672E+02  0.00000000000E+00 0.  1.
         11    1    4    4    0    0 -0.41749095955E+02  0.31559109245E+02 -0.12726855937E+03  0.13760904982E+03  0.00000000000E+00 0. -1.
</event>
<event>
 8    1  0.6840032E-009  0.1104766E+03  0.7561462E-02  0.1259690E+00
          1   -1    0    0  501    0  0.00000000000E+00  0.00000000000E+00  0.44250252629E+03  0.44250252629E+03  0.00000000000E+00 0. -1.
         -1   -1    0    0    0  501 -0.00000000000E+00 -0.00000000000E+00 -0.43017001446E+02  0.43017001446E+02  0.00000000000E+00 0.  1.
         25    2    1    2    0    0 -0.13204985225E+02  0.38020426252E+02  0.88471327406E+02  0.15841233591E+03  0.12508943979E+03 0.  0.
         23    2    1    2    0    0  0.13204985225E+02 -0.38020426252E+02  0.31101419744E+03  0.32710719183E+03  0.93001932723E+02 0.  0.
          5    1    3    3  502    0 -0.27466937493E+02  0.80111810304E+02  0.70574025013E+02  0.11031999008E+03  0.41800000000E+01 0. -1.
         -5    1    3    3    0  502  0.14261952269E+02 -0.42091384052E+02  0.17897302393E+02  0.48092345825E+02  0.41800000000E+01 0. -1.
        -11    1    4    4    0    0 -0.10849874900E+02  0.23272945218E+02  0.35371279304E+02  0.43709005526E+02  0.00000000000E+00 0.  1.
         11    1    4    4    0    0  0.24054860125E+02 -0.61293371470E+02  0.27564291813E+03  0.28339818630E+03  0.00000000000E+00 0. -1.
</event>
<event>
 8    1  0.6840032E-009  0.9992469E+02  0.7561462E-02  0.1280454E+00
         -2   -1    0    0    0  501 -0.00000000000E+00  0.00000000000E+00  0.10350477570E+03  0.10350477570E+03  0.00000000000E+00 0.  1.
          2   -1    0    0  501    0  0.00000000000E+00 -0.00000000000E+00 -0.13672255306E+03  0.13672255306E+03  0.00000000000E+00 0. -1.
         25    2    1    2    0    0  0.20072372824E+02 -0.12460878892E+02 -0.65994385428E+02  0.14339203205E+03  0.12509133580E+03 0.  0.
         23    2    1    2    0    0 -0.20072372824E+02  0.12460878892E+02  0.32776608063E+02  0.96835296718E+02  0.88003380621E+02 0.  0.
          5    1    3    3  502    0  0.73086507263E+02 -0.10490894517E+02 -0.41610369102E+02  0.84856299875E+02  0.41800000000E+01 0.  1.
         -5    1    3    3    0  502 -0.53014134439E+02 -0.19699843750E+01 -0.24384016325E+02  0.58535732172E+02  0.41800000000E+01 0.  1.
        -11    1    4    4    0    0 -0.50845190612E+01 -0.28559031949E+02  0.43106395011E+02  0.51957982358E+02  0.00000000000E+00 0.  1.
         11    1    4    4    0    0 -0.14987853763E+02  0.41019910840E+02 -0.10329786947E+02  0.44877314360E+02  0.00000000000E+00 0. -1.
</event>
<event>
 8    1  0.6840032E-009  0.7507825E+02  0.7561462E-02  0.1343629E+00
         -1   -1    0    0    0  501 -0.00000000000E+00  0.00000000000E+00  0.19192908477E+03  0.19192908477E+03  0.00000000000E+00 0.  1.
          1   -1    0    0  501    0  0.00000000000E+00 -0.00000000000E+00 -0.66519267055E+02  0.66519267055E+02  0.00000000000E+00 0. -1.
         25    2    1    2    0    0 -0.19639656961E+02  0.27753178615E+02  0.59307716361E+02  0.14254161174E+03  0.12507897828E+03 0.  0.
         23    2    1    2    0    0  0.19639656961E+02 -0.27753178615E+02  0.66102101355E+02  0.11590674009E+03  0.88932162602E+02 0.  0.
          5    1    3    3  502    0 -0.43775853503E+02  0.48145248921E+01 -0.25691823510E+02  0.51157083528E+02  0.41800000000E+01 0.  1.
         -5    1    3    3    0  502  0.24136196542E+02  0.22938653723E+02  0.84999539871E+02  0.91384528212E+02  0.41800000000E+01 0.  1.
        -11    1    4    4    0    0 -0.20506268753E+02  0.43424744667E+01 -0.10667636297E+02  0.23519409151E+02  0.00000000000E+00 0. -1.
         11    1    4    4    0    0  0.40145925714E+02 -0.32095653082E+02  0.76769737652E+02  0.92387330935E+02  0.00000000000E+00 0.  1.
</event>
<event>
 8    1  0.6840032E-009  0.1599386E+03  0.7561462E-02  0.1188766E+00
          1   -1    0    0  501    0  0.00000000000E+00  0.00000000000E+00  0.51713601894E+02  0.51713601894E+02  0.00000000000E+00 0. -1.
         -1   -1    0    0    0  501 -0.00000000000E+00 -0.00000000000E+00 -0.55434213688E+03  0.55434213688E+03  0.00000000000E+00 0.  1.
         25    2    1    2    0    0 -0.12762269042E+03  0.78945143122E+01 -0.29186426569E+03  0.34231972016E+03  0.12509263269E+03 0.  0.
         23    2    1    2    0    0  0.12762269042E+03 -0.78945143122E+01 -0.21076426929E+03  0.26373601861E+03  0.93729588920E+02 0.  0.
          5    1    3    3  502    0 -0.67567528977E+02  0.61138869837E+02 -0.20270925687E+03  0.22228775854E+03  0.41800000000E+01 0. -1.
         -5    1    3    3    0  502 -0.60055161441E+02 -0.53244355525E+02 -0.89155008826E+02  0.12003196162E+03  0.41800000000E+01 0. -1.
        -11    1    4    4    0    0 -0.12854628497E+01 -0.18872114878E+02 -0.32461133534E+01  0.19192352295E+02  0.00000000000E+00 0. -1.
         11    1    4    4    0    0  0.12890815327E+03  0.10977600566E+02 -0.20751815594E+03  0.24454366632E+03  0.00000000000E+00 0.  1.
</event>
<event>
 8    1  0.6840032E-009  0.9063436E+02  0.7561462E-02  0.1301323E+00
          1   -1    0    0  501    0  0.00000000000E+00  0.00000000000E+00  0.22923955225E+03  0.22923955225E+03  0.00000000000E+00 0. -1.
         -1   -1    0    0    0  501 -0.00000000000E+00 -0.00000000000E+00 -0.64871189273E+02  0.64871189273E+02  0.00000000000E+00 0.  1.
         25    2    1    2    0    0  0.26625479439E+02 -0.12294084528E+02  0.15040100838E+03  0.19780768385E+03  0.12508939123E+03 0.  0.
         23    2    1    2    0    0 -0.26625479439E+02  0.12294084528E+02  0.13967354598E+02  0.96303057678E+02  0.90659424518E+02 0.  0.
          5    1    3    3  502    0 -0.38166206220E+01  0.40387970587E+02  0.12545024731E+03  0.13191281860E+03  0.41800000000E+01 0.  1.
         -5    1    3    3    0  502  0.30442100061E+02 -0.52682055116E+02  0.24950761065E+02  0.65894865241E+02  0.41800000000E+01 0.  1.
        -11    1    4    4    0    0 -0.49933737059E+02 -0.54128400288E+01 -0.17630393814E+02  0.53230702794E+02  0.00000000000E+00 0.  1.
         11    1    4    4    0    0  0.23308257620E+02  0.17706924557E+02  0.31597748412E+02  0.43072354885E+02  0.00000000000E+00 0. -1.
</event>
<event>
 8    1  0.6840032E-009  0.1329872E+03  0.7561462E-02  0.1223089E+00
         -2   -1    0    0    0  501 -0.00000000000E+00  0.00000000000E+00  0.33439644260E+02  0.33439644260E+02  0.00000000000E+00 0.  1.
          2   -1    0    0  501    0  0.00000000000E+00 -0.00000000000E+00 -0.56207465628E+03  0.56207465628E+03  0.00000000000E+00 0. -1.
         25    2    1    2    0    0 -0.78105897496E+02 -0.26297613172E+02 -0.32316177568E+03  0.35619355457E+03  0.12509284302E+03 0.  0.
         23    2    1    2    0    0  0.78105897496E+02  0.26297613172E+02 -0.20547323634E+03  0.23932074597E+03  0.90901446177E+02 0.  0.
          5    1    3    3  502    0 -0.96807928374E+01  0.45618386247E+02 -0.14275616016E+03  0.15023830596E+03  0.41800000000E+01 0.  1.
         -5    1    3    3    0  502 -0.68425104659E+02 -0.71915999418E+02 -0.18040561552E+03  0.20595524862E+03  0.41800000000E+01 0.  1.
        -11    1    4    4    0    0  0.23385423850E+01 -0.27039318710E+02 -0.71046188225E+02  0.76053628435E+02  0.00000000000E+00 0. -1.
         11    1    4    4    0    0  0.75767355111E+02  0.53336931882E+02 -0.13442704811E+03  0.16326711753E+03  0.00000000000E+00 0.  1.
</event>
<event>
 8    1  0.6840032E-009  0.1054387E+03  0.7561462E-02  0.1269258E+00
         -3   -1    0    0    0  501 -0.00000000000E+00  0.00000000000E+00  0.13921011738E+03  0.13921011738E+03  0.00000000000E+00 0.  1.
          3   -1    0    0  501    0  0.00000000000E+00 -0.00000000000E+00 -0.12350216296E+03  0.12350216296E+03  0.00000000000E+00 0. -1.
         25    2    1    2    0    0 -0.58733146773E+02 -0.78433509966E+00  0.53419622710E+02  0.14816285532E+03  0.12509347663E+03 0.  0.
         23    2    1    2    0    0  0.58733146773E+02  0.78433509966E+00 -0.37711668298E+02  0.11454942502E+03  0.90825123917E+02 0.  0.
          5    1    3    3  502    0 -0.57571090364E+01 -0.57213532212E+02  0.38225809135E+02  0.69175266221E+02  0.41800000000E+01 0.  1.
         -5    1    3    3    0  502 -0.52976037737E+02  0.56429197113E+02  0.15193813575E+02  0.78987589101E+02  0.41800000000E+01 0.  1.
        -11    1    4    4    0    0  0.35645494490E+02 -0.23112427957E+02  0.20769234781E+02  0.47287913010E+02  0.00000000000E+00 0.  1.
         11    1    4    4    0    0  0.23087652283E+02  0.23896763056E+02 -0.58480903079E+02  0.67261512007E+02  0.00000000000E+00 0. -1.
</event>
<event>
 8    1  0.6840032E-009  0.8853397E+02  0.7561462E-02  0.1306441E+00
         -3   -1    0    0    0  501 -0.00000000000E+00  0.00000000000E+00  0.66835952248E+02  0.66835952248E+02  0.00000000000E+00 0.  1.
          3   -1    0    0  501    0  0.00000000000E+00 -0.00000000000E+00 -0.27823471157E+03  0.27823471157E+03  0.00000000000E+00 0. -1.
         25    2    1    2    0    0 -0.31189572639E+02 -0.10747636422E+02 -0.21399349204E+03  0.25005878455E+03  0.12509148639E+03 0.  0.
         23    2    1    2    0    0  0.31189572639E+02  0.10747636422E+02  0.25947327114E+01  0.95011879269E+02  0.89063030682E+02 0.  0.
          5    1    3    3  502    0  0.50882523342E+01  0.54276784009E+02 -0.85306740855E+02  0.10132409402E+03  0.41800000000E+01 0. -1.
         -5    1    3    3    0  502 -0.36277824973E+02 -0.65024420432E+02 -0.12868675118E+03  0.14873469053E+03  0.41800000000E+01 0. -1.
        -11    1    4    4    0    0  0.86903149595E+01  0.21270835648E+02 -0.39753761052E+02  0.45916571529E+02  0.00000000000E+00 0. -1.
         11    1    4    4    0    0  0.22499257680E+02 -0.10523199225E+02  0.42348493763E+02  0.49095307740E+02  0.00000000000E+00 0.  1.
</event>
<event>
 8    1  0.6840032E-009  0.3131209E+03  0.7561462E-02  0.1078860E+00
          2   -1    0    0  501    0  0.00000000000E+00  0.00000000000E+00  0.16974056025E+04  0.16974056025E+04  0.00000000000E+00 0. -1.
         -2   -1    0    0    0  501 -0.00000000000E+00 -0.00000000000E+00 -0.58319210557E+02  0.58319210557E+02  0.00000000000E+00 0.  1.
         25    2    1    2    0    0 -0.19817117561E+03  0.21677738198E+03  0.77451418770E+03  0.83772544191E+03  0.12508973132E+03 0.  0.
         23    2    1    2    0    0  0.19817117561E+03 -0.21677738198E+03  0.86457220419E+03  0.91799937110E+03  0.94728564361E+02 0.  0.
          5    1    3    3  502    0 -0.40011476519E+02  0.13247109425E+03  0.37840333446E+03  0.40293431847E+03  0.41800000000E+01 0.  1.
         -5    1    3    3    0  502 -0.15815969909E+03  0.84306287725E+02  0.39611085324E+03  0.43479112344E+03  0.41800000000E+01 0.  1.
        -11    1    4    4    0    0  0.18722633541E+03 -0.14740001708E+03  0.65862823043E+03  0.70040817501E+03  0.00000000000E+00 0. -1.
         11    1    4    4    0    0  0.10944840200E+02 -0.69377364898E+02  0.20594397376E+03  0.21759119609E+03  0.00000000000E+00 0.  1.
</event>
<event>
 8    1  0.6840032E-009  0.1163377E+03  0.7561462E-02  0.1249264E+00
         -1   -1    0    0    0  501 -0.00000000000E+00  0.00000000000E+00  0.34732006789E+02  0.34732006789E+02  0.00000000000E+00 0.  1.
          1   -1    0    0  501    0  0.00000000000E+00 -0.00000000000E+00 -0.56220873518E+03  0.56220873518E+03  0.00000000000E+00 0. -1.
         25    2    1    2    0    0 -0.80598922321E+02  0.18626093847E+02 -0.35271892623E+03  0.38327957461E+03  0.12509785665E+03 0.  0.
         23    2    1    2    0    0  0.80598922321E+02 -0.18626093847E+02 -0.17475780217E+03  0.21366116737E+03  0.90926824267E+02 0.  0.
          5    1    3    3  502    0 -0.10468219152E+02 -0.49590167043E+02 -0.14437932505E+03  0.15307393698E+03  0.41800000000E+01 0.  1.
         -5    1    3    3    0  502 -0.70130703169E+02  0.68216260891E+02 -0.20833960118E+03  0.23020563763E+03  0.41800000000E+01 0.  1.
        -11    1    4    4    0    0  0.28786908862E+02  0.14710610382E+00  0.16613741627E+01  0.28835185558E+02  0.00000000000E+00 0.  1.
         11    1    4    4    0    0  0.51812013458E+02 -0.18773199951E+02 -0.17641917633E+03  0.18482598181E+03  0.00000000000E+00 0. -1.
</event>
<event>
 8    1  0.6840032E-009  0.1033734E+03  0.7561462E-02  0.1273358E+00
          1   -1    0    0  501    0  0.00000000000E+00  0.00000000000E+00  0.10906449397E+04  0.10906449397E+04  0.00000000000E+00 0. -1.
         -1   -1    0    0    0  501 -0.00000000000E+00 -0.00000000000E+00 -0.18919988514E+02  0.18919988514E+02  0.00000000000E+00 0.  1.
         25    2    1    2    0    0  0.52248094380E+02  0.22404130645E+02  0.88547544381E+03  0.89607288476E+03  0.12509214515E+03 0.  0.
         23    2    1    2    0    0 -0.52248094380E+02 -0.22404130645E+02  0.18624950735E+03  0.21349204343E+03  0.87510943214E+02 0.  0.
          5    1    3    3  502    0 -0.23236615620E+02  0.11419151680E+02  0.59938038089E+03  0.59995387383E+03  0.41800000000E+01 0. -1.
         -5    1    3    3    0  502  0.75484710000E+02  0.10984978965E+02  0.28609506292E+03  0.29611901093E+03  0.41800000000E+01 0. -1.
        -11    1    4    4    0    0 -0.76962844464E+02 -0.17584867407E+02  0.13494761930E+03  0.15634374610E+03  0.00000000000E+00 0.  1.
         11    1    4    4    0    0  0.24714750084E+02 -0.48192632387E+01  0.51301888058E+02  0.57148297334E+02  0.00000000000E+00 0. -1.
</event>
<event>
 8    1  0.6840032E-009  0.1056263E+03  0.7561462E-02  0.1268891E+00
         -1   -1    0    0    0  501 -0.00000000000E+00  0.00000000000E+00  0.16393586060E+03  0.16393586060E+03  0.00000000000E+00 0.  1.
          1   -1    0    0  501    0  0.00000000000E+00 -0.00000000000E+00 -0.13976807130E+03  0.13976807130E+03  0.00000000000E+00 0. -1.
         25    2    1    2    0    0  0.56945810164E+02 -0.87038907331E+02  0.24583176306E+01  0.16269756312E+03  0.12508340031E+03 0.  0.
         23    2    1    2    0    0 -0.56945810164E+02  0.87038907331E+02  0.21709471673E+02  0.14100636879E+03  0.92697886676E+02 0.  0.
          5    1    3    3  502    0  0.46153406107E+01 -0.21388782374E+02  0.57875762919E+02  0.62014979754E+02  0.41800000000E+01 0. -1.
         -5    1    3    3    0  502  0.52330469553E+02 -0.65650124956E+02 -0.55417445288E+02  0.10068258336E+03  0.41800000000E+01 0. -1.
        -11    1    4    4    0    0 -0.39970475758E+02  0.48803608311E+02  0.57948275412E+02  0.85658821727E+02  0.00000000000E+00 0.  1.
         11    1    4    4    0    0 -0.16975334406E+02  0.38235299019E+02 -0.36238803739E+02  0.55347547062E+02  0.00000000000E+00 0. -1.
</event>
<event>
 8    1  0.6840032E-009  0.3140496E+03  0.7561462E-02  0.1078421E+00
          2   -1    0    0  501    0  0.00000000000E+00  0.00000000000E+00  0.25166311585E+03  0.25166311585E+03  0.00000000000E+00 0. -1.
         -2   -1    0    0    0  501 -0.00000000000E+00 -0.00000000000E+00 -0.44782285557E+03  0.44782285557E+03  0.00000000000E+00 0.  1.
         25    2    1    2    0    0  0.13402747324E+03 -0.27809928587E+03 -0.23023518618E+02  0.33388640160E+03  0.12508984921E+03 0.  0.
         23    2    1    2    0    0 -0.13402747324E+03  0.27809928587E+03 -0.17313622110E+03  0.36559956983E+03  0.91565921692E+02 0.  0.
          5    1    3    3  502    0  0.65443521105E+02 -0.78956853979E+02 -0.61623431697E+02  0.11971616006E+03  0.41800000000E+01 0. -1.
         -5    1    3    3    0  502  0.68583952137E+02 -0.19914243190E+03  0.38599913079E+02  0.21417024154E+03  0.41800000000E+01 0. -1.
        -11    1    4    4    0    0 -0.10316338286E+02  0.83971085496E+02 -0.82603131882E+02  0.11824063359E+03  0.00000000000E+00 0.  1.
         11    1    4    4    0    0 -0.12371113496E+03  0.19412820038E+03 -0.90533089219E+02  0.24735893624E+03  0.00000000000E+00 0. -1.
</event>
<event>
 8    1  0.6840032E-009  0.1973077E+03  0.7561462E-02  0.1152031E+00
         -2   -1    0    0    0  501 -0.00000000000E+00  0.00000000000E+00  0.41187072064E+02  0.41187072064E+02  0.00000000000E+00 0.  1.
          2   -1    0    0  501    0  0.00000000000E+00 -0.00000000000E+00 -0.12089929282E+04  0.12089929282E+04  0.00000000000E+00 0. -1.
         25    2    1    2    0    0  0.18284096498E+03  0.53786100339E+02 -0.50408715580E+03  0.55324041268E+03  0.12508929014E+03 0.  0.
         23    2    1    2    0    0 -0.18284096498E+03 -0.53786100339E+02 -0.66371870034E+03  0.69693958759E+03  0.94225859045E+02 0.  0.
          5    1    3    3  502    0  0.13673098795E+03  0.41518622268E+02 -0.20251858636E+03  0.24789193065E+03  0.41800000000E+01 0.  1.
         -5    1    3    3    0  502  0.46109977030E+02  0.12267478071E+02 -0.30156856944E+03  0.30534848203E+03  0.41800000000E+01 0.  1.
        -11    1    4    4    0    0 -0.13933491976E+03 -0.71713656441E+02 -0.58111588247E+03  0.60187435337E+03  0.00000000000E+00 0. -1.
         11    1    4    4    0    0 -0.43506045219E+02  0.17927556102E+02 -0.82602817867E+02  0.95065234223E+02  0.00000000000E+00 0.  1.
</event>
<event>
 8    1  0.6840032E-009  0.8804261E+02  0.7561462E-02  0.1307662E+00
          1   -1    0    0  501    0  0.00000000000E+00  0.00000000000E+00  0.70119128148E+02  0.70119128148E+02  0.00000000000E+00 0. -1.
         -1   -1    0    0    0  501 -0.00000000000E+00 -0.00000000000E+00 -0.26369026894E+03  0.26369026894E+03  0.00000000000E+00 0.  1.
         25    2    1    2    0    0  0.55853975337E+02 -0.53484386361E+02 -0.13625466800E+03  0.20048255189E+03  0.12509065879E+03 0.  0.
         23    2    1    2    0    0 -0.55853975337E+02  0.53484386361E+02 -0.57316472791E+02  0.13332684519E+03  0.92253040335E+02 0.  0.
          5    1    3    3  502    0  0.48253420939E+00 -0.34096522047E+02  0.15528825800E+02  0.37701757064E+02  0.41800000000E+01 0.  1.
         -5    1    3    3    0  502  0.55371441127E+02 -0.19387864314E+02 -0.15178349380E+03  0.16278079483E+03  0.41800000000E+01 0.  1.
        -11    1    4    4    0    0 -0.55602163448E+02  0.37815767781E+02 -0.80784116081E+02  0.10510806955E+03  0.00000000000E+00 0.  1.
         11    1    4    4    0    0 -0.25181188832E+00  0.15668618580E+02  0.23467643290E+02  0.28218775647E+02  0.00000000000E+00 0. -1.
</event>
<event>
 8    1  0.6840032E-009  0.1238031E+03  0.7561462E-02  0.1236952E+00
         -1   -1    0    0    0  501 -0.00000000000E+00  0.00000000000E+00  0.22660391710E+02  0.22660391710E+02  0.00000000000E+00 0. -1.
          1   -1    0    0  501    0  0.00000000000E+00 -0.00000000000E+00 -0.13989667274E+04  0.13989667274E+04  0.00000000000E+00 0.  1.
         25    2    1    2    0    0 -0.78569067780E+02  0.49493820913E+01 -0.11952859875E+04  0.12043893731E+04  0.12509026905E+03 0.  0.
         23    2    1    2    0    0  0.78569067780E+02 -0.49493820913E+01 -0.18102034815E+03  0.21723774594E+03  0.90698825899E+02 0.  0.
          5    1    3    3  502    0  0.27568354953E+02  0.26911157824E+01 -0.96638512274E+02  0.10061675185E+03  0.41800000000E+01 0.  1.
         -5    1    3    3    0  502 -0.10613742273E+03  0.22582663089E+01 -0.10986474752E+04  0.11037726213E+04  0.41800000000E+01 0.  1.
        -11    1    4    4    0    0  0.66753858482E+02  0.32381617644E+02 -0.14977077449E+03  0.16714045493E+03  0.00000000000E+00 0.  1.
         11    1    4    4    0    0  0.11815209298E+02 -0.37330999735E+02 -0.31249573664E+02  0.50097291006E+02  0.00000000000E+00 0. -1.
</event>
<event>
 8    1  0.6840032E-009  0.1845494E+03  0.7561462E-02  0.1163471E+00
         -2   -1    0    0    0  501 -0.00000000000E+00  0.00000000000E+00  0.17513367372E+03  0.17513367372E+03  0.00000000000E+00 0.  1.
          2   -1    0    0  501    0  0.00000000000E+00 -0.00000000000E+00 -0.33521202632E+03  0.33521202632E+03  0.00000000000E+00 0. -1.
         25    2    1    2    0    0 -0.13487461327E+03  0.65578454868E+02  0.81848221822E+02  0.21175653342E+03  0.12509997194E+03 0.  0.
         23    2    1    2    0    0  0.13487461327E+03 -0.65578454868E+02 -0.24192657443E+03  0.29858916662E+03  0.90196052918E+02 0.  0.
          5    1    3    3  502    0 -0.89511171822E+02  0.10200596534E+03  0.46319175259E+02  0.14345872313E+03  0.41800000000E+01 0.  1.
         -5    1    3    3    0  502 -0.45363441450E+02 -0.36427510475E+02  0.35529046563E+02  0.68297810282E+02  0.41800000000E+01 0.  1.
        -11    1    4    4    0    0  0.39730894695E+02 -0.69185829406E+02 -0.11199279568E+03  0.13750494271E+03  0.00000000000E+00 0.  1.
         11    1    4    4    0    0  0.95143718578E+02  0.36073745383E+01 -0.12993377875E+03  0.16108422392E+03  0.00000000000E+00 0. -1.
</event>
<event>
 8    1  0.6840032E-009  0.1126722E+03  0.7561462E-02  0.1255700E+00
         -2   -1    0    0    0  501 -0.00000000000E+00  0.00000000000E+00  0.49736021752E+02  0.49736021752E+02  0.00000000000E+00 0.  1.
          2   -1    0    0  501    0  0.00000000000E+00 -0.00000000000E+00 -0.45751923700E+03  0.45751923700E+03  0.00000000000E+00 0. -1.
         25    2    1    2    0    0  0.68134642404E+02 -0.44554452270E+02 -0.33125959170E+03  0.36333014642E+03  0.12509376282E+03 0.  0.
         23    2    1    2    0    0 -0.68134642404E+02  0.44554452270E+02 -0.76523623548E+02  0.14392511233E+03  0.90725653950E+02 0.  0.
          5    1    3    3  502    0  0.44971683179E+02 -0.85469377310E+02 -0.26415001991E+03  0.28128308190E+03  0.41800000000E+01 0. -1.
         -5    1    3    3    0  502  0.23162959225E+02  0.40914925040E+02 -0.67109571785E+02  0.82047064520E+02  0.41800000000E+01 0. -1.
        -11    1    4    4    0    0 -0.39220499131E+02  0.23731148819E+02  0.12935167132E+02  0.47631224266E+02  0.00000000000E+00 0.  1.
         11    1    4    4    0    0 -0.28914143273E+02  0.20823303451E+02 -0.89458790680E+02  0.96293888060E+02  0.00000000000E+00 0. -1.
</event>
<event>
 8    1  0.6840032E-009  0.1203654E+03  0.7561462E-02  0.1242495E+00
          1   -1    0    0  501    0  0.00000000000E+00  0.00000000000E+00  0.11135952672E+03  0.11135952672E+03  0.00000000000E+00 0. -1.
         -1   -1    0    0    0  501 -0.00000000000E+00 -0.00000000000E+00 -0.19583292378E+03  0.19583292378E+03  0.00000000000E+00 0.  1.
         25    2    1    2    0    0 -0.70997897676E+02  0.61065009345E+02 -0.81174300509E+02  0.17608790680E+03  0.12509215409E+03 0.  0.
         23    2    1    2    0    0  0.70997897676E+02 -0.61065009345E+02 -0.32990965551E+01  0.13110454370E+03  0.91694495476E+02 0.  0.
          5    1    3    3  502    0 -0.43241850370E+02 -0.11123957325E+02 -0.87555068183E+02  0.98371552872E+02  0.41800000000E+01 0. -1.
         -5    1    3    3    0  502 -0.27756047307E+02  0.72188966671E+02  0.63807676746E+01  0.77716353924E+02  0.41800000000E+01 0. -1.
        -11    1    4    4    0    0  0.60371238070E+01 -0.52572890439E+02 -0.29453938781E+02  0.60563109091E+02  0.00000000000E+00 0.  1.
         11    1    4    4    0    0  0.64960773870E+02 -0.84921189059E+01  0.26154842226E+02  0.70541434612E+02  0.00000000000E+00 0. -1.
</event>
<event>
 8    1  0.6840032E-009  0.1321824E+03  0.7561462E-02  0.1224253E+00
          1   -1    0    0  501    0  0.00000000000E+00  0.00000000000E+00  0.42705534589E+03  0.42705534589E+03  0.00000000000E+00 0. -1.
         -1   -1    0    0    0  501 -0.00000000000E+00 -0.00000000000E+00 -0.52294870544E+02  0.52294870544E+02  0.00000000000E+00 0.  1.
         25    2    1    2    0    0 -0.58670277144E+02  0.83645023964E+02  0.21666375752E+03  0.27023615870E+03  0.12508279735E+03 0.  0.
         23    2    1    2    0    0  0.58670277144E+02 -0.83645023964E+02  0.15809671783E+03  0.20911405773E+03  0.91079226501E+02 0.  0.
          5    1    3    3  502    0 -0.75227927271E+02  0.10804638263E+03  0.17707706366E+03  0.22069667128E+03  0.41800000000E+01 0. -1.
         -5    1    3    3    0  502  0.16557650127E+02 -0.24401358669E+02  0.39586693863E+02  0.49539487418E+02  0.41800000000E+01 0. -1.
        -11    1    4    4    0    0  0.20949353404E+02 -0.20534759896E+02 -0.54166498244E+01  0.29831055419E+02  0.00000000000E+00 0.  1.
         11    1    4    4    0    0  0.37720923739E+02 -0.63110264068E+02  0.16351336765E+03  0.17928300231E+03  0.00000000000E+00 0. -1.
</event>
<event>
 8    1  0.6840032E-009  0.1001911E+03  0.7561462E-02  0.1279895E+00
          2   -1    0    0  501    0  0.00000000000E+00  0.00000000000E+00  0.16540348863E+03  0.16540348863E+03  0.00000000000E+00 0. -1.
         -2   -1    0    0    0  501 -0.00000000000E+00 -0.00000000000E+00 -0.70754785078E+02  0.70754785078E+02  0.00000000000E+00 0.  1.
         25    2    1    2    0    0 -0.13082885193E+02 -0.21978371527E+02  0.47681966538E+02  0.13629221031E+03  0.12509111063E+03 0.  0.
         23    2    1    2    0    0  0.13082885193E+02  0.21978371527E+02  0.46966737013E+02  0.99866063399E+02  0.84339466048E+02 0.  0.
          5    1    3    3  502    0  0.71539813849E+01  0.48610811709E+02  0.37687751690E+02  0.62064720189E+02  0.41800000000E+01 0. -1.
         -5    1    3    3    0  502 -0.20236866578E+02 -0.70589183237E+02  0.99942148480E+01  0.74227490119E+02  0.41800000000E+01 0. -1.
        -11    1    4    4    0    0  0.37068283058E+02  0.34344545844E+02  0.51895084679E+02  0.72434144241E+02  0.00000000000E+00 0. -1.
         11    1    4    4    0    0 -0.23985397865E+02 -0.12366174317E+02 -0.49283476660E+01  0.27431919158E+02  0.00000000000E+00 0.  1.
</event>
<event>
 8    1  0.6840032E-009  0.9416867E+02  0.7561462E-02  0.1293060E+00
          2   -1    0    0  501    0  0.00000000000E+00  0.00000000000E+00  0.90981819987E+02  0.90981819987E+02  0.00000000000E+00 0. -1.
         -2   -1    0    0    0  501 -0.00000000000E+00 -0.00000000000E+00 -0.16328588663E+03  0.16328588663E+03  0.00000000000E+00 0.  1.
         25    2    1    2    0    0 -0.13078890499E+02 -0.83272271575E+01 -0.93463718805E+02  0.15691849553E+03  0.12509015716E+03 0.  0.
         23    2    1    2    0    0  0.13078890499E+02  0.83272271575E+01  0.21159652164E+02  0.97349211082E+02  0.93748268943E+02 0.  0.
          5    1    3    3  502    0  0.32856331968E+02  0.21220930948E+02  0.93414815262E+01  0.40430213180E+02  0.41800000000E+01 0.  1.
         -5    1    3    3    0  502 -0.45935222467E+02 -0.29548158105E+02 -0.10280520033E+03  0.11648828235E+03  0.41800000000E+01 0.  1.
        -11    1    4    4    0    0  0.12425150683E+02 -0.42047190264E+02  0.16140454859E+02  0.46721139344E+02  0.00000000000E+00 0.  1.
         11    1    4    4    0    0  0.65373981595E+00  0.50374417421E+02  0.50191973042E+01  0.50628071738E+02  0.00000000000E+00 0. -1.
</event>
<event>
 8    1  0.6840032E-009  0.1128523E+03  0.7561462E-02  0.1255377E+00
          3   -1    0    0  501    0  0.00000000000E+00  0.00000000000E+00  0.47969292192E+02  0.47969292192E+02  0.00000000000E+00 0. -1.
         -3   -1    0    0    0  501 -0.00000000000E+00 -0.00000000000E+00 -0.38631135875E+03  0.38631135875E+03  0.00000000000E+00 0.  1.
         25    2    1    2    0    0 -0.38093463508E+02 -0.84958694543E+01 -0.71613442053E+02  0.14932975187E+03  0.12509035915E+03 0.  0.
         23    2    1    2    0    0  0.38093463508E+02  0.84958694543E+01 -0.26672862451E+03  0.28495089907E+03  0.92355638657E+02 0.  0.
          5    1    3    3  502    0 -0.81494072668E+02 -0.94496758004E+01 -0.65964542068E+02  0.10535356407E+03  0.41800000000E+01 0.  1.
         -5    1    3    3    0  502  0.43400609160E+02  0.95380634605E+00 -0.56488999851E+01  0.43976187796E+02  0.41800000000E+01 0.  1.
        -11    1    4    4    0    0  0.19805561274E+02 -0.41894359366E+02 -0.11242621839E+03  0.12160202377E+03  0.00000000000E+00 0. -1.
         11    1    4    4    0    0  0.18287902234E+02  0.50390228820E+02 -0.15430240612E+03  0.16334887531E+03  0.00000000000E+00 0.  1.
</event>
<event>
 8    1  0.6840032E-009  0.8155875E+02  0.7561462E-02  0.1324685E+00
         -2   -1    0    0    0  501 -0.00000000000E+00  0.00000000000E+00  0.12665836575E+03  0.12665836575E+03  0.00000000000E+00 0.  1.
          2   -1    0    0  501    0  0.00000000000E+00 -0.00000000000E+00 -0.15854022232E+03  0.15854022232E+03  0.00000000000E+00 0. -1.
         25    2    1    2    0    0 -0.34770195189E+01  0.38925121282E+02  0.61557820552E+02  0.14479003061E+03  0.12509009938E+03 0.  0.
         23    2    1    2    0    0  0.34770195189E+01 -0.38925121282E+02 -0.93439677119E+02  0.14040855746E+03  0.97243688829E+02 0.  0.
          5    1    3    3  502    0  0.29888055767E+02  0.82284496853E+01  0.87126633599E+02  0.92571734045E+02  0.41800000000E+01 0.  1.
         -5    1    3    3    0  502 -0.33365075286E+02  0.30696671597E+02 -0.25568813047E+02  0.52218296569E+02  0.41800000000E+01 0.  1.
        -11    1    4    4    0    0 -0.36575791009E+02 -0.14190420464E+02 -0.41261470553E+01  0.39448467783E+02  0.00000000000E+00 0.  1.
         11    1    4    4    0    0  0.40052810528E+02 -0.24734700818E+02 -0.89313530064E+02  0.10096008968E+03  0.00000000000E+00 0. -1.
</event>
<event>
 8    1  0.6840032E-009  0.1061235E+03  0.7561462E-02  0.1267922E+00
         -1   -1    0    0    0  501 -0.00000000000E+00  0.00000000000E+00  0.28250890599E+02  0.28250890599E+02  0.00000000000E+00 0.  1.
          1   -1    0    0  501    0  0.00000000000E+00 -0.00000000000E+00 -0.73354680984E+03  0.73354680984E+03  0.00000000000E+00 0. -1.
         25    2    1    2    0    0 -0.41235591785E+02  0.48586371069E+02 -0.56540995151E+03  0.58257791883E+03  0.12509040234E+03 0.  0.
         23    2    1    2    0    0  0.41235591785E+02 -0.48586371069E+02 -0.13988596773E+03  0.17921978161E+03  0.92144650789E+02 0.  0.
          5    1    3    3  502    0 -0.68008521672E+02  0.75820996064E+02 -0.40519155225E+03  0.41781772207E+03  0.41800000000E+01 0. -1.
         -5    1    3    3    0  502  0.26772929887E+02 -0.27234624995E+02 -0.16021839926E+03  0.16476019675E+03  0.41800000000E+01 0. -1.
        -11    1    4    4    0    0  0.86420833044E+01 -0.35881988115E+02 -0.19963621832E+01  0.36961982319E+02  0.00000000000E+00 0.  1.
         11    1    4    4    0    0  0.32593508481E+02 -0.12704382954E+02 -0.13788960555E+03  0.14225779929E+03  0.00000000000E+00 0. -1.
</event>
<event>
 8    1  0.6840032E-009  0.2100511E+03  0.7561462E-02  0.1141526E+00
          2   -1    0    0  501    0  0.00000000000E+00  0.00000000000E+00  0.39225891861E+03  0.39225891861E+03  0.00000000000E+00 0. -1.
         -2   -1    0    0    0  501 -0.00000000000E+00 -0.00000000000E+00 -0.12600329216E+03  0.12600329216E+03  0.00000000000E+00 0.  1.
         25    2    1    2    0    0  0.14721308861E+03 -0.11686309965E+03  0.20679469768E+03  0.30617040709E+03  0.12509034203E+03 0.  0.
         23    2    1    2    0    0 -0.14721308861E+03  0.11686309965E+03  0.59460928777E+02  0.21209180368E+03  0.78221823161E+02 0.  0.
          5    1    3    3  502    0  0.14947288786E+03 -0.13321255902E+03  0.15985979293E+03  0.25624276747E+03  0.41800000000E+01 0.  1.
         -5    1    3    3    0  502 -0.22597992472E+01  0.16349459365E+02  0.46934904744E+02  0.49927639614E+02  0.41800000000E+01 0.  1.
        -11    1    4    4    0    0 -0.10223752385E+03  0.32618285040E+02  0.40664750111E+02  0.11476099383E+03  0.00000000000E+00 0. -1.
         11    1    4    4    0    0 -0.44975564759E+02  0.84244814612E+02  0.18796178665E+02  0.97330809854E+02  0.00000000000E+00 0.  1.
</event>
<event>
 8    1  0.6840032E-009  0.6713194E+02  0.7561462E-02  0.1370127E+00
          2   -1    0    0  501    0  0.00000000000E+00  0.00000000000E+00  0.14635142702E+03  0.14635142702E+03  0.00000000000E+00 0. -1.
         -2   -1    0    0    0  501 -0.00000000000E+00 -0.00000000000E+00 -0.70180140021E+02  0.70180140021E+02  0.00000000000E+00 0.  1.
         25    2    1    2    0    0  0.22257034871E+02  0.22052256169E+01  0.57445405342E+02  0.13945674727E+03  0.12509185083E+03 0.  0.
         23    2    1    2    0    0 -0.22257034871E+02 -0.22052256169E+01  0.18725881658E+02  0.77074819768E+02  0.71341646863E+02 0.  0.
          5    1    3    3  502    0  0.40398268963E+02 -0.35385333506E+02 -0.14847220159E+02  0.55875346165E+02  0.41800000000E+01 0.  1.
         -5    1    3    3    0  502 -0.18141234092E+02  0.37590559123E+02  0.72292625501E+02  0.83581401109E+02  0.41800000000E+01 0.  1.
        -11    1    4    4    0    0 -0.16669701524E+02  0.13709006054E+02  0.42651714592E+02  0.47801512042E+02  0.00000000000E+00 0. -1.
         11    1    4    4    0    0 -0.55873333471E+01 -0.15914231671E+02 -0.23925832934E+02  0.29273307726E+02  0.00000000000E+00 0.  1.
</event>
<event>
 8    1  0.6840032E-009  0.7409286E+02  0.7561462E-02  0.1346703E+00
         -2   -1    0    0    0  501 -0.00000000000E+00  0.00000000000E+00  0.13352353147E+03  0.13352353147E+03  0.00000000000E+00 0. -1.
          2   -1    0    0  501    0  0.00000000000E+00 -0.00000000000E+00 -0.89151764694E+02  0.89151764694E+02  0.00000000000E+00 0.  1.
         25    2    1    2    0    0  0.22809172780E+01 -0.20516959026E+02  0.18135891663E+02  0.12806556953E+03  0.12508289787E+03 0.  0.
         23    2    1    2    0    0 -0.22809172780E+01  0.20516959026E+02  0.26235875117E+02  0.94609726641E+02  0.88524183366E+02 0.  0.
          5    1    3    3  502    0 -0.45211673121E+02 -0.99913829004E+01 -0.33269779823E+02  0.57168818145E+02  0.41800000000E+01 0.  1.
         -5    1    3    3    0  502  0.47492590399E+02 -0.10525576126E+02  0.51405671486E+02  0.70896751382E+02  0.41800000000E+01 0.  1.
        -11    1    4    4    0    0  0.20175974214E+02 -0.29491382311E+01 -0.26034957645E+02  0.33069417464E+02  0.00000000000E+00 0.  1.
         11    1    4    4    0    0 -0.22456891492E+02  0.23466097257E+02  0.52270832762E+02  0.61540309177E+02  0.00000000000E+00 0. -1.
</event>
<event>
 8    1  0.6840032E-009  0.9902479E+02  0.7561462E-02  0.1282360E+00
          2   -1    0    0  501    0  0.00000000000E+00  0.00000000000E+00  0.47842707416E+03  0.47842707416E+03  0.00000000000E+00 0. -1.
         -2   -1    0    0    0  501 -0.00000000000E+00 -0.00000000000E+00 -0.28898665784E+02  0.28898665784E+02  0.00000000000E+00 0.  1.
         25    2    1    2    0    0  0.47939092880E+01 -0.40435390788E+02  0.20890421826E+03  0.24687273109E+03  0.12508865077E+03 0.  0.
         23    2    1    2    0    0 -0.47939092880E+01  0.40435390788E+02  0.24062419011E+03  0.26045300885E+03  0.90982232113E+02 0.  0.
          5    1    3    3  502    0 -0.16439358253E+02 -0.82315175147E+02  0.14247851854E+03  0.16541959135E+03  0.41800000000E+01 0. -1.
         -5    1    3    3    0  502  0.21233267541E+02  0.41879784358E+02  0.66425699730E+02  0.81453139737E+02  0.41800000000E+01 0. -1.
        -11    1    4    4    0    0  0.21766610609E+02  0.45807002951E+01  0.80782949658E+01  0.23664889650E+02  0.00000000000E+00 0.  1.
         11    1    4    4    0    0 -0.26560519897E+02  0.35854690493E+02  0.23254589514E+03  0.23678811920E+03  0.00000000000E+00 0. -1.
</event>
