<event>
 6    1  0.8259171E-006  0.1083967E+03  0.7561462E-02  0.1263568E+00
          2   -1    0    0  501    0  0.00000000000E+00  0.00000000000E+00  0.12039316774E+03  0.12039316774E+03  0.00000000000E+00 0. -1.
         -2   -1    0    0    0  501 -0.00000000000E+00 -0.00000000000E+00 -0.18891993090E+03  0.18891993090E+03  0.00000000000E+00 0.  1.
          5    1    1    2  502    0  0.34248995655E+02  0.32044169140E+02 -0.97687749619E+01  0.48090787512E+02  0.41800000000E+01 0.  1.
         -5    1    1    2    0  502 -0.75989647181E+02  0.10508015672E+02 -0.11540928869E+03  0.13864206139E+03  0.41800000000E+01 0.  1.
        -11    1    1    2    0    0 -0.13470186759E+02 -0.34560139793E+02 -0.72073391983E+01  0.37786173822E+02  0.00000000000E+00 0.  1.
         11    1    1    2    0    0  0.55210838286E+02 -0.79920450192E+01  0.63858639683E+02  0.84794075913E+02  0.00000000000E+00 0. -1.
</event>
<event>
 6    1  0.8259171E-006  0.1614242E+03  0.7561462E-02  0.1187098E+00
          2   -1    0    0  501    0  0.00000000000E+00  0.00000000000E+00  0.12239124421E+04  0.12239124421E+04  0.00000000000E+00 0. -1.
         -2   -1    0    0    0  501 -0.00000000000E+00 -0.00000000000E+00 -0.30716201894E+02  0.30716201894E+02  0.00000000000E+00 0.  1.
          5    1    1    2  502    0  0.92656626542E+02  0.56473931079E+02  0.64440296277E+03  0.65348848969E+03  0.41800000000E+01 0. -1.
         -5    1    1    2    0  502 -0.81200786766E+02 -0.86888582569E+02  0.15244889248E+03  0.19339423665E+03  0.41800000000E+01 0.  1.
        -11    1    1    2    0    0  0.27228791850E+02  0.46079211676E+02  0.20199589618E+03  0.20896660720E+03  0.00000000000E+00 0.  1.
         11    1    1    2    0    0 -0.38684631626E+02 -0.15664560186E+02  0.19434848881E+03  0.19877931047E+03  0.00000000000E+00 0. -1.
</event>
<event>
 6    1  0.8259171E-006  0.9802189E+02  0.7561462E-02  0.1284511E+00
          4   -1    0    0  501    0  0.00000000000E+00  0.00000000000E+00  0.13866147479E+03  0.13866147479E+03  0.00000000000E+00 0. -1.
         -4   -1    0    0    0  501 -0.00000000000E+00 -0.00000000000E+00 -0.11913010572E+03  0.11913010572E+03  0.00000000000E+00 0.  1.
          5    1    1    2  502    0  0.20861185898E+02 -0.25166692845E+02 -0.25832486112E+02  0.41872917794E+02  0.41800000000E+01 0. -1.
         -5    1    1    2    0  502 -0.34582514418E+02  0.90154990342E+02  0.24742540105E+02  0.99767420924E+02  0.41800000000E+01 0. -1.
        -11    1    1    2    0    0  0.87037293949E+01 -0.37609290586E+02  0.57923407976E+02  0.69608439397E+02  0.00000000000E+00 0. -1.
         11    1    1    2    0    0  0.50175991245E+01 -0.27379006911E+02 -0.37302092900E+02  0.46542802398E+02  0.00000000000E+00 0.  1.
</event>
<event>
 6    1  0.8259171E-006  0.1132636E+03  0.7561462E-02  0.1254643E+00
         -1   -1    0    0    0  501 -0.00000000000E+00  0.00000000000E+00  0.12789444222E+03  0.12789444222E+03  0.00000000000E+00 0.  1.
          1   -1    0    0  501    0  0.00000000000E+00 -0.00000000000E+00 -0.11384159292E+03  0.11384159292E+03  0.00000000000E+00 0. -1.
          5    1    1    2  502    0  0.44599352334E+02 -0.29310436846E+02  0.16399581806E+02  0.55987700615E+02  0.41800000000E+01 0. -1.
         -5    1    1    2    0  502 -0.36848334314E+02  0.68304176983E+02  0.24100614968E+02  0.81373044534E+02  0.41800000000E+01 0. -1.
        -11    1    1    2    0    0 -0.45300820297E+02 -0.67931981853E+01 -0.30040734861E+02  0.54779171335E+02  0.00000000000E+00 0. -1.
         11    1    1    2    0    0  0.37549802276E+02 -0.32200541951E+02  0.35933873909E+01  0.49596118657E+02  0.00000000000E+00 0.  1.
</event>
<event>
 6    1  0.1029762E-005  0.1616271E+03  0.7561462E-02  0.1186872E+00
         -4   -1    0    0    0  501 -0.00000000000E+00  0.00000000000E+00  0.58620903360E+02  0.58620903360E+02  0.00000000000E+00 0.  1.
          4   -1    0    0  501    0  0.00000000000E+00 -0.00000000000E+00 -0.52850271786E+03  0.52850271786E+03  0.00000000000E+00 0. -1.
          5    1    1    2  502    0 -0.18125598182E+02  0.42993406196E+02 -0.18463893633E+02  0.50352339111E+02  0.41800000000E+01 0.  1.
         -5    1    1    2    0  502  0.12218685083E+03  0.27211036316E+02 -0.13399567126E+03  0.18341859047E+03  0.41800000000E+01 0.  1.
        -11    1    1    2    0    0 -0.94616747523E+02 -0.15782563402E+02 -0.23807506786E+03  0.25667324784E+03  0.00000000000E+00 0. -1.
         11    1    1    2    0    0 -0.94445051248E+01 -0.54421879110E+02 -0.79347181741E+02  0.96679443799E+02  0.00000000000E+00 0.  1.
</event>
<event>
 6    1  0.8259171E-006  0.2138063E+03  0.7561462E-02  0.1138587E+00
         -2   -1    0    0    0  501 -0.00000000000E+00  0.00000000000E+00  0.19406768546E+03  0.19406768546E+03  0.00000000000E+00 0.  1.
          2   -1    0    0  501    0  0.00000000000E+00 -0.00000000000E+00 -0.26202690117E+03  0.26202690117E+03  0.00000000000E+00 0. -1.
          5    1    1    2  502    0 -0.12275919672E+03  0.10379333531E+03  0.20420680940E+02  0.16210291004E+03  0.41800000000E+01 0.  1.
         -5    1    1    2    0  502  0.62911740648E+01  0.54750150275E+02 -0.46971623540E+02  0.72532500607E+02  0.41800000000E+01 0.  1.
        -11    1    1    2    0    0 -0.16836030463E+01 -0.53234259787E+02 -0.33644606016E+02  0.62997463824E+02  0.00000000000E+00 0. -1.
         11    1    1    2    0    0  0.11815162570E+03 -0.10530922579E+03 -0.77636670922E+01  0.15846171216E+03  0.00000000000E+00 0.  1.
</event>
<event>
 6    1  0.8259171E-006  0.2423840E+03  0.7561462E-02  0.1118215E+00
         -1   -1    0    0    0  501 -0.00000000000E+00  0.00000000000E+00  0.59396612708E+02  0.59396612708E+02  0.00000000000E+00 0.  1.
          1   -1    0    0  501    0  0.00000000000E+00 -0.00000000000E+00 -0.10596497226E+04  0.10596497226E+04  0.00000000000E+00 0. -1.
          5    1    1    2  502    0  0.23479423926E+03  0.30965238602E+02 -0.42908743957E+03  0.49012313145E+03  0.41800000000E+01 0. -1.
         -5    1    1    2    0  502 -0.10581649971E+02 -0.16404377691E+02 -0.44648944406E+02  0.48908849507E+02  0.41800000000E+01 0. -1.
        -11    1    1    2    0    0 -0.27042977262E+02  0.10853011200E+02 -0.18579842733E+02  0.34558950032E+02  0.00000000000E+00 0.  1.
         11    1    1    2    0    0 -0.19716961202E+03 -0.25413872111E+02 -0.50793688320E+03  0.54545540433E+03  0.00000000000E+00 0. -1.
</event>
<event>
 6    1  0.8259171E-006  0.1027317E+03  0.7561462E-02  0.1274654E+00
         -1   -1    0    0    0  501 -0.00000000000E+00  0.00000000000E+00  0.41235945274E+02  0.41235945274E+02  0.00000000000E+00 0.  1.
          1   -1    0    0  501    0  0.00000000000E+00 -0.00000000000E+00 -0.49532033155E+03  0.49532033155E+03  0.00000000000E+00 0. -1.
          5    1    1    2  502    0 -0.52317562771E+02 -0.66146328398E+02 -0.46587491819E+02  0.96438223381E+02  0.41800000000E+01 0.  1.
         -5    1    1    2    0  502  0.72327808008E+01 -0.14532468521E+02 -0.16664724691E+03  0.16748815797E+03  0.41800000000E+01 0.  1.
        -11    1    1    2    0    0  0.40826532378E+02  0.23867274926E+02 -0.34441054106E+02  0.58503322695E+02  0.00000000000E+00 0.  1.
         11    1    1    2    0    0  0.42582495928E+01  0.56811521993E+02 -0.20640859345E+03  0.21412657278E+03  0.00000000000E+00 0. -1.
</event>
<event>
 6    1  0.8259171E-006  0.1849366E+03  0.7561462E-02  0.1163109E+00
         -2   -1    0    0    0  501 -0.00000000000E+00  0.00000000000E+00  0.43154505185E+02  0.43154505185E+02  0.00000000000E+00 0.  1.
          2   -1    0    0  501    0  0.00000000000E+00 -0.00000000000E+00 -0.10048064265E+04  0.10048064265E+04  0.00000000000E+00 0. -1.
          5    1    1    2  502    0 -0.15415736511E+02 -0.78292649927E+01 -0.47229069567E+01  0.18404362869E+02  0.41800000000E+01 0.  1.
         -5    1    1    2    0  502  0.16688034843E+03  0.48410696211E+02 -0.29015290775E+03  0.33822895865E+03  0.41800000000E+01 0.  1.
        -11    1    1    2    0    0 -0.69396652444E+02  0.24435875184E+02 -0.20419030861E+03  0.21704075538E+03  0.00000000000E+00 0.  1.
         11    1    1    2    0    0 -0.82067959471E+02 -0.65017306403E+02 -0.46258579799E+03  0.47428685477E+03  0.00000000000E+00 0. -1.
</event>
<event>
 6    1  0.8259171E-006  0.1435983E+03  0.7561462E-02  0.1208568E+00
         -1   -1    0    0    0  501 -0.00000000000E+00  0.00000000000E+00  0.46872150143E+03  0.46872150143E+03  0.00000000000E+00 0.  1.
          1   -1    0    0  501    0  0.00000000000E+00 -0.00000000000E+00 -0.44834789173E+02  0.44834789173E+02  0.00000000000E+00 0. -1.
          5    1    1    2  502    0 -0.56860096513E+02 -0.55919173019E+01  0.99443237502E+02  0.11476397518E+03  0.41800000000E+01 0.  1.
         -5    1    1    2    0  502  0.27068856413E+02  0.95928435930E+02  0.15892283816E+03  0.18764042394E+03  0.41800000000E+01 0.  1.
        -11    1    1    2    0    0  0.27861730177E+02  0.10142174536E+02  0.49069769916E+02  0.57332207635E+02  0.00000000000E+00 0.  1.
         11    1    1    2    0    0  0.19295099239E+01 -0.10047869316E+03  0.11645086668E+03  0.15381968385E+03  0.00000000000E+00 0. -1.
</event>
<event>
 6    1  0.8259171E-006  0.1463822E+03  0.7561462E-02  0.1204990E+00
         -1   -1    0    0    0  501 -0.00000000000E+00  0.00000000000E+00  0.59000395143E+02  0.59000395143E+02  0.00000000000E+00 0.  1.
          1   -1    0    0  501    0  0.00000000000E+00 -0.00000000000E+00 -0.45868509124E+03  0.45868509124E+03  0.00000000000E+00 0. -1.
          5    1    1    2  502    0  0.80140557548E+01 -0.21070465990E+02  0.62430111538E+00  0.22935818681E+02  0.41800000000E+01 0.  1.
         -5    1    1    2    0  502 -0.83728877381E+02  0.10845944959E+03 -0.15547294638E+03  0.20727587069E+03  0.41800000000E+01 0.  1.
        -11    1    1    2    0    0  0.69200885600E+02 -0.30720217632E+02 -0.20321561397E+03  0.21686189177E+03  0.00000000000E+00 0. -1.
         11    1    1    2    0    0  0.65139360263E+01 -0.56668765965E+02 -0.41620436860E+02  0.70611905249E+02  0.00000000000E+00 0.  1.
</event>
<event>
 6    1  0.8259171E-006  0.8487593E+02  0.7561462E-02  0.1315757E+00
         -2   -1    0    0    0  501 -0.00000000000E+00  0.00000000000E+00  0.71135054054E+02  0.71135054054E+02  0.00000000000E+00 0.  1.
          2   -1    0    0  501    0  0.00000000000E+00 -0.00000000000E+00 -0.22822377032E+03  0.22822377032E+03  0.00000000000E+00 0. -1.
          5    1    1    2  502    0 -0.16319544400E+02 -0.43121901313E+02 -0.54712702087E+02  0.71671319730E+02  0.41800000000E+01 0.  1.
         -5    1    1    2    0  502 -0.23365211216E+02  0.51740813248E+02  0.26500249766E+02  0.62791563832E+02  0.41800000000E+01 0.  1.
        -11    1    1    2    0    0  0.30953458451E+02  0.19837531290E+02 -0.13001025718E+03  0.13510851642E+03  0.00000000000E+00 0. -1.
         11    1    1    2    0    0  0.87312971643E+01 -0.28456443226E+02  0.11339932342E+01  0.29787424391E+02  0.00000000000E+00 0.  1.
</event>
<event>
 6    1  0.8259171E-006  0.3084467E+03  0.7561462E-02  0.1081093E+00
         -1   -1    0    0    0  501 -0.00000000000E+00  0.00000000000E+00  0.11702337119E+04  0.11702337119E+04  0.00000000000E+00 0.  1.
          1   -1    0    0  501    0  0.00000000000E+00 -0.00000000000E+00 -0.88415674231E+02  0.88415674231E+02  0.00000000000E+00 0. -1.
          5    1    1    2  502    0  0.27683501447E+02 -0.23639386274E+01  0.38612949718E+02  0.47753499810E+02  0.41800000000E+01 0. -1.
         -5    1    1    2    0  502  0.14648694194E+02 -0.28999046541E+03  0.64979874118E+03  0.71173374987E+03  0.41800000000E+01 0. -1.
        -11    1    1    2    0    0  0.50841308708E+01  0.10573553597E+03  0.19978897354E+03  0.22610061013E+03  0.00000000000E+00 0.  1.
         11    1    1    2    0    0 -0.47416326512E+02  0.18661886806E+03  0.19361737323E+03  0.27306152631E+03  0.00000000000E+00 0. -1.
</event>
<event>
 6    1  0.8259171E-006  0.8603701E+02  0.7561462E-02  0.1312743E+00
          4   -1    0    0  501    0  0.00000000000E+00  0.00000000000E+00  0.18486811868E+03  0.18486811868E+03  0.00000000000E+00 0. -1.
         -4   -1    0    0    0  501 -0.00000000000E+00 -0.00000000000E+00 -0.81729445674E+02  0.81729445674E+02  0.00000000000E+00 0.  1.
          5    1    1    2  502    0 -0.24295362605E+02  0.12395913142E+02  0.94201424652E+02  0.98159584928E+02  0.41800000000E+01 0. -1.
         -5    1    1    2    0  502 -0.13643008627E+02  0.33518597176E+02 -0.35231211254E+02  0.50678779459E+02  0.41800000000E+01 0.  1.
        -11    1    1    2    0    0 -0.86254795396E+01  0.23179035673E+02  0.17422002481E+02  0.30252153022E+02  0.00000000000E+00 0.  1.
         11    1    1    2    0    0  0.46563850772E+02 -0.69093545991E+02  0.26746457128E+02  0.87507046946E+02  0.00000000000E+00 0. -1.
</event>
<event>
 6    1  0.8259171E-006  0.1058194E+03  0.7561462E-02  0.1268513E+00
         -2   -1    0    0    0  501 -0.00000000000E+00  0.00000000000E+00  0.36091862221E+03  0.36091862221E+03  0.00000000000E+00 0.  1.
          2   -1    0    0  501    0  0.00000000000E+00 -0.00000000000E+00 -0.85638453731E+02  0.85638453731E+02  0.00000000000E+00 0. -1.
          5    1    1    2  502    0 -0.18341848175E+02 -0.12913806573E+02  0.79646070085E+01  0.24168102108E+02  0.41800000000E+01 0. -1.
         -5    1    1    2    0  502  0.85990745067E+02 -0.18707843509E+02  0.28961074183E+03  0.30271479288E+03  0.41800000000E+01 0.  1.
        -11    1    1    2    0    0 -0.69007948686E+02  0.48143283805E+02  0.86326880192E+01  0.84583663079E+02  0.00000000000E+00 0. -1.
         11    1    1    2    0    0  0.13590517940E+01 -0.16521633723E+02 -0.30927868375E+02  0.35090517877E+02  0.00000000000E+00 0.  1.
</event>
<event>
 6    1  0.8259171E-006  0.1110045E+03  0.7561462E-02  0.1258721E+00
          2   -1    0    0  501    0  0.00000000000E+00  0.00000000000E+00  0.51261086319E+03  0.51261086319E+03  0.00000000000E+00 0. -1.
         -2   -1    0    0    0  501 -0.00000000000E+00 -0.00000000000E+00 -0.32512401360E+02  0.32512401360E+02  0.00000000000E+00 0.  1.
          5    1    1    2  502    0 -0.59870867804E+01 -0.74465961367E+02  0.49937758080E+02  0.89957082503E+02  0.41800000000E+01 0. -1.
         -5    1    1    2    0  502  0.29726168840E+02  0.34380014665E+02  0.10537428772E+03  0.11483398205E+03  0.41800000000E+01 0. -1.
        -11    1    1    2    0    0  0.33344808198E+02  0.30167380443E+01  0.11562907373E+03  0.12037881722E+03  0.00000000000E+00 0.  1.
         11    1    1    2    0    0 -0.57083890258E+02  0.37069208657E+02  0.20915734230E+03  0.21995338278E+03  0.00000000000E+00 0. -1.
</event>
<event>
 6    1  0.8259171E-006  0.1736555E+03  0.7561462E-02  0.1174088E+00
         -3   -1    0    0    0  501 -0.00000000000E+00  0.00000000000E+00  0.14450636762E+03  0.14450636762E+03  0.00000000000E+00 0.  1.
          3   -1    0    0  501    0  0.00000000000E+00 -0.00000000000E+00 -0.25066424242E+03  0.25066424242E+03  0.00000000000E+00 0. -1.
          5    1    1    2  502    0  0.11462824181E+03 -0.49900118660E+02  0.15760347236E+02  0.12607742307E+03  0.41800000000E+01 0.  1.
         -5    1    1    2    0  502 -0.25710444437E+02 -0.54773544223E+02  0.53377541903E+01  0.60886222741E+02  0.41800000000E+01 0.  1.
        -11    1    1    2    0    0  0.10303552217E+02  0.44173107883E+02 -0.55295461765E+02  0.71519331234E+02  0.00000000000E+00 0.  1.
         11    1    1    2    0    0 -0.99221349594E+02  0.60500555000E+02 -0.71960514468E+02  0.13668763299E+03  0.00000000000E+00 0. -1.
</event>
<event>
 6    1  0.8259171E-006  0.8784846E+02  0.7561462E-02  0.1308147E+00
          2   -1    0    0  501    0  0.00000000000E+00  0.00000000000E+00  0.19548355389E+03  0.19548355389E+03  0.00000000000E+00 0. -1.
         -2   -1    0    0    0  501 -0.00000000000E+00 -0.00000000000E+00 -0.68672306910E+02  0.68672306910E+02  0.00000000000E+00 0.  1.
          5    1    1    2  502    0  0.16253180742E+02 -0.28753634548E+01 -0.29521576433E+02  0.34079751677E+02  0.41800000000E+01 0.  1.
         -5    1    1    2    0  502 -0.51880923713E+02  0.35136822155E+02  0.98015398749E+02  0.11640754833E+03  0.41800000000E+01 0.  1.
        -11    1    1    2    0    0  0.62939227464E+02 -0.23621253100E+02  0.30793823388E+02  0.73943015293E+02  0.00000000000E+00 0. -1.
         11    1    1    2    0    0 -0.27311484493E+02 -0.86402056007E+01  0.27523601279E+02  0.39725545501E+02  0.00000000000E+00 0.  1.
</event>
<event>
 6    1  0.8259171E-006  0.8336893E+02  0.7561462E-02  0.1319754E+00
          3   -1    0    0  501    0  0.00000000000E+00  0.00000000000E+00  0.56710124337E+02  0.56710124337E+02  0.00000000000E+00 0. -1.
         -3   -1    0    0    0  501 -0.00000000000E+00 -0.00000000000E+00 -0.25518503644E+03  0.25518503644E+03  0.00000000000E+00 0.  1.
          5    1    1    2  502    0 -0.84180551648E+01  0.28912839251E+02 -0.13427839406E+03  0.13767706940E+03  0.41800000000E+01 0. -1.
         -5    1    1    2    0  502 -0.40933099810E+02 -0.76519027988E+01  0.13854279336E+02  0.44084960388E+02  0.41800000000E+01 0. -1.
        -11    1    1    2    0    0 -0.20939846122E+02  0.36093002317E+00 -0.44740479107E+02  0.49399573852E+02  0.00000000000E+00 0.  1.
         11    1    1    2    0    0  0.70291001096E+02 -0.21621866475E+02 -0.33310318271E+02  0.80733557139E+02  0.00000000000E+00 0. -1.
</event>
<event>
 6    1  0.8259171E-006  0.1043872E+03  0.7561462E-02  0.1271332E+00
         -2   -1    0    0    0  501 -0.00000000000E+00  0.00000000000E+00  0.19351822443E+02  0.19351822443E+02  0.00000000000E+00 0.  1.
          2   -1    0    0  501    0  0.00000000000E+00 -0.00000000000E+00 -0.68075381593E+03  0.68075381593E+03  0.00000000000E+00 0. -1.
          5    1    1    2  502    0  0.41773412949E+02 -0.22405220399E+02 -0.17688178202E+03  0.18317109254E+03  0.41800000000E+01 0.  1.
         -5    1    1    2    0  502 -0.60782913930E+02  0.31917127467E+02 -0.99664190671E+02  0.12109371971E+03  0.41800000000E+01 0.  1.
        -11    1    1    2    0    0  0.15168540409E+02  0.39983058560E+02 -0.19106875079E+03  0.19579580465E+03  0.00000000000E+00 0.  1.
         11    1    1    2    0    0  0.38409605724E+01 -0.49494965627E+02 -0.19378727001E+03  0.20004502148E+03  0.00000000000E+00 0. -1.
</event>
<event>
 6    1  0.8259171E-006  0.8353641E+02  0.7561462E-02  0.1319305E+00
         -1   -1    0    0    0  501 -0.00000000000E+00  0.00000000000E+00  0.39660133621E+02  0.39660133621E+02  0.00000000000E+00 0.  1.
          1   -1    0    0  501    0  0.00000000000E+00 -0.00000000000E+00 -0.43943598584E+03  0.43943598584E+03  0.00000000000E+00 0. -1.
          5    1    1    2  502    0 -0.40976914124E+01  0.21570444233E+02  0.22918993406E+02  0.32012931732E+02  0.41800000000E+01 0. -1.
         -5    1    1    2    0  502  0.31922451172E+01 -0.47696082988E+02 -0.11765388132E+03  0.12706303535E+03  0.41800000000E+01 0. -1.
        -11    1    1    2    0    0  0.38403965887E+02 -0.14866321157E+02 -0.13346852626E+03  0.13967719786E+03  0.00000000000E+00 0.  1.
         11    1    1    2    0    0 -0.37498519592E+02  0.40991959912E+02 -0.17157243804E+03  0.18034295452E+03  0.00000000000E+00 0. -1.
</event>
<event>
 6    1  0.8259171E-006  0.1069354E+03  0.7561462E-02  0.1266353E+00
          2   -1    0    0  501    0  0.00000000000E+00  0.00000000000E+00  0.16124317958E+03  0.16124317958E+03  0.00000000000E+00 0. -1.
         -2   -1    0    0    0  501 -0.00000000000E+00 -0.00000000000E+00 -0.10671247767E+03  0.10671247767E+03  0.00000000000E+00 0.  1.
          5    1    1    2  502    0  0.15597718652E+02  0.87553969330E+02 -0.35802082725E+02  0.95959615985E+02  0.41800000000E+01 0. -1.
         -5    1    1    2    0  502  0.77865087417E+01 -0.37275915571E+02  0.17445229308E+02  0.42094322962E+02  0.41800000000E+01 0. -1.
        -11    1    1    2    0    0 -0.44960603656E+02 -0.19652316809E+02  0.12780390157E+01  0.49084649543E+02  0.00000000000E+00 0.  1.
         11    1    1    2    0    0  0.21576376262E+02 -0.30625736949E+02  0.71609516314E+02  0.80817068760E+02  0.00000000000E+00 0. -1.
</event>
<event>
 6    1  0.8259171E-006  0.6564745E+02  0.7561462E-02  0.1375552E+00
          2   -1    0    0  501    0  0.00000000000E+00  0.00000000000E+00  0.12584665862E+03  0.12584665862E+03  0.00000000000E+00 0. -1.
         -2   -1    0    0    0  501 -0.00000000000E+00 -0.00000000000E+00 -0.12019208306E+03  0.12019208306E+03  0.00000000000E+00 0.  1.
          5    1    1    2  502    0 -0.20934308744E+02  0.39820583909E+01 -0.74157364954E+02  0.77271529353E+02  0.41800000000E+01 0. -1.
         -5    1    1    2    0  502  0.12429947722E+02  0.41010714202E+02  0.41584307960E+02  0.59859079079E+02  0.41800000000E+01 0. -1.
        -11    1    1    2    0    0  0.18837030518E+02  0.14989949443E+01 -0.24000158404E+02  0.30546494201E+02  0.00000000000E+00 0.  1.
         11    1    1    2    0    0 -0.10332669496E+02 -0.46491767537E+02  0.62227790955E+02  0.78361639051E+02  0.00000000000E+00 0. -1.
</event>
<event>
 6    1  0.8259171E-006  0.1190984E+03  0.7561462E-02  0.1244592E+00
          2   -1    0    0  501    0  0.00000000000E+00  0.00000000000E+00  0.13791746497E+03  0.13791746497E+03  0.00000000000E+00 0. -1.
         -2   -1    0    0    0  501 -0.00000000000E+00 -0.00000000000E+00 -0.11958850545E+03  0.11958850545E+03  0.00000000000E+00 0.  1.
          5    1    1    2  502    0  0.70890134075E+01  0.98347932146E+02  0.30047249097E+02  0.10316433224E+03  0.41800000000E+01 0. -1.
         -5    1    1    2    0  502  0.10101979023E+02 -0.32046031669E+02 -0.20821616603E+02  0.39749342685E+02  0.41800000000E+01 0. -1.
        -11    1    1    2    0    0 -0.16096326107E+02 -0.85204410216E+02 -0.10491834199E+02  0.87343928348E+02  0.00000000000E+00 0.  1.
         11    1    1    2    0    0 -0.10946663238E+01  0.18902509740E+02  0.19595161223E+02  0.27248367147E+02  0.00000000000E+00 0. -1.
</event>
<event>
 6    1  0.8259171E-006  0.1525403E+03  0.7561462E-02  0.1197386E+00
          2   -1    0    0  501    0  0.00000000000E+00  0.00000000000E+00  0.68388215330E+03  0.68388215330E+03  0.00000000000E+00 0. -1.
         -2   -1    0    0    0  501 -0.00000000000E+00 -0.00000000000E+00 -0.37636316772E+02  0.37636316772E+02  0.00000000000E+00 0.  1.
          5    1    1    2  502    0 -0.56853081499E+02  0.26921490568E+02  0.23726197618E+03  0.24549492311E+03  0.41800000000E+01 0. -1.
         -5    1    1    2    0  502  0.35511221436E+02 -0.10898213561E+03  0.16841164687E+03  0.20375992719E+03  0.41800000000E+01 0.  1.
        -11    1    1    2    0    0  0.59104565619E+02  0.43662078464E+02  0.13233920850E+03  0.15137170435E+03  0.00000000000E+00 0.  1.
         11    1    1    2    0    0 -0.37762705556E+02  0.38398566574E+02  0.10823300498E+03  0.12089191542E+03  0.00000000000E+00 0. -1.
</event>
<event>
 6    1  0.8259171E-006  0.6466737E+02  0.7561462E-02  0.1379227E+00
         -1   -1    0    0    0  501 -0.00000000000E+00  0.00000000000E+00  0.43353843944E+02  0.43353843944E+02  0.00000000000E+00 0.  1.
          1   -1    0    0  501    0  0.00000000000E+00 -0.00000000000E+00 -0.32611431452E+03  0.32611431452E+03  0.00000000000E+00 0. -1.
          5    1    1    2  502    0  0.10753905707E+02  0.24882767221E+02 -0.12197995678E+03  0.12502552079E+03  0.41800000000E+01 0. -1.
         -5    1    1    2    0  502 -0.31704650219E+02  0.14657495086E+02  0.21784575097E+02  0.41377132814E+02  0.41800000000E+01 0. -1.
        -11    1    1    2    0    0 -0.13085262206E+02 -0.27799140514E+02 -0.15419697860E+03  0.15722825608E+03  0.00000000000E+00 0. -1.
         11    1    1    2    0    0  0.34036006718E+02 -0.11741121794E+02 -0.28368110292E+02  0.45837248781E+02  0.00000000000E+00 0.  1.
</event>
<event>
 6    1  0.8259171E-006  0.9632504E+02  0.7561462E-02  0.1288219E+00
         -2   -1    0    0    0  501 -0.00000000000E+00  0.00000000000E+00  0.33953623177E+02  0.33953623177E+02  0.00000000000E+00 0.  1.
          2   -1    0    0  501    0  0.00000000000E+00 -0.00000000000E+00 -0.48013662157E+03  0.48013662157E+03  0.00000000000E+00 0. -1.
          5    1    1    2  502    0  0.60606043161E+02  0.47159231626E+02 -0.54940385590E+02  0.94514570115E+02  0.41800000000E+01 0.  1.
         -5    1    1    2    0  502  0.10879763622E+01 -0.27957721108E+02 -0.15967217083E+03  0.16215884928E+03  0.41800000000E+01 0.  1.
        -11    1    1    2    0    0 -0.35147663981E+02 -0.40351717181E+02 -0.51824379019E+02  0.74494198589E+02  0.00000000000E+00 0.  1.
         11    1    1    2    0    0 -0.26546355543E+02  0.21150206663E+02 -0.17974606296E+03  0.18292262676E+03  0.00000000000E+00 0. -1.
</event>
<event>
 6    1  0.8259171E-006  0.1457914E+03  0.7561462E-02  0.1205742E+00
         -2   -1    0    0    0  501 -0.00000000000E+00  0.00000000000E+00  0.25024009926E+02  0.25024009926E+02  0.00000000000E+00 0.  1.
          2   -1    0    0  501    0  0.00000000000E+00 -0.00000000000E+00 -0.11830332534E+04  0.11830332534E+04  0.00000000000E+00 0. -1.
          5    1    1    2  502    0  0.83655362869E+02  0.52144853423E+02 -0.19827638389E+03  0.22146851307E+03  0.41800000000E+01 0.  1.
         -5    1    1    2    0  502  0.27535777293E+02  0.67268420662E+01 -0.44220293643E+03  0.44313020527E+03  0.41800000000E+01 0.  1.
        -11    1    1    2    0    0 -0.69111927268E+02  0.22479629802E+02 -0.26689498042E+03  0.27661294767E+03  0.00000000000E+00 0. -1.
         11    1    1    2    0    0 -0.42079212894E+02 -0.81351325291E+02 -0.25063494276E+03  0.26684559734E+03  0.00000000000E+00 0.  1.
</event>
<event>
 6    1  0.8259171E-006  0.1995498E+03  0.7561462E-02  0.1150119E+00
         -1   -1    0    0    0  501 -0.00000000000E+00  0.00000000000E+00  0.89460938330E+03  0.89460938330E+03  0.00000000000E+00 0.  1.
          1   -1    0    0  501    0  0.00000000000E+00 -0.00000000000E+00 -0.48114594409E+02  0.48114594409E+02  0.00000000000E+00 0. -1.
          5    1    1    2  502    0  0.50828587838E+02 -0.21729782197E+02  0.16457925148E+03  0.17366499703E+03  0.41800000000E+01 0. -1.
         -5    1    1    2    0  502  0.80365253187E+02  0.13458966972E+03  0.35586244675E+03  0.38888109561E+03  0.41800000000E+01 0. -1.
        -11    1    1    2    0    0 -0.49429159078E+02 -0.24887522760E+01  0.14298793262E+03  0.15131088702E+03  0.00000000000E+00 0.  1.
         11    1    1    2    0    0 -0.81764681947E+02 -0.11037113524E+03  0.18306515803E+03  0.22886699804E+03  0.00000000000E+00 0. -1.
</event>
<event>
 6    1  0.8259171E-006  0.5738041E+02  0.7561462E-02  0.1409166E+00
          3   -1    0    0  501    0  0.00000000000E+00  0.00000000000E+00  0.83269725455E+02  0.83269725455E+02  0.00000000000E+00 0. -1.
         -3   -1    0    0    0  501 -0.00000000000E+00 -0.00000000000E+00 -0.31728974944E+03  0.31728974944E+03  0.00000000000E+00 0.  1.
          5    1    1    2  502    0  0.36758829876E+02  0.25521719289E+02 -0.49799282600E+02  0.67082118905E+02  0.41800000000E+01 0. -1.
         -5    1    1    2    0  502 -0.28778147882E+02 -0.25254713671E+02 -0.25401673217E+03  0.25692013347E+03  0.41800000000E+01 0.  1.
        -11    1    1    2    0    0 -0.11057098448E+02  0.13353254644E+02  0.42413157860E+02  0.45819698770E+02  0.00000000000E+00 0. -1.
         11    1    1    2    0    0  0.30764164534E+01 -0.13620260262E+02  0.27382832922E+02  0.30737523756E+02  0.00000000000E+00 0.  1.
</event>
<event>
 6    1  0.8259171E-006  0.1123559E+03  0.7561462E-02  0.1256268E+00
         -3   -1    0    0    0  501 -0.00000000000E+00  0.00000000000E+00  0.45958440708E+02  0.45958440708E+02  0.00000000000E+00 0.  1.
          3   -1    0    0  501    0  0.00000000000E+00 -0.00000000000E+00 -0.56604975994E+03  0.56604975994E+03  0.00000000000E+00 0. -1.
          5    1    1    2  502    0 -0.32874122797E+02  0.22545838644E+02  0.75377093315E+01  0.40783725330E+02  0.41800000000E+01 0. -1.
         -5    1    1    2    0  502  0.78840705198E+02  0.86718771573E+01 -0.85558339426E+02  0.11674228066E+03  0.41800000000E+01 0. -1.
        -11    1    1    2    0    0 -0.50788293222E+02  0.19392740503E+02 -0.21177994622E+03  0.21864646060E+03  0.00000000000E+00 0.  1.
         11    1    1    2    0    0  0.48217108215E+01 -0.50610456304E+02 -0.23029074292E+03  0.23583573405E+03  0.00000000000E+00 0. -1.
</event>
<event>
 6    1  0.8259171E-006  0.1217595E+03  0.7561462E-02  0.1240222E+00
         -2   -1    0    0    0  501 -0.00000000000E+00  0.00000000000E+00  0.18730977141E+03  0.18730977141E+03  0.00000000000E+00 0.  1.
          2   -1    0    0  501    0  0.00000000000E+00 -0.00000000000E+00 -0.11206896132E+03  0.11206896132E+03  0.00000000000E+00 0. -1.
          5    1    1    2  502    0  0.24718395463E+02 -0.28228040087E+02  0.37601285152E+02  0.53283678237E+02  0.41800000000E+01 0. -1.
         -5    1    1    2    0  502  0.19556478722E+02  0.11024277770E+03  0.24976129988E+02  0.11479200915E+03  0.41800000000E+01 0. -1.
        -11    1    1    2    0    0 -0.19944949161E+02 -0.47292395082E+02 -0.39005480838E+02  0.64465488170E+02  0.00000000000E+00 0. -1.
         11    1    1    2    0    0 -0.24329925024E+02 -0.34722342536E+02  0.51668875794E+02  0.66837557171E+02  0.00000000000E+00 0.  1.
</event>
<event>
 6    1  0.8259171E-006  0.1005597E+03  0.7561462E-02  0.1279123E+00
         -2   -1    0    0    0  501 -0.00000000000E+00  0.00000000000E+00  0.38146319376E+03  0.38146319376E+03  0.00000000000E+00 0.  1.
          2   -1    0    0  501    0  0.00000000000E+00 -0.00000000000E+00 -0.42847267393E+02  0.42847267393E+02  0.00000000000E+00 0. -1.
          5    1    1    2  502    0 -0.27761757009E+02  0.16165700016E+02  0.13021331177E+03  0.13418280058E+03  0.41800000000E+01 0. -1.
         -5    1    1    2    0  502  0.83432646104E+02 -0.37178442132E+02  0.10872689695E+03  0.14206425840E+03  0.41800000000E+01 0.  1.
        -11    1    1    2    0    0 -0.22527236348E+02  0.34746187860E+02  0.10398711349E+03  0.11192896730E+03  0.00000000000E+00 0.  1.
         11    1    1    2    0    0 -0.33143652747E+02 -0.13733445743E+02 -0.43113958442E+01  0.36134434872E+02  0.00000000000E+00 0. -1.
</event>
<event>
 6    1  0.8259171E-006  0.8642683E+02  0.7561462E-02  0.1311743E+00
          2   -1    0    0  501    0  0.00000000000E+00  0.00000000000E+00  0.86368330682E+02  0.86368330682E+02  0.00000000000E+00 0. -1.
         -2   -1    0    0    0  501 -0.00000000000E+00 -0.00000000000E+00 -0.17412826449E+03  0.17412826449E+03  0.00000000000E+00 0.  1.
          5    1    1    2  502    0  0.53261337467E+01 -0.49873446235E+02 -0.37262116802E+02  0.62623207268E+02  0.41800000000E+01 0. -1.
         -5    1    1    2    0  502  0.62678329983E+00  0.77876195083E+02 -0.59503649496E+02  0.98098171855E+02  0.41800000000E+01 0. -1.
        -11    1    1    2    0    0 -0.16191112440E+02 -0.30009694220E+02 -0.38330581170E+02  0.51302702873E+02  0.00000000000E+00 0.  1.
         11    1    1    2    0    0  0.10238195393E+02  0.20069453713E+01  0.47336413664E+02  0.48472513172E+02  0.00000000000E+00 0. -1.
</event>
<event>
 6    1  0.8259171E-006  0.1133897E+03  0.7561462E-02  0.1254418E+00
          1   -1    0    0  501    0  0.00000000000E+00  0.00000000000E+00  0.47249166207E+02  0.47249166207E+02  0.00000000000E+00 0. -1.
         -1   -1    0    0    0  501 -0.00000000000E+00 -0.00000000000E+00 -0.37125223526E+03  0.37125223526E+03  0.00000000000E+00 0.  1.
          5    1    1    2  502    0  0.44991546664E+02 -0.26903049990E+02 -0.24570423962E+02  0.58044737088E+02  0.41800000000E+01 0. -1.
         -5    1    1    2    0  502  0.12558018187E+01  0.83664198430E+02 -0.12282653555E+03  0.14867785771E+03  0.41800000000E+01 0. -1.
        -11    1    1    2    0    0 -0.49945409244E+02 -0.20539907599E+02 -0.16492462736E+03  0.17354124703E+03  0.00000000000E+00 0. -1.
         11    1    1    2    0    0  0.36980607610E+01 -0.36221240841E+02 -0.11681482173E+02  0.38237559639E+02  0.00000000000E+00 0.  1.
</event>
<event>
 6    1  0.8259171E-006  0.1040813E+03  0.7561462E-02  0.1271940E+00
          3   -1    0    0  501    0  0.00000000000E+00  0.00000000000E+00  0.20315799693E+03  0.20315799693E+03  0.00000000000E+00 0. -1.
         -3   -1    0    0    0  501 -0.00000000000E+00 -0.00000000000E+00 -0.85749853181E+02  0.85749853181E+02  0.00000000000E+00 0.  1.
          5    1    1    2  502    0  0.27426851333E+01 -0.50929431350E+02  0.24044369825E+01  0.51230684326E+02  0.41800000000E+01 0. -1.
         -5    1    1    2    0  502 -0.73259073793E+02  0.36962130028E+02  0.81200071811E+02  0.11551629760E+03  0.41800000000E+01 0. -1.
        -11    1    1    2    0    0  0.52109223098E+02  0.19449126731E+02  0.64985917662E+02  0.85538349042E+02  0.00000000000E+00 0. -1.
         11    1    1    2    0    0  0.18407165562E+02 -0.54818254095E+01 -0.31182282704E+02  0.36622519144E+02  0.00000000000E+00 0.  1.
</event>
<event>
 6    1  0.8259171E-006  0.9967388E+02  0.7561462E-02  0.1280983E+00
         -1   -1    0    0    0  501 -0.00000000000E+00  0.00000000000E+00  0.17587598796E+02  0.17587598796E+02  0.00000000000E+00 0.  1.
          1   -1    0    0  501    0  0.00000000000E+00 -0.00000000000E+00 -0.68476756585E+03  0.68476756585E+03  0.00000000000E+00 0. -1.
          5    1    1    2  502    0  0.29344680636E+02 -0.20603770608E+02 -0.46536193954E+02  0.58895801146E+02  0.41800000000E+01 0. -1.
         -5    1    1    2    0  502 -0.57475159768E+02  0.28578461172E+02 -0.31502228311E+03  0.32152236888E+03  0.41800000000E+01 0.  1.
        -11    1    1    2    0    0  0.21810292456E+02  0.42652308216E+02 -0.18204453572E+03  0.18824218772E+03  0.00000000000E+00 0.  1.
         11    1    1    2    0    0  0.63201866763E+01 -0.50626998781E+02 -0.12357695427E+03  0.13369480690E+03  0.00000000000E+00 0. -1.
</event>
<event>
 6    1  0.9835590E-006  0.1612569E+03  0.7561462E-02  0.1187285E+00
         -1   -1    0    0    0  501 -0.00000000000E+00  0.00000000000E+00  0.11641618447E+03  0.11641618447E+03  0.00000000000E+00 0.  1.
          1   -1    0    0  501    0  0.00000000000E+00 -0.00000000000E+00 -0.31265737323E+03  0.31265737323E+03  0.00000000000E+00 0. -1.
          5    1    1    2  502    0  0.53064388423E+02  0.29454827929E+02  0.30699442455E+02  0.68142089593E+02  0.41800000000E+01 0.  1.
         -5    1    1    2    0  502  0.80757876851E+02  0.50002775223E+02 -0.11339069850E+03  0.14797646810E+03  0.41800000000E+01 0.  1.
        -11    1    1    2    0    0 -0.30638804243E+02  0.76357634423E+01  0.65464529466E+01  0.32247437959E+02  0.00000000000E+00 0.  1.
         11    1    1    2    0    0 -0.10318346103E+03 -0.87093366594E+02 -0.12009638566E+03  0.18070756205E+03  0.00000000000E+00 0. -1.
</event>
<event>
 6    1  0.8259171E-006  0.1123216E+03  0.7561462E-02  0.1256330E+00
         -1   -1    0    0    0  501 -0.00000000000E+00  0.00000000000E+00  0.38514024987E+02  0.38514024987E+02  0.00000000000E+00 0.  1.
          1   -1    0    0  501    0  0.00000000000E+00 -0.00000000000E+00 -0.38800227747E+03  0.38800227747E+03  0.00000000000E+00 0. -1.
          5    1    1    2  502    0 -0.17856028987E+02 -0.72798288144E+02 -0.10339336778E+03  0.12777358658E+03  0.41800000000E+01 0.  1.
         -5    1    1    2    0  502  0.52831285748E+02  0.30515658221E+02 -0.69676994565E+02  0.92707637884E+02  0.41800000000E+01 0.  1.
        -11    1    1    2    0    0 -0.32654746486E+02 -0.11472342279E+02 -0.18589916830E+02  0.39287811255E+02  0.00000000000E+00 0.  1.
         11    1    1    2    0    0 -0.23205102747E+01  0.53754972201E+02 -0.15782797331E+03  0.16674726673E+03  0.00000000000E+00 0. -1.
</event>
<event>
 6    1  0.8259171E-006  0.6894608E+02  0.7561462E-02  0.1363714E+00
         -2   -1    0    0    0  501 -0.00000000000E+00  0.00000000000E+00  0.13918388317E+03  0.13918388317E+03  0.00000000000E+00 0.  1.
          2   -1    0    0  501    0  0.00000000000E+00 -0.00000000000E+00 -0.86980280679E+02  0.86980280679E+02  0.00000000000E+00 0. -1.
          5    1    1    2  502    0  0.97773302431E+01  0.27887612151E+02  0.81729339520E+02  0.87008461867E+02  0.41800000000E+01 0.  1.
         -5    1    1    2    0  502 -0.17388677412E+02 -0.10877040647E+02 -0.40854410651E+02  0.45904590022E+02  0.41800000000E+01 0.  1.
        -11    1    1    2    0    0 -0.38776871298E+02 -0.42905223420E+01 -0.10540634501E+02  0.40412365747E+02  0.00000000000E+00 0.  1.
         11    1    1    2    0    0  0.46388218467E+02 -0.12720049162E+02  0.21869308120E+02  0.52838746208E+02  0.00000000000E+00 0. -1.
</event>
<event>
 6    1  0.8259171E-006  0.2047006E+03  0.7561462E-02  0.1145833E+00
         -2   -1    0    0    0  501 -0.00000000000E+00  0.00000000000E+00  0.70949443461E+02  0.70949443461E+02  0.00000000000E+00 0.  1.
          2   -1    0    0  501    0  0.00000000000E+00 -0.00000000000E+00 -0.76856908299E+03  0.76856908299E+03  0.00000000000E+00 0. -1.
          5    1    1    2  502    0  0.15387447701E+03  0.18907418523E+02 -0.27040904817E+03  0.31172643597E+03  0.41800000000E+01 0.  1.
         -5    1    1    2    0  502  0.46970415881E+02 -0.18190791620E+02 -0.41356465796E+01  0.50711939822E+02  0.41800000000E+01 0.  1.
        -11    1    1    2    0    0 -0.80379601687E+02  0.16573199016E+02 -0.26601755612E+03  0.27838981924E+03  0.00000000000E+00 0.  1.
         11    1    1    2    0    0 -0.12046529121E+03 -0.17289825918E+02 -0.15705738866E+03  0.19869033142E+03  0.00000000000E+00 0. -1.
</event>
<event>
 6    1  0.8259171E-006  0.1000803E+03  0.7561462E-02  0.1280127E+00
          2   -1    0    0  501    0  0.00000000000E+00  0.00000000000E+00  0.26076621386E+03  0.26076621386E+03  0.00000000000E+00 0. -1.
         -2   -1    0    0    0  501 -0.00000000000E+00 -0.00000000000E+00 -0.81195995161E+02  0.81195995161E+02  0.00000000000E+00 0.  1.
          5    1    1    2  502    0 -0.43309680579E+01 -0.14091432063E+01 -0.34451467154E+02  0.35001699358E+02  0.41800000000E+01 0. -1.
         -5    1    1    2    0  502 -0.23011676584E+02 -0.88073169540E+02  0.97501577302E+02  0.13345579953E+03  0.41800000000E+01 0. -1.
        -11    1    1    2    0    0 -0.11505493928E+02  0.25926097816E+02 -0.70430457507E+01  0.29225732359E+02  0.00000000000E+00 0.  1.
         11    1    1    2    0    0  0.38848138570E+02  0.63556214931E+02  0.12356315430E+03  0.14427897778E+03  0.00000000000E+00 0. -1.
</event>
<event>
 6    1  0.8259171E-006  0.1936663E+03  0.7561462E-02  0.1155195E+00
         -3   -1    0    0    0  501 -0.00000000000E+00  0.00000000000E+00  0.18368092539E+03  0.18368092539E+03  0.00000000000E+00 0.  1.
          3   -1    0    0  501    0  0.00000000000E+00 -0.00000000000E+00 -0.27306861231E+03  0.27306861231E+03  0.00000000000E+00 0. -1.
          5    1    1    2  502    0  0.41600174615E+02 -0.56821200196E+02 -0.11188897238E+02  0.71427495694E+02  0.41800000000E+01 0. -1.
         -5    1    1    2    0  502 -0.76342277265E+02 -0.11503693437E+03  0.53284991297E+02  0.14804864831E+03  0.41800000000E+01 0. -1.
        -11    1    1    2    0    0  0.56413401091E+01  0.11160251512E+03 -0.29978144969E+02  0.11569630623E+03  0.00000000000E+00 0.  1.
         11    1    1    2    0    0  0.29100762541E+02  0.60255619452E+02 -0.10150563601E+03  0.12157708747E+03  0.00000000000E+00 0. -1.
</event>
<event>
 6    1  0.8259171E-006  0.1098674E+03  0.7561462E-02  0.1260816E+00
         -1   -1    0    0    0  501 -0.00000000000E+00  0.00000000000E+00  0.34158836450E+02  0.34158836450E+02  0.00000000000E+00 0.  1.
          1   -1    0    0  501    0  0.00000000000E+00 -0.00000000000E+00 -0.39161409615E+03  0.39161409615E+03  0.00000000000E+00 0. -1.
          5    1    1    2  502    0  0.31899175191E+02 -0.30682815376E+02 -0.48134892010E+02  0.65524291420E+02  0.41800000000E+01 0. -1.
         -5    1    1    2    0  502 -0.68473844399E+02  0.48770218743E+02 -0.15801793982E+03  0.17903726793E+03  0.41800000000E+01 0. -1.
        -11    1    1    2    0    0  0.21568942213E+02 -0.50760339407E+02 -0.52799853065E+02  0.76352182736E+02  0.00000000000E+00 0.  1.
         11    1    1    2    0    0  0.15005726995E+02  0.32672936040E+02 -0.98502574799E+02  0.10485919051E+03  0.00000000000E+00 0. -1.
</event>
<event>
 6    1  0.8259171E-006  0.1416672E+03  0.7561462E-02  0.1211103E+00
         -1   -1    0    0    0  501 -0.00000000000E+00  0.00000000000E+00  0.34959818973E+02  0.34959818973E+02  0.00000000000E+00 0.  1.
          1   -1    0    0  501    0  0.00000000000E+00 -0.00000000000E+00 -0.73891795733E+03  0.73891795733E+03  0.00000000000E+00 0. -1.
          5    1    1    2  502    0 -0.10366413832E+03  0.46017768727E+02 -0.15574109709E+03  0.19270871888E+03  0.41800000000E+01 0.  1.
         -5    1    1    2    0  502  0.37036714844E+02  0.18213716875E+02 -0.43745152669E+02  0.60287382684E+02  0.41800000000E+01 0.  1.
        -11    1    1    2    0    0  0.50559548372E+02  0.10733770057E+02 -0.24108020426E+03  0.24655860690E+03  0.00000000000E+00 0. -1.
         11    1    1    2    0    0  0.16067875102E+02 -0.74965255659E+02 -0.26339168434E+03  0.27432306784E+03  0.00000000000E+00 0.  1.
</event>
<event>
 6    1  0.8259171E-006  0.1792123E+03  0.7561462E-02  0.1168568E+00
          1   -1    0    0  501    0  0.00000000000E+00  0.00000000000E+00  0.64754704892E+03  0.64754704892E+03  0.00000000000E+00 0. -1.
         -1   -1    0    0    0  501 -0.00000000000E+00 -0.00000000000E+00 -0.64538607134E+02  0.64538607134E+02  0.00000000000E+00 0.  1.
          5    1    1    2  502    0  0.50788886369E+02  0.47119023632E+02  0.17840569102E+03  0.19143086573E+03  0.41800000000E+01 0. -1.
         -5    1    1    2    0  502  0.11600990092E+03 -0.91294122897E+01  0.73226027610E+02  0.13755423222E+03  0.41800000000E+01 0. -1.
        -11    1    1    2    0    0 -0.28321357554E+02  0.21345736671E+01  0.14348466225E+03  0.14626860223E+03  0.00000000000E+00 0. -1.
         11    1    1    2    0    0 -0.13847742974E+03 -0.40124185010E+02  0.18789206090E+03  0.23683195587E+03  0.00000000000E+00 0.  1.
</event>
<event>
 6    1  0.8259171E-006  0.1252181E+03  0.7561462E-02  0.1234729E+00
         -1   -1    0    0    0  501 -0.00000000000E+00  0.00000000000E+00  0.41257275722E+02  0.41257275722E+02  0.00000000000E+00 0. -1.
          1   -1    0    0  501    0  0.00000000000E+00 -0.00000000000E+00 -0.70819891099E+03  0.70819891099E+03  0.00000000000E+00 0.  1.
          5    1    1    2  502    0  0.92638821577E+02  0.35775608852E+02 -0.20856339915E+03  0.23103681377E+03  0.41800000000E+01 0. -1.
         -5    1    1    2    0  502  0.11098641862E+02 -0.70772678940E+01  0.16935958243E+02  0.21853298461E+02  0.41800000000E+01 0. -1.
        -11    1    1    2    0    0 -0.48822184689E+02 -0.57328333764E+02 -0.18534594395E+03  0.20005814782E+03  0.00000000000E+00 0. -1.
         11    1    1    2    0    0 -0.54915278750E+02  0.28629992805E+02 -0.28996825041E+03  0.29650792666E+03  0.00000000000E+00 0.  1.
</event>
<event>
 6    1  0.8259171E-006  0.1562380E+03  0.7561462E-02  0.1193011E+00
          2   -1    0    0  501    0  0.00000000000E+00  0.00000000000E+00  0.20993861328E+03  0.20993861328E+03  0.00000000000E+00 0. -1.
         -2   -1    0    0    0  501 -0.00000000000E+00 -0.00000000000E+00 -0.24483624991E+03  0.24483624991E+03  0.00000000000E+00 0.  1.
          5    1    1    2  502    0  0.12403795536E+03  0.66835041803E+02 -0.60349419515E+02  0.15333578192E+03  0.41800000000E+01 0. -1.
         -5    1    1    2    0  502 -0.21090286844E+01  0.16851704856E+02 -0.90491000993E+02  0.92165729093E+02  0.41800000000E+01 0. -1.
        -11    1    1    2    0    0 -0.28504579387E+02  0.14251896771E+00  0.70047336594E+02  0.75625132870E+02  0.00000000000E+00 0. -1.
         11    1    1    2    0    0 -0.93424347288E+02 -0.83829265628E+02  0.45895447281E+02  0.13364821930E+03  0.00000000000E+00 0.  1.
</event>
<event>
 6    1  0.8259171E-006  0.1195241E+03  0.7561462E-02  0.1243884E+00
         -2   -1    0    0    0  501 -0.00000000000E+00  0.00000000000E+00  0.98468106725E+02  0.98468106725E+02  0.00000000000E+00 0. -1.
          2   -1    0    0  501    0  0.00000000000E+00 -0.00000000000E+00 -0.21650747842E+03  0.21650747842E+03  0.00000000000E+00 0.  1.
          5    1    1    2  502    0 -0.24127413070E+02  0.32158996277E+02  0.71621859012E+01  0.41049998902E+02  0.41800000000E+01 0.  1.
         -5    1    1    2    0  502  0.42283765518E+02 -0.88056722856E+02  0.13968051200E+02  0.98764781784E+02  0.41800000000E+01 0.  1.
        -11    1    1    2    0    0  0.46066050208E+01  0.72522318985E+02 -0.71911266596E+02  0.10223471927E+03  0.00000000000E+00 0. -1.
         11    1    1    2    0    0 -0.22762957468E+02 -0.16624592405E+02 -0.67258342196E+02  0.72926085185E+02  0.00000000000E+00 0.  1.
</event>
<event>
 6    1  0.8259171E-006  0.1087415E+03  0.7561462E-02  0.1262918E+00
          3   -1    0    0  501    0  0.00000000000E+00  0.00000000000E+00  0.55944610225E+03  0.55944610225E+03  0.00000000000E+00 0. -1.
         -3   -1    0    0    0  501 -0.00000000000E+00 -0.00000000000E+00 -0.58655058170E+02  0.58655058170E+02  0.00000000000E+00 0.  1.
          5    1    1    2  502    0  0.47552346407E+01 -0.61678931597E+02 -0.18003786119E+02  0.64564011446E+02  0.41800000000E+01 0. -1.
         -5    1    1    2    0  502  0.33301230938E+02  0.41710761643E+02  0.48443382345E+02  0.72201061709E+02  0.41800000000E+01 0.  1.
        -11    1    1    2    0    0  0.30583897537E+02  0.11950117614E+02  0.13471692366E+03  0.13866084386E+03  0.00000000000E+00 0. -1.
         11    1    1    2    0    0 -0.68640363116E+02  0.80180523398E+01  0.33563452419E+03  0.34267524340E+03  0.00000000000E+00 0.  1.
</event>
<event>
 6    1  0.8259171E-006  0.5710561E+03  0.7561462E-02  0.9967344E-01
         -1   -1    0    0    0  501 -0.00000000000E+00  0.00000000000E+00  0.58246311615E+03  0.58246311615E+03  0.00000000000E+00 0.  1.
          1   -1    0    0  501    0  0.00000000000E+00 -0.00000000000E+00 -0.68329692163E+03  0.68329692163E+03  0.00000000000E+00 0. -1.
          5    1    1    2  502    0 -0.13463222106E+03 -0.50162083927E+02 -0.11396213081E+03  0.18343093869E+03  0.41800000000E+01 0.  1.
         -5    1    1    2    0  502 -0.31172551209E+03 -0.29837574061E+03 -0.19238542592E+03  0.47247275263E+03  0.41800000000E+01 0.  1.
        -11    1    1    2    0    0  0.41376046414E+02  0.23683051407E+02  0.47187065036E+02  0.67078187569E+02  0.00000000000E+00 0.  1.
         11    1    1    2    0    0  0.40498168673E+03  0.32485477313E+03  0.15832668621E+03  0.54277815890E+03  0.00000000000E+00 0. -1.
</event>
<event>
 6    1  0.8259171E-006  0.1520384E+03  0.7561462E-02  0.1197990E+00
         -2   -1    0    0    0  501 -0.00000000000E+00  0.00000000000E+00  0.15526917867E+03  0.15526917867E+03  0.00000000000E+00 0. -1.
          2   -1    0    0  501    0  0.00000000000E+00 -0.00000000000E+00 -0.19217402141E+03  0.19217402141E+03  0.00000000000E+00 0.  1.
          5    1    1    2  502    0  0.74295464777E+02  0.12469714566E+02  0.57934704159E+02  0.95127347350E+02  0.41800000000E+01 0.  1.
         -5    1    1    2    0  502  0.30347196938E+02 -0.74612275289E+02 -0.20823923380E+02  0.83300973408E+02  0.41800000000E+01 0.  1.
        -11    1    1    2    0    0 -0.68903632581E+02 -0.78815445494E+01 -0.53981227128E+02  0.87885164900E+02  0.00000000000E+00 0.  1.
         11    1    1    2    0    0 -0.35739029134E+02  0.70024105272E+02 -0.20034396395E+02  0.81129714417E+02  0.00000000000E+00 0. -1.
</event>
<event>
 6    1  0.8259171E-006  0.1175843E+03  0.7561462E-02  0.1247136E+00
          1   -1    0    0  501    0  0.00000000000E+00  0.00000000000E+00  0.57129218030E+03  0.57129218030E+03  0.00000000000E+00 0. -1.
         -1   -1    0    0    0  501 -0.00000000000E+00 -0.00000000000E+00 -0.37954807809E+02  0.37954807809E+02  0.00000000000E+00 0.  1.
          5    1    1    2  502    0  0.13609276612E+02 -0.50757998621E+02  0.10897931771E+03  0.12106011285E+03  0.41800000000E+01 0. -1.
         -5    1    1    2    0  502 -0.87080006254E+02  0.11597907892E+02  0.68432464214E+02  0.11143569229E+03  0.41800000000E+01 0. -1.
        -11    1    1    2    0    0  0.24282004830E+02 -0.87768299325E+01  0.16947561556E+02  0.30884759104E+02  0.00000000000E+00 0.  1.
         11    1    1    2    0    0  0.49188724813E+02  0.47936920661E+02  0.33897802901E+03  0.34586642387E+03  0.00000000000E+00 0. -1.
</event>
<event>
 6    1  0.8259171E-006  0.1226801E+03  0.7561462E-02  0.1238740E+00
         -1   -1    0    0    0  501 -0.00000000000E+00  0.00000000000E+00  0.68569778190E+03  0.68569778190E+03  0.00000000000E+00 0.  1.
          1   -1    0    0  501    0  0.00000000000E+00 -0.00000000000E+00 -0.26864095109E+02  0.26864095109E+02  0.00000000000E+00 0. -1.
          5    1    1    2  502    0 -0.31890571159E+02  0.88591245049E+02  0.36786584647E+03  0.37974750905E+03  0.41800000000E+01 0.  1.
         -5    1    1    2    0  502 -0.20172793221E+02 -0.30356394931E+02  0.41584553038E+02  0.55454483597E+02  0.41800000000E+01 0.  1.
        -11    1    1    2    0    0 -0.10189493717E+02 -0.50703841011E+02  0.67928391742E+02  0.85375474699E+02  0.00000000000E+00 0. -1.
         11    1    1    2    0    0  0.62252858098E+02 -0.75310091077E+01  0.18145489554E+03  0.19198440967E+03  0.00000000000E+00 0.  1.
</event>
<event>
 6    1  0.8259171E-006  0.1088849E+03  0.7561462E-02  0.1262649E+00
          2   -1    0    0  501    0  0.00000000000E+00  0.00000000000E+00  0.35456096230E+02  0.35456096230E+02  0.00000000000E+00 0. -1.
         -2   -1    0    0    0  501 -0.00000000000E+00 -0.00000000000E+00 -0.37471283600E+03  0.37471283600E+03  0.00000000000E+00 0.  1.
          5    1    1    2  502    0  0.24765716694E+02  0.48820085791E+02 -0.10411620681E+03  0.11770470858E+03  0.41800000000E+01 0. -1.
         -5    1    1    2    0  502 -0.49478519824E+02 -0.51039802866E+02 -0.15434157062E+03  0.16997640489E+03  0.41800000000E+01 0.  1.
        -11    1    1    2    0    0 -0.28485674271E+02 -0.19155446312E+02 -0.24831343761E+02  0.42366972927E+02  0.00000000000E+00 0.  1.
         11    1    1    2    0    0  0.53198477400E+02  0.21375163386E+02 -0.55967618585E+02  0.80120845836E+02  0.00000000000E+00 0. -1.
</event>
<event>
 6    1  0.8259171E-006  0.1422464E+03  0.7561462E-02  0.1210338E+00
          1   -1    0    0  501    0  0.00000000000E+00  0.00000000000E+00  0.42288807526E+03  0.42288807526E+03  0.00000000000E+00 0. -1.
         -1   -1    0    0    0  501 -0.00000000000E+00 -0.00000000000E+00 -0.52527658167E+02  0.52527658167E+02  0.00000000000E+00 0.  1.
          5    1    1    2  502    0  0.26718385915E+02 -0.66534617112E+02  0.81264703167E+02  0.10845345454E+03  0.41800000000E+01 0.  1.
         -5    1    1    2    0  502 -0.82364554677E+02 -0.10238608882E+02  0.57507689251E+02  0.10106114833E+03  0.41800000000E+01 0.  1.
        -11    1    1    2    0    0  0.71238651831E+02  0.24999681894E+02  0.15149576551E+03  0.16926575725E+03  0.00000000000E+00 0.  1.
         11    1    1    2    0    0 -0.15592483069E+02  0.51773544100E+02  0.80092259166E+02  0.96635373313E+02  0.00000000000E+00 0. -1.
</event>
<event>
 6    1  0.8259171E-006  0.9923443E+02  0.7561462E-02  0.1281914E+00
         -2   -1    0    0    0  501 -0.00000000000E+00  0.00000000000E+00  0.90281678322E+02  0.90281678322E+02  0.00000000000E+00 0.  1.
          2   -1    0    0  501    0  0.00000000000E+00 -0.00000000000E+00 -0.18833889313E+03  0.18833889313E+03  0.00000000000E+00 0. -1.
          5    1    1    2  502    0 -0.35077948217E+02 -0.38747755955E+01  0.12301156421E+02  0.37606743895E+02  0.41800000000E+01 0. -1.
         -5    1    1    2    0  502  0.70487059059E+02  0.60927666571E+02 -0.65656671918E+02  0.11405646416E+03  0.41800000000E+01 0. -1.
        -11    1    1    2    0    0 -0.15145416990E+02 -0.41334926121E+02  0.26427960164E+02  0.51345855252E+02  0.00000000000E+00 0.  1.
         11    1    1    2    0    0 -0.20263693852E+02 -0.15717964854E+02 -0.71129659474E+02  0.75611508149E+02  0.00000000000E+00 0. -1.
</event>
<event>
 6    1  0.8259171E-006  0.1443605E+03  0.7561462E-02  0.1207579E+00
          2   -1    0    0  501    0  0.00000000000E+00  0.00000000000E+00  0.70183236130E+03  0.70183236130E+03  0.00000000000E+00 0. -1.
         -2   -1    0    0    0  501 -0.00000000000E+00 -0.00000000000E+00 -0.37922021655E+02  0.37922021655E+02  0.00000000000E+00 0.  1.
          5    1    1    2  502    0 -0.80310900530E+02  0.72058516687E+01  0.86432741081E+02  0.11827872240E+03  0.41800000000E+01 0. -1.
         -5    1    1    2    0  502  0.75882851660E+00  0.80566536749E+02  0.20445709876E+03  0.21979927274E+03  0.41800000000E+01 0. -1.
        -11    1    1    2    0    0  0.99957160268E+01  0.51377497745E+01  0.23475879664E+00  0.11241259864E+02  0.00000000000E+00 0.  1.
         11    1    1    2    0    0  0.69556355987E+02 -0.92910138192E+02  0.37278574101E+03  0.39043512795E+03  0.00000000000E+00 0. -1.
</event>
<event>
 6    1  0.8259171E-006  0.2143582E+03  0.7561462E-02  0.1138161E+00
          2   -1    0    0  501    0  0.00000000000E+00  0.00000000000E+00  0.46159562749E+03  0.46159562749E+03  0.00000000000E+00 0. -1.
         -2   -1    0    0    0  501 -0.00000000000E+00 -0.00000000000E+00 -0.10724539773E+03  0.10724539773E+03  0.00000000000E+00 0.  1.
          5    1    1    2  502    0 -0.26611649072E+02  0.18918003229E+02  0.71494872197E+02  0.78708702587E+02  0.41800000000E+01 0.  1.
         -5    1    1    2    0  502  0.84630235902E+02  0.16579763299E+03  0.12588238232E+03  0.22475537483E+03  0.41800000000E+01 0.  1.
        -11    1    1    2    0    0 -0.87881420417E+01 -0.14782343232E+03  0.85195043455E+02  0.17084260011E+03  0.00000000000E+00 0.  1.
         11    1    1    2    0    0 -0.49230444788E+02 -0.36892203900E+02  0.71777931784E+02  0.94534347693E+02  0.00000000000E+00 0. -1.
</event>
<event>
 6    1  0.8259171E-006  0.9579396E+02  0.7561462E-02  0.1289398E+00
         -4   -1    0    0    0  501 -0.00000000000E+00  0.00000000000E+00  0.12606248779E+03  0.12606248779E+03  0.00000000000E+00 0.  1.
          4   -1    0    0  501    0  0.00000000000E+00 -0.00000000000E+00 -0.98070913841E+02  0.98070913841E+02  0.00000000000E+00 0. -1.
          5    1    1    2  502    0  0.11522117938E+02 -0.62646672513E+02  0.23520233506E+01  0.63877767592E+02  0.41800000000E+01 0.  1.
         -5    1    1    2    0  502 -0.23626792817E+02  0.52630217624E+02  0.35026776125E+02  0.67620356341E+02  0.41800000000E+01 0.  1.
        -11    1    1    2    0    0 -0.22728686858E+02  0.23376421688E+02  0.25626982891E+02  0.41470381591E+02  0.00000000000E+00 0.  1.
         11    1    1    2    0    0  0.34833361737E+02 -0.13359966799E+02 -0.35014208416E+02  0.51164896108E+02  0.00000000000E+00 0. -1.
</event>
<event>
 6    1  0.8259171E-006  0.1301024E+03  0.7561462E-02  0.1227304E+00
          1   -1    0    0  501    0  0.00000000000E+00  0.00000000000E+00  0.14935495505E+03  0.14935495505E+03  0.00000000000E+00 0. -1.
         -1   -1    0    0    0  501 -0.00000000000E+00 -0.00000000000E+00 -0.16602683203E+03  0.16602683203E+03  0.00000000000E+00 0.  1.
          5    1    1    2  502    0  0.30144178899E+01 -0.54980075431E+02 -0.39512485116E+02  0.67901430689E+02  0.41800000000E+01 0.  1.
         -5    1    1    2    0  502  0.92742057990E+02  0.38444140958E+02 -0.28199710351E+02  0.10436348671E+03  0.41800000000E+01 0.  1.
        -11    1    1    2    0    0 -0.85151569388E+02  0.35076625926E+00 -0.35218853853E+01  0.85225093035E+02  0.00000000000E+00 0.  1.
         11    1    1    2    0    0 -0.10604906493E+02  0.16185168214E+02  0.54562203867E+02  0.57891776642E+02  0.00000000000E+00 0. -1.
</event>
<event>
 6    1  0.8259171E-006  0.1543075E+03  0.7561462E-02  0.1195278E+00
          1   -1    0    0  501    0  0.00000000000E+00  0.00000000000E+00  0.15379130227E+04  0.15379130227E+04  0.00000000000E+00 0. -1.
         -1   -1    0    0    0  501 -0.00000000000E+00 -0.00000000000E+00 -0.17777878237E+02  0.17777878237E+02  0.00000000000E+00 0.  1.
          5    1    1    2  502    0 -0.11651413602E+03 -0.42733769408E+02  0.85317754463E+03  0.86216652336E+03  0.41800000000E+01 0. -1.
         -5    1    1    2    0  502  0.28719175366E+02 -0.27804325430E+02  0.16462924459E+03  0.16946425027E+03  0.41800000000E+01 0. -1.
        -11    1    1    2    0    0  0.10580784193E+03  0.50297184833E+02  0.34328852271E+03  0.36272870859E+03  0.00000000000E+00 0.  1.
         11    1    1    2    0    0 -0.18012881276E+02  0.20240910005E+02  0.15903983256E+03  0.16133141873E+03  0.00000000000E+00 0. -1.
</event>
<event>
 6    1  0.8259171E-006  0.9028483E+02  0.7561462E-02  0.1302163E+00
          2   -1    0    0  501    0  0.00000000000E+00  0.00000000000E+00  0.50287371018E+02  0.50287371018E+02  0.00000000000E+00 0. -1.
         -2   -1    0    0    0  501 -0.00000000000E+00 -0.00000000000E+00 -0.31271725267E+03  0.31271725267E+03  0.00000000000E+00 0.  1.
          5    1    1    2  502    0 -0.61342343288E+02  0.42580665674E+02 -0.13315921168E+03  0.15272473351E+03  0.41800000000E+01 0.  1.
         -5    1    1    2    0  502  0.49632762338E+02 -0.18490747345E+02 -0.96650636328E+02  0.11029114533E+03  0.41800000000E+01 0.  1.
        -11    1    1    2    0    0  0.22952750773E+02 -0.31653630731E+02 -0.58739900923E+02  0.70563142412E+02  0.00000000000E+00 0.  1.
         11    1    1    2    0    0 -0.11243169823E+02  0.75637124024E+01  0.26119867275E+02  0.29425602448E+02  0.00000000000E+00 0. -1.
</event>
<event>
 6    1  0.8278077E-006  0.1541445E+03  0.7561462E-02  0.1195471E+00
         -2   -1    0    0    0  501 -0.00000000000E+00  0.00000000000E+00  0.86914090628E+02  0.86914090628E+02  0.00000000000E+00 0.  1.
          2   -1    0    0  501    0  0.00000000000E+00 -0.00000000000E+00 -0.36861319833E+03  0.36861319833E+03  0.00000000000E+00 0. -1.
          5    1    1    2  502    0 -0.55036437847E+02  0.69041570208E+01 -0.41208736999E+02  0.69226507063E+02  0.41800000000E+01 0. -1.
         -5    1    1    2    0  502 -0.58209238262E+01 -0.11660223352E+03 -0.22042600177E+02  0.11888360963E+03  0.41800000000E+01 0. -1.
        -11    1    1    2    0    0  0.64936275711E+02  0.68297203150E+02 -0.82510227721E+02  0.12525639920E+03  0.00000000000E+00 0.  1.
         11    1    1    2    0    0 -0.40789140380E+01  0.41400873353E+02 -0.13593754281E+03  0.14216077307E+03  0.00000000000E+00 0. -1.
</event>
<event>
 6    1  0.8259171E-006  0.1363586E+03  0.7561462E-02  0.1218314E+00
         -2   -1    0    0    0  501 -0.00000000000E+00  0.00000000000E+00  0.47302996931E+03  0.47302996931E+03  0.00000000000E+00 0.  1.
          2   -1    0    0  501    0  0.00000000000E+00 -0.00000000000E+00 -0.48273838097E+02  0.48273838097E+02  0.00000000000E+00 0. -1.
          5    1    1    2  502    0  0.10843156550E+03 -0.33740497927E+02  0.11618670618E+03  0.16251968708E+03  0.41800000000E+01 0. -1.
         -5    1    1    2    0  502 -0.42867591639E+02  0.25265288696E+02  0.18718106577E+03  0.19372709932E+03  0.41800000000E+01 0.  1.
        -11    1    1    2    0    0 -0.63322880826E+02  0.41716726451E+02  0.66549055111E+02  0.10089028317E+03  0.00000000000E+00 0. -1.
         11    1    1    2    0    0 -0.22410930363E+01 -0.33241517219E+02  0.54839304154E+02  0.64166737841E+02  0.00000000000E+00 0.  1.
</event>
<event>
 6    1  0.8259171E-006  0.9098193E+02  0.7561462E-02  0.1300491E+00
          2   -1    0    0  501    0  0.00000000000E+00  0.00000000000E+00  0.62737084807E+02  0.62737084807E+02  0.00000000000E+00 0. -1.
         -2   -1    0    0    0  501 -0.00000000000E+00 -0.00000000000E+00 -0.21879587758E+03  0.21879587758E+03  0.00000000000E+00 0.  1.
          5    1    1    2  502    0 -0.41236461044E+02 -0.35365769163E+02 -0.41879632043E+01  0.54646086627E+02  0.41800000000E+01 0.  1.
         -5    1    1    2    0  502  0.45802233569E+02 -0.11872417505E+02 -0.11541153830E+03  0.12480422457E+03  0.41800000000E+01 0.  1.
        -11    1    1    2    0    0  0.14956264348E+02  0.56445894998E+02  0.15030521135E+01  0.58413081334E+02  0.00000000000E+00 0. -1.
         11    1    1    2    0    0 -0.19522036873E+02 -0.92077083294E+01 -0.37962343376E+02  0.43669569851E+02  0.00000000000E+00 0.  1.
</event>
<event>
 6    1  0.8259171E-006  0.1374979E+03  0.7561462E-02  0.1216736E+00
         -1   -1    0    0    0  501 -0.00000000000E+00  0.00000000000E+00  0.75631474719E+02  0.75631474719E+02  0.00000000000E+00 0.  1.
          1   -1    0    0  501    0  0.00000000000E+00 -0.00000000000E+00 -0.44314710192E+03  0.44314710192E+03  0.00000000000E+00 0. -1.
          5    1    1    2  502    0  0.14504140330E+02 -0.96507731451E+01  0.22024399046E+02  0.28391091249E+02  0.41800000000E+01 0. -1.
         -5    1    1    2    0  502 -0.10189691650E+03  0.70187549884E+02 -0.71970563209E+02  0.14320093617E+03  0.41800000000E+01 0. -1.
        -11    1    1    2    0    0  0.46120620946E+01  0.18355197469E+02 -0.16417048647E+02  0.25054019182E+02  0.00000000000E+00 0.  1.
         11    1    1    2    0    0  0.82780714073E+02 -0.78891974208E+02 -0.30115241439E+03  0.32213253004E+03  0.00000000000E+00 0. -1.
</event>
<event>
 6    1  0.8259171E-006  0.8089450E+02  0.7561462E-02  0.1326532E+00
         -3   -1    0    0    0  501 -0.00000000000E+00  0.00000000000E+00  0.46877482658E+03  0.46877482658E+03  0.00000000000E+00 0.  1.
          3   -1    0    0  501    0  0.00000000000E+00 -0.00000000000E+00 -0.32287189795E+02  0.32287189795E+02  0.00000000000E+00 0. -1.
          5    1    1    2  502    0  0.30385502312E+02 -0.13539729886E+02  0.16321210575E+01  0.33566936936E+02  0.41800000000E+01 0.  1.
         -5    1    1    2    0  502  0.11294983244E+02 -0.14276432236E+02  0.26054474033E+03  0.26121337500E+03  0.41800000000E+01 0.  1.
        -11    1    1    2    0    0 -0.70246984108E+01  0.61118359413E+02  0.86006008288E+02  0.10574418994E+03  0.00000000000E+00 0.  1.
         11    1    1    2    0    0 -0.34655787145E+02 -0.33302197291E+02  0.88304767104E+02  0.10053751449E+03  0.00000000000E+00 0. -1.
</event>
<event>
 6    1  0.8259171E-006  0.1895112E+03  0.7561462E-02  0.1158903E+00
          1   -1    0    0  501    0  0.00000000000E+00  0.00000000000E+00  0.11185119627E+04  0.11185119627E+04  0.00000000000E+00 0. -1.
         -1   -1    0    0    0  501 -0.00000000000E+00 -0.00000000000E+00 -0.48953453481E+02  0.48953453481E+02  0.00000000000E+00 0.  1.
          5    1    1    2  502    0 -0.15418782576E+02  0.38813012456E+02  0.37615641508E+02  0.56361313665E+02  0.41800000000E+01 0.  1.
         -5    1    1    2    0  502  0.15678837313E+03  0.39657228905E+02  0.19191300978E+03  0.25100471206E+03  0.41800000000E+01 0.  1.
        -11    1    1    2    0    0 -0.93281385203E+02 -0.85662657889E+02  0.71142127800E+03  0.72260621542E+03  0.00000000000E+00 0.  1.
         11    1    1    2    0    0 -0.48088205348E+02  0.71924165280E+01  0.12860857998E+03  0.13749317508E+03  0.00000000000E+00 0. -1.
</event>
<event>
 6    1  0.8259171E-006  0.1507654E+03  0.7561462E-02  0.1199536E+00
         -2   -1    0    0    0  501 -0.00000000000E+00  0.00000000000E+00  0.77871427144E+02  0.77871427144E+02  0.00000000000E+00 0.  1.
          2   -1    0    0  501    0  0.00000000000E+00 -0.00000000000E+00 -0.38127581838E+03  0.38127581838E+03  0.00000000000E+00 0. -1.
          5    1    1    2  502    0 -0.46557260670E+02 -0.12061263543E+01 -0.86670278037E+02  0.98479656564E+02  0.41800000000E+01 0. -1.
         -5    1    1    2    0  502  0.13253736757E+03 -0.20454310150E+02 -0.34006565823E+02  0.13841405827E+03  0.41800000000E+01 0.  1.
        -11    1    1    2    0    0 -0.18241361250E+02 -0.30204235047E+02 -0.87785761078E+02  0.94611748335E+02  0.00000000000E+00 0.  1.
         11    1    1    2    0    0 -0.67738745654E+02  0.51864671551E+02 -0.94941786299E+02  0.12764178236E+03  0.00000000000E+00 0. -1.
</event>
<event>
 6    1  0.8259171E-006  0.1628768E+03  0.7561462E-02  0.1185487E+00
         -1   -1    0    0    0  501 -0.00000000000E+00  0.00000000000E+00  0.18344245690E+03  0.18344245690E+03  0.00000000000E+00 0.  1.
          1   -1    0    0  501    0  0.00000000000E+00 -0.00000000000E+00 -0.22932659759E+03  0.22932659759E+03  0.00000000000E+00 0. -1.
          5    1    1    2  502    0  0.37986788851E+01 -0.15950990082E+03  0.67490918086E+02  0.17329262779E+03  0.41800000000E+01 0. -1.
         -5    1    1    2    0  502  0.13966141538E+02  0.22407079958E+02  0.14038137812E+02  0.30193907579E+02  0.41800000000E+01 0. -1.
        -11    1    1    2    0    0  0.36846713022E+01  0.25684048481E+02  0.12782224086E+02  0.28924598555E+02  0.00000000000E+00 0.  1.
         11    1    1    2    0    0 -0.21449491725E+02  0.11141877238E+03 -0.14019542067E+03  0.18035792057E+03  0.00000000000E+00 0. -1.
</event>
<event>
 6    1  0.8259171E-006  0.1079423E+03  0.7561462E-02  0.1264429E+00
          1   -1    0    0  501    0  0.00000000000E+00  0.00000000000E+00  0.12338583010E+03  0.12338583010E+03  0.00000000000E+00 0. -1.
         -1   -1    0    0    0  501 -0.00000000000E+00 -0.00000000000E+00 -0.14324300263E+03  0.14324300263E+03  0.00000000000E+00 0.  1.
          5    1    1    2  502    0 -0.64513106387E+02 -0.48523738835E+02  0.18608780284E+02  0.82947291878E+02  0.41800000000E+01 0.  1.
         -5    1    1    2    0  502  0.23115786867E+02 -0.79945002401E+01 -0.62100553314E+02  0.66874529968E+02  0.41800000000E+01 0.  1.
        -11    1    1    2    0    0 -0.22556673435E+02 -0.31447551650E+01 -0.74840489293E+01  0.23972984584E+02  0.00000000000E+00 0.  1.
         11    1    1    2    0    0  0.63953992955E+02  0.59662994240E+02  0.31118649431E+02  0.92834026300E+02  0.00000000000E+00 0. -1.
</event>
<event>
 6    1  0.8259171E-006  0.1296442E+03  0.7561462E-02  0.1227985E+00
          2   -1    0    0  501    0  0.00000000000E+00  0.00000000000E+00  0.89526628768E+03  0.89526628768E+03  0.00000000000E+00 0. -1.
         -2   -1    0    0    0  501 -0.00000000000E+00 -0.00000000000E+00 -0.24294591474E+02  0.24294591474E+02  0.00000000000E+00 0.  1.
          5    1    1    2  502    0  0.63602281252E+02 -0.65373656929E+02  0.16421223226E+03  0.18788851701E+03  0.41800000000E+01 0. -1.
         -5    1    1    2    0  502  0.24216055275E+01  0.50628385447E+02  0.85858473596E+02  0.99791019008E+02  0.41800000000E+01 0. -1.
        -11    1    1    2    0    0 -0.28961107162E+02  0.55153324638E+02  0.34664290724E+03  0.35219588312E+03  0.00000000000E+00 0.  1.
         11    1    1    2    0    0 -0.37062779617E+02 -0.40408053156E+02  0.27425808311E+03  0.27968546001E+03  0.00000000000E+00 0. -1.
</event>
<event>
 6    1  0.8259171E-006  0.2775130E+03  0.7561462E-02  0.1097055E+00
         -2   -1    0    0    0  501 -0.00000000000E+00  0.00000000000E+00  0.11285640923E+03  0.11285640923E+03  0.00000000000E+00 0.  1.
          2   -1    0    0  501    0  0.00000000000E+00 -0.00000000000E+00 -0.87798287598E+03  0.87798287598E+03  0.00000000000E+00 0. -1.
          5    1    1    2  502    0  0.26959825151E+02 -0.60095130462E+02 -0.14598489506E+02  0.67593233191E+02  0.41800000000E+01 0. -1.
         -5    1    1    2    0  502 -0.88337839665E+02 -0.19524978843E+03 -0.14956445879E+03  0.26136765969E+03  0.41800000000E+01 0.  1.
        -11    1    1    2    0    0 -0.19162358805E+02  0.70427527435E+02 -0.20297374171E+03  0.21569787305E+03  0.00000000000E+00 0.  1.
         11    1    1    2    0    0  0.80540373319E+02  0.18491739146E+03 -0.39798977674E+03  0.44618051928E+03  0.00000000000E+00 0. -1.
</event>
<event>
 6    1  0.8259171E-006  0.1424913E+03  0.7561462E-02  0.1210016E+00
         -2   -1    0    0    0  501 -0.00000000000E+00  0.00000000000E+00  0.21323599369E+02  0.21323599369E+02  0.00000000000E+00 0.  1.
          2   -1    0    0  501    0  0.00000000000E+00 -0.00000000000E+00 -0.10297729354E+04  0.10297729354E+04  0.00000000000E+00 0. -1.
          5    1    1    2  502    0  0.18824969887E+02 -0.85397277926E+02 -0.33468061851E+03  0.34594170517E+03  0.41800000000E+01 0. -1.
         -5    1    1    2    0  502  0.58488844670E+02  0.26008000582E+02 -0.12816886880E+03  0.14332512820E+03  0.41800000000E+01 0. -1.
        -11    1    1    2    0    0  0.10073484075E+02 -0.15308823103E+02 -0.98229937508E+02  0.99924750533E+02  0.00000000000E+00 0.  1.
         11    1    1    2    0    0 -0.87387298631E+02  0.74698100447E+02 -0.44736991118E+03  0.46190495083E+03  0.00000000000E+00 0. -1.
</event>
<event>
 6    1  0.8259171E-006  0.1265846E+03  0.7561462E-02  0.1232613E+00
          1   -1    0    0  501    0  0.00000000000E+00  0.00000000000E+00  0.18964662980E+03  0.18964662980E+03  0.00000000000E+00 0. -1.
         -1   -1    0    0    0  501 -0.00000000000E+00 -0.00000000000E+00 -0.10507275129E+03  0.10507275129E+03  0.00000000000E+00 0.  1.
          5    1    1    2  502    0  0.13912495754E+02  0.37630647862E+02  0.31574355609E+02  0.51225340690E+02  0.41800000000E+01 0.  1.
         -5    1    1    2    0  502 -0.90929604697E+02 -0.16677958407E+02 -0.29646853845E+02  0.97173842416E+02  0.41800000000E+01 0.  1.
        -11    1    1    2    0    0  0.74063999632E+02 -0.51111397872E+02  0.56167670566E+02  0.10607854755E+03  0.00000000000E+00 0.  1.
         11    1    1    2    0    0  0.29531093115E+01  0.30158708418E+02  0.26478706184E+02  0.40241650428E+02  0.00000000000E+00 0. -1.
</event>
<event>
 6    1  0.8259171E-006  0.9844502E+02  0.7561462E-02  0.1283600E+00
          1   -1    0    0  501    0  0.00000000000E+00  0.00000000000E+00  0.11272902104E+03  0.11272902104E+03  0.00000000000E+00 0. -1.
         -1   -1    0    0    0  501 -0.00000000000E+00 -0.00000000000E+00 -0.12667172239E+03  0.12667172239E+03  0.00000000000E+00 0.  1.
          5    1    1    2  502    0 -0.52334529005E+02  0.48648771495E+02 -0.45949584402E+02  0.85055526575E+02  0.41800000000E+01 0.  1.
         -5    1    1    2    0  502  0.41983219810E+02 -0.30247995503E+02 -0.68640987483E+01  0.52365257845E+02  0.41800000000E+01 0.  1.
        -11    1    1    2    0    0  0.74693587335E+01 -0.45520125968E+02 -0.88931902455E+01  0.46978314368E+02  0.00000000000E+00 0.  1.
         11    1    1    2    0    0  0.28819504621E+01  0.27119349976E+02  0.47764172054E+02  0.55001644644E+02  0.00000000000E+00 0. -1.
</event>
<event>
 6    1  0.8259171E-006  0.9966169E+02  0.7561462E-02  0.1281009E+00
          2   -1    0    0  501    0  0.00000000000E+00  0.00000000000E+00  0.22270615477E+03  0.22270615477E+03  0.00000000000E+00 0.  1.
         -2   -1    0    0    0  501 -0.00000000000E+00 -0.00000000000E+00 -0.59256612191E+02  0.59256612191E+02  0.00000000000E+00 0. -1.
          5    1    1    2  502    0  0.53067961587E+02  0.17554417677E+00  0.17822228671E+02  0.56136829244E+02  0.41800000000E+01 0.  1.
         -5    1    1    2    0  502 -0.72579693552E+02 -0.95909576176E+01  0.37259504614E+02  0.82252911609E+02  0.41800000000E+01 0.  1.
        -11    1    1    2    0    0  0.31886357045E+02 -0.22171136597E+02  0.10188377698E+03  0.10903487092E+03  0.00000000000E+00 0.  1.
         11    1    1    2    0    0 -0.12374625080E+02  0.31586550038E+02  0.64840323157E+01  0.34538155195E+02  0.00000000000E+00 0. -1.
</event>
<event>
 6    1  0.8259171E-006  0.1741205E+03  0.7561462E-02  0.1173618E+00
         -2   -1    0    0    0  501 -0.00000000000E+00  0.00000000000E+00  0.13659935974E+03  0.13659935974E+03  0.00000000000E+00 0.  1.
          2   -1    0    0  501    0  0.00000000000E+00 -0.00000000000E+00 -0.27942940377E+03  0.27942940377E+03  0.00000000000E+00 0. -1.
          5    1    1    2  502    0 -0.19374272406E+02 -0.90982423449E+02  0.39783839098E+02  0.10125902459E+03  0.41800000000E+01 0.  1.
         -5    1    1    2    0  502 -0.69789995310E+02 -0.32251020051E+02 -0.58239197379E+02  0.96540396990E+02  0.41800000000E+01 0.  1.
        -11    1    1    2    0    0  0.70729421482E+02  0.20337478823E+02 -0.63882777312E+02  0.97453955000E+02  0.00000000000E+00 0. -1.
         11    1    1    2    0    0  0.18434846234E+02  0.10289596468E+03 -0.60491908429E+02  0.12077538693E+03  0.00000000000E+00 0.  1.
</event>
<event>
 6    1  0.8259171E-006  0.1091762E+03  0.7561462E-02  0.1262103E+00
          1   -1    0    0  501    0  0.00000000000E+00  0.00000000000E+00  0.60619217974E+03  0.60619217974E+03  0.00000000000E+00 0.  1.
         -1   -1    0    0    0  501 -0.00000000000E+00 -0.00000000000E+00 -0.27076714517E+02  0.27076714517E+02  0.00000000000E+00 0. -1.
          5    1    1    2  502    0  0.35735977856E+02  0.27600440153E+02  0.45681498746E+02  0.64367042325E+02  0.41800000000E+01 0. -1.
         -5    1    1    2    0  502 -0.85089697674E+02 -0.10113495071E+02  0.16961318929E+03  0.19007536878E+03  0.41800000000E+01 0. -1.
        -11    1    1    2    0    0  0.67137727588E+02 -0.98327292974E+01  0.34573998282E+03  0.35233548324E+03  0.00000000000E+00 0.  1.
         11    1    1    2    0    0 -0.17784007770E+02 -0.76542157855E+01  0.18080794362E+02  0.26490999913E+02  0.00000000000E+00 0. -1.
</event>
<event>
 6    1  0.8259171E-006  0.2637206E+03  0.7561462E-02  0.1104928E+00
          2   -1    0    0  501    0  0.00000000000E+00  0.00000000000E+00  0.13088536106E+04  0.13088536106E+04  0.00000000000E+00 0. -1.
         -2   -1    0    0    0  501 -0.00000000000E+00 -0.00000000000E+00 -0.86209029921E+02  0.86209029921E+02  0.00000000000E+00 0.  1.
          5    1    1    2  502    0 -0.22502672330E+02  0.33079776928E+02  0.22183122844E+02  0.45936970326E+02  0.41800000000E+01 0.  1.
         -5    1    1    2    0  502  0.16560430437E+03  0.16165944880E+03  0.17118483924E+03  0.28788936173E+03  0.41800000000E+01 0.  1.
        -11    1    1    2    0    0 -0.11762131901E+03 -0.90406557233E+02  0.51936845677E+03  0.54014045781E+03  0.00000000000E+00 0. -1.
         11    1    1    2    0    0 -0.25480313035E+02 -0.10433266850E+03  0.50990816178E+03  0.52109585061E+03  0.00000000000E+00 0.  1.
</event>
<event>
 6    1  0.8259171E-006  0.1127490E+03  0.7561462E-02  0.1255562E+00
          2   -1    0    0  501    0  0.00000000000E+00  0.00000000000E+00  0.47541764597E+03  0.47541764597E+03  0.00000000000E+00 0. -1.
         -2   -1    0    0    0  501 -0.00000000000E+00 -0.00000000000E+00 -0.33332163954E+02  0.33332163954E+02  0.00000000000E+00 0.  1.
          5    1    1    2  502    0  0.36913350634E+01 -0.87069731983E+02  0.15224514806E+03  0.17547313666E+03  0.41800000000E+01 0.  1.
         -5    1    1    2    0  502 -0.26522328468E+02  0.34848641066E+02  0.31984060830E+02  0.54390387374E+02  0.41800000000E+01 0.  1.
        -11    1    1    2    0    0  0.47208354898E+01 -0.19614263182E+02  0.15445859530E+02  0.25408270002E+02  0.00000000000E+00 0.  1.
         11    1    1    2    0    0  0.18110157915E+02  0.71835354099E+02  0.24241041360E+03  0.25347801589E+03  0.00000000000E+00 0. -1.
</event>
<event>
 6    1  0.8259171E-006  0.7991981E+02  0.7561462E-02  0.1329279E+00
          1   -1    0    0  501    0  0.00000000000E+00  0.00000000000E+00  0.56605335772E+02  0.56605335772E+02  0.00000000000E+00 0. -1.
         -1   -1    0    0    0  501 -0.00000000000E+00 -0.00000000000E+00 -0.28740728114E+03  0.28740728114E+03  0.00000000000E+00 0.  1.
          5    1    1    2  502    0  0.51242871560E+02  0.26121979525E+02 -0.15926717902E+03  0.16938623443E+03  0.41800000000E+01 0. -1.
         -5    1    1    2    0  502  0.99184689487E+00 -0.52532759437E+01  0.22985708850E+02  0.23966557528E+02  0.41800000000E+01 0. -1.
        -11    1    1    2    0    0 -0.56414328992E+02  0.15715693871E+02 -0.97480163076E+02  0.11371869566E+03  0.00000000000E+00 0.  1.
         11    1    1    2    0    0  0.41796105366E+01 -0.36584397453E+02  0.29596878812E+01  0.36941129295E+02  0.00000000000E+00 0. -1.
</event>
<event>
 6    1  0.8259171E-006  0.1033645E+03  0.7561462E-02  0.1273376E+00
          1   -1    0    0  501    0  0.00000000000E+00  0.00000000000E+00  0.21684175058E+03  0.21684175058E+03  0.00000000000E+00 0. -1.
         -1   -1    0    0    0  501 -0.00000000000E+00 -0.00000000000E+00 -0.63802233969E+02  0.63802233969E+02  0.00000000000E+00 0.  1.
          5    1    1    2  502    0 -0.13940063800E+02  0.27688948459E+02 -0.11146825800E+02  0.33207339112E+02  0.41800000000E+01 0. -1.
         -5    1    1    2    0  502  0.34779696331E+02 -0.69868822377E+02  0.10153488410E+03  0.12813307421E+03  0.41800000000E+01 0. -1.
        -11    1    1    2    0    0 -0.51595174666E+02  0.42008200467E+02  0.25940909662E+02  0.71412056050E+02  0.00000000000E+00 0.  1.
         11    1    1    2    0    0  0.30755542135E+02  0.17167345159E+00  0.36710548648E+02  0.47891515176E+02  0.00000000000E+00 0. -1.
</event>
<event>
 6    1  0.8259171E-006  0.9228844E+02  0.7561462E-02  0.1297403E+00
         -1   -1    0    0    0  501 -0.00000000000E+00  0.00000000000E+00  0.22614057358E+03  0.22614057358E+03  0.00000000000E+00 0.  1.
          1   -1    0    0  501    0  0.00000000000E+00 -0.00000000000E+00 -0.78954372452E+02  0.78954372452E+02  0.00000000000E+00 0. -1.
          5    1    1    2  502    0  0.48499651985E+02 -0.10729347871E+02  0.18956171801E+02  0.53330516571E+02  0.41800000000E+01 0.  1.
         -5    1    1    2    0  502 -0.38406882408E+02  0.39190529345E+02  0.14501881881E+03  0.15510936921E+03  0.41800000000E+01 0.  1.
        -11    1    1    2    0    0 -0.36076731308E+02  0.59645243696E+01  0.18451339414E+02  0.40958003113E+02  0.00000000000E+00 0.  1.
         11    1    1    2    0    0  0.25983961732E+02 -0.34425705844E+02 -0.35240128893E+02  0.55697057145E+02  0.00000000000E+00 0. -1.
</event>
<event>
 6    1  0.8259171E-006  0.1106765E+03  0.7561462E-02  0.1259322E+00
         -1   -1    0    0    0  501 -0.00000000000E+00  0.00000000000E+00  0.31156190979E+03  0.31156190979E+03  0.00000000000E+00 0.  1.
          1   -1    0    0  501    0  0.00000000000E+00 -0.00000000000E+00 -0.51738259558E+02  0.51738259558E+02  0.00000000000E+00 0. -1.
          5    1    1    2  502    0  0.22673333035E+02  0.40217586077E+02  0.10380140418E+03  0.11368262035E+03  0.41800000000E+01 0. -1.
         -5    1    1    2    0  502 -0.30952848380E+02 -0.75165674880E+02  0.11493093613E+03  0.14083518730E+03  0.41800000000E+01 0. -1.
        -11    1    1    2    0    0 -0.23759223269E+02  0.52097227120E+02  0.44164872745E+02  0.72312915503E+02  0.00000000000E+00 0.  1.
         11    1    1    2    0    0  0.32038738615E+02 -0.17149138317E+02 -0.30735628216E+01  0.36469446191E+02  0.00000000000E+00 0. -1.
</event>
<event>
 6    1  0.8259171E-006  0.1304818E+03  0.7561462E-02  0.1226743E+00
         -1   -1    0    0    0  501 -0.00000000000E+00  0.00000000000E+00  0.27389254770E+03  0.27389254770E+03  0.00000000000E+00 0.  1.
          1   -1    0    0  501    0  0.00000000000E+00 -0.00000000000E+00 -0.67528614758E+02  0.67528614758E+02  0.00000000000E+00 0. -1.
          5    1    1    2  502    0 -0.15944104675E+02  0.26412927784E+02  0.71943519088E+01  0.31954472729E+02  0.41800000000E+01 0.  1.
         -5    1    1    2    0  502  0.40820117486E+02 -0.10042182552E+03  0.13159445445E+03  0.17054441613E+03  0.41800000000E+01 0.  1.
        -11    1    1    2    0    0 -0.15299280232E+02  0.96078972246E+02  0.52898745267E+02  0.11074075191E+03  0.00000000000E+00 0.  1.
         11    1    1    2    0    0 -0.95767325792E+01 -0.22070074513E+02  0.14676381317E+02  0.28181521684E+02  0.00000000000E+00 0. -1.
</event>
<event>
 6    1  0.8259171E-006  0.8256581E+02  0.7561462E-02  0.1321924E+00
         -2   -1    0    0    0  501 -0.00000000000E+00  0.00000000000E+00  0.22608957634E+03  0.22608957634E+03  0.00000000000E+00 0.  1.
          2   -1    0    0  501    0  0.00000000000E+00 -0.00000000000E+00 -0.87873453225E+02  0.87873453225E+02  0.00000000000E+00 0. -1.
          5    1    1    2  502    0  0.15662507474E+02 -0.40417944754E+02  0.94859842136E+02  0.10437809372E+03  0.41800000000E+01 0. -1.
         -5    1    1    2    0  502 -0.47762697729E+02  0.64640962598E+02  0.71837469944E+02  0.10787874595E+03  0.41800000000E+01 0. -1.
        -11    1    1    2    0    0  0.17258358368E+02 -0.77160577370E+01  0.32062757759E+02  0.37221081603E+02  0.00000000000E+00 0.  1.
         11    1    1    2    0    0  0.14841831886E+02 -0.16506960106E+02 -0.60543946727E+02  0.64485108288E+02  0.00000000000E+00 0. -1.
</event>
<event>
 6    1  0.8259171E-006  0.9808756E+02  0.7561462E-02  0.1284370E+00
         -2   -1    0    0    0  501 -0.00000000000E+00  0.00000000000E+00  0.26466027048E+03  0.26466027048E+03  0.00000000000E+00 0.  1.
          2   -1    0    0  501    0  0.00000000000E+00 -0.00000000000E+00 -0.46189034260E+02  0.46189034260E+02  0.00000000000E+00 0. -1.
          5    1    1    2  502    0 -0.24091225934E+02  0.46144503956E+02  0.37258230562E+02  0.64150998098E+02  0.41800000000E+01 0. -1.
         -5    1    1    2    0  502  0.38277561827E+02 -0.54310288417E+02  0.12243875982E+03  0.13936822261E+03  0.41800000000E+01 0. -1.
        -11    1    1    2    0    0 -0.44330735848E+02  0.14369483081E+02  0.70350813055E+01  0.47129487094E+02  0.00000000000E+00 0. -1.
         11    1    1    2    0    0  0.30144399954E+02 -0.62036986195E+01  0.51739164531E+02  0.60200596937E+02  0.00000000000E+00 0.  1.
</event>
<event>
 6    1  0.8259171E-006  0.1871475E+03  0.7561462E-02  0.1161060E+00
          2   -1    0    0  501    0  0.00000000000E+00  0.00000000000E+00  0.14498492024E+04  0.14498492024E+04  0.00000000000E+00 0. -1.
         -2   -1    0    0    0  501 -0.00000000000E+00 -0.00000000000E+00 -0.36507775763E+02  0.36507775763E+02  0.00000000000E+00 0.  1.
          5    1    1    2  502    0 -0.84841569820E+01  0.49069096636E+02  0.26943693503E+03  0.27403191698E+03  0.41800000000E+01 0. -1.
         -5    1    1    2    0  502  0.11853597566E+02  0.12683865159E+03  0.14353036675E+03  0.19195569774E+03  0.41800000000E+01 0. -1.
        -11    1    1    2    0    0 -0.45813061661E+02 -0.96548231663E+02  0.64404074645E+03  0.65284675134E+03  0.00000000000E+00 0.  1.
         11    1    1    2    0    0  0.42443621078E+02 -0.79359516567E+02  0.35633337836E+03  0.36752261206E+03  0.00000000000E+00 0. -1.
</event>
<event>
 6    1  0.8259171E-006  0.5919739E+02  0.7561462E-02  0.1401231E+00
          2   -1    0    0  501    0  0.00000000000E+00  0.00000000000E+00  0.22450589721E+03  0.22450589721E+03  0.00000000000E+00 0. -1.
         -2   -1    0    0    0  501 -0.00000000000E+00 -0.00000000000E+00 -0.59522103036E+02  0.59522103036E+02  0.00000000000E+00 0.  1.
          5    1    1    2  502    0 -0.15971102045E+02  0.28110673314E+02  0.82809956589E+02  0.88995771612E+02  0.41800000000E+01 0. -1.
         -5    1    1    2    0  502  0.86251085247E+01 -0.29414699654E+02 -0.33565649729E+02  0.45648026185E+02  0.41800000000E+01 0. -1.
        -11    1    1    2    0    0  0.23489704314E+02  0.19502778519E+02  0.12074693109E+03  0.12454696282E+03  0.00000000000E+00 0. -1.
         11    1    1    2    0    0 -0.16143710794E+02 -0.18198752179E+02 -0.50074437832E+01  0.24837239627E+02  0.00000000000E+00 0.  1.
</event>
<event>
 6    1  0.8259171E-006  0.9850763E+02  0.7561462E-02  0.1283466E+00
          1   -1    0    0  501    0  0.00000000000E+00  0.00000000000E+00  0.54239108698E+02  0.54239108698E+02  0.00000000000E+00 0. -1.
         -1   -1    0    0    0  501 -0.00000000000E+00 -0.00000000000E+00 -0.21941549985E+03  0.21941549985E+03  0.00000000000E+00 0.  1.
          5    1    1    2  502    0 -0.17675870744E+02  0.68866550161E+02 -0.26244164833E+02  0.75903008672E+02  0.41800000000E+01 0. -1.
         -5    1    1    2    0  502 -0.26984441861E+02 -0.38193270492E+02 -0.97462187223E+02  0.10818149727E+03  0.41800000000E+01 0. -1.
        -11    1    1    2    0    0  0.27443774723E+02 -0.47443236927E+02 -0.23872327534E+02  0.59782183993E+02  0.00000000000E+00 0. -1.
         11    1    1    2    0    0  0.17216537882E+02  0.16769957258E+02 -0.17597711563E+02  0.29787918614E+02  0.00000000000E+00 0.  1.
</event>
<event>
 6    1  0.8259171E-006  0.2014376E+03  0.7561462E-02  0.1148532E+00
          1   -1    0    0  501    0  0.00000000000E+00  0.00000000000E+00  0.28784504311E+03  0.28784504311E+03  0.00000000000E+00 0. -1.
         -1   -1    0    0    0  501 -0.00000000000E+00 -0.00000000000E+00 -0.21044106667E+03  0.21044106667E+03  0.00000000000E+00 0.  1.
          5    1    1    2  502    0 -0.15448440463E+02  0.18420048683E+02 -0.17889600548E+01  0.24466820069E+02  0.41800000000E+01 0.  1.
         -5    1    1    2    0  502  0.18711190355E+03  0.32561744933E+01 -0.95924598386E+02  0.21033418196E+03  0.41800000000E+01 0.  1.
        -11    1    1    2    0    0 -0.16615268015E+01 -0.21219402729E+02  0.43706813969E+02  0.48613879816E+02  0.00000000000E+00 0. -1.
         11    1    1    2    0    0 -0.17000193629E+03 -0.45682044775E+00  0.13141072091E+03  0.21487122794E+03  0.00000000000E+00 0.  1.
</event>
<event>
 6    1  0.8259171E-006  0.1184741E+03  0.7561462E-02  0.1245636E+00
          1   -1    0    0  501    0  0.00000000000E+00  0.00000000000E+00  0.23032166435E+03  0.23032166435E+03  0.00000000000E+00 0. -1.
         -1   -1    0    0    0  501 -0.00000000000E+00 -0.00000000000E+00 -0.94615486568E+02  0.94615486568E+02  0.00000000000E+00 0.  1.
          5    1    1    2  502    0  0.10663705029E+03 -0.44090538584E+02  0.10519485972E+03  0.15620136683E+03  0.41800000000E+01 0. -1.
         -5    1    1    2    0  502 -0.16488566799E+02 -0.13893066073E+01 -0.19552570483E+02  0.25953389382E+02  0.41800000000E+01 0. -1.
        -11    1    1    2    0    0 -0.60623522691E+02  0.43893749488E+02  0.73615405115E+02  0.10498142987E+03  0.00000000000E+00 0. -1.
         11    1    1    2    0    0 -0.29524960801E+02  0.15860957034E+01 -0.23551516570E+02  0.37800964837E+02  0.00000000000E+00 0.  1.
</event>
<event>
 6    1  0.8259171E-006  0.1790694E+03  0.7561462E-02  0.1168707E+00
         -1   -1    0    0    0  501 -0.00000000000E+00  0.00000000000E+00  0.31452950774E+03  0.31452950774E+03  0.00000000000E+00 0.  1.
          1   -1    0    0  501    0  0.00000000000E+00 -0.00000000000E+00 -0.21691913567E+03  0.21691913567E+03  0.00000000000E+00 0. -1.
          5    1    1    2  502    0 -0.11810658289E+02  0.25426412007E+02  0.11034096847E+03  0.11392364021E+03  0.41800000000E+01 0. -1.
         -5    1    1    2    0  502  0.61200843990E+02 -0.16776705633E+03  0.10474491368E+03  0.20707558484E+03  0.41800000000E+01 0.  1.
        -11    1    1    2    0    0 -0.14651904941E+02  0.27189500635E+02  0.12537646467E+02  0.33333764296E+02  0.00000000000E+00 0.  1.
         11    1    1    2    0    0 -0.34738280759E+02  0.11515114369E+03 -0.13001315654E+03  0.17711565407E+03  0.00000000000E+00 0. -1.
</event>
<event>
 6    1  0.8259171E-006  0.2144010E+03  0.7561462E-02  0.1138128E+00
          2   -1    0    0  501    0  0.00000000000E+00  0.00000000000E+00  0.82383734995E+03  0.82383734995E+03  0.00000000000E+00 0. -1.
         -2   -1    0    0    0  501 -0.00000000000E+00 -0.00000000000E+00 -0.70370527474E+02  0.70370527474E+02  0.00000000000E+00 0.  1.
          5    1    1    2  502    0  0.17532516207E+00  0.36936559514E+02  0.15497161659E+02  0.40273745631E+02  0.41800000000E+01 0.  1.
         -5    1    1    2    0  502 -0.18457989765E+03 -0.60009891199E+01  0.17629063883E+03  0.25534606366E+03  0.41800000000E+01 0.  1.
        -11    1    1    2    0    0  0.14855603257E+03  0.14235994594E+02  0.41008920798E+03  0.43639972142E+03  0.00000000000E+00 0.  1.
         11    1    1    2    0    0  0.35848539916E+02 -0.45171564988E+02  0.15158981400E+03  0.16218834671E+03  0.00000000000E+00 0. -1.
</event>
<event>
 6    1  0.8259171E-006  0.9596837E+02  0.7561462E-02  0.1289010E+00
         -2   -1    0    0    0  501 -0.00000000000E+00  0.00000000000E+00  0.27899728687E+02  0.27899728687E+02  0.00000000000E+00 0.  1.
          2   -1    0    0  501    0  0.00000000000E+00 -0.00000000000E+00 -0.52560761579E+03  0.52560761579E+03  0.00000000000E+00 0. -1.
          5    1    1    2  502    0  0.11333595522E+01  0.32289778220E+02 -0.14616291796E+03  0.14974974213E+03  0.41800000000E+01 0.  1.
         -5    1    1    2    0  502 -0.74141078530E+01 -0.81998293880E+02 -0.89230598041E+02  0.12148358416E+03  0.41800000000E+01 0.  1.
        -11    1    1    2    0    0  0.21776822410E+02 -0.29975173356E+01 -0.10181622595E+02  0.24225617497E+02  0.00000000000E+00 0.  1.
         11    1    1    2    0    0 -0.15496074109E+02  0.52706032996E+02 -0.25213274851E+03  0.25804840069E+03  0.00000000000E+00 0. -1.
</event>
<event>
 6    1  0.8259171E-006  0.7827113E+02  0.7561462E-02  0.1334031E+00
         -1   -1    0    0    0  501 -0.00000000000E+00  0.00000000000E+00  0.10093750947E+03  0.10093750947E+03  0.00000000000E+00 0.  1.
          1   -1    0    0  501    0  0.00000000000E+00 -0.00000000000E+00 -0.99295589575E+02  0.99295589575E+02  0.00000000000E+00 0. -1.
          5    1    1    2  502    0 -0.60649934864E+02 -0.36160590223E+02  0.51438893871E+02  0.87461048970E+02  0.41800000000E+01 0.  1.
         -5    1    1    2    0  502  0.27058432618E+02  0.20693883689E+02 -0.28953549724E+02  0.44901848954E+02  0.41800000000E+01 0.  1.
        -11    1    1    2    0    0  0.33723617756E+02 -0.22229346886E+01  0.73496475882E+01  0.34586719313E+02  0.00000000000E+00 0.  1.
         11    1    1    2    0    0 -0.13211551016E+00  0.17689641222E+02 -0.28193071843E+02  0.33283481805E+02  0.00000000000E+00 0. -1.
</event>
<event>
 6    1  0.8259171E-006  0.2811644E+03  0.7561462E-02  0.1095055E+00
          2   -1    0    0  501    0  0.00000000000E+00  0.00000000000E+00  0.24040082504E+04  0.24040082504E+04  0.00000000000E+00 0. -1.
         -2   -1    0    0    0  501 -0.00000000000E+00 -0.00000000000E+00 -0.37751245316E+02  0.37751245316E+02  0.00000000000E+00 0.  1.
          5    1    1    2  502    0 -0.39817317685E+02 -0.43450574473E+02  0.55974037841E+03  0.56285001095E+03  0.41800000000E+01 0.  1.
         -5    1    1    2    0  502 -0.15822044158E+03 -0.15479095173E+03  0.72605419608E+03  0.75905606836E+03  0.41800000000E+01 0.  1.
        -11    1    1    2    0    0  0.89583371605E+02  0.68578836859E+02  0.28274569519E+03  0.30442300419E+03  0.00000000000E+00 0.  1.
         11    1    1    2    0    0  0.10845438766E+03  0.12966268934E+03  0.79771673545E+03  0.81543041226E+03  0.00000000000E+00 0. -1.
</event>
<event>
 6    1  0.8259171E-006  0.1176512E+03  0.7561462E-02  0.1247023E+00
          1   -1    0    0  501    0  0.00000000000E+00  0.00000000000E+00  0.13042479058E+04  0.13042479058E+04  0.00000000000E+00 0. -1.
         -1   -1    0    0    0  501 -0.00000000000E+00 -0.00000000000E+00 -0.18004650162E+02  0.18004650162E+02  0.00000000000E+00 0.  1.
          5    1    1    2  502    0 -0.84148700104E+02  0.71190913397E+02  0.32904305476E+03  0.34703883668E+03  0.41800000000E+01 0.  1.
         -5    1    1    2    0  502  0.19267353299E+01 -0.28776070929E+01  0.41261399261E+03  0.41264969675E+03  0.41800000000E+01 0.  1.
        -11    1    1    2    0    0 -0.60747407777E+01 -0.15590375508E+02  0.13183671564E+02  0.21301912588E+02  0.00000000000E+00 0.  1.
         11    1    1    2    0    0  0.88296705552E+02 -0.52722930797E+02  0.53140253674E+03  0.54126210997E+03  0.00000000000E+00 0. -1.
</event>
<event>
 6    1  0.8259171E-006  0.2716118E+03  0.7561462E-02  0.1100361E+00
         -1   -1    0    0    0  501 -0.00000000000E+00  0.00000000000E+00  0.23666552407E+03  0.23666552407E+03  0.00000000000E+00 0.  1.
          1   -1    0    0  501    0  0.00000000000E+00 -0.00000000000E+00 -0.32669724109E+03  0.32669724109E+03  0.00000000000E+00 0. -1.
          5    1    1    2  502    0  0.55974349302E+02  0.34870012839E+02 -0.38238234661E+02  0.76345795989E+02  0.41800000000E+01 0.  1.
         -5    1    1    2    0  502  0.71034988868E+01  0.21231964499E+03 -0.17502017763E+02  0.21319916597E+03  0.41800000000E+01 0.  1.
        -11    1    1    2    0    0 -0.22472307282E+02 -0.20456071614E+03 -0.52148983750E+02  0.21229603785E+03  0.00000000000E+00 0. -1.
         11    1    1    2    0    0 -0.40605540907E+02 -0.42628941693E+02  0.17857519154E+02  0.61521765356E+02  0.00000000000E+00 0.  1.
</event>
<event>
 6    1  0.8259171E-006  0.9222430E+02  0.7561462E-02  0.1297553E+00
         -1   -1    0    0    0  501 -0.00000000000E+00  0.00000000000E+00  0.70595399722E+02  0.70595399722E+02  0.00000000000E+00 0.  1.
          1   -1    0    0  501    0  0.00000000000E+00 -0.00000000000E+00 -0.21685008150E+03  0.21685008150E+03  0.00000000000E+00 0. -1.
          5    1    1    2  502    0 -0.52138377479E+02  0.59665261137E+02 -0.15954099857E+02  0.80934291218E+02  0.41800000000E+01 0.  1.
         -5    1    1    2    0  502  0.10184437109E+01 -0.52276790656E+02 -0.37929190397E+02  0.64730178070E+02  0.41800000000E+01 0.  1.
        -11    1    1    2    0    0  0.18277505591E+02  0.22643623452E+01  0.18283931741E+02  0.25951815108E+02  0.00000000000E+00 0.  1.
         11    1    1    2    0    0  0.32842428177E+02 -0.96528328269E+01 -0.11065532327E+03  0.11582919683E+03  0.00000000000E+00 0. -1.
</event>
<event>
 6    1  0.8259171E-006  0.6997460E+02  0.7561462E-02  0.1360179E+00
         -3   -1    0    0    0  501 -0.00000000000E+00  0.00000000000E+00  0.74004735112E+02  0.74004735112E+02  0.00000000000E+00 0.  1.
          3   -1    0    0  501    0  0.00000000000E+00 -0.00000000000E+00 -0.21349562214E+03  0.21349562214E+03  0.00000000000E+00 0. -1.
          5    1    1    2  502    0 -0.44771560599E+01  0.18857060706E+02 -0.70468464689E+02  0.73204580325E+02  0.41800000000E+01 0.  1.
         -5    1    1    2    0  502 -0.20790512684E+02 -0.90509325709E+01  0.51275387145E+02  0.56221014976E+02  0.41800000000E+01 0.  1.
        -11    1    1    2    0    0  0.59291845390E+02  0.59115886473E+01 -0.97320466905E+02  0.11411285243E+03  0.00000000000E+00 0.  1.
         11    1    1    2    0    0 -0.34024176646E+02 -0.15717716783E+02 -0.22977342583E+02  0.43961909530E+02  0.00000000000E+00 0. -1.
</event>
<event>
 6    1  0.8259171E-006  0.1785957E+03  0.7561462E-02  0.1169169E+00
         -2   -1    0    0    0  501 -0.00000000000E+00  0.00000000000E+00  0.48253022492E+03  0.48253022492E+03  0.00000000000E+00 0.  1.
          2   -1    0    0  501    0  0.00000000000E+00 -0.00000000000E+00 -0.84278411194E+02  0.84278411194E+02  0.00000000000E+00 0. -1.
          5    1    1    2  502    0  0.61982638461E+02  0.60763123346E+02  0.19563278078E+03  0.21406462095E+03  0.41800000000E+01 0.  1.
         -5    1    1    2    0  502 -0.54976832109E+02  0.83137019763E+02  0.13815441560E+03  0.17040637040E+03  0.41800000000E+01 0.  1.
        -11    1    1    2    0    0 -0.47234753013E+02 -0.10222348159E+03  0.44125375805E+02  0.12094548719E+03  0.00000000000E+00 0.  1.
         11    1    1    2    0    0  0.40228946660E+02 -0.41676661517E+02  0.20339241543E+02  0.61392157570E+02  0.00000000000E+00 0. -1.
</event>
<event>
 6    1  0.8259171E-006  0.1137640E+03  0.7561462E-02  0.1253754E+00
         -1   -1    0    0    0  501 -0.00000000000E+00  0.00000000000E+00  0.17811966953E+03  0.17811966953E+03  0.00000000000E+00 0.  1.
          1   -1    0    0  501    0  0.00000000000E+00 -0.00000000000E+00 -0.87188670022E+02  0.87188670022E+02  0.00000000000E+00 0. -1.
          5    1    1    2  502    0  0.22647474932E+02 -0.83737456053E+02  0.65772410068E+02  0.10894196617E+03  0.41800000000E+01 0. -1.
         -5    1    1    2    0  502 -0.33622240025E+02  0.32445201761E+02  0.16640699129E+02  0.49774806972E+02  0.41800000000E+01 0. -1.
        -11    1    1    2    0    0 -0.32063757819E+02  0.35723880769E+02  0.29393937870E+02  0.56287510214E+02  0.00000000000E+00 0.  1.
         11    1    1    2    0    0  0.43038522912E+02  0.15568373523E+02 -0.20876047555E+02  0.50304056199E+02  0.00000000000E+00 0. -1.
</event>
<event>
 6    1  0.8259171E-006  0.1922165E+03  0.7561462E-02  0.1156477E+00
          2   -1    0    0  501    0  0.00000000000E+00  0.00000000000E+00  0.94173838545E+03  0.94173838545E+03  0.00000000000E+00 0. -1.
         -2   -1    0    0    0  501 -0.00000000000E+00 -0.00000000000E+00 -0.49160262590E+02  0.49160262590E+02  0.00000000000E+00 0.  1.
          5    1    1    2  502    0  0.12473848887E+02  0.14988881924E+03  0.18784013116E+03  0.24067331034E+03  0.41800000000E+01 0.  1.
         -5    1    1    2    0  502 -0.46241874651E+02  0.24332633233E+02  0.16986693531E+03  0.17777130287E+03  0.41800000000E+01 0.  1.
        -11    1    1    2    0    0  0.73170251909E+01 -0.12863686426E+03  0.23515593501E+03  0.26814043984E+03  0.00000000000E+00 0.  1.
         11    1    1    2    0    0  0.26451000573E+02 -0.45584588204E+02  0.29971512137E+03  0.30431359498E+03  0.00000000000E+00 0. -1.
</event>
<event>
 6    1  0.8259171E-006  0.1933061E+03  0.7561462E-02  0.1155513E+00
         -1   -1    0    0    0  501 -0.00000000000E+00  0.00000000000E+00  0.12843571050E+04  0.12843571050E+04  0.00000000000E+00 0.  1.
          1   -1    0    0  501    0  0.00000000000E+00 -0.00000000000E+00 -0.33728163457E+02  0.33728163457E+02  0.00000000000E+00 0. -1.
          5    1    1    2  502    0  0.69402025870E+02 -0.81619448717E+02  0.40180712490E+03  0.41586634105E+03  0.41800000000E+01 0.  1.
         -5    1    1    2    0  502 -0.52987873521E+02 -0.80306538046E+02  0.47258748669E+03  0.48229996866E+03  0.41800000000E+01 0.  1.
        -11    1    1    2    0    0 -0.41997640563E+02  0.38281463519E+02  0.82298853481E+02  0.10001186703E+03  0.00000000000E+00 0.  1.
         11    1    1    2    0    0  0.25583488214E+02  0.12364452324E+03  0.29393547644E+03  0.31990709168E+03  0.00000000000E+00 0. -1.
</event>
<event>
 6    1  0.8259171E-006  0.9914063E+02  0.7561462E-02  0.1282114E+00
          2   -1    0    0  501    0  0.00000000000E+00  0.00000000000E+00  0.67406025473E+02  0.67406025473E+02  0.00000000000E+00 0. -1.
         -2   -1    0    0    0  501 -0.00000000000E+00 -0.00000000000E+00 -0.17803589690E+03  0.17803589690E+03  0.00000000000E+00 0.  1.
          5    1    1    2  502    0  0.24509545545E+02 -0.60861376120E+02 -0.67549877173E+02  0.94261780336E+02  0.41800000000E+01 0. -1.
         -5    1    1    2    0  502 -0.20272076289E+02  0.48494933579E+02 -0.10512815933E+02  0.53765298834E+02  0.41800000000E+01 0. -1.
        -11    1    1    2    0    0  0.27030407771E+02  0.32765356049E+02  0.69616840826E+01  0.43042729311E+02  0.00000000000E+00 0.  1.
         11    1    1    2    0    0 -0.31267877028E+02 -0.20398913508E+02 -0.39528862404E+02  0.54372113892E+02  0.00000000000E+00 0. -1.
</event>
<event>
 6    1  0.8259171E-006  0.1008459E+03  0.7561462E-02  0.1278527E+00
          1   -1    0    0  501    0  0.00000000000E+00  0.00000000000E+00  0.28214988861E+03  0.28214988861E+03  0.00000000000E+00 0. -1.
         -1   -1    0    0    0  501 -0.00000000000E+00 -0.00000000000E+00 -0.50660131861E+02  0.50660131861E+02  0.00000000000E+00 0.  1.
          5    1    1    2  502    0 -0.52265692069E+02 -0.14509717544E+02  0.14931210825E+02  0.56414961911E+02  0.41800000000E+01 0. -1.
         -5    1    1    2    0  502  0.38257775422E+02  0.57964622408E+02  0.86333735798E+02  0.11088075202E+03  0.41800000000E+01 0. -1.
        -11    1    1    2    0    0  0.26928104654E+02 -0.54450606979E+02  0.13487470878E+03  0.14792288021E+03  0.00000000000E+00 0. -1.
         11    1    1    2    0    0 -0.12920188006E+02  0.10995702115E+02 -0.46498986501E+01  0.17591426337E+02  0.00000000000E+00 0.  1.
</event>
<event>
 6    1  0.8259171E-006  0.1269710E+03  0.7561462E-02  0.1232021E+00
          2   -1    0    0  501    0  0.00000000000E+00  0.00000000000E+00  0.43135220001E+03  0.43135220001E+03  0.00000000000E+00 0. -1.
         -2   -1    0    0    0  501 -0.00000000000E+00 -0.00000000000E+00 -0.44165067304E+02  0.44165067304E+02  0.00000000000E+00 0.  1.
          5    1    1    2  502    0  0.57801952175E+02 -0.41370867129E+02  0.37811531459E+02  0.80621328652E+02  0.41800000000E+01 0. -1.
         -5    1    1    2    0  502  0.15576109140E+02  0.62623667573E+02  0.10962247088E+03  0.12727488927E+03  0.41800000000E+01 0. -1.
        -11    1    1    2    0    0 -0.66994425707E+02  0.24904701701E+02  0.12926356440E+03  0.14770770570E+03  0.00000000000E+00 0.  1.
         11    1    1    2    0    0 -0.63836356089E+01 -0.46157502145E+02  0.11048956597E+03  0.11991334369E+03  0.00000000000E+00 0. -1.
</event>
<event>
 6    1  0.8259171E-006  0.8162386E+02  0.7561462E-02  0.1324505E+00
         -2   -1    0    0    0  501 -0.00000000000E+00  0.00000000000E+00  0.38931173091E+02  0.38931173091E+02  0.00000000000E+00 0.  1.
          2   -1    0    0  501    0  0.00000000000E+00 -0.00000000000E+00 -0.36811215837E+03  0.36811215837E+03  0.00000000000E+00 0. -1.
          5    1    1    2  502    0 -0.16998679694E+02 -0.11294699536E+01 -0.14338409831E+03  0.14445311648E+03  0.41800000000E+01 0. -1.
         -5    1    1    2    0  502  0.16514601020E+02  0.42871570119E+02  0.53789670170E+01  0.46444690305E+02  0.41800000000E+01 0. -1.
        -11    1    1    2    0    0  0.15755965748E+02 -0.67671478701E+02 -0.11667515775E+03  0.13579680380E+03  0.00000000000E+00 0.  1.
         11    1    1    2    0    0 -0.15271887074E+02  0.25929378535E+02 -0.74500696233E+02  0.80348720869E+02  0.00000000000E+00 0. -1.
</event>
<event>
 6    1  0.8259171E-006  0.9844230E+02  0.7561462E-02  0.1283606E+00
         -4   -1    0    0    0  501 -0.00000000000E+00  0.00000000000E+00  0.89177406765E+02  0.89177406765E+02  0.00000000000E+00 0.  1.
          4   -1    0    0  501    0  0.00000000000E+00 -0.00000000000E+00 -0.29457409587E+03  0.29457409587E+03  0.00000000000E+00 0. -1.
          5    1    1    2  502    0 -0.20285958383E+02  0.67578659597E+01  0.56305735310E+02  0.60373811281E+02  0.41800000000E+01 0.  1.
         -5    1    1    2    0  502 -0.35155928528E+02 -0.54809155352E+02 -0.53945803431E+02  0.84661708752E+02  0.41800000000E+01 0.  1.
        -11    1    1    2    0    0  0.45293187951E+01  0.57828696001E+02 -0.66485020461E+02  0.88232254622E+02  0.00000000000E+00 0.  1.
         11    1    1    2    0    0  0.50912568116E+02 -0.97774066088E+01 -0.14127160052E+03  0.15048372798E+03  0.00000000000E+00 0. -1.
</event>
<event>
 6    1  0.8259171E-006  0.7563148E+02  0.7561462E-02  0.1341927E+00
          1   -1    0    0  501    0  0.00000000000E+00  0.00000000000E+00  0.53821502184E+03  0.53821502184E+03  0.00000000000E+00 0. -1.
         -1   -1    0    0    0  501 -0.00000000000E+00 -0.00000000000E+00 -0.25821549015E+02  0.25821549015E+02  0.00000000000E+00 0.  1.
          5    1    1    2  502    0  0.16586609714E+01  0.20670748979E+00  0.28144772785E+03  0.28148372918E+03  0.41800000000E+01 0.  1.
         -5    1    1    2    0  502  0.47429343772E+02  0.39207424460E+01  0.26743067993E+02  0.54750150298E+02  0.41800000000E+01 0.  1.
        -11    1    1    2    0    0  0.91636553795E+01  0.30072470288E+02  0.87291903076E+02  0.92780398748E+02  0.00000000000E+00 0.  1.
         11    1    1    2    0    0 -0.58251660123E+02 -0.34199920223E+02  0.11691077391E+03  0.13502229263E+03  0.00000000000E+00 0. -1.
</event>
<event>
 6    1  0.8259171E-006  0.1289496E+03  0.7561462E-02  0.1229023E+00
         -1   -1    0    0    0  501 -0.00000000000E+00  0.00000000000E+00  0.10398798372E+03  0.10398798372E+03  0.00000000000E+00 0.  1.
          1   -1    0    0  501    0  0.00000000000E+00 -0.00000000000E+00 -0.22462312064E+03  0.22462312064E+03  0.00000000000E+00 0. -1.
          5    1    1    2  502    0 -0.76811378594E+02 -0.78331025571E+02 -0.51502545287E+02  0.12126715145E+03  0.41800000000E+01 0.  1.
         -5    1    1    2    0  502  0.21814746023E+02  0.10735219831E+02  0.23112217800E+02  0.33804956745E+02  0.41800000000E+01 0.  1.
        -11    1    1    2    0    0  0.75998324466E+02  0.68650696664E+02 -0.28339401751E+02  0.10626281177E+03  0.00000000000E+00 0.  1.
         11    1    1    2    0    0 -0.21001691895E+02 -0.10548909247E+01 -0.63905407680E+02  0.67276184405E+02  0.00000000000E+00 0. -1.
</event>
<event>
 6    1  0.8259171E-006  0.2653212E+03  0.7561462E-02  0.1103988E+00
         -1   -1    0    0    0  501 -0.00000000000E+00  0.00000000000E+00  0.18009041299E+03  0.18009041299E+03  0.00000000000E+00 0.  1.
          1   -1    0    0  501    0  0.00000000000E+00 -0.00000000000E+00 -0.41745776567E+03  0.41745776567E+03  0.00000000000E+00 0. -1.
          5    1    1    2  502    0 -0.86415812416E+02  0.19705687743E+03 -0.13464650691E+03  0.25386267903E+03  0.41800000000E+01 0.  1.
         -5    1    1    2    0  502  0.25349099264E+02  0.47088564113E+02  0.82886685669E+01  0.54277841983E+02  0.41800000000E+01 0.  1.
        -11    1    1    2    0    0 -0.16643632729E+02 -0.48395643917E+02 -0.46476718132E+02  0.69132005532E+02  0.00000000000E+00 0. -1.
         11    1    1    2    0    0  0.77710345880E+02 -0.19574979763E+03 -0.64532796198E+02  0.22027565211E+03  0.00000000000E+00 0.  1.
</event>
<event>
 6    1  0.8259171E-006  0.3203384E+03  0.7561462E-02  0.1075494E+00
         -1   -1    0    0    0  501 -0.00000000000E+00  0.00000000000E+00  0.31352226055E+03  0.31352226055E+03  0.00000000000E+00 0.  1.
          1   -1    0    0  501    0  0.00000000000E+00 -0.00000000000E+00 -0.40733868057E+03  0.40733868057E+03  0.00000000000E+00 0. -1.
          5    1    1    2  502    0  0.78426320900E+01  0.99870585120E+02 -0.27038381035E+01  0.10030166395E+03  0.41800000000E+01 0.  1.
         -5    1    1    2    0  502 -0.12714709103E+03  0.18142545412E+03  0.10608755027E+03  0.24566973538E+03  0.41800000000E+01 0.  1.
        -11    1    1    2    0    0  0.72021497780E+02 -0.63684825225E+02 -0.58594368716E+02  0.11258842370E+03  0.00000000000E+00 0. -1.
         11    1    1    2    0    0  0.47282961161E+02 -0.21761121402E+03 -0.13860576347E+03  0.26230111809E+03  0.00000000000E+00 0.  1.
</event>
<event>
 6    1  0.8259171E-006  0.1868664E+03  0.7561462E-02  0.1161318E+00
          1   -1    0    0  501    0  0.00000000000E+00  0.00000000000E+00  0.86550736794E+02  0.86550736794E+02  0.00000000000E+00 0. -1.
         -1   -1    0    0    0  501 -0.00000000000E+00 -0.00000000000E+00 -0.67713495782E+03  0.67713495782E+03  0.00000000000E+00 0.  1.
          5    1    1    2  502    0 -0.12021499743E+02  0.11162947423E+03 -0.38777651513E+03  0.40372484945E+03  0.41800000000E+01 0. -1.
         -5    1    1    2    0  502  0.49020454242E+02 -0.14758575885E+03 -0.20095210516E+03  0.25413339434E+03  0.41800000000E+01 0.  1.
        -11    1    1    2    0    0  0.24987633639E+02  0.36001543548E+02 -0.52580112041E+00  0.43826583708E+02  0.00000000000E+00 0. -1.
         11    1    1    2    0    0 -0.61986588138E+02 -0.45258921162E-01 -0.13297996183E+01  0.62000867126E+02  0.00000000000E+00 0.  1.
</event>
<event>
 6    1  0.8259171E-006  0.1349407E+03  0.7561462E-02  0.1220303E+00
         -1   -1    0    0    0  501 -0.00000000000E+00  0.00000000000E+00  0.15389535894E+03  0.15389535894E+03  0.00000000000E+00 0.  1.
          1   -1    0    0  501    0  0.00000000000E+00 -0.00000000000E+00 -0.18804902887E+03  0.18804902887E+03  0.00000000000E+00 0. -1.
          5    1    1    2  502    0 -0.66713706887E+01 -0.50358529008E+02  0.52025655081E+02  0.72832889667E+02  0.41800000000E+01 0.  1.
         -5    1    1    2    0  502  0.55321500319E+01 -0.80590296137E+02 -0.73943228372E+02  0.10959230784E+03  0.41800000000E+01 0.  1.
        -11    1    1    2    0    0  0.21895336195E+02  0.52679736145E+02  0.33862959603E+02  0.66341995602E+02  0.00000000000E+00 0.  1.
         11    1    1    2    0    0 -0.20756115538E+02  0.78269089000E+02 -0.46099056249E+02  0.93177194700E+02  0.00000000000E+00 0. -1.
</event>
<event>
 6    1  0.8259171E-006  0.2124455E+03  0.7561462E-02  0.1139644E+00
          2   -1    0    0  501    0  0.00000000000E+00  0.00000000000E+00  0.11208791203E+04  0.11208791203E+04  0.00000000000E+00 0. -1.
         -2   -1    0    0    0  501 -0.00000000000E+00 -0.00000000000E+00 -0.58251358606E+02  0.58251358606E+02  0.00000000000E+00 0.  1.
          5    1    1    2  502    0  0.10686673130E+03  0.32767704931E+02  0.27699406625E+03  0.29872630598E+03  0.41800000000E+01 0. -1.
         -5    1    1    2    0  502  0.86865228494E+02  0.50158415898E+02  0.56722501770E+02  0.11530979669E+03  0.41800000000E+01 0. -1.
        -11    1    1    2    0    0 -0.10372316932E+03 -0.28943430230E+02  0.52306841446E+03  0.53403818610E+03  0.00000000000E+00 0.  1.
         11    1    1    2    0    0 -0.90008790476E+02 -0.53982690600E+02  0.20584277925E+03  0.23105619017E+03  0.00000000000E+00 0. -1.
</event>
<event>
 6    1  0.8259171E-006  0.1269979E+03  0.7561462E-02  0.1231980E+00
         -3   -1    0    0    0  501 -0.00000000000E+00  0.00000000000E+00  0.31200615601E+02  0.31200615601E+02  0.00000000000E+00 0.  1.
          3   -1    0    0  501    0  0.00000000000E+00 -0.00000000000E+00 -0.61898932453E+03  0.61898932453E+03  0.00000000000E+00 0. -1.
          5    1    1    2  502    0 -0.71707713696E+02 -0.55883408619E+02 -0.16047681888E+03  0.18448640427E+03  0.41800000000E+01 0. -1.
         -5    1    1    2    0  502  0.52917471607E+02 -0.23006366943E+02 -0.89481276775E+02  0.10655478879E+03  0.41800000000E+01 0. -1.
        -11    1    1    2    0    0  0.21574857125E+02 -0.42152719631E+01 -0.17201926646E+02  0.27913245207E+02  0.00000000000E+00 0.  1.
         11    1    1    2    0    0 -0.27846150355E+01  0.83105047525E+02 -0.32062868663E+03  0.33123550187E+03  0.00000000000E+00 0. -1.
</event>
<event>
 6    1  0.8259171E-006  0.9034560E+02  0.7561462E-02  0.1302017E+00
         -3   -1    0    0    0  501 -0.00000000000E+00  0.00000000000E+00  0.11471240133E+03  0.11471240133E+03  0.00000000000E+00 0.  1.
          3   -1    0    0  501    0  0.00000000000E+00 -0.00000000000E+00 -0.14295191236E+03  0.14295191236E+03  0.00000000000E+00 0. -1.
          5    1    1    2  502    0 -0.56415934093E+02  0.31791836479E+02 -0.20053676138E+02  0.67919811638E+02  0.41800000000E+01 0.  1.
         -5    1    1    2    0  502  0.89046741195E+01 -0.48391357077E+02  0.49850391004E+02  0.70168016533E+02  0.41800000000E+01 0.  1.
        -11    1    1    2    0    0  0.30395124908E+02 -0.12333095167E+02  0.17297035839E+02  0.37083099970E+02  0.00000000000E+00 0.  1.
         11    1    1    2    0    0  0.17116135066E+02  0.28932615765E+02 -0.75333261734E+02  0.82493385541E+02  0.00000000000E+00 0. -1.
</event>
<event>
 6    1  0.8259171E-006  0.8225534E+02  0.7561462E-02  0.1322770E+00
         -2   -1    0    0    0  501 -0.00000000000E+00  0.00000000000E+00  0.18597555858E+02  0.18597555858E+02  0.00000000000E+00 0.  1.
          2   -1    0    0  501    0  0.00000000000E+00 -0.00000000000E+00 -0.91014737715E+03  0.91014737715E+03  0.00000000000E+00 0. -1.
          5    1    1    2  502    0  0.23954301894E+02  0.57022835673E+01 -0.46289622084E+03  0.46356952908E+03  0.41800000000E+01 0. -1.
         -5    1    1    2    0  502  0.23531873609E+02 -0.32573189492E+02 -0.23663452397E+02  0.46820862108E+02  0.41800000000E+01 0.  1.
        -11    1    1    2    0    0 -0.64403593502E+02  0.41626935693E+02 -0.35997437879E+03  0.36805186865E+03  0.00000000000E+00 0. -1.
         11    1    1    2    0    0  0.16917417999E+02 -0.14756029768E+02 -0.45015769259E+02  0.50302673172E+02  0.00000000000E+00 0.  1.
</event>
<event>
 6    1  0.8259171E-006  0.1336134E+03  0.7561462E-02  0.1222191E+00
         -1   -1    0    0    0  501 -0.00000000000E+00  0.00000000000E+00  0.34330291521E+02  0.34330291521E+02  0.00000000000E+00 0.  1.
          1   -1    0    0  501    0  0.00000000000E+00 -0.00000000000E+00 -0.75550878366E+03  0.75550878366E+03  0.00000000000E+00 0. -1.
          5    1    1    2  502    0  0.42197930705E+02 -0.70605576435E+02 -0.96234636447E+02  0.12666645346E+03  0.41800000000E+01 0.  1.
         -5    1    1    2    0  502 -0.41233667420E+02  0.27734639000E+02 -0.59180301438E+02  0.77389960639E+02  0.41800000000E+01 0.  1.
        -11    1    1    2    0    0 -0.20935190741E+02  0.85444726058E+02 -0.47979273094E+03  0.48779109062E+03  0.00000000000E+00 0. -1.
         11    1    1    2    0    0  0.19970927456E+02 -0.42573788623E+02 -0.85970823313E+02  0.97991570465E+02  0.00000000000E+00 0.  1.
</event>
<event>
 6    1  0.8259171E-006  0.1085760E+03  0.7561462E-02  0.1263230E+00
          1   -1    0    0  501    0  0.00000000000E+00  0.00000000000E+00  0.15534686410E+03  0.15534686410E+03  0.00000000000E+00 0. -1.
         -1   -1    0    0    0  501 -0.00000000000E+00 -0.00000000000E+00 -0.93397900419E+02  0.93397900419E+02  0.00000000000E+00 0.  1.
          5    1    1    2  502    0  0.60219918360E+02 -0.18895910041E+02 -0.11778777321E+02  0.64340546926E+02  0.41800000000E+01 0. -1.
         -5    1    1    2    0  502 -0.56453765650E+02 -0.29266808247E+02  0.31526974984E+02  0.71098496979E+02  0.41800000000E+01 0. -1.
        -11    1    1    2    0    0  0.22934548006E+02 -0.10871500363E+02  0.41338468657E+02  0.48508267371E+02  0.00000000000E+00 0. -1.
         11    1    1    2    0    0 -0.26700700716E+02  0.59034218650E+02  0.86229736218E+00  0.64797453246E+02  0.00000000000E+00 0.  1.
</event>
<event>
 6    1  0.8259171E-006  0.2758396E+03  0.7561462E-02  0.1097983E+00
          1   -1    0    0  501    0  0.00000000000E+00  0.00000000000E+00  0.88954771602E+03  0.88954771602E+03  0.00000000000E+00 0. -1.
         -1   -1    0    0    0  501 -0.00000000000E+00 -0.00000000000E+00 -0.15398459672E+03  0.15398459672E+03  0.00000000000E+00 0.  1.
          5    1    1    2  502    0 -0.11631159329E+03  0.17294269330E+03  0.31168930583E+02  0.21077603406E+03  0.41800000000E+01 0.  1.
         -5    1    1    2    0  502  0.30004778669E+02  0.54579818643E+02 -0.11757953718E+02  0.63521376101E+02  0.41800000000E+01 0.  1.
        -11    1    1    2    0    0  0.51274967178E+01 -0.19219537019E+03  0.48872347809E+03  0.52518186334E+03  0.00000000000E+00 0. -1.
         11    1    1    2    0    0  0.81179317905E+02 -0.35327141752E+02  0.22742866435E+03  0.24405303925E+03  0.00000000000E+00 0.  1.
</event>
<event>
 6    1  0.8259171E-006  0.1483731E+03  0.7561462E-02  0.1202487E+00
          2   -1    0    0  501    0  0.00000000000E+00  0.00000000000E+00  0.26358219848E+03  0.26358219848E+03  0.00000000000E+00 0. -1.
         -2   -1    0    0    0  501 -0.00000000000E+00 -0.00000000000E+00 -0.10495121908E+03  0.10495121908E+03  0.00000000000E+00 0.  1.
          5    1    1    2  502    0  0.71383940462E+02  0.18373341297E+02 -0.24835529443E+02  0.77894303701E+02  0.41800000000E+01 0.  1.
         -5    1    1    2    0  502  0.15301364848E+02  0.68860186251E+02  0.77364814645E+02  0.10477902444E+03  0.41800000000E+01 0.  1.
        -11    1    1    2    0    0 -0.64124469534E+02 -0.10534198772E+03  0.90701333689E+02  0.15308694883E+03  0.00000000000E+00 0. -1.
         11    1    1    2    0    0 -0.22560835776E+02  0.18108460168E+02  0.15400360513E+02  0.32773140596E+02  0.00000000000E+00 0.  1.
</event>
<event>
 6    1  0.8259171E-006  0.1426329E+03  0.7561462E-02  0.1209830E+00
          2   -1    0    0  501    0  0.00000000000E+00  0.00000000000E+00  0.17996442194E+03  0.17996442194E+03  0.00000000000E+00 0.  1.
         -2   -1    0    0    0  501 -0.00000000000E+00 -0.00000000000E+00 -0.11593558423E+03  0.11593558423E+03  0.00000000000E+00 0. -1.
          5    1    1    2  502    0 -0.99439542398E+02  0.45451817496E+02  0.19746758557E+02  0.11118227008E+03  0.41800000000E+01 0.  1.
         -5    1    1    2    0  502  0.43450843635E+01 -0.46808724539E+02  0.17277912159E+02  0.50258681834E+02  0.41800000000E+01 0.  1.
        -11    1    1    2    0    0  0.48431524732E+02 -0.42635821763E+02  0.27957261598E+02  0.70320938285E+02  0.00000000000E+00 0.  1.
         11    1    1    2    0    0  0.46662933303E+02  0.43992728806E+02 -0.95309460196E+00  0.64138115980E+02  0.00000000000E+00 0. -1.
</event>
<event>
 6    1  0.8259171E-006  0.1279686E+03  0.7561462E-02  0.1230502E+00
          2   -1    0    0  501    0  0.00000000000E+00  0.00000000000E+00  0.68041774784E+02  0.68041774784E+02  0.00000000000E+00 0. -1.
         -2   -1    0    0    0  501 -0.00000000000E+00 -0.00000000000E+00 -0.34287055826E+03  0.34287055826E+03  0.00000000000E+00 0.  1.
          5    1    1    2  502    0 -0.65163227113E+01  0.10377633356E+03 -0.21805356206E+03  0.24161295122E+03  0.41800000000E+01 0.  1.
         -5    1    1    2    0  502 -0.19151456622E+02 -0.11119834292E+02  0.54009898780E+01  0.23174816010E+02  0.41800000000E+01 0.  1.
        -11    1    1    2    0    0 -0.14491997918E+02 -0.87679147849E+02 -0.28054280444E+02  0.93191703614E+02  0.00000000000E+00 0. -1.
         11    1    1    2    0    0  0.40159777252E+02 -0.49773514196E+01 -0.34121930850E+02  0.52932862203E+02  0.00000000000E+00 0.  1.
</event>
<event>
 6    1  0.8259171E-006  0.2756538E+03  0.7561462E-02  0.1098087E+00
          1   -1    0    0  501    0  0.00000000000E+00  0.00000000000E+00  0.43506995653E+03  0.43506995653E+03  0.00000000000E+00 0. -1.
         -1   -1    0    0    0  501 -0.00000000000E+00 -0.00000000000E+00 -0.20926223944E+03  0.20926223944E+03  0.00000000000E+00 0.  1.
          5    1    1    2  502    0  0.64734933339E+01 -0.12442094108E+02  0.28040961305E+02  0.31630360932E+02  0.41800000000E+01 0. -1.
         -5    1    1    2    0  502 -0.18146486661E+03  0.28110778387E+02 -0.33734321570E+02  0.18674900409E+03  0.41800000000E+01 0.  1.
        -11    1    1    2    0    0 -0.64363980300E+02 -0.82356221930E+02  0.10076586364E+03  0.14518618572E+03  0.00000000000E+00 0.  1.
         11    1    1    2    0    0  0.23935535358E+03  0.66687537651E+02  0.13073521372E+03  0.28076664523E+03  0.00000000000E+00 0. -1.
</event>
<event>
 6    1  0.8259171E-006  0.1129283E+03  0.7561462E-02  0.1255241E+00
         -2   -1    0    0    0  501 -0.00000000000E+00  0.00000000000E+00  0.23581356919E+02  0.23581356919E+02  0.00000000000E+00 0.  1.
          2   -1    0    0  501    0  0.00000000000E+00 -0.00000000000E+00 -0.60507888501E+03  0.60507888501E+03  0.00000000000E+00 0. -1.
          5    1    1    2  502    0 -0.46828195353E+02 -0.40127634552E+02 -0.10561307624E+03  0.12237116166E+03  0.41800000000E+01 0.  1.
         -5    1    1    2    0  502  0.69889384528E+02  0.45163553446E+01 -0.13264449812E+03  0.15005651874E+03  0.41800000000E+01 0.  1.
        -11    1    1    2    0    0 -0.22634147372E+02 -0.24740843106E+02 -0.94420440704E+02  0.10019797187E+03  0.00000000000E+00 0.  1.
         11    1    1    2    0    0 -0.42704180342E+00  0.60352122314E+02 -0.24881951303E+03  0.25603458965E+03  0.00000000000E+00 0. -1.
</event>
<event>
 6    1  0.8259171E-006  0.1344302E+03  0.7561462E-02  0.1221026E+00
         -2   -1    0    0    0  501 -0.00000000000E+00  0.00000000000E+00  0.19769488066E+02  0.19769488066E+02  0.00000000000E+00 0. -1.
          2   -1    0    0  501    0  0.00000000000E+00 -0.00000000000E+00 -0.96610981835E+03  0.96610981835E+03  0.00000000000E+00 0.  1.
          5    1    1    2  502    0  0.37551331027E+02 -0.30026421296E+02 -0.12472378314E+03  0.13373549610E+03  0.41800000000E+01 0. -1.
         -5    1    1    2    0  502  0.12235326294E+02  0.99033793976E+02 -0.40891982612E+03  0.42093977260E+03  0.41800000000E+01 0. -1.
        -11    1    1    2    0    0 -0.17019133988E+02 -0.83267287533E+02 -0.33613505756E+03  0.34671294902E+03  0.00000000000E+00 0. -1.
         11    1    1    2    0    0 -0.32767523333E+02  0.14259914852E+02 -0.76561663464E+02  0.84491088698E+02  0.00000000000E+00 0.  1.
</event>
<event>
 6    1  0.8259171E-006  0.1313397E+03  0.7561462E-02  0.1225481E+00
         -1   -1    0    0    0  501 -0.00000000000E+00  0.00000000000E+00  0.46271695127E+02  0.46271695127E+02  0.00000000000E+00 0.  1.
          1   -1    0    0  501    0  0.00000000000E+00 -0.00000000000E+00 -0.61074832698E+03  0.61074832698E+03  0.00000000000E+00 0. -1.
          5    1    1    2  502    0 -0.88631570318E+01  0.36552365071E+02  0.10073736568E+02  0.39160994794E+02  0.41800000000E+01 0.  1.
         -5    1    1    2    0  502  0.15743625505E+02  0.78535150809E+02 -0.20181595084E+03  0.21716993822E+03  0.41800000000E+01 0.  1.
        -11    1    1    2    0    0  0.11225120952E+02  0.11899424073E+02 -0.23414374834E+02  0.28562783172E+02  0.00000000000E+00 0.  1.
         11    1    1    2    0    0 -0.18105589426E+02 -0.12698693995E+03 -0.34932004275E+03  0.37212630592E+03  0.00000000000E+00 0. -1.
</event>
<event>
 6    1  0.8259171E-006  0.9266517E+02  0.7561462E-02  0.1296523E+00
          2   -1    0    0  501    0  0.00000000000E+00  0.00000000000E+00  0.14674619575E+03  0.14674619575E+03  0.00000000000E+00 0. -1.
         -2   -1    0    0    0  501 -0.00000000000E+00 -0.00000000000E+00 -0.87292996323E+02  0.87292996323E+02  0.00000000000E+00 0.  1.
          5    1    1    2  502    0 -0.27270906964E+02 -0.45038680205E+02 -0.47305008555E+01  0.53028625473E+02  0.41800000000E+01 0.  1.
         -5    1    1    2    0  502  0.14881907399E+02  0.73718699759E+02  0.10356545916E+02  0.76030574806E+02  0.41800000000E+01 0.  1.
        -11    1    1    2    0    0 -0.17647792115E+01 -0.39397821073E+02 -0.83553017288E+01  0.40312700455E+02  0.00000000000E+00 0.  1.
         11    1    1    2    0    0  0.14153778776E+02  0.10717801519E+02  0.62182456095E+02  0.64667291338E+02  0.00000000000E+00 0. -1.
</event>
<event>
 6    1  0.8259171E-006  0.8081962E+02  0.7561462E-02  0.1326741E+00
         -4   -1    0    0    0  501 -0.00000000000E+00  0.00000000000E+00  0.33484543476E+03  0.33484543476E+03  0.00000000000E+00 0.  1.
          4   -1    0    0  501    0  0.00000000000E+00 -0.00000000000E+00 -0.50813410733E+02  0.50813410733E+02  0.00000000000E+00 0. -1.
          5    1    1    2  502    0  0.31029797383E+02  0.45079686818E+01  0.24098478760E+03  0.24305207335E+03  0.41800000000E+01 0. -1.
         -5    1    1    2    0  502  0.17522401218E+02  0.19728509478E+02 -0.71300373100E+01  0.27650650313E+02  0.41800000000E+01 0. -1.
        -11    1    1    2    0    0 -0.40863673177E+01 -0.51150904251E+02  0.27877597878E+02  0.58397550180E+02  0.00000000000E+00 0.  1.
         11    1    1    2    0    0 -0.44465831284E+02  0.26914426092E+02  0.22299675865E+02  0.56558571651E+02  0.00000000000E+00 0. -1.
</event>
<event>
 6    1  0.8259171E-006  0.1446065E+03  0.7561462E-02  0.1207262E+00
          2   -1    0    0  501    0  0.00000000000E+00  0.00000000000E+00  0.32778945880E+03  0.32778945880E+03  0.00000000000E+00 0. -1.
         -2   -1    0    0    0  501 -0.00000000000E+00 -0.00000000000E+00 -0.72824287767E+02  0.72824287767E+02  0.00000000000E+00 0.  1.
          5    1    1    2  502    0  0.40562821313E+02  0.87610619803E+02  0.68360764422E+02  0.11837072986E+03  0.41800000000E+01 0.  1.
         -5    1    1    2    0  502  0.50835873758E+02 -0.31900321480E+02  0.10284159754E+03  0.11914605808E+03  0.41800000000E+01 0.  1.
        -11    1    1    2    0    0 -0.93609536982E+02 -0.18848742413E+02  0.82429136201E+02  0.12614508710E+03  0.00000000000E+00 0. -1.
         11    1    1    2    0    0  0.22108419106E+01 -0.36861555910E+02  0.13336728689E+01  0.36951871527E+02  0.00000000000E+00 0.  1.
</event>
<event>
 6    1  0.8259171E-006  0.8124715E+02  0.7561462E-02  0.1325549E+00
          2   -1    0    0  501    0  0.00000000000E+00  0.00000000000E+00  0.14348915330E+03  0.14348915330E+03  0.00000000000E+00 0. -1.
         -2   -1    0    0    0  501 -0.00000000000E+00 -0.00000000000E+00 -0.20366862217E+03  0.20366862217E+03  0.00000000000E+00 0.  1.
          5    1    1    2  502    0  0.99375226749E+01  0.32737566350E+02 -0.16847620257E+03  0.17196571123E+03  0.41800000000E+01 0.  1.
         -5    1    1    2    0  502 -0.20456355815E+02 -0.26650018531E+02  0.50162522166E+01  0.34224569643E+02  0.41800000000E+01 0.  1.
        -11    1    1    2    0    0 -0.65075506656E+01  0.42340866874E+02  0.60575928932E+02  0.74192589854E+02  0.00000000000E+00 0.  1.
         11    1    1    2    0    0  0.17026383806E+02 -0.48428414693E+02  0.42704552546E+02  0.66774904742E+02  0.00000000000E+00 0. -1.
</event>
<event>
 6    1  0.8259171E-006  0.1211984E+03  0.7561462E-02  0.1241133E+00
          2   -1    0    0  501    0  0.00000000000E+00  0.00000000000E+00  0.36345354632E+03  0.36345354632E+03  0.00000000000E+00 0. -1.
         -2   -1    0    0    0  501 -0.00000000000E+00 -0.00000000000E+00 -0.54213994392E+02  0.54213994392E+02  0.00000000000E+00 0.  1.
          5    1    1    2  502    0 -0.18264524753E+02  0.68107280348E+02  0.10515793892E+02  0.71416026367E+02  0.41800000000E+01 0. -1.
         -5    1    1    2    0  502 -0.46228007219E+02 -0.16847778160E+02  0.11090763511E+03  0.12140367460E+03  0.41800000000E+01 0. -1.
        -11    1    1    2    0    0 -0.83644758780E+01  0.19251092224E+02  0.21381234252E+02  0.29962079145E+02  0.00000000000E+00 0.  1.
         11    1    1    2    0    0  0.72857007850E+02 -0.70510594412E+02  0.16643488868E+03  0.19488576060E+03  0.00000000000E+00 0. -1.
</event>
<event>
 6    1  0.8259171E-006  0.9664982E+02  0.7561462E-02  0.1287503E+00
         -1   -1    0    0    0  501 -0.00000000000E+00  0.00000000000E+00  0.32546688431E+02  0.32546688431E+02  0.00000000000E+00 0.  1.
          1   -1    0    0  501    0  0.00000000000E+00 -0.00000000000E+00 -0.47485474635E+03  0.47485474635E+03  0.00000000000E+00 0. -1.
          5    1    1    2  502    0 -0.72851219889E+02  0.11827402038E+02 -0.42935336292E+02  0.85487444579E+02  0.41800000000E+01 0. -1.
         -5    1    1    2    0  502  0.36181436982E+02  0.99345280934E-01 -0.11015315089E+03  0.11601851276E+03  0.41800000000E+01 0. -1.
        -11    1    1    2    0    0  0.38236246013E+02  0.25200465764E+02 -0.70675299318E+02  0.84214440077E+02  0.00000000000E+00 0.  1.
         11    1    1    2    0    0 -0.15664631063E+01 -0.37127213083E+02 -0.21854427142E+03  0.22168103737E+03  0.00000000000E+00 0. -1.
</event>
<event>
 6    1  0.8259171E-006  0.3117129E+03  0.7561462E-02  0.1079528E+00
          1   -1    0    0  501    0  0.00000000000E+00  0.00000000000E+00  0.16493155765E+04  0.16493155765E+04  0.00000000000E+00 0. -1.
         -1   -1    0    0    0  501 -0.00000000000E+00 -0.00000000000E+00 -0.85374471348E+02  0.85374471348E+02  0.00000000000E+00 0.  1.
          5    1    1    2  502    0 -0.31789300226E+02  0.21607973817E+03  0.16214023534E+03  0.27204400595E+03  0.41800000000E+01 0. -1.
         -5    1    1    2    0  502 -0.45765324836E+02  0.76679538535E+02  0.18415055412E+03  0.20470250504E+03  0.41800000000E+01 0. -1.
        -11    1    1    2    0    0  0.87019734232E+02 -0.15706592311E+03  0.71735237723E+03  0.73948399000E+03  0.00000000000E+00 0. -1.
         11    1    1    2    0    0 -0.94651091687E+01 -0.13569335360E+03  0.50029793841E+03  0.51845954681E+03  0.00000000000E+00 0.  1.
</event>
<event>
 6    1  0.8259171E-006  0.1820621E+03  0.7561462E-02  0.1165822E+00
          2   -1    0    0  501    0  0.00000000000E+00  0.00000000000E+00  0.34213777421E+03  0.34213777421E+03  0.00000000000E+00 0. -1.
         -2   -1    0    0    0  501 -0.00000000000E+00 -0.00000000000E+00 -0.12684467132E+03  0.12684467132E+03  0.00000000000E+00 0.  1.
          5    1    1    2  502    0  0.14195069213E+01 -0.19141311671E+02 -0.17523026162E+02  0.26323633075E+02  0.41800000000E+01 0. -1.
         -5    1    1    2    0  502 -0.13637320151E+03  0.10760158202E+03  0.46632368591E+02  0.17991053539E+03  0.41800000000E+01 0. -1.
        -11    1    1    2    0    0  0.28339420226E+02 -0.49823254794E+02  0.18329285528E+02  0.60178419429E+02  0.00000000000E+00 0.  1.
         11    1    1    2    0    0  0.10661427436E+03 -0.38637015554E+02  0.16785447493E+03  0.20256985764E+03  0.00000000000E+00 0. -1.
</event>
<event>
 6    1  0.8259171E-006  0.1552944E+03  0.7561462E-02  0.1194114E+00
         -1   -1    0    0    0  501 -0.00000000000E+00  0.00000000000E+00  0.60293503449E+02  0.60293503449E+02  0.00000000000E+00 0.  1.
          1   -1    0    0  501    0  0.00000000000E+00 -0.00000000000E+00 -0.51000627024E+03  0.51000627024E+03  0.00000000000E+00 0. -1.
          5    1    1    2  502    0 -0.19758710162E+02  0.49137372990E+01  0.20779883630E+01  0.20888797887E+02  0.41800000000E+01 0.  1.
         -5    1    1    2    0  502  0.85228264878E+02  0.11894261856E+03 -0.25673828549E+03  0.29553886933E+03  0.41800000000E+01 0.  1.
        -11    1    1    2    0    0 -0.35018407347E+02 -0.95848947728E+02 -0.74301350478E+02  0.12622995016E+03  0.00000000000E+00 0.  1.
         11    1    1    2    0    0 -0.30451147368E+02 -0.28007408131E+02 -0.12075111918E+03  0.12764215632E+03  0.00000000000E+00 0. -1.
</event>
<event>
 6    1  0.8259171E-006  0.1564609E+03  0.7561462E-02  0.1192751E+00
          2   -1    0    0  501    0  0.00000000000E+00  0.00000000000E+00  0.75394927086E+03  0.75394927086E+03  0.00000000000E+00 0. -1.
         -2   -1    0    0    0  501 -0.00000000000E+00 -0.00000000000E+00 -0.38312081206E+02  0.38312081206E+02  0.00000000000E+00 0.  1.
          5    1    1    2  502    0  0.13175851928E+03 -0.64334815238E+02  0.24364436860E+03  0.28439290885E+03  0.41800000000E+01 0. -1.
         -5    1    1    2    0  502 -0.13667794296E+02  0.25393576089E+02  0.37385637357E+02  0.47400428142E+02  0.41800000000E+01 0. -1.
        -11    1    1    2    0    0 -0.13882949674E+02 -0.14423438995E+02  0.15508849659E+02  0.25323828736E+02  0.00000000000E+00 0.  1.
         11    1    1    2    0    0 -0.10420777531E+03  0.53364678144E+02  0.41909833404E+03  0.43514418634E+03  0.00000000000E+00 0. -1.
</event>
<event>
 6    1  0.8259171E-006  0.1479608E+03  0.7561462E-02  0.1203001E+00
          1   -1    0    0  501    0  0.00000000000E+00  0.00000000000E+00  0.37658332553E+02  0.37658332553E+02  0.00000000000E+00 0. -1.
         -1   -1    0    0    0  501 -0.00000000000E+00 -0.00000000000E+00 -0.73802227606E+03  0.73802227606E+03  0.00000000000E+00 0.  1.
          5    1    1    2  502    0  0.36137191328E+02  0.13751304771E+03 -0.25819892715E+03  0.29478787843E+03  0.41800000000E+01 0.  1.
         -5    1    1    2    0  502  0.15085595754E+02 -0.22080069689E+02 -0.12121424550E+03  0.12419931719E+03  0.41800000000E+01 0.  1.
        -11    1    1    2    0    0 -0.26469687916E+02 -0.70609269595E+02 -0.28322647474E+03  0.29309307280E+03  0.00000000000E+00 0.  1.
         11    1    1    2    0    0 -0.24753099167E+02 -0.44823708430E+02 -0.37724296122E+02  0.63600340201E+02  0.00000000000E+00 0. -1.
</event>
<event>
 6    1  0.8259171E-006  0.1099535E+03  0.7561462E-02  0.1260656E+00
          1   -1    0    0  501    0  0.00000000000E+00  0.00000000000E+00  0.35945253560E+03  0.35945253560E+03  0.00000000000E+00 0. -1.
         -1   -1    0    0    0  501 -0.00000000000E+00 -0.00000000000E+00 -0.49281446197E+02  0.49281446197E+02  0.00000000000E+00 0.  1.
          5    1    1    2  502    0  0.32027260378E+02 -0.49041016661E+01  0.66081225364E+02  0.73715645328E+02  0.41800000000E+01 0.  1.
         -5    1    1    2    0  502 -0.10292689462E+03 -0.30668952821E+01  0.71369744827E+02  0.12535734665E+03  0.41800000000E+01 0.  1.
        -11    1    1    2    0    0  0.64369452078E+02 -0.99253005197E+01  0.17828934676E+03  0.18981314264E+03  0.00000000000E+00 0. -1.
         11    1    1    2    0    0  0.65301821594E+01  0.17896297468E+02 -0.55692275503E+01  0.19847847178E+02  0.00000000000E+00 0.  1.
</event>
<event>
 6    1  0.8259171E-006  0.7606774E+02  0.7561462E-02  0.1340596E+00
          3   -1    0    0  501    0  0.00000000000E+00  0.00000000000E+00  0.16941527455E+03  0.16941527455E+03  0.00000000000E+00 0. -1.
         -3   -1    0    0    0  501 -0.00000000000E+00 -0.00000000000E+00 -0.77433871675E+02  0.77433871675E+02  0.00000000000E+00 0.  1.
          5    1    1    2  502    0  0.38879157172E+02 -0.60733931917E+02 -0.52658366216E+01  0.72425139170E+02  0.41800000000E+01 0.  1.
         -5    1    1    2    0  502 -0.33531357173E+02  0.23810684740E+02  0.51544134248E+02  0.66072466255E+02  0.41800000000E+01 0.  1.
        -11    1    1    2    0    0 -0.63420828222E+01  0.11588220570E+02  0.71187529923E+02  0.72402854136E+02  0.00000000000E+00 0. -1.
         11    1    1    2    0    0  0.99428282338E+00  0.25335026606E+02 -0.25484424678E+02  0.35948686661E+02  0.00000000000E+00 0.  1.
</event>
<event>
 6    1  0.8259171E-006  0.9903193E+02  0.7561462E-02  0.1282345E+00
         -2   -1    0    0    0  501 -0.00000000000E+00  0.00000000000E+00  0.23220267226E+03  0.23220267226E+03  0.00000000000E+00 0. -1.
          2   -1    0    0  501    0  0.00000000000E+00 -0.00000000000E+00 -0.59658359655E+02  0.59658359655E+02  0.00000000000E+00 0.  1.
          5    1    1    2  502    0 -0.32287998216E+02 -0.13542646317E+02  0.96298360717E+02  0.10255127876E+03  0.41800000000E+01 0.  1.
         -5    1    1    2    0  502  0.37088458572E+02  0.57720392938E+02  0.14241892519E+02  0.70196163874E+02  0.41800000000E+01 0.  1.
        -11    1    1    2    0    0 -0.28848804154E+02 -0.59099152642E+02  0.62615374776E+02  0.90805553258E+02  0.00000000000E+00 0.  1.
         11    1    1    2    0    0  0.24048343798E+02  0.14921406022E+02 -0.61131540655E+00  0.28308036026E+02  0.00000000000E+00 0. -1.
</event>
<event>
 6    1  0.8259171E-006  0.1193595E+03  0.7561462E-02  0.1244157E+00
         -1   -1    0    0    0  501 -0.00000000000E+00  0.00000000000E+00  0.18046180816E+03  0.18046180816E+03  0.00000000000E+00 0.  1.
          1   -1    0    0  501    0  0.00000000000E+00 -0.00000000000E+00 -0.89163391021E+02  0.89163391021E+02  0.00000000000E+00 0. -1.
          5    1    1    2  502    0  0.10127549635E+02 -0.37527396208E+02 -0.98898589748E+01  0.40325605244E+02  0.41800000000E+01 0. -1.
         -5    1    1    2    0  502  0.21766964708E+02  0.86619407737E+02  0.54963325772E+02  0.10495314254E+03  0.41800000000E+01 0. -1.
        -11    1    1    2    0    0  0.29388452961E+02 -0.37832396802E+02  0.20175697315E+01  0.47948326382E+02  0.00000000000E+00 0. -1.
         11    1    1    2    0    0 -0.61282967304E+02 -0.11259614727E+02  0.44207380613E+02  0.76398125016E+02  0.00000000000E+00 0.  1.
</event>
<event>
 6    1  0.8259171E-006  0.1953737E+03  0.7561462E-02  0.1153702E+00
         -2   -1    0    0    0  501 -0.00000000000E+00  0.00000000000E+00  0.87282895200E+02  0.87282895200E+02  0.00000000000E+00 0.  1.
          2   -1    0    0  501    0  0.00000000000E+00 -0.00000000000E+00 -0.52403242813E+03  0.52403242813E+03  0.00000000000E+00 0. -1.
          5    1    1    2  502    0 -0.43781763215E+02 -0.39223977887E+02 -0.66497331225E+02  0.88852297053E+02  0.41800000000E+01 0.  1.
         -5    1    1    2    0  502 -0.12573352476E+03  0.86220082701E+02 -0.81921239947E+02  0.17312245338E+03  0.41800000000E+01 0.  1.
        -11    1    1    2    0    0  0.68875326910E+02 -0.36956341482E+02 -0.56614495403E+02  0.96513123058E+02  0.00000000000E+00 0.  1.
         11    1    1    2    0    0  0.10063996107E+03 -0.10039763332E+02 -0.23171646635E+03  0.25282744984E+03  0.00000000000E+00 0. -1.
</event>
<event>
 6    1  0.8259171E-006  0.8091141E+02  0.7561462E-02  0.1326485E+00
          1   -1    0    0  501    0  0.00000000000E+00  0.00000000000E+00  0.59935663126E+03  0.59935663126E+03  0.00000000000E+00 0. -1.
         -1   -1    0    0    0  501 -0.00000000000E+00 -0.00000000000E+00 -0.13046373458E+02  0.13046373458E+02  0.00000000000E+00 0.  1.
          5    1    1    2  502    0 -0.44242498470E+02  0.59905411274E+01  0.27619758949E+03  0.27981398481E+03  0.41800000000E+01 0.  1.
         -5    1    1    2    0  502  0.58669916522E+02 -0.40474457171E+02  0.15376318184E+03  0.16953149936E+03  0.41800000000E+01 0.  1.
        -11    1    1    2    0    0 -0.10895304865E+02 -0.22831737786E-01  0.26440306955E+02  0.28597168064E+02  0.00000000000E+00 0.  1.
         11    1    1    2    0    0 -0.35321131884E+01  0.34506747781E+02  0.12990917951E+03  0.13446035248E+03  0.00000000000E+00 0. -1.
</event>
<event>
 6    1  0.8259171E-006  0.1083704E+03  0.7561462E-02  0.1263618E+00
         -3   -1    0    0    0  501 -0.00000000000E+00  0.00000000000E+00  0.32336669708E+03  0.32336669708E+03  0.00000000000E+00 0.  1.
          3   -1    0    0  501    0  0.00000000000E+00 -0.00000000000E+00 -0.65541275462E+02  0.65541275462E+02  0.00000000000E+00 0. -1.
          5    1    1    2  502    0 -0.20555743195E+02  0.21541532413E+02  0.10682124718E+03  0.11097219222E+03  0.41800000000E+01 0. -1.
         -5    1    1    2    0  502  0.97020833365E+02 -0.39310888989E+02  0.11556055209E+03  0.15598109404E+03  0.41800000000E+01 0. -1.
        -11    1    1    2    0    0 -0.32991879191E+02 -0.40962898380E+01 -0.26972345807E+02  0.42810642618E+02  0.00000000000E+00 0. -1.
         11    1    1    2    0    0 -0.43473210979E+02  0.21865646414E+02  0.62415968156E+02  0.79144043659E+02  0.00000000000E+00 0.  1.
</event>
<event>
 6    1  0.8259171E-006  0.1075832E+03  0.7561462E-02  0.1265112E+00
          2   -1    0    0  501    0  0.00000000000E+00  0.00000000000E+00  0.25331448069E+03  0.25331448069E+03  0.00000000000E+00 0. -1.
         -2   -1    0    0    0  501 -0.00000000000E+00 -0.00000000000E+00 -0.94149851944E+02  0.94149851944E+02  0.00000000000E+00 0.  1.
          5    1    1    2  502    0  0.38693676019E+01  0.40068542950E+02 -0.52980846267E+02  0.66670102827E+02  0.41800000000E+01 0. -1.
         -5    1    1    2    0  502 -0.38607142752E+02  0.42141777202E+02  0.66191350536E+02  0.87551174424E+02  0.41800000000E+01 0. -1.
        -11    1    1    2    0    0  0.18101915913E+02  0.12002335269E+02  0.40387139126E+01  0.22091777241E+02  0.00000000000E+00 0.  1.
         11    1    1    2    0    0  0.16635859238E+02 -0.94212655422E+02  0.14191541057E+03  0.17115127815E+03  0.00000000000E+00 0. -1.
</event>
<event>
 6    1  0.8259171E-006  0.1056320E+03  0.7561462E-02  0.1268879E+00
         -1   -1    0    0    0  501 -0.00000000000E+00  0.00000000000E+00  0.34492702616E+03  0.34492702616E+03  0.00000000000E+00 0.  1.
          1   -1    0    0  501    0  0.00000000000E+00 -0.00000000000E+00 -0.55239231871E+02  0.55239231871E+02  0.00000000000E+00 0. -1.
          5    1    1    2  502    0  0.87475946761E+02 -0.26004431658E+02  0.33916599185E+02  0.97447831314E+02  0.41800000000E+01 0. -1.
         -5    1    1    2    0  502 -0.53578583357E+01  0.12655969382E+01  0.11466050761E+03  0.11486867627E+03  0.41800000000E+01 0. -1.
        -11    1    1    2    0    0 -0.38833404818E+02 -0.25672407623E+02  0.98416127879E+02  0.10887074938E+03  0.00000000000E+00 0.  1.
         11    1    1    2    0    0 -0.43284683607E+02  0.50411242344E+02  0.42694559607E+02  0.78979001068E+02  0.00000000000E+00 0. -1.
</event>
<event>
 6    1  0.8259171E-006  0.1292053E+03  0.7561462E-02  0.1228640E+00
         -3   -1    0    0    0  501 -0.00000000000E+00  0.00000000000E+00  0.67461447550E+03  0.67461447550E+03  0.00000000000E+00 0.  1.
          3   -1    0    0  501    0  0.00000000000E+00 -0.00000000000E+00 -0.36281156419E+02  0.36281156419E+02  0.00000000000E+00 0. -1.
          5    1    1    2  502    0 -0.92314311424E+01  0.30243600472E+02  0.60189648793E+02  0.68118726590E+02  0.41800000000E+01 0. -1.
         -5    1    1    2    0  502 -0.83071948340E+01 -0.11207780602E+03  0.44701550113E+03  0.46094552253E+03  0.41800000000E+01 0. -1.
        -11    1    1    2    0    0 -0.62456746445E+01  0.88993982912E+02  0.62721119633E+02  0.10905446481E+03  0.00000000000E+00 0. -1.
         11    1    1    2    0    0  0.23784300621E+02 -0.71597773614E+01  0.68407049520E+02  0.72776917989E+02  0.00000000000E+00 0.  1.
</event>
<event>
 6    1  0.8259171E-006  0.1302070E+03  0.7561462E-02  0.1227149E+00
         -1   -1    0    0    0  501 -0.00000000000E+00  0.00000000000E+00  0.15576885189E+02  0.15576885189E+02  0.00000000000E+00 0.  1.
          1   -1    0    0  501    0  0.00000000000E+00 -0.00000000000E+00 -0.13415933320E+04  0.13415933320E+04  0.00000000000E+00 0. -1.
          5    1    1    2  502    0  0.46754897787E+02  0.92943118425E+02 -0.72863430484E+03  0.73603659306E+03  0.41800000000E+01 0. -1.
         -5    1    1    2    0  502  0.15634219954E+02 -0.22103621039E+02 -0.40466789128E+02  0.48867497572E+02  0.41800000000E+01 0. -1.
        -11    1    1    2    0    0  0.17424481703E+02  0.56791040513E+01 -0.45851063498E+02  0.49377978992E+02  0.00000000000E+00 0.  1.
         11    1    1    2    0    0 -0.79813599444E+02 -0.76518601437E+02 -0.51106428931E+03  0.52288814753E+03  0.00000000000E+00 0. -1.
</event>
<event>
 6    1  0.8259171E-006  0.1088113E+03  0.7561462E-02  0.1262787E+00
         -3   -1    0    0    0  501 -0.00000000000E+00  0.00000000000E+00  0.99408700418E+02  0.99408700418E+02  0.00000000000E+00 0.  1.
          3   -1    0    0  501    0  0.00000000000E+00 -0.00000000000E+00 -0.14938562770E+03  0.14938562770E+03  0.00000000000E+00 0. -1.
          5    1    1    2  502    0 -0.58240949439E+02  0.33856760393E+02 -0.14056413320E+02  0.68944496309E+02  0.41800000000E+01 0.  1.
         -5    1    1    2    0  502  0.53353339305E+02 -0.20694171765E+00  0.30857908549E+02  0.61776245919E+02  0.41800000000E+01 0.  1.
        -11    1    1    2    0    0  0.37117077954E+02 -0.48540953228E+02 -0.49232452914E+02  0.78471243370E+02  0.00000000000E+00 0. -1.
         11    1    1    2    0    0 -0.32229467820E+02  0.14891134552E+02 -0.17545969601E+02  0.39602342525E+02  0.00000000000E+00 0.  1.
</event>
<event>
 6    1  0.8259171E-006  0.1114461E+03  0.7561462E-02  0.1257915E+00
         -2   -1    0    0    0  501 -0.00000000000E+00  0.00000000000E+00  0.74510463155E+02  0.74510463155E+02  0.00000000000E+00 0. -1.
          2   -1    0    0  501    0  0.00000000000E+00 -0.00000000000E+00 -0.24954044831E+03  0.24954044831E+03  0.00000000000E+00 0.  1.
          5    1    1    2  502    0  0.47992449202E+02  0.13727974753E+02 -0.10609677929E+02  0.51203223892E+02  0.41800000000E+01 0. -1.
         -5    1    1    2    0  502 -0.78361932463E+02  0.26970462017E+01  0.50514995992E+01  0.78681996453E+02  0.41800000000E+01 0. -1.
        -11    1    1    2    0    0  0.76332361348E+01 -0.51728861772E+02 -0.84193763969E+02  0.99109693397E+02  0.00000000000E+00 0.  1.
         11    1    1    2    0    0  0.22736247127E+02  0.35303840817E+02 -0.85278042856E+02  0.95055997724E+02  0.00000000000E+00 0. -1.
</event>
<event>
 6    1  0.8259171E-006  0.1024533E+03  0.7561462E-02  0.1275220E+00
          2   -1    0    0  501    0  0.00000000000E+00  0.00000000000E+00  0.97222488726E+02  0.97222488726E+02  0.00000000000E+00 0. -1.
         -2   -1    0    0    0  501 -0.00000000000E+00 -0.00000000000E+00 -0.17127668586E+03  0.17127668586E+03  0.00000000000E+00 0.  1.
          5    1    1    2  502    0 -0.48469964716E+02 -0.24690820103E+02 -0.45022900161E+02  0.70735479187E+02  0.41800000000E+01 0. -1.
         -5    1    1    2    0  502  0.77032772560E+02 -0.25732351357E+02 -0.33787429008E+02  0.88063980796E+02  0.41800000000E+01 0. -1.
        -11    1    1    2    0    0  0.89895985548E+01  0.57761337814E+01 -0.36639313751E+02  0.38165637893E+02  0.00000000000E+00 0.  1.
         11    1    1    2    0    0 -0.37552406398E+02  0.44647037679E+02  0.41395445783E+02  0.71534076714E+02  0.00000000000E+00 0. -1.
</event>
<event>
 6    1  0.8259171E-006  0.1569784E+03  0.7561462E-02  0.1192151E+00
          1   -1    0    0  501    0  0.00000000000E+00  0.00000000000E+00  0.29415171454E+03  0.29415171454E+03  0.00000000000E+00 0. -1.
         -1   -1    0    0    0  501 -0.00000000000E+00 -0.00000000000E+00 -0.13466765348E+03  0.13466765348E+03  0.00000000000E+00 0.  1.
          5    1    1    2  502    0  0.12415438232E+03 -0.20469768668E+02  0.27466639832E+02  0.12886120744E+03  0.41800000000E+01 0. -1.
         -5    1    1    2    0  502 -0.72498079189E+02 -0.63821145233E+01 -0.47253913630E+02  0.86874090644E+02  0.41800000000E+01 0.  1.
        -11    1    1    2    0    0 -0.19942703883E+02  0.63579326993E+02  0.10579647879E+03  0.12503174470E+03  0.00000000000E+00 0.  1.
         11    1    1    2    0    0 -0.31713599252E+02 -0.36727443801E+02  0.73474856062E+02  0.88052325233E+02  0.00000000000E+00 0. -1.
</event>
<event>
 6    1  0.8259171E-006  0.1363034E+03  0.7561462E-02  0.1218391E+00
         -1   -1    0    0    0  501 -0.00000000000E+00  0.00000000000E+00  0.13242826864E+03  0.13242826864E+03  0.00000000000E+00 0.  1.
          1   -1    0    0  501    0  0.00000000000E+00 -0.00000000000E+00 -0.17335362316E+03  0.17335362316E+03  0.00000000000E+00 0. -1.
          5    1    1    2  502    0 -0.93102629516E+02  0.48233010125E+02  0.16153580857E+02  0.10617407152E+03  0.41800000000E+01 0.  1.
         -5    1    1    2    0  502  0.41447664699E+02  0.29205906197E+02  0.12048836366E+02  0.52283273841E+02  0.41800000000E+01 0.  1.
        -11    1    1    2    0    0  0.67996410606E+02 -0.48370846427E+02 -0.76463166791E+02  0.11318068084E+03  0.00000000000E+00 0.  1.
         11    1    1    2    0    0 -0.16341445788E+02 -0.29068069895E+02  0.73353950382E+01  0.34143865602E+02  0.00000000000E+00 0. -1.
</event>
<event>
 6    1  0.8259171E-006  0.1562362E+03  0.7561462E-02  0.1193013E+00
          3   -1    0    0  501    0  0.00000000000E+00  0.00000000000E+00  0.17518737396E+03  0.17518737396E+03  0.00000000000E+00 0. -1.
         -3   -1    0    0    0  501 -0.00000000000E+00 -0.00000000000E+00 -0.13978708857E+03  0.13978708857E+03  0.00000000000E+00 0.  1.
          5    1    1    2  502    0 -0.60638155757E+02 -0.58261359037E+02  0.10071476875E+02  0.84795512481E+02  0.41800000000E+01 0. -1.
         -5    1    1    2    0  502  0.11252347365E+03  0.51861585673E+02  0.20668441996E+02  0.12568139515E+03  0.41800000000E+01 0.  1.
        -11    1    1    2    0    0 -0.30736335566E+02  0.48369797178E+02  0.46796902289E+01  0.57500079163E+02  0.00000000000E+00 0. -1.
         11    1    1    2    0    0 -0.21148982329E+02 -0.41970023815E+02 -0.19323702129E-01  0.46997475740E+02  0.00000000000E+00 0.  1.
</event>
<event>
 6    1  0.8259171E-006  0.4432752E+03  0.7561462E-02  0.1029747E+00
         -1   -1    0    0    0  501 -0.00000000000E+00  0.00000000000E+00  0.96993199267E+03  0.96993199267E+03  0.00000000000E+00 0.  1.
          1   -1    0    0  501    0  0.00000000000E+00 -0.00000000000E+00 -0.22010088467E+03  0.22010088467E+03  0.00000000000E+00 0. -1.
          5    1    1    2  502    0 -0.38205720040E+01 -0.91271187332E+01 -0.25540629358E+01  0.11040684050E+02  0.41800000000E+01 0.  1.
         -5    1    1    2    0  502 -0.42687032005E+03  0.70388007911E+02  0.51980399230E+03  0.67630348558E+03  0.41800000000E+01 0.  1.
        -11    1    1    2    0    0  0.25858719757E+03  0.52639307202E+01  0.10934436162E+03  0.28080462448E+03  0.00000000000E+00 0. -1.
         11    1    1    2    0    0  0.17210369449E+03 -0.66524819898E+02  0.12323681701E+03  0.22188408322E+03  0.00000000000E+00 0.  1.
</event>
<event>
 6    1  0.8259171E-006  0.1069978E+03  0.7561462E-02  0.1266233E+00
         -1   -1    0    0    0  501 -0.00000000000E+00  0.00000000000E+00  0.17862549815E+02  0.17862549815E+02  0.00000000000E+00 0. -1.
          1   -1    0    0  501    0  0.00000000000E+00 -0.00000000000E+00 -0.98175767869E+03  0.98175767869E+03  0.00000000000E+00 0.  1.
          5    1    1    2  502    0  0.66655756211E+02 -0.28904690984E+02 -0.40391366927E+03  0.41041709957E+03  0.41800000000E+01 0. -1.
         -5    1    1    2    0  502  0.42194245808E+01  0.29054963605E+02 -0.16569465484E+02  0.33970782156E+02  0.41800000000E+01 0. -1.
        -11    1    1    2    0    0 -0.36659251622E+02  0.42994229359E+02 -0.21849093162E+03  0.22567829246E+03  0.00000000000E+00 0. -1.
         11    1    1    2    0    0 -0.34215929169E+02 -0.43144501979E+02 -0.32492106251E+03  0.32955405433E+03  0.00000000000E+00 0.  1.
</event>
<event>
 6    1  0.8259171E-006  0.9416885E+02  0.7561462E-02  0.1293059E+00
          2   -1    0    0  501    0  0.00000000000E+00  0.00000000000E+00  0.17257057248E+03  0.17257057248E+03  0.00000000000E+00 0. -1.
         -2   -1    0    0    0  501 -0.00000000000E+00 -0.00000000000E+00 -0.87150855225E+02  0.87150855225E+02  0.00000000000E+00 0.  1.
          5    1    1    2  502    0 -0.38992249948E+01 -0.43065925048E+02  0.33654489926E+02  0.54954298722E+02  0.41800000000E+01 0.  1.
         -5    1    1    2    0  502 -0.35257023034E+02  0.65293502654E+02 -0.24650274143E+02  0.78303305022E+02  0.41800000000E+01 0.  1.
        -11    1    1    2    0    0  0.49529716232E+02 -0.29732254714E+02  0.97568000274E+01  0.58586644444E+02  0.00000000000E+00 0.  1.
         11    1    1    2    0    0 -0.10373468204E+02  0.75046771078E+01  0.66658701446E+02  0.67877179520E+02  0.00000000000E+00 0. -1.
</event>
<event>
 6    1  0.8259171E-006  0.1535019E+03  0.7561462E-02  0.1196235E+00
          2   -1    0    0  501    0  0.00000000000E+00  0.00000000000E+00  0.43709707579E+03  0.43709707579E+03  0.00000000000E+00 0. -1.
         -2   -1    0    0    0  501 -0.00000000000E+00 -0.00000000000E+00 -0.83648809232E+02  0.83648809232E+02  0.00000000000E+00 0.  1.
          5    1    1    2  502    0  0.24309352546E+02 -0.30591429082E+02  0.15314577315E+03  0.15810718006E+03  0.41800000000E+01 0. -1.
         -5    1    1    2    0  502 -0.44377038220E+02 -0.10184532115E+03  0.88280968000E+01  0.11152218907E+03  0.41800000000E+01 0.  1.
        -11    1    1    2    0    0  0.21572018295E+02 -0.23858591962E+01  0.55652248622E+02  0.59734555109E+02  0.00000000000E+00 0.  1.
         11    1    1    2    0    0 -0.15043326215E+01  0.13482260943E+03  0.13582214799E+03  0.19138196078E+03  0.00000000000E+00 0. -1.
</event>
<event>
 6    1  0.8259171E-006  0.1349424E+03  0.7561462E-02  0.1220301E+00
         -2   -1    0    0    0  501 -0.00000000000E+00  0.00000000000E+00  0.20912929495E+03  0.20912929495E+03  0.00000000000E+00 0.  1.
          2   -1    0    0  501    0  0.00000000000E+00 -0.00000000000E+00 -0.13099482337E+03  0.13099482337E+03  0.00000000000E+00 0. -1.
          5    1    1    2  502    0 -0.70882209099E+02  0.11274198854E+03  0.96529285963E+02  0.16453090590E+03  0.41800000000E+01 0. -1.
         -5    1    1    2    0  502  0.11843446581E+02 -0.87391238032E+01 -0.19592676175E+02  0.24859301508E+02  0.41800000000E+01 0. -1.
        -11    1    1    2    0    0  0.13032767474E+02 -0.43048432685E+02  0.44225852465E+02  0.63078891961E+02  0.00000000000E+00 0. -1.
         11    1    1    2    0    0  0.46005995044E+02 -0.60954432055E+02 -0.43027990675E+02  0.87655018959E+02  0.00000000000E+00 0.  1.
</event>
<event>
 6    1  0.8259171E-006  0.1199429E+03  0.7561462E-02  0.1243191E+00
         -2   -1    0    0    0  501 -0.00000000000E+00  0.00000000000E+00  0.31719689323E+02  0.31719689323E+02  0.00000000000E+00 0.  1.
          2   -1    0    0  501    0  0.00000000000E+00 -0.00000000000E+00 -0.78107184207E+03  0.78107184207E+03  0.00000000000E+00 0. -1.
          5    1    1    2  502    0 -0.24855256157E+02 -0.91765068932E+02 -0.34096707965E+03  0.35399806982E+03  0.41800000000E+01 0.  1.
         -5    1    1    2    0  502 -0.13900339988E+02 -0.11516191742E+02  0.65862497363E+01  0.19664516511E+02  0.41800000000E+01 0.  1.
        -11    1    1    2    0    0  0.27546416950E+02  0.59024340107E+01 -0.27197730438E+02  0.39158145449E+02  0.00000000000E+00 0.  1.
         11    1    1    2    0    0  0.11209179196E+02  0.97378826663E+02 -0.38777359240E+03  0.39997079961E+03  0.00000000000E+00 0. -1.
</event>
<event>
 6    1  0.8259171E-006  0.1107588E+03  0.7561462E-02  0.1259171E+00
          1   -1    0    0  501    0  0.00000000000E+00  0.00000000000E+00  0.10503721220E+03  0.10503721220E+03  0.00000000000E+00 0. -1.
         -1   -1    0    0    0  501 -0.00000000000E+00 -0.00000000000E+00 -0.23184302982E+03  0.23184302982E+03  0.00000000000E+00 0.  1.
          5    1    1    2  502    0  0.32806019364E+02 -0.72513982394E+02 -0.15902450129E+02  0.81270368950E+02  0.41800000000E+01 0. -1.
         -5    1    1    2    0  502  0.20076767855E+02 -0.91999055362E+00 -0.12849043660E+03  0.13011989735E+03  0.41800000000E+01 0. -1.
        -11    1    1    2    0    0 -0.23611237858E+01 -0.17288563841E+02 -0.69613955767E+01  0.18786441216E+02  0.00000000000E+00 0.  1.
         11    1    1    2    0    0 -0.50521663433E+02  0.90722536788E+02  0.24548464687E+02  0.10670353450E+03  0.00000000000E+00 0. -1.
</event>
<event>
 6    1  0.8259171E-006  0.1210626E+03  0.7561462E-02  0.1241354E+00
          1   -1    0    0  501    0  0.00000000000E+00  0.00000000000E+00  0.18676825049E+03  0.18676825049E+03  0.00000000000E+00 0. -1.
         -1   -1    0    0    0  501 -0.00000000000E+00 -0.00000000000E+00 -0.14823345386E+03  0.14823345386E+03  0.00000000000E+00 0.  1.
          5    1    1    2  502    0  0.16531228108E+02  0.30696535396E+02 -0.72932528112E+02  0.80945567172E+02  0.41800000000E+01 0. -1.
         -5    1    1    2    0  502  0.82107495150E+02  0.21176812463E+02  0.33334436976E+02  0.91207210430E+02  0.41800000000E+01 0. -1.
        -11    1    1    2    0    0 -0.70822420221E+02 -0.60335069141E+02  0.91816527360E+02  0.13071499711E+03  0.00000000000E+00 0. -1.
         11    1    1    2    0    0 -0.27816303037E+02  0.84617212821E+01 -0.13683639593E+02  0.32133929641E+02  0.00000000000E+00 0.  1.
</event>
<event>
 6    1  0.8259171E-006  0.1144129E+03  0.7561462E-02  0.1252609E+00
          1   -1    0    0  501    0  0.00000000000E+00  0.00000000000E+00  0.16129332571E+03  0.16129332571E+03  0.00000000000E+00 0. -1.
         -1   -1    0    0    0  501 -0.00000000000E+00 -0.00000000000E+00 -0.14271641929E+03  0.14271641929E+03  0.00000000000E+00 0.  1.
          5    1    1    2  502    0  0.97701971298E+02  0.16594844975E+02 -0.41429410367E+02  0.10749387200E+03  0.41800000000E+01 0.  1.
         -5    1    1    2    0  502 -0.37541128382E+02  0.27007731255E+01 -0.37757669290E+02  0.53476578854E+02  0.41800000000E+01 0.  1.
        -11    1    1    2    0    0 -0.57517193874E+02 -0.40533703598E+02  0.38891849998E+02  0.80397666102E+02  0.00000000000E+00 0.  1.
         11    1    1    2    0    0 -0.26436490413E+01  0.21238085497E+02  0.58872136086E+02  0.62641628037E+02  0.00000000000E+00 0. -1.
</event>
<event>
 6    1  0.8259171E-006  0.9550192E+02  0.7561462E-02  0.1290050E+00
          4   -1    0    0  501    0  0.00000000000E+00  0.00000000000E+00  0.15332271179E+03  0.15332271179E+03  0.00000000000E+00 0. -1.
         -4   -1    0    0    0  501 -0.00000000000E+00 -0.00000000000E+00 -0.10973361308E+03  0.10973361308E+03  0.00000000000E+00 0.  1.
          5    1    1    2  502    0 -0.21922152935E+02  0.40341782247E+02  0.65539394699E+02  0.80130673538E+02  0.41800000000E+01 0. -1.
         -5    1    1    2    0  502  0.46676196060E+02 -0.40051638417E+02 -0.54380790771E+02  0.82204281052E+02  0.41800000000E+01 0.  1.
        -11    1    1    2    0    0 -0.47061622152E+02 -0.22156984247E+02 -0.46649809192E+01  0.52225379630E+02  0.00000000000E+00 0.  1.
         11    1    1    2    0    0  0.22307579027E+02  0.21866840417E+02  0.37095475700E+02  0.48495990652E+02  0.00000000000E+00 0. -1.
</event>
<event>
 6    1  0.8259171E-006  0.1221014E+03  0.7561462E-02  0.1239670E+00
         -2   -1    0    0    0  501 -0.00000000000E+00  0.00000000000E+00  0.10091876087E+03  0.10091876087E+03  0.00000000000E+00 0.  1.
          2   -1    0    0  501    0  0.00000000000E+00 -0.00000000000E+00 -0.19899496581E+03  0.19899496581E+03  0.00000000000E+00 0. -1.
          5    1    1    2  502    0 -0.30339597627E+02  0.23969360399E+02 -0.39914099423E+02  0.55728172004E+02  0.41800000000E+01 0. -1.
         -5    1    1    2    0  502 -0.10744930618E+02 -0.10491525287E+03 -0.69331716895E+01  0.10577431205E+03  0.41800000000E+01 0. -1.
        -11    1    1    2    0    0 -0.86077107633E+01  0.11112724513E+02 -0.50792224247E+02  0.52701379248E+02  0.00000000000E+00 0. -1.
         11    1    1    2    0    0  0.49692239009E+02  0.69833167960E+02 -0.43670957608E+00  0.85709863378E+02  0.00000000000E+00 0.  1.
</event>
<event>
 6    1  0.8259171E-006  0.1344359E+03  0.7561462E-02  0.1221018E+00
         -2   -1    0    0    0  501 -0.00000000000E+00  0.00000000000E+00  0.12546388636E+04  0.12546388636E+04  0.00000000000E+00 0. -1.
          2   -1    0    0  501    0  0.00000000000E+00 -0.00000000000E+00 -0.16458869023E+02  0.16458869023E+02  0.00000000000E+00 0.  1.
          5    1    1    2  502    0  0.93092070575E+00 -0.59064330707E+02  0.21269737252E+03  0.22078746896E+03  0.41800000000E+01 0. -1.
         -5    1    1    2    0  502  0.86733339869E+02  0.32220680121E+02  0.51353200541E+03  0.52181743690E+03  0.41800000000E+01 0. -1.
        -11    1    1    2    0    0  0.12795020810E+02  0.71655671180E+01  0.14516554356E+02  0.20634637386E+02  0.00000000000E+00 0.  1.
         11    1    1    2    0    0 -0.10045928139E+03  0.19678083468E+02  0.49743406230E+03  0.50785818938E+03  0.00000000000E+00 0. -1.
</event>
<event>
 6    1  0.8259171E-006  0.1614613E+03  0.7561462E-02  0.1187057E+00
         -1   -1    0    0    0  501 -0.00000000000E+00  0.00000000000E+00  0.70545765270E+02  0.70545765270E+02  0.00000000000E+00 0.  1.
          1   -1    0    0  501    0  0.00000000000E+00 -0.00000000000E+00 -0.38452957283E+03  0.38452957283E+03  0.00000000000E+00 0. -1.
          5    1    1    2  502    0 -0.79888537752E+02  0.29148059561E+02 -0.55763680935E+02  0.10177842773E+03  0.41800000000E+01 0.  1.
         -5    1    1    2    0  502  0.24044422186E+02  0.81389665771E+02 -0.11942063917E+03  0.14656457073E+03  0.41800000000E+01 0.  1.
        -11    1    1    2    0    0 -0.57832909592E+01  0.13290321307E+02 -0.90683876866E+01  0.17097214686E+02  0.00000000000E+00 0.  1.
         11    1    1    2    0    0  0.61627406525E+02 -0.12382804664E+03 -0.12973109976E+03  0.18963512495E+03  0.00000000000E+00 0. -1.
</event>
<event>
 6    1  0.8259171E-006  0.7527785E+02  0.7561462E-02  0.1343013E+00
          1   -1    0    0  501    0  0.00000000000E+00  0.00000000000E+00  0.19359051903E+03  0.19359051903E+03  0.00000000000E+00 0. -1.
         -1   -1    0    0    0  501 -0.00000000000E+00 -0.00000000000E+00 -0.74911067944E+02  0.74911067944E+02  0.00000000000E+00 0.  1.
          5    1    1    2  502    0  0.57300275847E+01  0.27949449278E+02  0.69386090738E+02  0.75139250189E+02  0.41800000000E+01 0. -1.
         -5    1    1    2    0  502  0.23686790500E+02 -0.10945008597E+02 -0.49421838953E+02  0.56043267418E+02  0.41800000000E+01 0. -1.
        -11    1    1    2    0    0  0.75712169255E+01 -0.47041165860E+02  0.45364573904E+02  0.65788594579E+02  0.00000000000E+00 0.  1.
         11    1    1    2    0    0 -0.36988035011E+02  0.30036725178E+02  0.53350625400E+02  0.71530474792E+02  0.00000000000E+00 0. -1.
</event>
<event>
 6    1  0.8259171E-006  0.3318286E+03  0.7561462E-02  0.1070331E+00
         -2   -1    0    0    0  501 -0.00000000000E+00  0.00000000000E+00  0.24455412967E+03  0.24455412967E+03  0.00000000000E+00 0.  1.
          2   -1    0    0  501    0  0.00000000000E+00 -0.00000000000E+00 -0.48047540667E+03  0.48047540667E+03  0.00000000000E+00 0. -1.
          5    1    1    2  502    0 -0.10902818859E+02 -0.11880838164E+03 -0.59251173040E+02  0.13327594274E+03  0.41800000000E+01 0. -1.
         -5    1    1    2    0  502  0.96068758274E+02 -0.18920706247E+03  0.63102973413E+01  0.21233419663E+03  0.41800000000E+01 0.  1.
        -11    1    1    2    0    0 -0.31610635577E+02  0.16530508675E+02 -0.14445299850E+02  0.38485798503E+02  0.00000000000E+00 0.  1.
         11    1    1    2    0    0 -0.53555303837E+02  0.29148493543E+03 -0.16853510144E+03  0.34093359847E+03  0.00000000000E+00 0. -1.
</event>
<event>
 6    1  0.8259171E-006  0.2502647E+03  0.7561462E-02  0.1113138E+00
         -1   -1    0    0    0  501 -0.00000000000E+00  0.00000000000E+00  0.57412795916E+03  0.57412795916E+03  0.00000000000E+00 0.  1.
          1   -1    0    0  501    0  0.00000000000E+00 -0.00000000000E+00 -0.12209803157E+03  0.12209803157E+03  0.00000000000E+00 0. -1.
          5    1    1    2  502    0  0.82855132891E+02  0.10092353362E+02  0.15992329204E+03  0.18044323312E+03  0.41800000000E+01 0. -1.
         -5    1    1    2    0  502  0.99950301322E+02  0.13244220798E+03  0.12653142335E+03  0.20870715054E+03  0.41800000000E+01 0. -1.
        -11    1    1    2    0    0 -0.75795105817E+02 -0.11951318970E+03  0.12948866522E+03  0.19182183139E+03  0.00000000000E+00 0.  1.
         11    1    1    2    0    0 -0.10701032840E+03 -0.23021371647E+02  0.36086546975E+02  0.11525377568E+03  0.00000000000E+00 0. -1.
</event>
<event>
 6    1  0.8259171E-006  0.1188238E+03  0.7561462E-02  0.1245050E+00
         -1   -1    0    0    0  501 -0.00000000000E+00  0.00000000000E+00  0.94902628698E+02  0.94902628698E+02  0.00000000000E+00 0.  1.
          1   -1    0    0  501    0  0.00000000000E+00 -0.00000000000E+00 -0.24788721645E+03  0.24788721645E+03  0.00000000000E+00 0. -1.
          5    1    1    2  502    0  0.21604058888E+02 -0.88426399134E+02  0.33800399347E+02  0.97190034573E+02  0.41800000000E+01 0. -1.
         -5    1    1    2    0  502 -0.31562814846E+02  0.52453074213E+02 -0.59132200602E+02  0.85215173669E+02  0.41800000000E+01 0.  1.
        -11    1    1    2    0    0  0.43133620018E+02  0.13902043911E+02 -0.10543709355E+03  0.11476391723E+03  0.00000000000E+00 0. -1.
         11    1    1    2    0    0 -0.33174864060E+02  0.22071281010E+02 -0.22215692942E+02  0.45620719675E+02  0.00000000000E+00 0.  1.
</event>
<event>
 6    1  0.8259171E-006  0.1495267E+03  0.7561462E-02  0.1201056E+00
         -2   -1    0    0    0  501 -0.00000000000E+00  0.00000000000E+00  0.33337155064E+03  0.33337155064E+03  0.00000000000E+00 0.  1.
          2   -1    0    0  501    0  0.00000000000E+00 -0.00000000000E+00 -0.16159066614E+03  0.16159066614E+03  0.00000000000E+00 0. -1.
          5    1    1    2  502    0 -0.64814772810E+02  0.26162582335E+02  0.22347859040E+02  0.73500576138E+02  0.41800000000E+01 0. -1.
         -5    1    1    2    0  502 -0.76512048442E+02 -0.13179310298E+02  0.22395887179E+03  0.23707137413E+03  0.41800000000E+01 0. -1.
        -11    1    1    2    0    0  0.94187353106E+02 -0.33367561281E+02 -0.85919929771E+02  0.13178348137E+03  0.00000000000E+00 0. -1.
         11    1    1    2    0    0  0.47139468146E+02  0.20384289244E+02  0.11394083438E+02  0.52606785137E+02  0.00000000000E+00 0.  1.
</event>
<event>
 6    1  0.8259171E-006  0.9373526E+02  0.7561462E-02  0.1294050E+00
          2   -1    0    0  501    0  0.00000000000E+00  0.00000000000E+00  0.43102474161E+02  0.43102474161E+02  0.00000000000E+00 0. -1.
         -2   -1    0    0    0  501 -0.00000000000E+00 -0.00000000000E+00 -0.25325162903E+03  0.25325162903E+03  0.00000000000E+00 0.  1.
          5    1    1    2  502    0 -0.63437192921E+02  0.66602094814E+02 -0.83143543468E+02  0.12405820287E+03  0.41800000000E+01 0. -1.
         -5    1    1    2    0  502  0.39941358250E+02 -0.48661972257E+02 -0.11732068507E+03  0.13321004162E+03  0.41800000000E+01 0.  1.
        -11    1    1    2    0    0  0.12583573839E+02 -0.17273118121E+02 -0.15783400790E+02  0.26567323551E+02  0.00000000000E+00 0. -1.
         11    1    1    2    0    0  0.10912260832E+02 -0.66700443650E+00  0.60984744642E+01  0.12518535145E+02  0.00000000000E+00 0.  1.
</event>
<event>
 6    1  0.8259171E-006  0.1307283E+03  0.7561462E-02  0.1226379E+00
         -2   -1    0    0    0  501 -0.00000000000E+00  0.00000000000E+00  0.16544993743E+03  0.16544993743E+03  0.00000000000E+00 0.  1.
          2   -1    0    0  501    0  0.00000000000E+00 -0.00000000000E+00 -0.13544338454E+03  0.13544338454E+03  0.00000000000E+00 0. -1.
          5    1    1    2  502    0 -0.25250039915E+02  0.69834842521E+02 -0.24601984438E+02  0.78340282000E+02  0.41800000000E+01 0. -1.
         -5    1    1    2    0  502  0.53806700134E+02  0.24585958229E+02  0.60984418573E+02  0.85065868773E+02  0.41800000000E+01 0. -1.
        -11    1    1    2    0    0 -0.42146687236E+02 -0.10328216459E+03 -0.23391354573E+02  0.11397677060E+03  0.00000000000E+00 0. -1.
         11    1    1    2    0    0  0.13590027016E+02  0.88613638418E+01  0.17015473327E+02  0.23510400591E+02  0.00000000000E+00 0.  1.
</event>
<event>
 6    1  0.8259171E-006  0.1161162E+03  0.7561462E-02  0.1249645E+00
          2   -1    0    0  501    0  0.00000000000E+00  0.00000000000E+00  0.25487217944E+03  0.25487217944E+03  0.00000000000E+00 0. -1.
         -2   -1    0    0    0  501 -0.00000000000E+00 -0.00000000000E+00 -0.54604481629E+02  0.54604481629E+02  0.00000000000E+00 0.  1.
          5    1    1    2  502    0 -0.12949447204E+02  0.72963135373E+02  0.57840446075E+02  0.94097273651E+02  0.41800000000E+01 0. -1.
         -5    1    1    2    0  502 -0.26543500711E+02 -0.51639414723E+02  0.33104867368E+02  0.66967090622E+02  0.41800000000E+01 0. -1.
        -11    1    1    2    0    0  0.41215846057E+02 -0.53523147248E+02  0.66357979642E+02  0.94693477705E+02  0.00000000000E+00 0.  1.
         11    1    1    2    0    0 -0.17228981424E+01  0.32199426598E+02  0.42964404731E+02  0.53718819096E+02  0.00000000000E+00 0. -1.
</event>
<event>
 6    1  0.8259171E-006  0.1041154E+03  0.7561462E-02  0.1271872E+00
         -2   -1    0    0    0  501 -0.00000000000E+00  0.00000000000E+00  0.23801463167E+02  0.23801463167E+02  0.00000000000E+00 0.  1.
          2   -1    0    0  501    0  0.00000000000E+00 -0.00000000000E+00 -0.58430996571E+03  0.58430996571E+03  0.00000000000E+00 0. -1.
          5    1    1    2  502    0 -0.30268275268E+02  0.48322803019E+02 -0.16327454943E+03  0.17299512325E+03  0.41800000000E+01 0. -1.
         -5    1    1    2    0  502 -0.54461251087E+01 -0.74963208875E+02 -0.18413908085E+03  0.19893168792E+03  0.41800000000E+01 0. -1.
        -11    1    1    2    0    0  0.46409783121E+02 -0.70852132584E+00 -0.19760663331E+03  0.20298460902E+03  0.00000000000E+00 0. -1.
         11    1    1    2    0    0 -0.10695382744E+02  0.27348927182E+02 -0.15488238953E+02  0.33200008674E+02  0.00000000000E+00 0.  1.
</event>
<event>
 6    1  0.8259171E-006  0.7543801E+02  0.7561462E-02  0.1342520E+00
          2   -1    0    0  501    0  0.00000000000E+00  0.00000000000E+00  0.38410514841E+03  0.38410514841E+03  0.00000000000E+00 0. -1.
         -2   -1    0    0    0  501 -0.00000000000E+00 -0.00000000000E+00 -0.36283792489E+02  0.36283792489E+02  0.00000000000E+00 0.  1.
          5    1    1    2  502    0 -0.48446207613E+02  0.50747782134E+01  0.92137247479E+01  0.49750914863E+02  0.41800000000E+01 0. -1.
         -5    1    1    2    0  502  0.25178490506E+02 -0.37311028963E+02  0.14961089297E+03  0.15629126963E+03  0.41800000000E+01 0. -1.
        -11    1    1    2    0    0 -0.79329475874E+01  0.22865742068E+02  0.17267215561E+01  0.24264282084E+02  0.00000000000E+00 0.  1.
         11    1    1    2    0    0  0.31200664694E+02  0.93705086819E+01  0.18727001664E+03  0.19008247432E+03  0.00000000000E+00 0. -1.
</event>
<event>
 6    1  0.8259171E-006  0.1320256E+03  0.7561462E-02  0.1224481E+00
          4   -1    0    0  501    0  0.00000000000E+00  0.00000000000E+00  0.11280962122E+03  0.11280962122E+03  0.00000000000E+00 0. -1.
         -4   -1    0    0    0  501 -0.00000000000E+00 -0.00000000000E+00 -0.23252406548E+03  0.23252406548E+03  0.00000000000E+00 0.  1.
          5    1    1    2  502    0 -0.65554493129E+02 -0.26355469927E+02 -0.57971611457E+02  0.91488701485E+02  0.41800000000E+01 0.  1.
         -5    1    1    2    0  502  0.53230198669E+02 -0.60744088131E+02 -0.95903990410E+02  0.12545256502E+03  0.41800000000E+01 0.  1.
        -11    1    1    2    0    0  0.20986288645E+02  0.96999636980E+02  0.47177442133E+02  0.10988660033E+03  0.00000000000E+00 0. -1.
         11    1    1    2    0    0 -0.86619941846E+01 -0.99000789224E+01 -0.13016284532E+02  0.18505819867E+02  0.00000000000E+00 0.  1.
</event>
<event>
 6    1  0.8259171E-006  0.1172350E+03  0.7561462E-02  0.1247729E+00
         -1   -1    0    0    0  501 -0.00000000000E+00  0.00000000000E+00  0.16983425769E+03  0.16983425769E+03  0.00000000000E+00 0.  1.
          1   -1    0    0  501    0  0.00000000000E+00 -0.00000000000E+00 -0.13274093456E+03  0.13274093456E+03  0.00000000000E+00 0. -1.
          5    1    1    2  502    0 -0.61554023711E+01 -0.89671164506E+02 -0.88072835825E+01  0.90409332296E+02  0.41800000000E+01 0.  1.
         -5    1    1    2    0  502 -0.45445587681E+02  0.60814435201E+01  0.62178593747E+02  0.77368826509E+02  0.41800000000E+01 0.  1.
        -11    1    1    2    0    0  0.26366591129E+02  0.36529907502E+02 -0.53323064404E+02  0.69806736546E+02  0.00000000000E+00 0. -1.
         11    1    1    2    0    0  0.25234398923E+02  0.47059813484E+02  0.37045077372E+02  0.64990296904E+02  0.00000000000E+00 0.  1.
</event>
<event>
 6    1  0.8259171E-006  0.8576705E+02  0.7561462E-02  0.1313439E+00
         -1   -1    0    0    0  501 -0.00000000000E+00  0.00000000000E+00  0.32519526589E+03  0.32519526589E+03  0.00000000000E+00 0.  1.
          1   -1    0    0  501    0  0.00000000000E+00 -0.00000000000E+00 -0.60960138903E+02  0.60960138903E+02  0.00000000000E+00 0. -1.
          5    1    1    2  502    0 -0.33660256226E+02 -0.21114012778E+02  0.59845882184E+02  0.71957045514E+02  0.41800000000E+01 0. -1.
         -5    1    1    2    0  502  0.34678560091E+02  0.72295841404E+02  0.19170713321E+03  0.20784222029E+03  0.41800000000E+01 0.  1.
        -11    1    1    2    0    0  0.87078709984E+00 -0.32506936533E+02 -0.39346552779E+02  0.51045180071E+02  0.00000000000E+00 0. -1.
         11    1    1    2    0    0 -0.18890909655E+01 -0.18674892093E+02  0.52028664371E+02  0.55310958911E+02  0.00000000000E+00 0.  1.
</event>
<event>
 6    1  0.8259171E-006  0.1048115E+03  0.7561462E-02  0.1270491E+00
          2   -1    0    0  501    0  0.00000000000E+00  0.00000000000E+00  0.35573945017E+03  0.35573945017E+03  0.00000000000E+00 0. -1.
         -2   -1    0    0    0  501 -0.00000000000E+00 -0.00000000000E+00 -0.45642257917E+02  0.45642257917E+02  0.00000000000E+00 0.  1.
          5    1    1    2  502    0  0.14467475414E+01 -0.86275340332E+02  0.15280427396E+03  0.17553388837E+03  0.41800000000E+01 0. -1.
         -5    1    1    2    0  502 -0.10512347203E+02  0.22245093145E+02 -0.82375021699E+01  0.26280838166E+02  0.41800000000E+01 0. -1.
        -11    1    1    2    0    0  0.41789890465E+02  0.37547499539E+02  0.45265363650E+02  0.72146814296E+02  0.00000000000E+00 0.  1.
         11    1    1    2    0    0 -0.32724290803E+02  0.26482747649E+02  0.12026505682E+03  0.12742016726E+03  0.00000000000E+00 0. -1.
</event>
<event>
 6    1  0.8259171E-006  0.1320972E+03  0.7561462E-02  0.1224377E+00
         -2   -1    0    0    0  501 -0.00000000000E+00  0.00000000000E+00  0.37781301989E+02  0.37781301989E+02  0.00000000000E+00 0.  1.
          2   -1    0    0  501    0  0.00000000000E+00 -0.00000000000E+00 -0.53063588559E+03  0.53063588559E+03  0.00000000000E+00 0. -1.
          5    1    1    2  502    0 -0.43284175367E+02 -0.91377819180E+02 -0.10900099441E+03  0.14873504919E+03  0.41800000000E+01 0.  1.
         -5    1    1    2    0  502 -0.21116277500E+02  0.38781563339E+02 -0.92556452792E+02  0.10263564772E+03  0.41800000000E+01 0.  1.
        -11    1    1    2    0    0  0.57102749584E+02 -0.79534849315E+01 -0.91506752956E+02  0.10815483239E+03  0.00000000000E+00 0.  1.
         11    1    1    2    0    0  0.72977032832E+01  0.60549740772E+02 -0.19979038344E+03  0.20889165827E+03  0.00000000000E+00 0. -1.
</event>
<event>
 6    1  0.8259171E-006  0.1079342E+03  0.7561462E-02  0.1264444E+00
          3   -1    0    0  501    0  0.00000000000E+00  0.00000000000E+00  0.17010960408E+02  0.17010960408E+02  0.00000000000E+00 0. -1.
         -3   -1    0    0    0  501 -0.00000000000E+00 -0.00000000000E+00 -0.85021677505E+03  0.85021677505E+03  0.00000000000E+00 0.  1.
          5    1    1    2  502    0 -0.65922949581E+02  0.46688142635E+02 -0.44905233459E+03  0.45627961772E+03  0.41800000000E+01 0. -1.
         -5    1    1    2    0  502  0.33334264297E+02 -0.28863786691E+02 -0.13157710952E+03  0.13883191099E+03  0.41800000000E+01 0. -1.
        -11    1    1    2    0    0 -0.27940442220E+02 -0.14295504204E+01 -0.14433298072E+03  0.14701945874E+03  0.00000000000E+00 0.  1.
         11    1    1    2    0    0  0.60529127504E+02 -0.16394805523E+02 -0.10824338981E+03  0.12509674801E+03  0.00000000000E+00 0. -1.
</event>
<event>
 6    1  0.8259171E-006  0.1043467E+03  0.7561462E-02  0.1271412E+00
          1   -1    0    0  501    0  0.00000000000E+00  0.00000000000E+00  0.11858030223E+03  0.11858030223E+03  0.00000000000E+00 0. -1.
         -1   -1    0    0    0  501 -0.00000000000E+00 -0.00000000000E+00 -0.11283861387E+03  0.11283861387E+03  0.00000000000E+00 0.  1.
          5    1    1    2  502    0  0.24219608781E+02  0.53614650325E+02  0.76140673584E+01  0.59469039010E+02  0.41800000000E+01 0. -1.
         -5    1    1    2    0  502 -0.56454650599E+02 -0.17603654439E+02 -0.26163605721E+02  0.64799867964E+02  0.41800000000E+01 0.  1.
        -11    1    1    2    0    0  0.10046694191E+02 -0.58194368908E+02 -0.10846287644E+02  0.60043006191E+02  0.00000000000E+00 0.  1.
         11    1    1    2    0    0  0.22188347626E+02  0.22183373022E+02  0.35137514369E+02  0.47107002930E+02  0.00000000000E+00 0. -1.
</event>
<event>
 6    1  0.8259171E-006  0.1575177E+03  0.7561462E-02  0.1191528E+00
         -1   -1    0    0    0  501 -0.00000000000E+00  0.00000000000E+00  0.11856763664E+03  0.11856763664E+03  0.00000000000E+00 0.  1.
          1   -1    0    0  501    0  0.00000000000E+00 -0.00000000000E+00 -0.29766907943E+03  0.29766907943E+03  0.00000000000E+00 0. -1.
          5    1    1    2  502    0 -0.70563188686E+02  0.64670000621E+02 -0.40986922295E+02  0.10420543545E+03  0.41800000000E+01 0. -1.
         -5    1    1    2    0  502 -0.62825914701E+02 -0.43379735259E+02  0.25365036134E+02  0.80559012204E+02  0.41800000000E+01 0. -1.
        -11    1    1    2    0    0  0.12970431820E+02 -0.18149828976E+02  0.64097834963E+01  0.23210638033E+02  0.00000000000E+00 0.  1.
         11    1    1    2    0    0  0.12041867157E+03 -0.31404363864E+01 -0.16988934013E+03  0.20826163039E+03  0.00000000000E+00 0. -1.
</event>
<event>
 6    1  0.8259171E-006  0.1068118E+03  0.7561462E-02  0.1266590E+00
          1   -1    0    0  501    0  0.00000000000E+00  0.00000000000E+00  0.21872482864E+03  0.21872482864E+03  0.00000000000E+00 0. -1.
         -1   -1    0    0    0  501 -0.00000000000E+00 -0.00000000000E+00 -0.10852586427E+03  0.10852586427E+03  0.00000000000E+00 0.  1.
          5    1    1    2  502    0  0.70879994146E+02  0.32469492656E+02 -0.61811668837E+02  0.99581104271E+02  0.41800000000E+01 0.  1.
         -5    1    1    2    0  502 -0.36018242182E+02  0.96494997953E+01  0.20879959897E+02  0.42940327683E+02  0.41800000000E+01 0.  1.
        -11    1    1    2    0    0 -0.61333372131E+02 -0.34988623321E+02  0.71408200900E+02  0.10042468548E+03  0.00000000000E+00 0.  1.
         11    1    1    2    0    0  0.26471620167E+02 -0.71303691304E+01  0.79722472410E+02  0.84304575471E+02  0.00000000000E+00 0. -1.
</event>
<event>
 6    1  0.8259171E-006  0.1149413E+03  0.7561462E-02  0.1251684E+00
         -2   -1    0    0    0  501 -0.00000000000E+00  0.00000000000E+00  0.43128791113E+02  0.43128791113E+02  0.00000000000E+00 0.  1.
          2   -1    0    0  501    0  0.00000000000E+00 -0.00000000000E+00 -0.32359951024E+03  0.32359951024E+03  0.00000000000E+00 0. -1.
          5    1    1    2  502    0  0.22512694162E+02 -0.85589846853E+02 -0.85200496757E+02  0.12291883635E+03  0.41800000000E+01 0.  1.
         -5    1    1    2    0  502 -0.98538199857E+01  0.42863564583E+02 -0.43905503436E+02  0.62286022261E+02  0.41800000000E+01 0.  1.
        -11    1    1    2    0    0  0.16893626486E+02  0.60366645018E+02 -0.11784761445E+03  0.13348253323E+03  0.00000000000E+00 0. -1.
         11    1    1    2    0    0 -0.29552500662E+02 -0.17640362748E+02 -0.33517104486E+02  0.48040909508E+02  0.00000000000E+00 0.  1.
</event>
<event>
 6    1  0.8259171E-006  0.8405709E+02  0.7561462E-02  0.1317917E+00
         -3   -1    0    0    0  501 -0.00000000000E+00  0.00000000000E+00  0.10102824215E+03  0.10102824215E+03  0.00000000000E+00 0.  1.
          3   -1    0    0  501    0  0.00000000000E+00 -0.00000000000E+00 -0.14125083111E+03  0.14125083111E+03  0.00000000000E+00 0. -1.
          5    1    1    2  502    0  0.42029385664E+02  0.25864100750E+02  0.27292196052E+02  0.56548716451E+02  0.41800000000E+01 0.  1.
         -5    1    1    2    0  502 -0.47034517235E+02  0.22235428792E+02 -0.63861689638E+02  0.82476953802E+02  0.41800000000E+01 0.  1.
        -11    1    1    2    0    0  0.14326953348E+02 -0.53660201792E+02 -0.37958323149E+02  0.67271934303E+02  0.00000000000E+00 0. -1.
         11    1    1    2    0    0 -0.93218217774E+01  0.55606722499E+01  0.34305227774E+02  0.35981468699E+02  0.00000000000E+00 0.  1.
</event>
<event>
 6    1  0.8259171E-006  0.2246833E+03  0.7561462E-02  0.1130439E+00
         -1   -1    0    0    0  501 -0.00000000000E+00  0.00000000000E+00  0.67028585066E+02  0.67028585066E+02  0.00000000000E+00 0.  1.
          1   -1    0    0  501    0  0.00000000000E+00 -0.00000000000E+00 -0.83636833991E+03  0.83636833991E+03  0.00000000000E+00 0. -1.
          5    1    1    2  502    0 -0.17584136897E+01 -0.24835230248E+02 -0.53062255415E+02  0.58761858632E+02  0.41800000000E+01 0.  1.
         -5    1    1    2    0  502 -0.18679414871E+03  0.84343342949E+02 -0.21574617647E+03  0.29760668432E+03  0.41800000000E+01 0.  1.
        -11    1    1    2    0    0  0.19229128500E+02  0.23651830404E+02 -0.49447309416E+02  0.58087906425E+02  0.00000000000E+00 0. -1.
         11    1    1    2    0    0  0.16932343390E+03 -0.83159943105E+02 -0.45108401355E+03  0.48894047560E+03  0.00000000000E+00 0.  1.
</event>
<event>
 6    1  0.8259171E-006  0.1151998E+03  0.7561462E-02  0.1251233E+00
         -2   -1    0    0    0  501 -0.00000000000E+00  0.00000000000E+00  0.37826144706E+02  0.37826144706E+02  0.00000000000E+00 0.  1.
          2   -1    0    0  501    0  0.00000000000E+00 -0.00000000000E+00 -0.39334170682E+03  0.39334170682E+03  0.00000000000E+00 0. -1.
          5    1    1    2  502    0  0.46629717603E+02 -0.74785167910E+01 -0.80010459359E+02  0.93002176233E+02  0.41800000000E+01 0. -1.
         -5    1    1    2    0  502 -0.66180417356E+02  0.59412614168E+02 -0.12374376494E+03  0.15244572190E+03  0.41800000000E+01 0. -1.
        -11    1    1    2    0    0  0.54363335667E+01  0.19960512176E+02 -0.44010952225E+01  0.21150541557E+02  0.00000000000E+00 0.  1.
         11    1    1    2    0    0  0.14114366187E+02 -0.71894609553E+02 -0.14736024260E+03  0.16456941184E+03  0.00000000000E+00 0. -1.
</event>
<event>
 6    1  0.8259171E-006  0.1185354E+03  0.7561462E-02  0.1245533E+00
         -1   -1    0    0    0  501 -0.00000000000E+00  0.00000000000E+00  0.60542901186E+02  0.60542901186E+02  0.00000000000E+00 0.  1.
          1   -1    0    0  501    0  0.00000000000E+00 -0.00000000000E+00 -0.31029650830E+03  0.31029650830E+03  0.00000000000E+00 0. -1.
          5    1    1    2  502    0  0.63794060200E+02 -0.71083241297E+02 -0.59706307067E+02  0.11271568131E+03  0.41800000000E+01 0.  1.
         -5    1    1    2    0  502  0.14806083288E+02  0.44232144639E+02 -0.78246142626E+02  0.91190097914E+02  0.41800000000E+01 0.  1.
        -11    1    1    2    0    0 -0.53399234305E+02 -0.54395368160E+01 -0.11390577962E+03  0.12591899545E+03  0.00000000000E+00 0. -1.
         11    1    1    2    0    0 -0.25200909183E+02  0.32290633474E+02  0.21046221978E+01  0.41014634808E+02  0.00000000000E+00 0.  1.
</event>
<event>
 6    1  0.8259171E-006  0.9096080E+02  0.7561462E-02  0.1300542E+00
          1   -1    0    0  501    0  0.00000000000E+00  0.00000000000E+00  0.24605582861E+03  0.24605582861E+03  0.00000000000E+00 0. -1.
         -1   -1    0    0    0  501 -0.00000000000E+00 -0.00000000000E+00 -0.66464890535E+02  0.66464890535E+02  0.00000000000E+00 0.  1.
          5    1    1    2  502    0  0.57229609509E+02  0.28557240223E+02 -0.18069068640E+02  0.66593601909E+02  0.41800000000E+01 0. -1.
         -5    1    1    2    0  502 -0.21789503612E+02  0.19509873252E+02  0.79897595819E+02  0.85185185565E+02  0.41800000000E+01 0. -1.
        -11    1    1    2    0    0 -0.45888976329E+02 -0.57936632150E+02  0.44905834858E+02  0.86481127986E+02  0.00000000000E+00 0.  1.
         11    1    1    2    0    0  0.10448870432E+02  0.98695186757E+01  0.72856576034E+02  0.74260803682E+02  0.00000000000E+00 0. -1.
</event>
<event>
 6    1  0.8259171E-006  0.1071051E+03  0.7561462E-02  0.1266027E+00
         -1   -1    0    0    0  501 -0.00000000000E+00  0.00000000000E+00  0.15883877121E+03  0.15883877121E+03  0.00000000000E+00 0.  1.
          1   -1    0    0  501    0  0.00000000000E+00 -0.00000000000E+00 -0.14449585201E+03  0.14449585201E+03  0.00000000000E+00 0. -1.
          5    1    1    2  502    0 -0.60209747744E+02 -0.83599447194E+02 -0.44753621231E+02  0.11240302624E+03  0.41800000000E+01 0. -1.
         -5    1    1    2    0  502  0.28707475696E+02  0.10066506355E+02  0.62895007252E+02  0.69990771165E+02  0.41800000000E+01 0.  1.
        -11    1    1    2    0    0  0.13885721084E+02  0.22869912148E+02  0.42409224701E+02  0.50143678280E+02  0.00000000000E+00 0.  1.
         11    1    1    2    0    0  0.17616550964E+02  0.50663028691E+02 -0.46207691520E+02  0.70797147538E+02  0.00000000000E+00 0. -1.
</event>
<event>
 6    1  0.8259171E-006  0.1162340E+03  0.7561462E-02  0.1249442E+00
          1   -1    0    0  501    0  0.00000000000E+00  0.00000000000E+00  0.42215853307E+03  0.42215853307E+03  0.00000000000E+00 0. -1.
         -1   -1    0    0    0  501 -0.00000000000E+00 -0.00000000000E+00 -0.47322806459E+02  0.47322806459E+02  0.00000000000E+00 0.  1.
          5    1    1    2  502    0  0.79646013817E+02  0.24079649398E+02  0.47834097974E+02  0.96067113838E+02  0.41800000000E+01 0. -1.
         -5    1    1    2    0  502 -0.48471655746E+02  0.58341168647E+01  0.25631834960E+02  0.55299201565E+02  0.41800000000E+01 0. -1.
        -11    1    1    2    0    0  0.14014024369E+02 -0.49102156317E+02  0.12467060912E+03  0.13472258687E+03  0.00000000000E+00 0. -1.
         11    1    1    2    0    0 -0.45188382441E+02  0.19188390054E+02  0.17669918456E+03  0.18339243726E+03  0.00000000000E+00 0.  1.
</event>
<event>
 6    1  0.8259171E-006  0.1047911E+03  0.7561462E-02  0.1270532E+00
         -2   -1    0    0    0  501 -0.00000000000E+00  0.00000000000E+00  0.78200637778E+03  0.78200637778E+03  0.00000000000E+00 0. -1.
          2   -1    0    0  501    0  0.00000000000E+00 -0.00000000000E+00 -0.22740084454E+02  0.22740084454E+02  0.00000000000E+00 0.  1.
          5    1    1    2  502    0  0.47872251233E+02 -0.48243102061E+02  0.14322543294E+03  0.15858797676E+03  0.41800000000E+01 0.  1.
         -5    1    1    2    0  502 -0.51513973756E+02 -0.22212601355E+02  0.37388510456E+03  0.37809341830E+03  0.41800000000E+01 0.  1.
        -11    1    1    2    0    0 -0.16958621743E+02  0.59566809179E+02  0.23596223404E+03  0.24395486365E+03  0.00000000000E+00 0. -1.
         11    1    1    2    0    0  0.20600344266E+02  0.10888894238E+02  0.61935217972E+01  0.24110203522E+02  0.00000000000E+00 0.  1.
</event>
<event>
 6    1  0.8259171E-006  0.1403411E+03  0.7561462E-02  0.1212871E+00
          2   -1    0    0  501    0  0.00000000000E+00  0.00000000000E+00  0.32447650270E+03  0.32447650270E+03  0.00000000000E+00 0. -1.
         -2   -1    0    0    0  501 -0.00000000000E+00 -0.00000000000E+00 -0.69230929629E+02  0.69230929629E+02  0.00000000000E+00 0.  1.
          5    1    1    2  502    0 -0.60900627208E+02 -0.48212276601E+02  0.37390478374E+02  0.86306606250E+02  0.41800000000E+01 0. -1.
         -5    1    1    2    0  502  0.61977670066E+02 -0.53883525680E+02  0.65766844147E+02  0.10529680012E+03  0.41800000000E+01 0. -1.
        -11    1    1    2    0    0  0.23676750131E+02  0.10713813745E+02  0.39357725792E+01  0.26284303444E+02  0.00000000000E+00 0.  1.
         11    1    1    2    0    0 -0.24753792989E+02  0.91381988536E+02  0.14815247797E+03  0.17581972251E+03  0.00000000000E+00 0. -1.
</event>
<event>
 6    1  0.8259171E-006  0.1781855E+03  0.7561462E-02  0.1169571E+00
         -2   -1    0    0    0  501 -0.00000000000E+00  0.00000000000E+00  0.75137159543E+02  0.75137159543E+02  0.00000000000E+00 0. -1.
          2   -1    0    0  501    0  0.00000000000E+00 -0.00000000000E+00 -0.54094216421E+03  0.54094216421E+03  0.00000000000E+00 0.  1.
          5    1    1    2  502    0  0.12636516840E+03 -0.10339241973E+03 -0.97383185502E+02  0.19015547707E+03  0.41800000000E+01 0.  1.
         -5    1    1    2    0  502 -0.76063096963E+00  0.28648983365E+02 -0.14354181736E+02  0.32324259321E+02  0.41800000000E+01 0.  1.
        -11    1    1    2    0    0 -0.34444905995E+02  0.63487997477E+02 -0.99385449337E+02  0.12286026580E+03  0.00000000000E+00 0. -1.
         11    1    1    2    0    0 -0.91159631432E+02  0.11255438889E+02 -0.25468218809E+03  0.27073932156E+03  0.00000000000E+00 0.  1.
</event>
<event>
 6    1  0.8259171E-006  0.1100945E+03  0.7561462E-02  0.1260395E+00
          1   -1    0    0  501    0  0.00000000000E+00  0.00000000000E+00  0.14049258299E+03  0.14049258299E+03  0.00000000000E+00 0. -1.
         -1   -1    0    0    0  501 -0.00000000000E+00 -0.00000000000E+00 -0.14833300841E+03  0.14833300841E+03  0.00000000000E+00 0.  1.
          5    1    1    2  502    0 -0.26505548482E+02  0.28876569359E+02  0.10054531710E+02  0.40681277834E+02  0.41800000000E+01 0. -1.
         -5    1    1    2    0  502  0.86434037950E+02  0.14864117144E+02 -0.56025328995E+02  0.10415418755E+03  0.41800000000E+01 0.  1.
        -11    1    1    2    0    0 -0.17159320077E+02 -0.47039126725E+02 -0.33679038618E+02  0.60344008408E+02  0.00000000000E+00 0.  1.
         11    1    1    2    0    0 -0.42769169391E+02  0.32984402222E+01  0.71809410478E+02  0.83646117612E+02  0.00000000000E+00 0. -1.
</event>
<event>
 6    1  0.8259171E-006  0.9075899E+02  0.7561462E-02  0.1301024E+00
         -1   -1    0    0    0  501 -0.00000000000E+00  0.00000000000E+00  0.10168233756E+04  0.10168233756E+04  0.00000000000E+00 0.  1.
          1   -1    0    0  501    0  0.00000000000E+00 -0.00000000000E+00 -0.31009151115E+02  0.31009151115E+02  0.00000000000E+00 0. -1.
          5    1    1    2  502    0  0.75955699974E+02  0.82147295139E+01  0.84916185009E+03  0.85260194123E+03  0.41800000000E+01 0. -1.
         -5    1    1    2    0  502  0.82748155729E+01  0.89109992438E+01  0.33132412157E+01  0.13278872228E+02  0.41800000000E+01 0. -1.
        -11    1    1    2    0    0 -0.36211714288E+02 -0.24278760385E+02  0.39757778369E+01  0.43778456653E+02  0.00000000000E+00 0. -1.
         11    1    1    2    0    0 -0.48018801258E+02  0.71530316271E+01  0.12936335536E+03  0.13817325662E+03  0.00000000000E+00 0.  1.
</event>
<event>
 6    1  0.8259171E-006  0.9980961E+02  0.7561462E-02  0.1280697E+00
         -2   -1    0    0    0  501 -0.00000000000E+00  0.00000000000E+00  0.22271282460E+02  0.22271282460E+02  0.00000000000E+00 0.  1.
          2   -1    0    0  501    0  0.00000000000E+00 -0.00000000000E+00 -0.55013151402E+03  0.55013151402E+03  0.00000000000E+00 0. -1.
          5    1    1    2  502    0 -0.52263911913E+02 -0.91815164764E+00 -0.52445081313E+02  0.74164131795E+02  0.41800000000E+01 0. -1.
         -5    1    1    2    0  502  0.48456180678E+02 -0.27800046851E+02 -0.22002384580E+03  0.22704362835E+03  0.41800000000E+01 0. -1.
        -11    1    1    2    0    0  0.44314041724E+02  0.23954813415E+02 -0.14621574704E+03  0.15464996626E+03  0.00000000000E+00 0. -1.
         11    1    1    2    0    0 -0.40506310490E+02  0.47633850843E+01 -0.10917555740E+03  0.11654507009E+03  0.00000000000E+00 0.  1.
</event>
<event>
 6    1  0.8259171E-006  0.1062445E+03  0.7561462E-02  0.1267687E+00
          1   -1    0    0  501    0  0.00000000000E+00  0.00000000000E+00  0.10722349569E+03  0.10722349569E+03  0.00000000000E+00 0. -1.
         -1   -1    0    0    0  501 -0.00000000000E+00 -0.00000000000E+00 -0.18678674865E+03  0.18678674865E+03  0.00000000000E+00 0.  1.
          5    1    1    2  502    0  0.47907180858E+02 -0.36998525749E+02 -0.53218133282E+02  0.80707069055E+02  0.41800000000E+01 0. -1.
         -5    1    1    2    0  502 -0.40808061993E+02  0.48904305086E+02 -0.83783362087E+02  0.10532831121E+03  0.41800000000E+01 0. -1.
        -11    1    1    2    0    0 -0.40919866658E+02  0.16198155232E+02  0.14045596522E+02  0.46196260692E+02  0.00000000000E+00 0.  1.
         11    1    1    2    0    0  0.33820747793E+02 -0.28103934568E+02  0.43392645891E+02  0.61778603390E+02  0.00000000000E+00 0. -1.
</event>
<event>
 6    1  0.8259171E-006  0.1085214E+03  0.7561462E-02  0.1263333E+00
          1   -1    0    0  501    0  0.00000000000E+00  0.00000000000E+00  0.24169633159E+03  0.24169633159E+03  0.00000000000E+00 0. -1.
         -1   -1    0    0    0  501 -0.00000000000E+00 -0.00000000000E+00 -0.73853699050E+02  0.73853699050E+02  0.00000000000E+00 0.  1.
          5    1    1    2  502    0 -0.43434664815E+02  0.38964288433E+01  0.14319918344E+02  0.46089963405E+02  0.41800000000E+01 0. -1.
         -5    1    1    2    0  502  0.84729744719E+02 -0.24158291515E+02  0.24573588703E+01  0.88239807919E+02  0.41800000000E+01 0. -1.
        -11    1    1    2    0    0 -0.15000579377E+02  0.45908766638E+02  0.35451736464E+02  0.59912084375E+02  0.00000000000E+00 0.  1.
         11    1    1    2    0    0 -0.26294500526E+02 -0.25646903966E+02  0.11561361886E+03  0.12130817494E+03  0.00000000000E+00 0. -1.
</event>
<event>
 6    1  0.8259171E-006  0.1189353E+03  0.7561462E-02  0.1244864E+00
         -1   -1    0    0    0  501 -0.00000000000E+00  0.00000000000E+00  0.53266728278E+02  0.53266728278E+02  0.00000000000E+00 0.  1.
          1   -1    0    0  501    0  0.00000000000E+00 -0.00000000000E+00 -0.59068989941E+03  0.59068989941E+03  0.00000000000E+00 0. -1.
          5    1    1    2  502    0 -0.24467238098E+02  0.23593678300E+02 -0.89096706846E+02  0.95451573935E+02  0.41800000000E+01 0.  1.
         -5    1    1    2    0  502  0.53466335743E+02  0.61694491141E+02  0.16798761817E+01  0.81762789085E+02  0.41800000000E+01 0.  1.
        -11    1    1    2    0    0  0.16683921719E+02 -0.72563950476E+02 -0.23270477358E+03  0.24432640422E+03  0.00000000000E+00 0. -1.
         11    1    1    2    0    0 -0.45683019364E+02 -0.12724218965E+02 -0.21730156689E+03  0.22241586045E+03  0.00000000000E+00 0.  1.
</event>
<event>
 6    1  0.8259171E-006  0.1388362E+03  0.7561462E-02  0.1214904E+00
         -1   -1    0    0    0  501 -0.00000000000E+00  0.00000000000E+00  0.16691215232E+04  0.16691215232E+04  0.00000000000E+00 0.  1.
          1   -1    0    0  501    0  0.00000000000E+00 -0.00000000000E+00 -0.13827374893E+02  0.13827374893E+02  0.00000000000E+00 0. -1.
          5    1    1    2  502    0 -0.25631842567E+02  0.10276464388E+03  0.63843997365E+03  0.64717898277E+03  0.41800000000E+01 0.  1.
         -5    1    1    2    0  502  0.37926518770E+02 -0.12468033363E+02  0.52106546017E+03  0.52260937503E+03  0.41800000000E+01 0.  1.
        -11    1    1    2    0    0 -0.90376565665E+01  0.19603796531E+02  0.10519333886E+03  0.10738541156E+03  0.00000000000E+00 0.  1.
         11    1    1    2    0    0 -0.32570196357E+01 -0.10990040704E+03  0.39059537564E+03  0.40577512876E+03  0.00000000000E+00 0. -1.
</event>
<event>
 6    1  0.8259171E-006  0.6607756E+02  0.7561462E-02  0.1373963E+00
         -1   -1    0    0    0  501 -0.00000000000E+00  0.00000000000E+00  0.29268634124E+02  0.29268634124E+02  0.00000000000E+00 0.  1.
          1   -1    0    0  501    0  0.00000000000E+00 -0.00000000000E+00 -0.46048340604E+03  0.46048340604E+03  0.00000000000E+00 0. -1.
          5    1    1    2  502    0  0.41594683068E+02  0.91209081618E+01 -0.28201863175E+03  0.28524601606E+03  0.41800000000E+01 0.  1.
         -5    1    1    2    0  502 -0.41749689134E+01 -0.25106351262E+02  0.17024986290E+00  0.25792646707E+02  0.41800000000E+01 0.  1.
        -11    1    1    2    0    0 -0.19828895409E+02  0.33387197824E+02 -0.14271380572E+02  0.41371033044E+02  0.00000000000E+00 0.  1.
         11    1    1    2    0    0 -0.17590818745E+02 -0.17401754724E+02 -0.13509500945E+03  0.13734234434E+03  0.00000000000E+00 0. -1.
</event>
<event>
 6    1  0.8259171E-006  0.1893867E+03  0.7561462E-02  0.1159016E+00
          2   -1    0    0  501    0  0.00000000000E+00  0.00000000000E+00  0.12035010915E+04  0.12035010915E+04  0.00000000000E+00 0. -1.
         -2   -1    0    0    0  501 -0.00000000000E+00 -0.00000000000E+00 -0.73706094676E+02  0.73706094676E+02  0.00000000000E+00 0.  1.
          5    1    1    2  502    0 -0.91563257461E+02  0.70190031051E+02  0.86636096243E+03  0.87401902736E+03  0.41800000000E+01 0. -1.
         -5    1    1    2    0  502  0.51429791675E+02 -0.13790909717E+03  0.46037654191E+02  0.15427534008E+03  0.41800000000E+01 0.  1.
        -11    1    1    2    0    0  0.40967185512E+02  0.87324901870E+02  0.20242050979E+03  0.22422758875E+03  0.00000000000E+00 0.  1.
         11    1    1    2    0    0 -0.83371972553E+00 -0.19605835751E+02  0.14975870411E+02  0.24685229970E+02  0.00000000000E+00 0. -1.
</event>
<event>
 6    1  0.8259171E-006  0.1005165E+03  0.7561462E-02  0.1279214E+00
          1   -1    0    0  501    0  0.00000000000E+00  0.00000000000E+00  0.14926181390E+03  0.14926181390E+03  0.00000000000E+00 0. -1.
         -1   -1    0    0    0  501 -0.00000000000E+00 -0.00000000000E+00 -0.11762324207E+03  0.11762324207E+03  0.00000000000E+00 0.  1.
          5    1    1    2  502    0  0.27793243504E+01  0.24483389445E+02  0.57690583298E+02  0.62871589798E+02  0.41800000000E+01 0.  1.
         -5    1    1    2    0  502 -0.50167372373E+02  0.31172534840E+02 -0.56749458538E+02  0.82015032911E+02  0.41800000000E+01 0.  1.
        -11    1    1    2    0    0  0.21076408627E+01 -0.69459444920E+02  0.95231649092E+01  0.70140910377E+02  0.00000000000E+00 0.  1.
         11    1    1    2    0    0  0.45280407159E+02  0.13803520635E+02  0.21174282163E+02  0.51857522883E+02  0.00000000000E+00 0. -1.
</event>
<event>
 6    1  0.8259171E-006  0.1438081E+03  0.7561462E-02  0.1208295E+00
          1   -1    0    0  501    0  0.00000000000E+00  0.00000000000E+00  0.37973985351E+03  0.37973985351E+03  0.00000000000E+00 0. -1.
         -1   -1    0    0    0  501 -0.00000000000E+00 -0.00000000000E+00 -0.73036271511E+02  0.73036271511E+02  0.00000000000E+00 0.  1.
          5    1    1    2  502    0 -0.72287305192E+02 -0.12093819175E+03  0.12600549234E+03  0.18906707068E+03  0.41800000000E+01 0.  1.
         -5    1    1    2    0  502  0.16623536030E+01  0.22998215571E+02 -0.33934428392E+01  0.23678454199E+02  0.41800000000E+01 0.  1.
        -11    1    1    2    0    0  0.24978322241E+02  0.16723759101E+02  0.12756397368E+03  0.13105788065E+03  0.00000000000E+00 0. -1.
         11    1    1    2    0    0  0.45646629348E+02  0.81216217078E+02  0.56527558825E+02  0.10897271949E+03  0.00000000000E+00 0.  1.
</event>
<event>
 6    1  0.8259171E-006  0.1066276E+03  0.7561462E-02  0.1266946E+00
          1   -1    0    0  501    0  0.00000000000E+00  0.00000000000E+00  0.45088884764E+03  0.45088884764E+03  0.00000000000E+00 0. -1.
         -1   -1    0    0    0  501 -0.00000000000E+00 -0.00000000000E+00 -0.26713977228E+02  0.26713977228E+02  0.00000000000E+00 0.  1.
          5    1    1    2  502    0  0.39213282933E+02  0.54861622974E+02  0.86384252779E+02  0.10966854956E+03  0.41800000000E+01 0. -1.
         -5    1    1    2    0  502 -0.35426168188E+02 -0.40306018162E+02  0.13035584532E+03  0.14103087357E+03  0.41800000000E+01 0. -1.
        -11    1    1    2    0    0 -0.46911652128E+02 -0.20127860946E+01  0.11103593070E+03  0.12055593025E+03  0.00000000000E+00 0. -1.
         11    1    1    2    0    0  0.43124537384E+02 -0.12542818718E+02  0.96398841615E+02  0.10634747148E+03  0.00000000000E+00 0.  1.
</event>
<event>
 6    1  0.8259171E-006  0.9425783E+02  0.7561462E-02  0.1292856E+00
          2   -1    0    0  501    0  0.00000000000E+00  0.00000000000E+00  0.37036150448E+03  0.37036150448E+03  0.00000000000E+00 0. -1.
         -2   -1    0    0    0  501 -0.00000000000E+00 -0.00000000000E+00 -0.45271313312E+02  0.45271313312E+02  0.00000000000E+00 0.  1.
          5    1    1    2  502    0 -0.24279897425E+02  0.25370760013E+02 -0.13973443099E+02  0.38025233657E+02  0.41800000000E+01 0.  1.
         -5    1    1    2    0  502  0.44261293853E+02 -0.44243694153E+02  0.93998308134E+02  0.11300318995E+03  0.41800000000E+01 0.  1.
        -11    1    1    2    0    0 -0.44394288144E+02  0.38765764088E+02  0.99277699159E+02  0.11545431493E+03  0.00000000000E+00 0.  1.
         11    1    1    2    0    0  0.24412891716E+02 -0.19892829948E+02  0.14578762698E+03  0.14915007926E+03  0.00000000000E+00 0. -1.
</event>
<event>
 6    1  0.8259171E-006  0.1295509E+03  0.7561462E-02  0.1228124E+00
          2   -1    0    0  501    0  0.00000000000E+00  0.00000000000E+00  0.24355157964E+03  0.24355157964E+03  0.00000000000E+00 0. -1.
         -2   -1    0    0    0  501 -0.00000000000E+00 -0.00000000000E+00 -0.72520818275E+02  0.72520818275E+02  0.00000000000E+00 0.  1.
          5    1    1    2  502    0  0.25804435390E+02  0.91610773117E+02  0.30471745068E+02  0.10002200900E+03  0.41800000000E+01 0.  1.
         -5    1    1    2    0  502 -0.41674284031E+02 -0.20262207661E+02  0.38933682604E+02  0.60668006807E+02  0.41800000000E+01 0.  1.
        -11    1    1    2    0    0 -0.63795511793E+01  0.21191044215E+02  0.23137775888E+02  0.32017428086E+02  0.00000000000E+00 0. -1.
         11    1    1    2    0    0  0.22249399821E+02 -0.92539609671E+02  0.78487557801E+02  0.12336495402E+03  0.00000000000E+00 0.  1.
</event>
<event>
 6    1  0.8259171E-006  0.1308397E+03  0.7561462E-02  0.1226215E+00
         -4   -1    0    0    0  501 -0.00000000000E+00  0.00000000000E+00  0.34017484875E+02  0.34017484875E+02  0.00000000000E+00 0.  1.
          4   -1    0    0  501    0  0.00000000000E+00 -0.00000000000E+00 -0.83006844774E+03  0.83006844774E+03  0.00000000000E+00 0. -1.
          5    1    1    2  502    0  0.32415467093E+02  0.37664723521E+02 -0.29178078343E+03  0.29601164147E+03  0.41800000000E+01 0. -1.
         -5    1    1    2    0  502 -0.41451926813E+01  0.72387346436E+02 -0.43744335554E+02  0.84782957246E+02  0.41800000000E+01 0.  1.
        -11    1    1    2    0    0  0.23111105449E+02 -0.71902670246E+01 -0.35346505101E+02  0.42839217521E+02  0.00000000000E+00 0.  1.
         11    1    1    2    0    0 -0.51381379861E+02 -0.10286180293E+03 -0.42517933879E+03  0.44045211639E+03  0.00000000000E+00 0. -1.
</event>
<event>
 6    1  0.8259171E-006  0.3627643E+03  0.7561462E-02  0.1057495E+00
          2   -1    0    0  501    0  0.00000000000E+00  0.00000000000E+00  0.92423446398E+03  0.92423446398E+03  0.00000000000E+00 0. -1.
         -2   -1    0    0    0  501 -0.00000000000E+00 -0.00000000000E+00 -0.14659610359E+03  0.14659610359E+03  0.00000000000E+00 0.  1.
          5    1    1    2  502    0 -0.84740740889E+02 -0.24511775291E+03  0.22658454481E+03  0.34441506109E+03  0.41800000000E+01 0. -1.
         -5    1    1    2    0  502  0.17665761402E+03  0.28222439284E+03  0.36230699818E+03  0.49207962144E+03  0.41800000000E+01 0.  1.
        -11    1    1    2    0    0 -0.40673320117E+02 -0.63585700226E+02  0.13897413670E+03  0.15814952075E+03  0.00000000000E+00 0.  1.
         11    1    1    2    0    0 -0.51243553013E+02  0.26479060296E+02  0.49772680695E+02  0.76186364286E+02  0.00000000000E+00 0. -1.
</event>
<event>
 6    1  0.8259171E-006  0.8902698E+02  0.7561462E-02  0.1305225E+00
         -1   -1    0    0    0  501 -0.00000000000E+00  0.00000000000E+00  0.42110980857E+03  0.42110980857E+03  0.00000000000E+00 0.  1.
          1   -1    0    0  501    0  0.00000000000E+00 -0.00000000000E+00 -0.79247238244E+02  0.79247238244E+02  0.00000000000E+00 0. -1.
          5    1    1    2  502    0  0.28902063892E+02 -0.14638009539E+02  0.20225246074E+02  0.38420484110E+02  0.41800000000E+01 0. -1.
         -5    1    1    2    0  502 -0.49071355452E+02 -0.14267369267E+02  0.35418655654E+03  0.35787867355E+03  0.41800000000E+01 0.  1.
        -11    1    1    2    0    0  0.96789378903E+01 -0.31423146629E+02  0.33934687902E+01  0.33054676116E+02  0.00000000000E+00 0.  1.
         11    1    1    2    0    0  0.10490353670E+02  0.60328525434E+02 -0.35942701074E+02  0.71003213038E+02  0.00000000000E+00 0. -1.
</event>
<event>
 6    1  0.8259171E-006  0.1235509E+03  0.7561462E-02  0.1237352E+00
          2   -1    0    0  501    0  0.00000000000E+00  0.00000000000E+00  0.15349029444E+03  0.15349029444E+03  0.00000000000E+00 0. -1.
         -2   -1    0    0    0  501 -0.00000000000E+00 -0.00000000000E+00 -0.11789699093E+03  0.11789699093E+03  0.00000000000E+00 0.  1.
          5    1    1    2  502    0 -0.21001734744E+02  0.68951731360E+02 -0.20138397976E+02  0.74956264533E+02  0.41800000000E+01 0.  1.
         -5    1    1    2    0  502  0.64748639965E+02 -0.20566627674E+02 -0.41200168705E+01  0.68189584910E+02  0.41800000000E+01 0.  1.
        -11    1    1    2    0    0  0.18488549752E+02 -0.39964484039E+02  0.40328782126E+01  0.44218215286E+02  0.00000000000E+00 0.  1.
         11    1    1    2    0    0 -0.62235454973E+02 -0.84206196472E+01  0.55818840151E+02  0.84023220640E+02  0.00000000000E+00 0. -1.
</event>
<event>
 6    1  0.8259171E-006  0.9996673E+02  0.7561462E-02  0.1280366E+00
          1   -1    0    0  501    0  0.00000000000E+00  0.00000000000E+00  0.68249590540E+02  0.68249590540E+02  0.00000000000E+00 0. -1.
         -1   -1    0    0    0  501 -0.00000000000E+00 -0.00000000000E+00 -0.17646963012E+03  0.17646963012E+03  0.00000000000E+00 0.  1.
          5    1    1    2  502    0 -0.41147801693E+02 -0.36433624571E+02 -0.46742295793E+01  0.55316104398E+02  0.41800000000E+01 0.  1.
         -5    1    1    2    0  502  0.48089502018E+02  0.28967258703E+02 -0.73354664064E+02  0.92466650318E+02  0.41800000000E+01 0.  1.
        -11    1    1    2    0    0  0.39991258391E+02  0.10933529619E+02 -0.27597362212E+02  0.49804188766E+02  0.00000000000E+00 0. -1.
         11    1    1    2    0    0 -0.46932958716E+02 -0.34671637517E+01 -0.25937837285E+01  0.47132277182E+02  0.00000000000E+00 0.  1.
</event>
<event>
 6    1  0.8259171E-006  0.9651100E+02  0.7561462E-02  0.1287809E+00
          2   -1    0    0  501    0  0.00000000000E+00  0.00000000000E+00  0.71068012915E+02  0.71068012915E+02  0.00000000000E+00 0.  1.
         -2   -1    0    0    0  501 -0.00000000000E+00 -0.00000000000E+00 -0.27933456605E+03  0.27933456605E+03  0.00000000000E+00 0. -1.
          5    1    1    2  502    0  0.16868764605E+02 -0.49363640561E+02 -0.15165786274E+03  0.16043348765E+03  0.41800000000E+01 0.  1.
         -5    1    1    2    0  502  0.55022170403E+02  0.21367099564E+02 -0.13584090503E+02  0.60712371839E+02  0.41800000000E+01 0.  1.
        -11    1    1    2    0    0 -0.45711785187E+02  0.30899660813E+02  0.21768365928E+02  0.59314569024E+02  0.00000000000E+00 0.  1.
         11    1    1    2    0    0 -0.26179149821E+02 -0.29031198157E+01 -0.64792965816E+02  0.69942150447E+02  0.00000000000E+00 0. -1.
</event>
<event>
 6    1  0.8259171E-006  0.8185788E+02  0.7561462E-02  0.1323860E+00
         -2   -1    0    0    0  501 -0.00000000000E+00  0.00000000000E+00  0.24956953952E+03  0.24956953952E+03  0.00000000000E+00 0.  1.
          2   -1    0    0  501    0  0.00000000000E+00 -0.00000000000E+00 -0.65077265385E+02  0.65077265385E+02  0.00000000000E+00 0. -1.
          5    1    1    2  502    0 -0.18944407045E+02 -0.41405414950E+02  0.16994157424E+03  0.17598553918E+03  0.41800000000E+01 0. -1.
         -5    1    1    2    0  502  0.16631638286E+01  0.43144502515E+02  0.11135582718E+02  0.44784906092E+02  0.41800000000E+01 0. -1.
        -11    1    1    2    0    0  0.45603663072E+02 -0.59081599878E+01  0.29920980617E+02  0.54862241306E+02  0.00000000000E+00 0.  1.
         11    1    1    2    0    0 -0.28322419856E+02  0.41690724225E+01 -0.26505863445E+02  0.39014118321E+02  0.00000000000E+00 0. -1.
</event>
<event>
 6    1  0.8259171E-006  0.2012561E+03  0.7561462E-02  0.1148684E+00
         -1   -1    0    0    0  501 -0.00000000000E+00  0.00000000000E+00  0.11673464433E+03  0.11673464433E+03  0.00000000000E+00 0.  1.
          1   -1    0    0  501    0  0.00000000000E+00 -0.00000000000E+00 -0.36311514423E+03  0.36311514423E+03  0.00000000000E+00 0. -1.
          5    1    1    2  502    0 -0.10639643717E+03 -0.24832550176E+02 -0.61490719253E+02  0.12544097554E+03  0.41800000000E+01 0. -1.
         -5    1    1    2    0  502 -0.10993121294E+02 -0.10512544223E+03 -0.52276864277E+02  0.11799385687E+03  0.41800000000E+01 0. -1.
        -11    1    1    2    0    0  0.12616351332E+03  0.12296953784E+03 -0.10146161668E+03  0.20330567870E+03  0.00000000000E+00 0.  1.
         11    1    1    2    0    0 -0.87739548618E+01  0.69884545593E+01 -0.31151299692E+02  0.33109277454E+02  0.00000000000E+00 0. -1.
</event>
<event>
 6    1  0.8259171E-006  0.1107762E+03  0.7561462E-02  0.1259139E+00
          1   -1    0    0  501    0  0.00000000000E+00  0.00000000000E+00  0.14937275662E+03  0.14937275662E+03  0.00000000000E+00 0. -1.
         -1   -1    0    0    0  501 -0.00000000000E+00 -0.00000000000E+00 -0.13048701925E+03  0.13048701925E+03  0.00000000000E+00 0.  1.
          5    1    1    2  502    0 -0.30779072957E+02 -0.13590026062E+02  0.17503404760E+02  0.38156018119E+02  0.41800000000E+01 0. -1.
         -5    1    1    2    0  502  0.74799891474E+01  0.77481438723E+02 -0.72848378161E+02  0.10669433999E+03  0.41800000000E+01 0.  1.
        -11    1    1    2    0    0 -0.31833728820E+02 -0.35492060603E+02  0.48058902209E+02  0.67695869431E+02  0.00000000000E+00 0.  1.
         11    1    1    2    0    0  0.55132812630E+02 -0.28399352058E+02  0.26171808565E+02  0.67313548334E+02  0.00000000000E+00 0. -1.
</event>
<event>
 6    1  0.8259171E-006  0.1679128E+03  0.7561462E-02  0.1180042E+00
          2   -1    0    0  501    0  0.00000000000E+00  0.00000000000E+00  0.12825744948E+04  0.12825744948E+04  0.00000000000E+00 0. -1.
         -2   -1    0    0    0  501 -0.00000000000E+00 -0.00000000000E+00 -0.30253132590E+02  0.30253132590E+02  0.00000000000E+00 0.  1.
          5    1    1    2  502    0 -0.41523901595E+02  0.26050951426E+02  0.40354535283E+02  0.63630553917E+02  0.41800000000E+01 0.  1.
         -5    1    1    2    0  502 -0.84735935629E+02 -0.88123247385E+02  0.32754101231E+03  0.34963763050E+03  0.41800000000E+01 0.  1.
        -11    1    1    2    0    0  0.15940781822E+02 -0.20885324914E+02  0.13828263464E+03  0.14075650026E+03  0.00000000000E+00 0. -1.
         11    1    1    2    0    0  0.11031905540E+03  0.82957620872E+02  0.74614318001E+03  0.75880294274E+03  0.00000000000E+00 0.  1.
</event>
<event>
 6    1  0.8259171E-006  0.1151000E+03  0.7561462E-02  0.1251407E+00
          1   -1    0    0  501    0  0.00000000000E+00  0.00000000000E+00  0.44212679796E+02  0.44212679796E+02  0.00000000000E+00 0. -1.
         -1   -1    0    0    0  501 -0.00000000000E+00 -0.00000000000E+00 -0.31333934130E+03  0.31333934130E+03  0.00000000000E+00 0.  1.
          5    1    1    2  502    0  0.76619750001E+02 -0.38164046466E+02 -0.13101511801E+03  0.15655514709E+03  0.41800000000E+01 0.  1.
         -5    1    1    2    0  502 -0.43795185716E+02  0.12109114403E+02 -0.54624246413E+02  0.71175344325E+02  0.41800000000E+01 0.  1.
        -11    1    1    2    0    0  0.11005340980E+02  0.48425684623E+02 -0.48728635823E+02  0.69574739744E+02  0.00000000000E+00 0.  1.
         11    1    1    2    0    0 -0.43829905265E+02 -0.22370752561E+02 -0.34758661263E+02  0.60246789943E+02  0.00000000000E+00 0. -1.
</event>
<event>
 6    1  0.8259171E-006  0.1082405E+03  0.7561462E-02  0.1263863E+00
          1   -1    0    0  501    0  0.00000000000E+00  0.00000000000E+00  0.19694468909E+03  0.19694468909E+03  0.00000000000E+00 0. -1.
         -1   -1    0    0    0  501 -0.00000000000E+00 -0.00000000000E+00 -0.83856431934E+02  0.83856431934E+02  0.00000000000E+00 0.  1.
          5    1    1    2  502    0 -0.23706157938E+02 -0.62876104960E+02  0.25519568613E+02  0.72000745005E+02  0.41800000000E+01 0.  1.
         -5    1    1    2    0  502  0.44267208767E+02  0.28668958654E+02 -0.26805542658E+02  0.59308553174E+02  0.41800000000E+01 0.  1.
        -11    1    1    2    0    0 -0.66621052231E+01  0.63488202472E+02  0.74706250469E+02  0.98265758829E+02  0.00000000000E+00 0.  1.
         11    1    1    2    0    0 -0.13898945606E+02 -0.29281056166E+02  0.39667980734E+02  0.51226064017E+02  0.00000000000E+00 0. -1.
</event>
<event>
 6    1  0.8259171E-006  0.1342776E+03  0.7561462E-02  0.1221243E+00
         -2   -1    0    0    0  501 -0.00000000000E+00  0.00000000000E+00  0.33640072708E+03  0.33640072708E+03  0.00000000000E+00 0. -1.
          2   -1    0    0  501    0  0.00000000000E+00 -0.00000000000E+00 -0.67794381075E+02  0.67794381075E+02  0.00000000000E+00 0.  1.
          5    1    1    2  502    0  0.35668383256E+02  0.11526838952E+03  0.12598413510E+03  0.17449501392E+03  0.41800000000E+01 0. -1.
         -5    1    1    2    0  502  0.26439880723E+02 -0.30379280328E+02  0.22512555985E+02  0.46327697362E+02  0.41800000000E+01 0. -1.
        -11    1    1    2    0    0 -0.51462491307E+02 -0.53708777778E+02  0.12929789889E+03  0.14916758186E+03  0.00000000000E+00 0. -1.
         11    1    1    2    0    0 -0.10645772671E+02 -0.31180331414E+02 -0.91882439649E+01  0.34204815012E+02  0.00000000000E+00 0.  1.
</event>
<event>
 6    1  0.8259171E-006  0.1386637E+03  0.7561462E-02  0.1215138E+00
         -1   -1    0    0    0  501 -0.00000000000E+00  0.00000000000E+00  0.64770362714E+03  0.64770362714E+03  0.00000000000E+00 0.  1.
          1   -1    0    0  501    0  0.00000000000E+00 -0.00000000000E+00 -0.41620580181E+02  0.41620580181E+02  0.00000000000E+00 0. -1.
          5    1    1    2  502    0  0.29396799893E+02 -0.73985070386E+02  0.25739860347E+03  0.26946145541E+03  0.41800000000E+01 0.  1.
         -5    1    1    2    0  502 -0.80576725277E+02 -0.25514038821E+02  0.17570883409E+03  0.19502472051E+03  0.41800000000E+01 0.  1.
        -11    1    1    2    0    0  0.42840489389E+02  0.67758543277E+02  0.17444922763E+03  0.19198713691E+03  0.00000000000E+00 0.  1.
         11    1    1    2    0    0  0.83394359942E+01  0.31740565931E+02 -0.14736182274E+01  0.32850894493E+02  0.00000000000E+00 0. -1.
</event>
<event>
 6    1  0.8259171E-006  0.1651322E+03  0.7561462E-02  0.1183021E+00
          1   -1    0    0  501    0  0.00000000000E+00  0.00000000000E+00  0.61992750343E+03  0.61992750343E+03  0.00000000000E+00 0. -1.
         -1   -1    0    0    0  501 -0.00000000000E+00 -0.00000000000E+00 -0.56021748222E+02  0.56021748222E+02  0.00000000000E+00 0.  1.
          5    1    1    2  502    0 -0.14162348783E+02  0.12987973797E+02  0.99462719318E+02  0.10138818728E+03  0.41800000000E+01 0.  1.
         -5    1    1    2    0  502  0.12030250429E+03 -0.44696341933E+02  0.13274111312E+03  0.18468386782E+03  0.41800000000E+01 0.  1.
        -11    1    1    2    0    0 -0.93287592925E+02 -0.45591524545E+02  0.27266497613E+03  0.29176591870E+03  0.00000000000E+00 0. -1.
         11    1    1    2    0    0 -0.12852562583E+02  0.77299892680E+02  0.59036946636E+02  0.98111277850E+02  0.00000000000E+00 0.  1.
</event>
<event>
 6    1  0.8259171E-006  0.3042675E+03  0.7561462E-02  0.1083127E+00
          2   -1    0    0  501    0  0.00000000000E+00  0.00000000000E+00  0.11159033710E+04  0.11159033710E+04  0.00000000000E+00 0. -1.
         -2   -1    0    0    0  501 -0.00000000000E+00 -0.00000000000E+00 -0.10703867762E+03  0.10703867762E+03  0.00000000000E+00 0.  1.
          5    1    1    2  502    0  0.19286237108E+03  0.15828395994E+03  0.15740448534E+03  0.29503110100E+03  0.41800000000E+01 0. -1.
         -5    1    1    2    0  502 -0.46335407267E+01  0.57968508962E+02  0.73211326346E+02  0.93590536040E+02  0.41800000000E+01 0. -1.
        -11    1    1    2    0    0 -0.16361122676E+03 -0.12420619578E+03  0.53221226064E+03  0.57047848599E+03  0.00000000000E+00 0.  1.
         11    1    1    2    0    0 -0.24617603594E+02 -0.92046273120E+02  0.24603662107E+03  0.26384192561E+03  0.00000000000E+00 0. -1.
</event>
<event>
 6    1  0.8259171E-006  0.1064776E+03  0.7561462E-02  0.1267235E+00
          4   -1    0    0  501    0  0.00000000000E+00  0.00000000000E+00  0.25885813896E+03  0.25885813896E+03  0.00000000000E+00 0. -1.
         -4   -1    0    0    0  501 -0.00000000000E+00 -0.00000000000E+00 -0.90786087601E+02  0.90786087601E+02  0.00000000000E+00 0.  1.
          5    1    1    2  502    0 -0.46410193439E+02  0.90764686091E+01  0.24495786070E+02  0.53421009655E+02  0.41800000000E+01 0. -1.
         -5    1    1    2    0  502  0.57452197365E+02  0.28797110771E+02 -0.46828306964E+02  0.79626574107E+02  0.41800000000E+01 0. -1.
        -11    1    1    2    0    0 -0.34357047566E+02  0.19249726596E+02  0.96611708648E+02  0.10433015355E+03  0.00000000000E+00 0. -1.
         11    1    1    2    0    0  0.23315043639E+02 -0.57123305976E+02  0.93792863605E+02  0.11226648925E+03  0.00000000000E+00 0.  1.
</event>
<event>
 6    1  0.8259171E-006  0.1229390E+03  0.7561462E-02  0.1238326E+00
         -2   -1    0    0    0  501 -0.00000000000E+00  0.00000000000E+00  0.50432806706E+02  0.50432806706E+02  0.00000000000E+00 0.  1.
          2   -1    0    0  501    0  0.00000000000E+00 -0.00000000000E+00 -0.43369855592E+03  0.43369855592E+03  0.00000000000E+00 0. -1.
          5    1    1    2  502    0 -0.36014990619E+02  0.39454247181E+02 -0.23068914503E+02  0.58338361189E+02  0.41800000000E+01 0. -1.
         -5    1    1    2    0  502 -0.61025339113E+02 -0.63352154435E+02 -0.17886380296E+03  0.19936729896E+03  0.41800000000E+01 0. -1.
        -11    1    1    2    0    0  0.71380176642E+02  0.30674200059E+02 -0.49892486823E+02  0.92332531689E+02  0.00000000000E+00 0.  1.
         11    1    1    2    0    0  0.25660153091E+02 -0.67762928049E+01 -0.13144054492E+03  0.13409317078E+03  0.00000000000E+00 0. -1.
</event>
<event>
 6    1  0.8259171E-006  0.9061201E+02  0.7561462E-02  0.1301376E+00
         -1   -1    0    0    0  501 -0.00000000000E+00  0.00000000000E+00  0.88700710965E+02  0.88700710965E+02  0.00000000000E+00 0.  1.
          1   -1    0    0  501    0  0.00000000000E+00 -0.00000000000E+00 -0.14072710570E+03  0.14072710570E+03  0.00000000000E+00 0. -1.
          5    1    1    2  502    0  0.45165468771E+02 -0.14152327703E+02  0.40318850581E+02  0.62316049786E+02  0.41800000000E+01 0. -1.
         -5    1    1    2    0  502 -0.33921215185E+02  0.30664765221E+02 -0.45233310916E+02  0.64455422442E+02  0.41800000000E+01 0. -1.
        -11    1    1    2    0    0  0.18268493919E+01 -0.50936354641E+02 -0.13324837306E+02  0.52682073726E+02  0.00000000000E+00 0.  1.
         11    1    1    2    0    0 -0.13071102978E+02  0.34423917123E+02 -0.33787097098E+02  0.49974270715E+02  0.00000000000E+00 0. -1.
</event>
<event>
 6    1  0.8259171E-006  0.1068640E+03  0.7561462E-02  0.1266490E+00
         -2   -1    0    0    0  501 -0.00000000000E+00  0.00000000000E+00  0.44448402822E+03  0.44448402822E+03  0.00000000000E+00 0.  1.
          2   -1    0    0  501    0  0.00000000000E+00 -0.00000000000E+00 -0.53664137377E+02  0.53664137377E+02  0.00000000000E+00 0. -1.
          5    1    1    2  502    0 -0.46903607989E+02  0.26863260968E+02  0.26311107692E+02  0.60260517922E+02  0.41800000000E+01 0. -1.
         -5    1    1    2    0  502 -0.18724040585E+02  0.34061907323E+02  0.27789488513E+03  0.28063115081E+03  0.41800000000E+01 0. -1.
        -11    1    1    2    0    0  0.75996701065E+02 -0.20535355781E+02  0.24505977239E+02  0.82448422243E+02  0.00000000000E+00 0. -1.
         11    1    1    2    0    0 -0.10369052491E+02 -0.40389812510E+02  0.62107920784E+02  0.74808074619E+02  0.00000000000E+00 0.  1.
</event>
<event>
 6    1  0.8259171E-006  0.1395261E+03  0.7561462E-02  0.1213968E+00
          1   -1    0    0  501    0  0.00000000000E+00  0.00000000000E+00  0.71240001113E+02  0.71240001113E+02  0.00000000000E+00 0. -1.
         -1   -1    0    0    0  501 -0.00000000000E+00 -0.00000000000E+00 -0.47680891777E+03  0.47680891777E+03  0.00000000000E+00 0.  1.
          5    1    1    2  502    0  0.49507465030E+01 -0.85371570724E+02 -0.11623498678E+03  0.14436363645E+03  0.41800000000E+01 0. -1.
         -5    1    1    2    0  502  0.20917306897E+02  0.99526545043E+02 -0.29437332471E+03  0.31147422622E+03  0.41800000000E+01 0.  1.
        -11    1    1    2    0    0 -0.55324210435E+02  0.64526635034E+01 -0.12635213502E+01  0.55713567582E+02  0.00000000000E+00 0.  1.
         11    1    1    2    0    0  0.29456157035E+02 -0.20607637823E+02  0.63029161821E+01  0.36497488630E+02  0.00000000000E+00 0. -1.
</event>
<event>
 6    1  0.8259171E-006  0.1073050E+03  0.7561462E-02  0.1265644E+00
         -1   -1    0    0    0  501 -0.00000000000E+00  0.00000000000E+00  0.50422086351E+02  0.50422086351E+02  0.00000000000E+00 0.  1.
          1   -1    0    0  501    0  0.00000000000E+00 -0.00000000000E+00 -0.25293741166E+03  0.25293741166E+03  0.00000000000E+00 0. -1.
          5    1    1    2  502    0 -0.15845803298E+02 -0.49859138453E+02 -0.60334413848E+02  0.79967099884E+02  0.41800000000E+01 0. -1.
         -5    1    1    2    0  502  0.38364198135E+02  0.57868720258E+02 -0.27781846067E+02  0.74899291410E+02  0.41800000000E+01 0. -1.
        -11    1    1    2    0    0 -0.35711595772E+02  0.33530312952E+02 -0.44853210664E+02  0.66418449742E+02  0.00000000000E+00 0.  1.
         11    1    1    2    0    0  0.13193200936E+02 -0.41539894757E+02 -0.69545854731E+02  0.82074656976E+02  0.00000000000E+00 0. -1.
</event>
<event>
 6    1  0.8259171E-006  0.1017659E+03  0.7561462E-02  0.1276626E+00
          1   -1    0    0  501    0  0.00000000000E+00  0.00000000000E+00  0.22185627585E+03  0.22185627585E+03  0.00000000000E+00 0. -1.
         -1   -1    0    0    0  501 -0.00000000000E+00 -0.00000000000E+00 -0.11134553397E+03  0.11134553397E+03  0.00000000000E+00 0.  1.
          5    1    1    2  502    0  0.46864996363E+02  0.27519466375E+02 -0.37647737411E+02  0.66245554159E+02  0.41800000000E+01 0. -1.
         -5    1    1    2    0  502 -0.35219923491E+02 -0.64371136506E+02 -0.15841632759E+02  0.75183215909E+02  0.41800000000E+01 0. -1.
        -11    1    1    2    0    0 -0.12308626839E+02 -0.17377604375E+02  0.12017098502E+03  0.12204322623E+03  0.00000000000E+00 0.  1.
         11    1    1    2    0    0  0.66355396825E+00  0.54229274507E+02  0.43829127022E+02  0.69729813516E+02  0.00000000000E+00 0. -1.
</event>
<event>
 6    1  0.8259171E-006  0.1609787E+03  0.7561462E-02  0.1187596E+00
         -2   -1    0    0    0  501 -0.00000000000E+00  0.00000000000E+00  0.16247146706E+03  0.16247146706E+03  0.00000000000E+00 0.  1.
          2   -1    0    0  501    0  0.00000000000E+00 -0.00000000000E+00 -0.21870670301E+03  0.21870670301E+03  0.00000000000E+00 0. -1.
          5    1    1    2  502    0 -0.26616676725E+02 -0.13810345219E+03 -0.57210447722E+02  0.15189311609E+03  0.41800000000E+01 0. -1.
         -5    1    1    2    0  502 -0.41831268028E+02  0.55295019909E+02  0.44019788314E+02  0.82235079952E+02  0.41800000000E+01 0.  1.
        -11    1    1    2    0    0  0.51915795984E+02  0.79467537769E+02  0.60733477322E+01  0.95116901676E+02  0.00000000000E+00 0. -1.
         11    1    1    2    0    0  0.16532148769E+02  0.33408945142E+01 -0.49117924276E+02  0.51933072355E+02  0.00000000000E+00 0.  1.
</event>
<event>
 6    1  0.8259171E-006  0.8894971E+02  0.7561462E-02  0.1305415E+00
          1   -1    0    0  501    0  0.00000000000E+00  0.00000000000E+00  0.21407097161E+03  0.21407097161E+03  0.00000000000E+00 0. -1.
         -1   -1    0    0    0  501 -0.00000000000E+00 -0.00000000000E+00 -0.78176730348E+02  0.78176730348E+02  0.00000000000E+00 0.  1.
          5    1    1    2  502    0  0.40720157533E+02 -0.17098152746E+02 -0.26711534672E+02  0.51782782287E+02  0.41800000000E+01 0. -1.
         -5    1    1    2    0  502 -0.53513720987E+00 -0.40735148304E+02  0.10286842100E+03  0.11072047290E+03  0.41800000000E+01 0. -1.
        -11    1    1    2    0    0 -0.13904024019E+02  0.64080838834E+02  0.74266537926E+02  0.99071663179E+02  0.00000000000E+00 0. -1.
         11    1    1    2    0    0 -0.26280996304E+02 -0.62475377844E+01 -0.14529182992E+02  0.30672783596E+02  0.00000000000E+00 0.  1.
</event>
<event>
 6    1  0.8259171E-006  0.7644799E+02  0.7561462E-02  0.1339445E+00
         -1   -1    0    0    0  501 -0.00000000000E+00  0.00000000000E+00  0.72458366542E+02  0.72458366542E+02  0.00000000000E+00 0.  1.
          1   -1    0    0  501    0  0.00000000000E+00 -0.00000000000E+00 -0.19916806614E+03  0.19916806614E+03  0.00000000000E+00 0. -1.
          5    1    1    2  502    0 -0.25103148922E+01  0.21579665126E+02  0.39171968737E+02  0.44987766810E+02  0.41800000000E+01 0. -1.
         -5    1    1    2    0  502 -0.78490355580E+01  0.25970811740E+02 -0.97623804759E+02  0.10140991114E+03  0.41800000000E+01 0. -1.
        -11    1    1    2    0    0 -0.37892317750E+02 -0.36162281146E+01 -0.36173320569E+02  0.52511084270E+02  0.00000000000E+00 0. -1.
         11    1    1    2    0    0  0.48251668200E+02 -0.43934248751E+02 -0.32084543003E+02  0.72717670460E+02  0.00000000000E+00 0.  1.
</event>
<event>
 6    1  0.8259171E-006  0.1256092E+03  0.7561462E-02  0.1234120E+00
         -2   -1    0    0    0  501 -0.00000000000E+00  0.00000000000E+00  0.11933297552E+03  0.11933297552E+03  0.00000000000E+00 0.  1.
          2   -1    0    0  501    0  0.00000000000E+00 -0.00000000000E+00 -0.13750857846E+03  0.13750857846E+03  0.00000000000E+00 0. -1.
          5    1    1    2  502    0 -0.54316993383E+01 -0.40725938432E+02 -0.76954479770E+01  0.42009495812E+02  0.41800000000E+01 0. -1.
         -5    1    1    2    0  502  0.59290647245E+02  0.79807882310E+02  0.60370194091E+01  0.99692511920E+02  0.41800000000E+01 0. -1.
        -11    1    1    2    0    0  0.12936593473E+02  0.18259601728E+02  0.79868276709E+01  0.23760427651E+02  0.00000000000E+00 0.  1.
         11    1    1    2    0    0 -0.66795541379E+02 -0.57341545606E+02 -0.24504002044E+02  0.91379118604E+02  0.00000000000E+00 0. -1.
</event>
<event>
 6    1  0.8259171E-006  0.7720078E+02  0.7561462E-02  0.1337188E+00
          1   -1    0    0  501    0  0.00000000000E+00  0.00000000000E+00  0.30917267994E+03  0.30917267994E+03  0.00000000000E+00 0. -1.
         -1   -1    0    0    0  501 -0.00000000000E+00 -0.00000000000E+00 -0.35835009670E+02  0.35835009670E+02  0.00000000000E+00 0.  1.
          5    1    1    2  502    0  0.36905148006E+02 -0.21561199528E+02  0.15046487359E+03  0.15647372258E+03  0.41800000000E+01 0. -1.
         -5    1    1    2    0  502 -0.13576633359E+02  0.93724387748E+01 -0.13852977164E+02  0.21944132661E+02  0.41800000000E+01 0.  1.
        -11    1    1    2    0    0 -0.12130517106E+02  0.51837101939E+02  0.66673868063E+02  0.85320802066E+02  0.00000000000E+00 0.  1.
         11    1    1    2    0    0 -0.11197997541E+02 -0.39648341185E+02  0.70051905783E+02  0.81269032303E+02  0.00000000000E+00 0. -1.
</event>
<event>
 6    1  0.8259171E-006  0.8141679E+02  0.7561462E-02  0.1325078E+00
         -3   -1    0    0    0  501 -0.00000000000E+00  0.00000000000E+00  0.63450637573E+03  0.63450637573E+03  0.00000000000E+00 0.  1.
          3   -1    0    0  501    0  0.00000000000E+00 -0.00000000000E+00 -0.22341534767E+02  0.22341534767E+02  0.00000000000E+00 0. -1.
          5    1    1    2  502    0 -0.57465413331E+01 -0.38804804877E+02  0.44431657783E+03  0.44606449013E+03  0.41800000000E+01 0. -1.
         -5    1    1    2    0  502  0.15430202584E+02  0.23412315932E+02  0.18860868634E+02  0.34050439861E+02  0.41800000000E+01 0. -1.
        -11    1    1    2    0    0  0.29257927599E+02  0.39558991856E+02  0.79384022709E+02  0.93395734514E+02  0.00000000000E+00 0.  1.
         11    1    1    2    0    0 -0.38941588851E+02 -0.24166502911E+02  0.69603371790E+02  0.83337245993E+02  0.00000000000E+00 0. -1.
</event>
<event>
 6    1  0.8259171E-006  0.2035683E+03  0.7561462E-02  0.1146763E+00
         -2   -1    0    0    0  501 -0.00000000000E+00  0.00000000000E+00  0.16704561918E+03  0.16704561918E+03  0.00000000000E+00 0.  1.
          2   -1    0    0  501    0  0.00000000000E+00 -0.00000000000E+00 -0.13081191171E+04  0.13081191171E+04  0.00000000000E+00 0. -1.
          5    1    1    2  502    0  0.20840923719E+02  0.13570429279E+03  0.11005472278E+03  0.17600998151E+03  0.41800000000E+01 0.  1.
         -5    1    1    2    0  502 -0.12025405767E+03 -0.10225123247E+03 -0.10091793495E+04  0.10214581659E+04  0.41800000000E+01 0. -1.
        -11    1    1    2    0    0  0.72576194221E+02 -0.49813379106E+01 -0.68611645345E+02  0.99998377846E+02  0.00000000000E+00 0.  1.
         11    1    1    2    0    0  0.26836939733E+02 -0.28471722418E+02 -0.17333722593E+03  0.17769821104E+03  0.00000000000E+00 0. -1.
</event>
<event>
 6    1  0.8259171E-006  0.1014136E+03  0.7561462E-02  0.1277351E+00
         -2   -1    0    0    0  501 -0.00000000000E+00  0.00000000000E+00  0.19531990190E+02  0.19531990190E+02  0.00000000000E+00 0.  1.
          2   -1    0    0  501    0  0.00000000000E+00 -0.00000000000E+00 -0.79153889390E+03  0.79153889390E+03  0.00000000000E+00 0. -1.
          5    1    1    2  502    0  0.26023351917E+02 -0.18456798694E+02 -0.26485433392E+03  0.26680172199E+03  0.41800000000E+01 0.  1.
         -5    1    1    2    0  502 -0.60994199087E+02 -0.22454531652E+02 -0.75072805314E+02  0.99387608945E+02  0.41800000000E+01 0.  1.
        -11    1    1    2    0    0 -0.10257487555E+02  0.56696014275E+02 -0.21569039808E+03  0.22325322374E+03  0.00000000000E+00 0.  1.
         11    1    1    2    0    0  0.45228334726E+02 -0.15784683929E+02 -0.21638936639E+03  0.22162832941E+03  0.00000000000E+00 0. -1.
</event>
<event>
 6    1  0.8259171E-006  0.1145489E+03  0.7561462E-02  0.1252371E+00
         -2   -1    0    0    0  501 -0.00000000000E+00  0.00000000000E+00  0.44863156990E+02  0.44863156990E+02  0.00000000000E+00 0.  1.
          2   -1    0    0  501    0  0.00000000000E+00 -0.00000000000E+00 -0.51570395866E+03  0.51570395866E+03  0.00000000000E+00 0. -1.
          5    1    1    2  502    0  0.46539552972E+02 -0.44112782640E+02 -0.40656985196E+02  0.76041636150E+02  0.41800000000E+01 0.  1.
         -5    1    1    2    0  502 -0.64935225686E+02  0.11318218585E+02 -0.31196688551E+02  0.73043763481E+02  0.41800000000E+01 0.  1.
        -11    1    1    2    0    0  0.29672977345E+02  0.61317474741E+02 -0.23603377462E+03  0.24566697184E+03  0.00000000000E+00 0.  1.
         11    1    1    2    0    0 -0.11277304631E+02 -0.28522910686E+02 -0.16295335330E+03  0.16581474417E+03  0.00000000000E+00 0. -1.
</event>
<event>
 6    1  0.8259171E-006  0.1483811E+03  0.7561462E-02  0.1202476E+00
         -1   -1    0    0    0  501 -0.00000000000E+00  0.00000000000E+00  0.12470807927E+03  0.12470807927E+03  0.00000000000E+00 0.  1.
          1   -1    0    0  501    0  0.00000000000E+00 -0.00000000000E+00 -0.20125743149E+03  0.20125743149E+03  0.00000000000E+00 0. -1.
          5    1    1    2  502    0 -0.48068877133E+02 -0.73974245009E+02  0.17238427854E+02  0.89985785924E+02  0.41800000000E+01 0.  1.
         -5    1    1    2    0  502  0.61248985743E+02 -0.13884966709E+02 -0.94126066035E+01  0.63641968213E+02  0.41800000000E+01 0.  1.
        -11    1    1    2    0    0  0.50448583423E+02  0.52057207156E+02 -0.20510254417E+02  0.75337128446E+02  0.00000000000E+00 0.  1.
         11    1    1    2    0    0 -0.63628692033E+02  0.35802004562E+02 -0.63864919057E+02  0.97000628176E+02  0.00000000000E+00 0. -1.
</event>
<event>
 6    1  0.8259171E-006  0.6982735E+02  0.7561462E-02  0.1360681E+00
          2   -1    0    0  501    0  0.00000000000E+00  0.00000000000E+00  0.92979684982E+02  0.92979684982E+02  0.00000000000E+00 0. -1.
         -2   -1    0    0    0  501 -0.00000000000E+00 -0.00000000000E+00 -0.14815515505E+03  0.14815515505E+03  0.00000000000E+00 0.  1.
          5    1    1    2  502    0 -0.29830148058E+02 -0.31758097287E+02 -0.10145437371E+03  0.11049378635E+03  0.41800000000E+01 0.  1.
         -5    1    1    2    0  502  0.82055528548E+01  0.25963517250E+02  0.25514283563E+02  0.37548453915E+02  0.41800000000E+01 0.  1.
        -11    1    1    2    0    0 -0.23206143422E+02  0.32507989472E+01 -0.21224612575E+02  0.31616087127E+02  0.00000000000E+00 0.  1.
         11    1    1    2    0    0  0.44830738624E+02  0.25437810900E+01  0.41989232653E+02  0.61476512642E+02  0.00000000000E+00 0. -1.
</event>
<event>
 6    1  0.8259171E-006  0.1044176E+03  0.7561462E-02  0.1271271E+00
         -3   -1    0    0    0  501 -0.00000000000E+00  0.00000000000E+00  0.68476341717E+02  0.68476341717E+02  0.00000000000E+00 0.  1.
          3   -1    0    0  501    0  0.00000000000E+00 -0.00000000000E+00 -0.23963559285E+03  0.23963559285E+03  0.00000000000E+00 0. -1.
          5    1    1    2  502    0  0.27905560178E+02 -0.43556228329E+02 -0.42350072951E+02  0.66984075676E+02  0.41800000000E+01 0. -1.
         -5    1    1    2    0  502 -0.65325394070E+02  0.21305828881E+02  0.94627904875E+01  0.69486417798E+02  0.41800000000E+01 0. -1.
        -11    1    1    2    0    0  0.61031626723E+02  0.11290304278E+02 -0.50273368721E+02  0.79873287360E+02  0.00000000000E+00 0.  1.
         11    1    1    2    0    0 -0.23611792832E+02  0.10960095171E+02 -0.87998599949E+02  0.91768153735E+02  0.00000000000E+00 0. -1.
</event>
<event>
 6    1  0.8259171E-006  0.7143806E+02  0.7561462E-02  0.1355270E+00
         -1   -1    0    0    0  501 -0.00000000000E+00  0.00000000000E+00  0.52330091031E+02  0.52330091031E+02  0.00000000000E+00 0.  1.
          1   -1    0    0  501    0  0.00000000000E+00 -0.00000000000E+00 -0.29333025212E+03  0.29333025212E+03  0.00000000000E+00 0. -1.
          5    1    1    2  502    0  0.16835673001E+02  0.22095567033E+02 -0.97705176070E+02  0.10166330606E+03  0.41800000000E+01 0.  1.
         -5    1    1    2    0  502 -0.27478781840E+02  0.88166835034E+01  0.32061665702E+02  0.43338668265E+02  0.41800000000E+01 0.  1.
        -11    1    1    2    0    0  0.80258895019E+01  0.26737385723E+02 -0.18414506095E+02  0.33442439090E+02  0.00000000000E+00 0.  1.
         11    1    1    2    0    0  0.26172193365E+01 -0.57649636259E+02 -0.15694214462E+03  0.16721592973E+03  0.00000000000E+00 0. -1.
</event>
<event>
 6    1  0.8259171E-006  0.1276426E+03  0.7561462E-02  0.1230996E+00
          1   -1    0    0  501    0  0.00000000000E+00  0.00000000000E+00  0.50866398136E+02  0.50866398136E+02  0.00000000000E+00 0. -1.
         -1   -1    0    0    0  501 -0.00000000000E+00 -0.00000000000E+00 -0.39875692016E+03  0.39875692016E+03  0.00000000000E+00 0.  1.
          5    1    1    2  502    0  0.83387004722E+02  0.52749748183E+02 -0.19104875497E+03  0.21506517074E+03  0.41800000000E+01 0.  1.
         -5    1    1    2    0  502 -0.42020892787E+02 -0.18590271085E+01 -0.93331083706E+02  0.10245669816E+03  0.41800000000E+01 0.  1.
        -11    1    1    2    0    0  0.26439359426E+02 -0.36285209931E+02 -0.14526537872E+02  0.47187673063E+02  0.00000000000E+00 0. -1.
         11    1    1    2    0    0 -0.67805471361E+02 -0.14605511144E+02 -0.48984145468E+02  0.84913776323E+02  0.00000000000E+00 0.  1.
</event>
<event>
 6    1  0.8259171E-006  0.1665496E+03  0.7561462E-02  0.1181495E+00
         -1   -1    0    0    0  501 -0.00000000000E+00  0.00000000000E+00  0.70801140011E+02  0.70801140011E+02  0.00000000000E+00 0.  1.
          1   -1    0    0  501    0  0.00000000000E+00 -0.00000000000E+00 -0.69850320854E+03  0.69850320854E+03  0.00000000000E+00 0. -1.
          5    1    1    2  502    0  0.86112631069E+02  0.10508683901E+03 -0.39713195891E+02  0.14160946045E+03  0.41800000000E+01 0.  1.
         -5    1    1    2    0  502  0.35192052662E+02 -0.65428759821E+00 -0.96955324675E+02  0.10323137142E+03  0.41800000000E+01 0.  1.
        -11    1    1    2    0    0 -0.52913067482E+02 -0.60807969158E+02 -0.11927981866E+03  0.14396206779E+03  0.00000000000E+00 0.  1.
         11    1    1    2    0    0 -0.68391616249E+02 -0.43624582251E+02 -0.37175372930E+03  0.38050144888E+03  0.00000000000E+00 0. -1.
</event>
<event>
 6    1  0.8259171E-006  0.1274477E+03  0.7561462E-02  0.1231293E+00
         -1   -1    0    0    0  501 -0.00000000000E+00  0.00000000000E+00  0.71904755732E+03  0.71904755732E+03  0.00000000000E+00 0.  1.
          1   -1    0    0  501    0  0.00000000000E+00 -0.00000000000E+00 -0.24381594337E+02  0.24381594337E+02  0.00000000000E+00 0. -1.
          5    1    1    2  502    0  0.29253108114E+02  0.12784097339E+02  0.17485773130E+03  0.17779728927E+03  0.41800000000E+01 0. -1.
         -5    1    1    2    0  502 -0.10307215013E+03 -0.20507877474E+02  0.24814449287E+03  0.26951364142E+03  0.41800000000E+01 0. -1.
        -11    1    1    2    0    0 -0.21509445101E+02 -0.24699523944E+01  0.42149384802E+02  0.47384887175E+02  0.00000000000E+00 0. -1.
         11    1    1    2    0    0  0.95328487115E+02  0.10193732529E+02  0.22951435402E+03  0.24873333379E+03  0.00000000000E+00 0.  1.
</event>
<event>
 6    1  0.8259171E-006  0.6604876E+02  0.7561462E-02  0.1374069E+00
          2   -1    0    0  501    0  0.00000000000E+00  0.00000000000E+00  0.71515818867E+03  0.71515818867E+03  0.00000000000E+00 0.  1.
         -2   -1    0    0    0  501 -0.00000000000E+00 -0.00000000000E+00 -0.17836547671E+02  0.17836547671E+02  0.00000000000E+00 0. -1.
          5    1    1    2  502    0  0.13052194825E+01 -0.26216882832E+01 -0.85482082733E+01  0.99559586196E+01  0.41800000000E+01 0. -1.
         -5    1    1    2    0  502 -0.24218561180E+01  0.30692370554E+02  0.41671099612E+03  0.41786769878E+03  0.41800000000E+01 0. -1.
        -11    1    1    2    0    0  0.35803659940E+02 -0.44852314485E+02  0.14481245459E+03  0.15576995598E+03  0.00000000000E+00 0.  1.
         11    1    1    2    0    0 -0.34687023305E+02  0.16781632213E+02  0.14434639856E+03  0.14940112296E+03  0.00000000000E+00 0. -1.
</event>
<event>
 6    1  0.8259171E-006  0.1352820E+03  0.7561462E-02  0.1219822E+00
         -2   -1    0    0    0  501 -0.00000000000E+00  0.00000000000E+00  0.57717553572E+03  0.57717553572E+03  0.00000000000E+00 0.  1.
          2   -1    0    0  501    0  0.00000000000E+00 -0.00000000000E+00 -0.57487131030E+02  0.57487131030E+02  0.00000000000E+00 0. -1.
          5    1    1    2  502    0 -0.35610902081E+02 -0.11992237591E+03  0.22014927075E+03  0.25324432156E+03  0.41800000000E+01 0.  1.
         -5    1    1    2    0  502 -0.13524138340E+02  0.12156755533E+02  0.19973082460E+03  0.20060050778E+03  0.41800000000E+01 0.  1.
        -11    1    1    2    0    0  0.52816760684E+02  0.64728054233E+02  0.13940151176E+02  0.84697455857E+02  0.00000000000E+00 0. -1.
         11    1    1    2    0    0 -0.36817202629E+01  0.43037566148E+02  0.85868158161E+02  0.96120381553E+02  0.00000000000E+00 0.  1.
</event>
<event>
 6    1  0.8259171E-006  0.1917399E+03  0.7561462E-02  0.1156901E+00
          3   -1    0    0  501    0  0.00000000000E+00  0.00000000000E+00  0.27665326624E+03  0.27665326624E+03  0.00000000000E+00 0. -1.
         -3   -1    0    0    0  501 -0.00000000000E+00 -0.00000000000E+00 -0.14698191864E+03  0.14698191864E+03  0.00000000000E+00 0.  1.
          5    1    1    2  502    0  0.13085667364E+03 -0.52824419308E+01  0.43517365223E+01  0.13110218625E+03  0.41800000000E+01 0.  1.
         -5    1    1    2    0  502  0.19309632722E+02  0.71563047966E+02  0.18691291905E+02  0.76556962735E+02  0.41800000000E+01 0.  1.
        -11    1    1    2    0    0 -0.82844773308E+02 -0.73177368776E+02  0.31659213568E+02  0.11498038776E+03  0.00000000000E+00 0.  1.
         11    1    1    2    0    0 -0.67321533052E+02  0.68967627406E+01  0.74969105602E+02  0.10099564814E+03  0.00000000000E+00 0. -1.
</event>
<event>
 6    1  0.8259171E-006  0.6263357E+02  0.7561462E-02  0.1387101E+00
          1   -1    0    0  501    0  0.00000000000E+00  0.00000000000E+00  0.53869473271E+02  0.53869473271E+02  0.00000000000E+00 0. -1.
         -1   -1    0    0    0  501 -0.00000000000E+00 -0.00000000000E+00 -0.16934600158E+03  0.16934600158E+03  0.00000000000E+00 0.  1.
          5    1    1    2  502    0  0.14754428622E+02 -0.16758438185E+02  0.20293802940E+02  0.30460618052E+02  0.41800000000E+01 0. -1.
         -5    1    1    2    0  502 -0.24856373622E+02  0.40436604536E+02 -0.12809178960E+03  0.13666725014E+03  0.41800000000E+01 0. -1.
        -11    1    1    2    0    0  0.28090711949E+02 -0.23945133338E+02 -0.91751001518E+01  0.38034720600E+02  0.00000000000E+00 0.  1.
         11    1    1    2    0    0 -0.17988766948E+02  0.26696698687E+00  0.14965585089E+01  0.18052886059E+02  0.00000000000E+00 0. -1.
</event>
<event>
 6    1  0.8259171E-006  0.1194071E+03  0.7561462E-02  0.1244078E+00
          4   -1    0    0  501    0  0.00000000000E+00  0.00000000000E+00  0.58981065031E+02  0.58981065031E+02  0.00000000000E+00 0. -1.
         -4   -1    0    0    0  501 -0.00000000000E+00 -0.00000000000E+00 -0.30802075943E+03  0.30802075943E+03  0.00000000000E+00 0.  1.
          5    1    1    2  502    0 -0.14552648766E+02  0.89814275372E+02 -0.15928240880E+03  0.18348499067E+03  0.41800000000E+01 0. -1.
         -5    1    1    2    0  502 -0.13567467190E+02 -0.40544103441E+02 -0.41105557606E+02  0.59456200315E+02  0.41800000000E+01 0. -1.
        -11    1    1    2    0    0 -0.20016749882E+02  0.14614952480E+02 -0.35041570756E+02  0.42920610351E+02  0.00000000000E+00 0.  1.
         11    1    1    2    0    0  0.48136865838E+02 -0.63885124410E+02 -0.13610157238E+02  0.81140023131E+02  0.00000000000E+00 0. -1.
</event>
<event>
 6    1  0.8259171E-006  0.9611492E+02  0.7561462E-02  0.1288685E+00
          1   -1    0    0  501    0  0.00000000000E+00  0.00000000000E+00  0.36922695850E+03  0.36922695850E+03  0.00000000000E+00 0. -1.
         -1   -1    0    0    0  501 -0.00000000000E+00 -0.00000000000E+00 -0.14112374174E+03  0.14112374174E+03  0.00000000000E+00 0.  1.
          5    1    1    2  502    0 -0.42573286045E+01  0.32351989995E+02  0.33782355973E+02  0.47153961430E+02  0.41800000000E+01 0. -1.
         -5    1    1    2    0  502 -0.28029003668E+01  0.36959461939E+02 -0.11824476023E+03  0.12398852286E+03  0.41800000000E+01 0.  1.
        -11    1    1    2    0    0 -0.44931874633E+02 -0.16347212268E+02  0.18999161882E+03  0.19591559389E+03  0.00000000000E+00 0.  1.
         11    1    1    2    0    0  0.51992103604E+02 -0.52964239666E+02  0.12257400220E+03  0.14329262206E+03  0.00000000000E+00 0. -1.
</event>
<event>
 6    1  0.8259171E-006  0.1111257E+03  0.7561462E-02  0.1258499E+00
          2   -1    0    0  501    0  0.00000000000E+00  0.00000000000E+00  0.61836764218E+03  0.61836764218E+03  0.00000000000E+00 0. -1.
         -2   -1    0    0    0  501 -0.00000000000E+00 -0.00000000000E+00 -0.26668753255E+02  0.26668753255E+02  0.00000000000E+00 0.  1.
          5    1    1    2  502    0 -0.33769957729E+02  0.57861057824E+02  0.26266117926E+03  0.27110271033E+03  0.41800000000E+01 0.  1.
         -5    1    1    2    0  502 -0.23654302182E+02 -0.37527385484E+02  0.32312971412E+02  0.55040268845E+02  0.41800000000E+01 0.  1.
        -11    1    1    2    0    0  0.51524982687E+02  0.30179666416E+02  0.21032438752E+03  0.21863664855E+03  0.00000000000E+00 0.  1.
         11    1    1    2    0    0  0.58992772247E+01 -0.50513338756E+02  0.86400350741E+02  0.10025676771E+03  0.00000000000E+00 0. -1.
</event>
<event>
 6    1  0.8259171E-006  0.1002896E+03  0.7561462E-02  0.1279688E+00
         -1   -1    0    0    0  501 -0.00000000000E+00  0.00000000000E+00  0.70247096992E+03  0.70247096992E+03  0.00000000000E+00 0.  1.
          1   -1    0    0  501    0  0.00000000000E+00 -0.00000000000E+00 -0.27478868513E+03  0.27478868513E+03  0.00000000000E+00 0. -1.
          5    1    1    2  502    0  0.54171705872E+02  0.19315706881E+01  0.79113417947E+02  0.95993280919E+02  0.41800000000E+01 0. -1.
         -5    1    1    2    0  502 -0.66043039558E+02  0.20187167598E+01  0.60499736329E+03  0.60860910302E+03  0.41800000000E+01 0.  1.
        -11    1    1    2    0    0 -0.33652103825E+02  0.36618308446E+01 -0.45345405477E+02  0.56586914520E+02  0.00000000000E+00 0.  1.
         11    1    1    2    0    0  0.45523437511E+02 -0.76121182925E+01 -0.21108309097E+03  0.21607035660E+03  0.00000000000E+00 0. -1.
</event>
<event>
 6    1  0.8259171E-006  0.1131115E+03  0.7561462E-02  0.1254914E+00
          2   -1    0    0  501    0  0.00000000000E+00  0.00000000000E+00  0.57251711093E+03  0.57251711093E+03  0.00000000000E+00 0. -1.
         -2   -1    0    0    0  501 -0.00000000000E+00 -0.00000000000E+00 -0.33812411808E+02  0.33812411808E+02  0.00000000000E+00 0.  1.
          5    1    1    2  502    0 -0.70323766690E+02  0.60192441881E+02  0.35299394107E+03  0.36495308884E+03  0.41800000000E+01 0. -1.
         -5    1    1    2    0  502  0.45087377570E+02 -0.56117880675E+02  0.42787307210E+02  0.83846968972E+02  0.41800000000E+01 0.  1.
        -11    1    1    2    0    0 -0.31346840372E+01 -0.25631471134E+02  0.32560186122E+02  0.41556759701E+02  0.00000000000E+00 0. -1.
         11    1    1    2    0    0  0.28371073157E+02  0.21556909928E+02  0.11036326473E+03  0.11597270523E+03  0.00000000000E+00 0.  1.
</event>
<event>
 6    1  0.8259171E-006  0.1052426E+03  0.7561462E-02  0.1269642E+00
          1   -1    0    0  501    0  0.00000000000E+00  0.00000000000E+00  0.16300404722E+03  0.16300404722E+03  0.00000000000E+00 0. -1.
         -1   -1    0    0    0  501 -0.00000000000E+00 -0.00000000000E+00 -0.12615946251E+03  0.12615946251E+03  0.00000000000E+00 0.  1.
          5    1    1    2  502    0 -0.42834734011E+02  0.76086787253E+01 -0.13624381138E+02  0.45779936556E+02  0.41800000000E+01 0. -1.
         -5    1    1    2    0  502  0.96933688842E+02  0.26402163123E+02 -0.31071474455E+02  0.10524316213E+03  0.41800000000E+01 0.  1.
        -11    1    1    2    0    0 -0.39553134932E+02 -0.33232848327E+02 -0.35776765585E+01  0.51784867099E+02  0.00000000000E+00 0.  1.
         11    1    1    2    0    0 -0.14545819900E+02 -0.77799352056E+00  0.85118116864E+02  0.86355543938E+02  0.00000000000E+00 0. -1.
</event>
<event>
 6    1  0.8259171E-006  0.3595134E+03  0.7561462E-02  0.1058777E+00
         -1   -1    0    0    0  501 -0.00000000000E+00  0.00000000000E+00  0.20123963801E+03  0.20123963801E+03  0.00000000000E+00 0.  1.
          1   -1    0    0  501    0  0.00000000000E+00 -0.00000000000E+00 -0.68190560774E+03  0.68190560774E+03  0.00000000000E+00 0. -1.
          5    1    1    2  502    0  0.35667226959E+02  0.35460316650E+03 -0.16121577884E+03  0.39118225486E+03  0.41800000000E+01 0. -1.
         -5    1    1    2    0  502 -0.10828578873E+02 -0.69644507628E+01 -0.97005196571E+01  0.16653353309E+02  0.41800000000E+01 0. -1.
        -11    1    1    2    0    0 -0.27434313448E+02 -0.26972791644E+03 -0.18506019796E+03  0.32825762342E+03  0.00000000000E+00 0.  1.
         11    1    1    2    0    0  0.25956653623E+01 -0.77910799293E+02 -0.12468947328E+03  0.14705201417E+03  0.00000000000E+00 0. -1.
</event>
<event>
 6    1  0.8259171E-006  0.1585734E+03  0.7561462E-02  0.1190317E+00
         -1   -1    0    0    0  501 -0.00000000000E+00  0.00000000000E+00  0.36265750075E+03  0.36265750075E+03  0.00000000000E+00 0.  1.
          1   -1    0    0  501    0  0.00000000000E+00 -0.00000000000E+00 -0.12491191379E+03  0.12491191379E+03  0.00000000000E+00 0. -1.
          5    1    1    2  502    0 -0.60142428137E+02  0.71839853805E+02  0.78292895510E+02  0.12216925204E+03  0.41800000000E+01 0.  1.
         -5    1    1    2    0  502 -0.67940377134E+02 -0.30970645848E+02  0.17847451706E+03  0.19350891811E+03  0.41800000000E+01 0.  1.
        -11    1    1    2    0    0  0.12559250606E+03 -0.19538385965E+02  0.18712893977E+02  0.12847333772E+03  0.00000000000E+00 0.  1.
         11    1    1    2    0    0  0.24902992115E+01 -0.21330821992E+02 -0.37734719586E+02  0.43417906667E+02  0.00000000000E+00 0. -1.
</event>
<event>
 6    1  0.8259171E-006  0.1580501E+03  0.7561462E-02  0.1190916E+00
          1   -1    0    0  501    0  0.00000000000E+00  0.00000000000E+00  0.31942231873E+03  0.31942231873E+03  0.00000000000E+00 0.  1.
         -1   -1    0    0    0  501 -0.00000000000E+00 -0.00000000000E+00 -0.10498959833E+03  0.10498959833E+03  0.00000000000E+00 0. -1.
          5    1    1    2  502    0  0.12932781484E+03 -0.83308055518E+02  0.15434849300E+03  0.21796065126E+03  0.41800000000E+01 0.  1.
         -5    1    1    2    0  502 -0.17514165606E+01  0.16272823471E+02 -0.11479779015E+02  0.20423759936E+02  0.41800000000E+01 0.  1.
        -11    1    1    2    0    0 -0.74451904366E+02  0.49352109901E+02  0.90271451162E+02  0.12699469166E+03  0.00000000000E+00 0.  1.
         11    1    1    2    0    0 -0.53124493918E+02  0.17683122146E+02 -0.18707444749E+02  0.59032814196E+02  0.00000000000E+00 0. -1.
</event>
<event>
 6    1  0.8259171E-006  0.1654357E+03  0.7561462E-02  0.1182693E+00
          1   -1    0    0  501    0  0.00000000000E+00  0.00000000000E+00  0.72795473837E+03  0.72795473837E+03  0.00000000000E+00 0. -1.
         -1   -1    0    0    0  501 -0.00000000000E+00 -0.00000000000E+00 -0.41006343320E+02  0.41006343320E+02  0.00000000000E+00 0.  1.
          5    1    1    2  502    0 -0.27022554415E+02  0.13576797766E+03  0.25641221737E+03  0.29142384910E+03  0.41800000000E+01 0. -1.
         -5    1    1    2    0  502  0.37062697670E+02 -0.65426326354E+01  0.37471901169E+02  0.53273496015E+02  0.41800000000E+01 0. -1.
        -11    1    1    2    0    0  0.22419354122E+02 -0.11808131764E+03  0.34396409870E+03  0.36435851329E+03  0.00000000000E+00 0. -1.
         11    1    1    2    0    0 -0.32459497377E+02 -0.11144027379E+02  0.49100177806E+02  0.59905223285E+02  0.00000000000E+00 0.  1.
</event>
<event>
 6    1  0.8259171E-006  0.1959754E+03  0.7561462E-02  0.1153180E+00
         -2   -1    0    0    0  501 -0.00000000000E+00  0.00000000000E+00  0.34878823054E+02  0.34878823054E+02  0.00000000000E+00 0. -1.
          2   -1    0    0  501    0  0.00000000000E+00 -0.00000000000E+00 -0.14638031816E+04  0.14638031816E+04  0.00000000000E+00 0.  1.
          5    1    1    2  502    0  0.17283416463E+03  0.53658349507E+02 -0.30290965979E+03  0.35287760106E+03  0.41800000000E+01 0.  1.
         -5    1    1    2    0  502 -0.24490290463E+01 -0.15557797305E+02 -0.12351035864E+03  0.12458059195E+03  0.41800000000E+01 0.  1.
        -11    1    1    2    0    0 -0.11524868582E+03 -0.66035294531E+02 -0.68430095514E+03  0.69707296384E+03  0.00000000000E+00 0.  1.
         11    1    1    2    0    0 -0.55136449759E+02  0.27934742329E+02 -0.31820338494E+03  0.32415084776E+03  0.00000000000E+00 0. -1.
</event>
<event>
 6    1  0.8259171E-006  0.9302700E+02  0.7561462E-02  0.1295683E+00
          1   -1    0    0  501    0  0.00000000000E+00  0.00000000000E+00  0.38545594731E+02  0.38545594731E+02  0.00000000000E+00 0. -1.
         -1   -1    0    0    0  501 -0.00000000000E+00 -0.00000000000E+00 -0.35458102597E+03  0.35458102597E+03  0.00000000000E+00 0.  1.
          5    1    1    2  502    0  0.33201370207E+02 -0.24880414083E+02 -0.18016269067E+03  0.18492548094E+03  0.41800000000E+01 0.  1.
         -5    1    1    2    0  502 -0.50955294367E+02  0.38674493270E+02 -0.65408589848E+02  0.91585558248E+02  0.41800000000E+01 0.  1.
        -11    1    1    2    0    0  0.47429242937E+02  0.22115043746E+00 -0.69045189194E+02  0.83766461928E+02  0.00000000000E+00 0.  1.
         11    1    1    2    0    0 -0.29675318777E+02 -0.14015229624E+02 -0.14189615230E+01  0.32849119589E+02  0.00000000000E+00 0. -1.
</event>
<event>
 6    1  0.8259171E-006  0.6370399E+02  0.7561462E-02  0.1382914E+00
         -1   -1    0    0    0  501 -0.00000000000E+00  0.00000000000E+00  0.53055084970E+02  0.53055084970E+02  0.00000000000E+00 0.  1.
          1   -1    0    0  501    0  0.00000000000E+00 -0.00000000000E+00 -0.25067100432E+03  0.25067100432E+03  0.00000000000E+00 0. -1.
          5    1    1    2  502    0  0.10938996940E+02 -0.34220506384E+02 -0.10158875307E+03  0.10783529970E+03  0.41800000000E+01 0.  1.
         -5    1    1    2    0  502 -0.44192141243E+01  0.21662681108E+02  0.29600581354E+02  0.37181554873E+02  0.41800000000E+01 0.  1.
        -11    1    1    2    0    0 -0.26361588444E+02 -0.18272578890E+02 -0.47888237831E+01  0.32430746489E+02  0.00000000000E+00 0.  1.
         11    1    1    2    0    0  0.19841805629E+02  0.30830404166E+02 -0.12083892385E+03  0.12627848822E+03  0.00000000000E+00 0. -1.
</event>
<event>
 6    1  0.8259171E-006  0.1168783E+03  0.7561462E-02  0.1248338E+00
          2   -1    0    0  501    0  0.00000000000E+00  0.00000000000E+00  0.17316173282E+03  0.17316173282E+03  0.00000000000E+00 0. -1.
         -2   -1    0    0    0  501 -0.00000000000E+00 -0.00000000000E+00 -0.17840497773E+03  0.17840497773E+03  0.00000000000E+00 0.  1.
          5    1    1    2  502    0 -0.51659306517E+01  0.10554941847E+02  0.14161280407E+02  0.18870821383E+02  0.41800000000E+01 0. -1.
         -5    1    1    2    0  502  0.21674663997E+02 -0.10298685158E+03 -0.12580078602E+03  0.16407130408E+03  0.41800000000E+01 0.  1.
        -11    1    1    2    0    0  0.26325191090E+02  0.44254893544E+02  0.87361543768E+02  0.10140784298E+03  0.00000000000E+00 0.  1.
         11    1    1    2    0    0 -0.42833924435E+02  0.48177016189E+02  0.19034716937E+02  0.67216742113E+02  0.00000000000E+00 0. -1.
</event>
<event>
 6    1  0.8259171E-006  0.1211723E+03  0.7561462E-02  0.1241176E+00
         -1   -1    0    0    0  501 -0.00000000000E+00  0.00000000000E+00  0.71480761313E+02  0.71480761313E+02  0.00000000000E+00 0.  1.
          1   -1    0    0  501    0  0.00000000000E+00 -0.00000000000E+00 -0.27162839956E+03  0.27162839956E+03  0.00000000000E+00 0. -1.
          5    1    1    2  502    0  0.69008481042E+00  0.80051164585E+02 -0.10931853486E+02  0.80905148100E+02  0.41800000000E+01 0. -1.
         -5    1    1    2    0  502 -0.47362376521E+02 -0.35293321573E+02 -0.26017246186E+02  0.64677528992E+02  0.41800000000E+01 0. -1.
        -11    1    1    2    0    0  0.65575726824E+02 -0.14294494012E+02 -0.13875561979E+03  0.15413510479E+03  0.00000000000E+00 0. -1.
         11    1    1    2    0    0 -0.18903435114E+02 -0.30463349000E+02 -0.24442918786E+02  0.43391378985E+02  0.00000000000E+00 0.  1.
</event>
<event>
 6    1  0.8259171E-006  0.1094069E+03  0.7561462E-02  0.1261672E+00
          2   -1    0    0  501    0  0.00000000000E+00  0.00000000000E+00  0.22640800383E+03  0.22640800383E+03  0.00000000000E+00 0. -1.
         -2   -1    0    0    0  501 -0.00000000000E+00 -0.00000000000E+00 -0.63007882268E+02  0.63007882268E+02  0.00000000000E+00 0.  1.
          5    1    1    2  502    0 -0.16841099603E+02 -0.63839194040E+02  0.90074067021E+02  0.11175811058E+03  0.41800000000E+01 0. -1.
         -5    1    1    2    0  502  0.42081295376E+02  0.48486252018E+01 -0.43194485658E+01  0.42784046358E+02  0.41800000000E+01 0.  1.
        -11    1    1    2    0    0  0.23963492367E+02 -0.94852182694E+01  0.14902658349E+02  0.29770917988E+02  0.00000000000E+00 0.  1.
         11    1    1    2    0    0 -0.49203688140E+02  0.68475787108E+02  0.62742844754E+02  0.10510281116E+03  0.00000000000E+00 0. -1.
</event>
<event>
 6    1  0.8259171E-006  0.2434237E+03  0.7561462E-02  0.1117533E+00
          1   -1    0    0  501    0  0.00000000000E+00  0.00000000000E+00  0.12794156637E+03  0.12794156637E+03  0.00000000000E+00 0. -1.
         -1   -1    0    0    0  501 -0.00000000000E+00 -0.00000000000E+00 -0.49845416146E+03  0.49845416146E+03  0.00000000000E+00 0.  1.
          5    1    1    2  502    0  0.15125820721E+03 -0.59534262985E+00 -0.10321841756E+03  0.18316908528E+03  0.41800000000E+01 0. -1.
         -5    1    1    2    0  502  0.58385748215E+02 -0.77266471044E+02 -0.13879726807E+03  0.16929606365E+03  0.41800000000E+01 0. -1.
        -11    1    1    2    0    0 -0.44306424472E+02  0.56625165684E+02 -0.60247841126E+02  0.93804429526E+02  0.00000000000E+00 0.  1.
         11    1    1    2    0    0 -0.16533753095E+03  0.21236647990E+02 -0.68249068337E+02  0.18012614937E+03  0.00000000000E+00 0. -1.
</event>
<event>
 6    1  0.8259171E-006  0.1529696E+03  0.7561462E-02  0.1196871E+00
          1   -1    0    0  501    0  0.00000000000E+00  0.00000000000E+00  0.50468408773E+03  0.50468408773E+03  0.00000000000E+00 0. -1.
         -1   -1    0    0    0  501 -0.00000000000E+00 -0.00000000000E+00 -0.49345591262E+02  0.49345591262E+02  0.00000000000E+00 0.  1.
          5    1    1    2  502    0 -0.87499164986E+02  0.10939133309E+02  0.75950391419E+02  0.11645472454E+03  0.41800000000E+01 0.  1.
         -5    1    1    2    0  502 -0.21096316642E+01 -0.72801987265E+02  0.11801378002E+03  0.13874186307E+03  0.41800000000E+01 0.  1.
        -11    1    1    2    0    0  0.94203111233E+02  0.12381550503E+02  0.16499843417E+03  0.19039961197E+03  0.00000000000E+00 0. -1.
         11    1    1    2    0    0 -0.45943145826E+01  0.49481303453E+02  0.96375890862E+02  0.10843347941E+03  0.00000000000E+00 0.  1.
</event>
<event>
 6    1  0.8259171E-006  0.2802754E+03  0.7561462E-02  0.1095539E+00
          1   -1    0    0  501    0  0.00000000000E+00  0.00000000000E+00  0.29584078010E+03  0.29584078010E+03  0.00000000000E+00 0. -1.
         -1   -1    0    0    0  501 -0.00000000000E+00 -0.00000000000E+00 -0.44673202488E+03  0.44673202488E+03  0.00000000000E+00 0.  1.
          5    1    1    2  502    0  0.11788899910E+01 -0.42449280081E+01  0.11782795953E+02  0.13255786505E+02  0.41800000000E+01 0.  1.
         -5    1    1    2    0  502  0.15583740048E+03 -0.22387927168E+03 -0.30142244550E+03  0.40654665996E+03  0.41800000000E+01 0.  1.
        -11    1    1    2    0    0 -0.19579940506E+02  0.67444890155E+02  0.65888014125E+00  0.70232623483E+02  0.00000000000E+00 0.  1.
         11    1    1    2    0    0 -0.13743634996E+03  0.16067930953E+03  0.13808952463E+03  0.25253773503E+03  0.00000000000E+00 0. -1.
</event>
<event>
 6    1  0.8259171E-006  0.1344626E+03  0.7561462E-02  0.1220980E+00
         -1   -1    0    0    0  501 -0.00000000000E+00  0.00000000000E+00  0.20082880204E+03  0.20082880204E+03  0.00000000000E+00 0.  1.
          1   -1    0    0  501    0  0.00000000000E+00 -0.00000000000E+00 -0.10298744185E+03  0.10298744185E+03  0.00000000000E+00 0. -1.
          5    1    1    2  502    0 -0.34142396626E+02  0.34542772539E+02  0.10908234235E+02  0.49953662090E+02  0.41800000000E+01 0.  1.
         -5    1    1    2    0  502 -0.30203963709E+02 -0.10317722041E+03  0.35843961699E+02  0.11340229374E+03  0.41800000000E+01 0.  1.
        -11    1    1    2    0    0  0.75343455735E+02  0.48373757768E+02  0.67528618914E+02  0.11214620428E+03  0.00000000000E+00 0.  1.
         11    1    1    2    0    0 -0.10997095399E+02  0.20260690106E+02 -0.16439454649E+02  0.28314083774E+02  0.00000000000E+00 0. -1.
</event>
<event>
 6    1  0.8259171E-006  0.1629584E+03  0.7561462E-02  0.1185397E+00
          1   -1    0    0  501    0  0.00000000000E+00  0.00000000000E+00  0.78832568286E+03  0.78832568286E+03  0.00000000000E+00 0. -1.
         -1   -1    0    0    0  501 -0.00000000000E+00 -0.00000000000E+00 -0.38030396977E+02  0.38030396977E+02  0.00000000000E+00 0.  1.
          5    1    1    2  502    0 -0.40727126801E+02  0.16915150601E+02  0.65738796168E+02  0.79270946121E+02  0.41800000000E+01 0. -1.
         -5    1    1    2    0  502 -0.63933741396E+01 -0.13151667014E+03  0.20699720119E+03  0.24536263664E+03  0.41800000000E+01 0. -1.
        -11    1    1    2    0    0  0.39237022995E+02  0.44965547027E+01  0.81455841709E+02  0.90525229224E+02  0.00000000000E+00 0.  1.
         11    1    1    2    0    0  0.78834779458E+01  0.11010496484E+03  0.39610344682E+03  0.41119726785E+03  0.00000000000E+00 0. -1.
</event>
<event>
 6    1  0.8259171E-006  0.1843391E+03  0.7561462E-02  0.1163669E+00
         -2   -1    0    0    0  501 -0.00000000000E+00  0.00000000000E+00  0.44967267260E+03  0.44967267260E+03  0.00000000000E+00 0.  1.
          2   -1    0    0  501    0  0.00000000000E+00 -0.00000000000E+00 -0.97546911520E+02  0.97546911520E+02  0.00000000000E+00 0. -1.
          5    1    1    2  502    0  0.36849281327E+02  0.26368507555E+02  0.11127228531E+03  0.12021714355E+03  0.41800000000E+01 0.  1.
         -5    1    1    2    0  502 -0.74012433145E+02  0.13302317722E+03  0.16705948887E+03  0.22605165595E+03  0.41800000000E+01 0.  1.
        -11    1    1    2    0    0  0.35301460568E+02 -0.48524407309E+02 -0.11448443095E+02  0.61089099455E+02  0.00000000000E+00 0. -1.
         11    1    1    2    0    0  0.18616912494E+01 -0.11086727746E+03  0.85242429997E+02  0.13986168517E+03  0.00000000000E+00 0.  1.
</event>
<event>
 6    1  0.8259171E-006  0.2099560E+03  0.7561462E-02  0.1141601E+00
         -2   -1    0    0    0  501 -0.00000000000E+00  0.00000000000E+00  0.18237118808E+03  0.18237118808E+03  0.00000000000E+00 0.  1.
          2   -1    0    0  501    0  0.00000000000E+00 -0.00000000000E+00 -0.15005270055E+04  0.15005270055E+04  0.00000000000E+00 0. -1.
          5    1    1    2  502    0  0.13644565494E+03 -0.10870390207E+03 -0.80786887776E+03  0.82650078714E+03  0.41800000000E+01 0. -1.
         -5    1    1    2    0  502  0.32055667369E+02  0.10044574255E+02  0.15419362073E+03  0.15786577956E+03  0.41800000000E+01 0.  1.
        -11    1    1    2    0    0 -0.15680358886E+03  0.54704191076E+02 -0.56952500944E+03  0.59324417433E+03  0.00000000000E+00 0.  1.
         11    1    1    2    0    0 -0.11697733450E+02  0.43955136735E+02 -0.94955550946E+02  0.10528745257E+03  0.00000000000E+00 0. -1.
</event>
<event>
 6    1  0.8259171E-006  0.1116994E+03  0.7561462E-02  0.1257455E+00
          2   -1    0    0  501    0  0.00000000000E+00  0.00000000000E+00  0.80487645044E+02  0.80487645044E+02  0.00000000000E+00 0.  1.
         -2   -1    0    0    0  501 -0.00000000000E+00 -0.00000000000E+00 -0.23140285636E+03  0.23140285636E+03  0.00000000000E+00 0. -1.
          5    1    1    2  502    0  0.58892358312E+02 -0.51340316144E+02  0.68675141476E+01  0.78541537290E+02  0.41800000000E+01 0.  1.
         -5    1    1    2    0  502  0.18694100977E+02  0.20419977008E+02 -0.88016675295E+02  0.92362613661E+02  0.41800000000E+01 0.  1.
        -11    1    1    2    0    0 -0.91944452684E+02  0.10994194008E+02 -0.70551210225E+02  0.11641360722E+03  0.00000000000E+00 0.  1.
         11    1    1    2    0    0  0.14357993395E+02  0.19926145127E+02  0.78516005149E+00  0.24572743239E+02  0.00000000000E+00 0. -1.
</event>
<event>
 6    1  0.8259171E-006  0.1211377E+03  0.7561462E-02  0.1241232E+00
         -2   -1    0    0    0  501 -0.00000000000E+00  0.00000000000E+00  0.55072633081E+02  0.55072633081E+02  0.00000000000E+00 0. -1.
          2   -1    0    0  501    0  0.00000000000E+00 -0.00000000000E+00 -0.48689020462E+03  0.48689020462E+03  0.00000000000E+00 0.  1.
          5    1    1    2  502    0 -0.46140463155E+02 -0.10047190182E+02  0.18336730363E+02  0.50829090599E+02  0.41800000000E+01 0.  1.
         -5    1    1    2    0  502 -0.58094604372E+02  0.16466696537E+02 -0.14006447857E+03  0.15258330744E+03  0.41800000000E+01 0.  1.
        -11    1    1    2    0    0  0.51556374169E+02 -0.45489208480E+02 -0.18393709769E+03  0.19636747112E+03  0.00000000000E+00 0.  1.
         11    1    1    2    0    0  0.52678693358E+02  0.39069702125E+02 -0.12615272564E+03  0.14218296855E+03  0.00000000000E+00 0. -1.
</event>
<event>
 6    1  0.8259171E-006  0.1051759E+03  0.7561462E-02  0.1269774E+00
         -3   -1    0    0    0  501 -0.00000000000E+00  0.00000000000E+00  0.59307265659E+02  0.59307265659E+02  0.00000000000E+00 0.  1.
          3   -1    0    0  501    0  0.00000000000E+00 -0.00000000000E+00 -0.40154248691E+03  0.40154248691E+03  0.00000000000E+00 0. -1.
          5    1    1    2  502    0 -0.62985890343E+02  0.63815519838E+02 -0.18434118305E+01  0.89780362673E+02  0.41800000000E+01 0. -1.
         -5    1    1    2    0  502  0.17129140635E+01  0.14869268134E+01 -0.88493989323E+02  0.88621687934E+02  0.41800000000E+01 0. -1.
        -11    1    1    2    0    0  0.62965993101E+02 -0.13999313976E+02 -0.19699489597E+03  0.20728648320E+03  0.00000000000E+00 0.  1.
         11    1    1    2    0    0 -0.16930168210E+01 -0.51303132675E+02 -0.54902924128E+02  0.75161218764E+02  0.00000000000E+00 0. -1.
</event>
<event>
 6    1  0.8259171E-006  0.3435806E+03  0.7561462E-02  0.1065281E+00
         -1   -1    0    0    0  501 -0.00000000000E+00  0.00000000000E+00  0.90398291984E+02  0.90398291984E+02  0.00000000000E+00 0.  1.
          1   -1    0    0  501    0  0.00000000000E+00 -0.00000000000E+00 -0.14126280108E+04  0.14126280108E+04  0.00000000000E+00 0. -1.
          5    1    1    2  502    0 -0.14919616171E+03 -0.10624448708E+03 -0.50138115930E+03  0.53380513768E+03  0.41800000000E+01 0. -1.
         -5    1    1    2    0  502 -0.99142886996E+02 -0.12723335656E+03 -0.20951495596E+03  0.26444588905E+03  0.41800000000E+01 0. -1.
        -11    1    1    2    0    0  0.59676162469E+02  0.37037391003E+02 -0.72072168272E+02  0.10063503435E+03  0.00000000000E+00 0. -1.
         11    1    1    2    0    0  0.18866288624E+03  0.19644045264E+03 -0.53926143531E+03  0.60414024174E+03  0.00000000000E+00 0.  1.
</event>
<event>
 6    1  0.8259171E-006  0.1507244E+03  0.7561462E-02  0.1199586E+00
         -2   -1    0    0    0  501 -0.00000000000E+00  0.00000000000E+00  0.18221118408E+03  0.18221118408E+03  0.00000000000E+00 0.  1.
          2   -1    0    0  501    0  0.00000000000E+00 -0.00000000000E+00 -0.13967094360E+03  0.13967094360E+03  0.00000000000E+00 0. -1.
          5    1    1    2  502    0  0.85012584793E+02 -0.38349173037E+02 -0.29066897818E+02  0.97776048164E+02  0.41800000000E+01 0.  1.
         -5    1    1    2    0  502  0.28136010821E+02  0.57867649211E+02  0.32142132461E+02  0.72047824459E+02  0.41800000000E+01 0.  1.
        -11    1    1    2    0    0 -0.41267378426E+02  0.34425341089E+02  0.30367978142E+02  0.61727746822E+02  0.00000000000E+00 0.  1.
         11    1    1    2    0    0 -0.71881217188E+02 -0.53943817263E+02  0.90970276891E+01  0.90330508235E+02  0.00000000000E+00 0. -1.
</event>
<event>
 6    1  0.8259171E-006  0.9375144E+02  0.7561462E-02  0.1294013E+00
         -4   -1    0    0    0  501 -0.00000000000E+00  0.00000000000E+00  0.36792780512E+03  0.36792780512E+03  0.00000000000E+00 0.  1.
          4   -1    0    0  501    0  0.00000000000E+00 -0.00000000000E+00 -0.39463988195E+02  0.39463988195E+02  0.00000000000E+00 0. -1.
          5    1    1    2  502    0  0.41313166351E+02  0.12971547847E+02  0.85209640550E+01  0.44329651430E+02  0.41800000000E+01 0. -1.
         -5    1    1    2    0  502 -0.23766185261E+02  0.35153238212E+02  0.19769346564E+03  0.20223936430E+03  0.41800000000E+01 0. -1.
        -11    1    1    2    0    0 -0.40711165437E+02 -0.62139012835E+02  0.70480547973E+02  0.10240197044E+03  0.00000000000E+00 0.  1.
         11    1    1    2    0    0  0.23164184347E+02  0.14014226777E+02  0.51768839259E+02  0.58420807139E+02  0.00000000000E+00 0. -1.
</event>
<event>
 6    1  0.8259171E-006  0.1217771E+03  0.7561462E-02  0.1240194E+00
         -2   -1    0    0    0  501 -0.00000000000E+00  0.00000000000E+00  0.13115030798E+03  0.13115030798E+03  0.00000000000E+00 0.  1.
          2   -1    0    0  501    0  0.00000000000E+00 -0.00000000000E+00 -0.15053030880E+03  0.15053030880E+03  0.00000000000E+00 0. -1.
          5    1    1    2  502    0 -0.13873311547E+02  0.47126595686E+02  0.43692416505E+02  0.65877799404E+02  0.41800000000E+01 0. -1.
         -5    1    1    2    0  502  0.83784746453E+02 -0.85818258422E+01 -0.13940743785E+02  0.85471329755E+02  0.41800000000E+01 0. -1.
        -11    1    1    2    0    0 -0.19978013442E+02  0.23133851038E+02  0.91103443232E+01  0.31895053827E+02  0.00000000000E+00 0. -1.
         11    1    1    2    0    0 -0.49933421463E+02 -0.61678620882E+02 -0.58242017866E+02  0.98436433794E+02  0.00000000000E+00 0.  1.
</event>
<event>
 6    1  0.8259171E-006  0.9235477E+02  0.7561462E-02  0.1297247E+00
          2   -1    0    0  501    0  0.00000000000E+00  0.00000000000E+00  0.10551327679E+03  0.10551327679E+03  0.00000000000E+00 0.  1.
         -2   -1    0    0    0  501 -0.00000000000E+00 -0.00000000000E+00 -0.12824262312E+03  0.12824262312E+03  0.00000000000E+00 0. -1.
          5    1    1    2  502    0  0.17679565552E+02  0.34565835451E+02  0.21942767697E+02  0.44791980005E+02  0.41800000000E+01 0. -1.
         -5    1    1    2    0  502 -0.49336698539E+02 -0.43233939980E+02 -0.62608122440E+02  0.90777380356E+02  0.41800000000E+01 0. -1.
        -11    1    1    2    0    0 -0.12212470201E+02 -0.22850829516E+02 -0.19531079157E+02  0.32446384868E+02  0.00000000000E+00 0. -1.
         11    1    1    2    0    0  0.43869603189E+02  0.31518934044E+02  0.37467087573E+02  0.65740154688E+02  0.00000000000E+00 0.  1.
</event>
<event>
 6    1  0.8259171E-006  0.1299953E+03  0.7561462E-02  0.1227463E+00
          1   -1    0    0  501    0  0.00000000000E+00  0.00000000000E+00  0.37754818084E+03  0.37754818084E+03  0.00000000000E+00 0. -1.
         -1   -1    0    0    0  501 -0.00000000000E+00 -0.00000000000E+00 -0.51793735638E+02  0.51793735638E+02  0.00000000000E+00 0.  1.
          5    1    1    2  502    0  0.76415209558E+00  0.57651200140E+02  0.66973065731E+02  0.88470948562E+02  0.41800000000E+01 0. -1.
         -5    1    1    2    0  502  0.75702152564E+02 -0.41613642779E+02  0.51088796071E+02  0.10044923420E+03  0.41800000000E+01 0. -1.
        -11    1    1    2    0    0  0.18113466074E+02  0.50287403823E+01  0.67018799748E+02  0.69605354698E+02  0.00000000000E+00 0. -1.
         11    1    1    2    0    0 -0.94579770734E+02 -0.21066297743E+02  0.14067378366E+03  0.17081637902E+03  0.00000000000E+00 0.  1.
</event>
<event>
 6    1  0.8259171E-006  0.2972850E+03  0.7561462E-02  0.1086606E+00
         -1   -1    0    0    0  501 -0.00000000000E+00  0.00000000000E+00  0.17114244557E+03  0.17114244557E+03  0.00000000000E+00 0.  1.
          1   -1    0    0  501    0  0.00000000000E+00 -0.00000000000E+00 -0.56977046634E+03  0.56977046634E+03  0.00000000000E+00 0. -1.
          5    1    1    2  502    0  0.71881072264E+01  0.23879512402E+01 -0.55174403559E+02  0.55848530909E+02  0.41800000000E+01 0. -1.
         -5    1    1    2    0  502  0.27996389636E+03  0.52155745380E+02 -0.14179543994E+03  0.31815628900E+03  0.41800000000E+01 0. -1.
        -11    1    1    2    0    0 -0.23259782595E+03 -0.13779549149E+02 -0.18305232886E+03  0.29631027608E+03  0.00000000000E+00 0. -1.
         11    1    1    2    0    0 -0.54554177642E+02 -0.40764147471E+02 -0.18605848414E+02  0.70597815919E+02  0.00000000000E+00 0.  1.
</event>
<event>
 6    1  0.8259171E-006  0.1287980E+03  0.7561462E-02  0.1229250E+00
          1   -1    0    0  501    0  0.00000000000E+00  0.00000000000E+00  0.51091139932E+02  0.51091139932E+02  0.00000000000E+00 0. -1.
         -1   -1    0    0    0  501 -0.00000000000E+00 -0.00000000000E+00 -0.40161346316E+03  0.40161346316E+03  0.00000000000E+00 0.  1.
          5    1    1    2  502    0  0.43652611431E+02  0.15307093832E+02 -0.58795292259E+02  0.74928074833E+02  0.41800000000E+01 0. -1.
         -5    1    1    2    0  502 -0.29380282797E+02 -0.97004692066E+02 -0.19935634384E+03  0.22368177290E+03  0.41800000000E+01 0. -1.
        -11    1    1    2    0    0  0.25802072869E+02  0.10202412639E+02 -0.59756159420E+02  0.65883493962E+02  0.00000000000E+00 0.  1.
         11    1    1    2    0    0 -0.40074401503E+02  0.71495185594E+02 -0.32614527709E+02  0.88211261394E+02  0.00000000000E+00 0. -1.
</event>
<event>
 6    1  0.8259171E-006  0.1341181E+03  0.7561462E-02  0.1221470E+00
         -1   -1    0    0    0  501 -0.00000000000E+00  0.00000000000E+00  0.25611480966E+03  0.25611480966E+03  0.00000000000E+00 0.  1.
          1   -1    0    0  501    0  0.00000000000E+00 -0.00000000000E+00 -0.84904837687E+02  0.84904837687E+02  0.00000000000E+00 0. -1.
          5    1    1    2  502    0  0.10170408368E+03 -0.36932431058E+02  0.13536772589E+03  0.17334825847E+03  0.41800000000E+01 0. -1.
         -5    1    1    2    0  502 -0.31548207895E+02 -0.15988144393E+02  0.85909025647E+01  0.36635859338E+02  0.41800000000E+01 0. -1.
        -11    1    1    2    0    0 -0.20065609675E+02 -0.24784139125E+02  0.21393059780E+02  0.38399807949E+02  0.00000000000E+00 0.  1.
         11    1    1    2    0    0 -0.50090266111E+02  0.77704714576E+02  0.58582837354E+01  0.92635721591E+02  0.00000000000E+00 0. -1.
</event>
<event>
 6    1  0.8259171E-006  0.1294111E+03  0.7561462E-02  0.1228332E+00
          3   -1    0    0  501    0  0.00000000000E+00  0.00000000000E+00  0.83629639180E+03  0.83629639180E+03  0.00000000000E+00 0. -1.
         -3   -1    0    0    0  501 -0.00000000000E+00 -0.00000000000E+00 -0.23112594942E+02  0.23112594942E+02  0.00000000000E+00 0.  1.
          5    1    1    2  502    0 -0.79299828147E+01  0.38878429741E+02  0.68651636151E+02  0.79403630099E+02  0.41800000000E+01 0.  1.
         -5    1    1    2    0  502 -0.46353808905E+02 -0.96404412298E+02  0.24857094456E+03  0.27064270393E+03  0.41800000000E+01 0.  1.
        -11    1    1    2    0    0 -0.20683554534E+02  0.89079537227E+01  0.54858247895E+02  0.59300829925E+02  0.00000000000E+00 0.  1.
         11    1    1    2    0    0  0.74967346254E+02  0.48618028834E+02  0.44110296825E+03  0.45006182278E+03  0.00000000000E+00 0. -1.
</event>
<event>
 6    1  0.8259171E-006  0.8124548E+02  0.7561462E-02  0.1325554E+00
          2   -1    0    0  501    0  0.00000000000E+00  0.00000000000E+00  0.16322034032E+02  0.16322034032E+02  0.00000000000E+00 0. -1.
         -2   -1    0    0    0  501 -0.00000000000E+00 -0.00000000000E+00 -0.11376640022E+04  0.11376640022E+04  0.00000000000E+00 0.  1.
          5    1    1    2  502    0  0.25594844836E+02 -0.42957633622E+02 -0.14103846654E+03  0.14969895061E+03  0.41800000000E+01 0. -1.
         -5    1    1    2    0  502  0.88892682725E+01  0.27548444622E+02 -0.78152886973E+03  0.78207594421E+03  0.41800000000E+01 0. -1.
        -11    1    1    2    0    0  0.63788625305E+01 -0.24877156849E+02 -0.13060086237E+03  0.13310202129E+03  0.00000000000E+00 0.  1.
         11    1    1    2    0    0 -0.40862975639E+02  0.40286345848E+02 -0.68173769579E+02  0.89109120176E+02  0.00000000000E+00 0. -1.
</event>
<event>
 6    1  0.8259171E-006  0.1385586E+03  0.7561462E-02  0.1215282E+00
          2   -1    0    0  501    0  0.00000000000E+00  0.00000000000E+00  0.41093824993E+02  0.41093824993E+02  0.00000000000E+00 0. -1.
         -2   -1    0    0    0  501 -0.00000000000E+00 -0.00000000000E+00 -0.67019492683E+03  0.67019492683E+03  0.00000000000E+00 0.  1.
          5    1    1    2  502    0  0.17520171248E+02 -0.61077856042E+02 -0.34382627576E+03  0.34967333499E+03  0.41800000000E+01 0. -1.
         -5    1    1    2    0  502 -0.65669884245E+02 -0.40332743743E+02 -0.11083244253E+03  0.13505764189E+03  0.41800000000E+01 0. -1.
        -11    1    1    2    0    0  0.64566067003E+02  0.48198602988E+02 -0.64099427613E+02  0.10295930729E+03  0.00000000000E+00 0.  1.
         11    1    1    2    0    0 -0.16416354007E+02  0.53211996797E+02 -0.11034295593E+03  0.12359846765E+03  0.00000000000E+00 0. -1.
</event>
<event>
 6    1  0.8259171E-006  0.7541103E+02  0.7561462E-02  0.1342603E+00
          1   -1    0    0  501    0  0.00000000000E+00  0.00000000000E+00  0.29281942935E+02  0.29281942935E+02  0.00000000000E+00 0. -1.
         -1   -1    0    0    0  501 -0.00000000000E+00 -0.00000000000E+00 -0.43172475221E+03  0.43172475221E+03  0.00000000000E+00 0.  1.
          5    1    1    2  502    0 -0.35701755690E+02 -0.22767194194E+02 -0.11382169915E+02  0.44045279915E+02  0.41800000000E+01 0.  1.
         -5    1    1    2    0  502  0.78690225894E+00  0.17706068645E+02 -0.22479627439E+03  0.22553261729E+03  0.41800000000E+01 0.  1.
        -11    1    1    2    0    0  0.52501628056E+02 -0.22700996639E+02 -0.13246098680E+03  0.14428329502E+03  0.00000000000E+00 0.  1.
         11    1    1    2    0    0 -0.17586774625E+02  0.27762122188E+02 -0.33803378166E+02  0.47145502920E+02  0.00000000000E+00 0. -1.
</event>
<event>
 6    1  0.8259171E-006  0.1218750E+03  0.7561462E-02  0.1240036E+00
          3   -1    0    0  501    0  0.00000000000E+00  0.00000000000E+00  0.27910341959E+03  0.27910341959E+03  0.00000000000E+00 0. -1.
         -3   -1    0    0    0  501 -0.00000000000E+00 -0.00000000000E+00 -0.57863795379E+02  0.57863795379E+02  0.00000000000E+00 0.  1.
          5    1    1    2  502    0 -0.62002900073E+02 -0.70171299528E+02  0.63562130861E+02  0.11325187758E+03  0.41800000000E+01 0.  1.
         -5    1    1    2    0  502  0.39001485184E+02  0.17249910767E+02  0.15408327636E+02  0.45536405530E+02  0.41800000000E+01 0.  1.
        -11    1    1    2    0    0  0.50254711618E+02  0.60720582802E+02  0.10109699802E+03  0.12819176348E+03  0.00000000000E+00 0. -1.
         11    1    1    2    0    0 -0.27253296728E+02 -0.77991940407E+01  0.41172167702E+02  0.49987168389E+02  0.00000000000E+00 0.  1.
</event>
<event>
 6    1  0.8259171E-006  0.9955329E+02  0.7561462E-02  0.1281238E+00
         -1   -1    0    0    0  501 -0.00000000000E+00  0.00000000000E+00  0.70308365655E+02  0.70308365655E+02  0.00000000000E+00 0.  1.
          1   -1    0    0  501    0  0.00000000000E+00 -0.00000000000E+00 -0.29573942557E+03  0.29573942557E+03  0.00000000000E+00 0. -1.
          5    1    1    2  502    0  0.11002372712E+02 -0.44271700030E+02 -0.52469163314E+02  0.69652861591E+02  0.41800000000E+01 0. -1.
         -5    1    1    2    0  502  0.48284716390E+02  0.43189929229E+02  0.28404355463E+02  0.70859463962E+02  0.41800000000E+01 0. -1.
        -11    1    1    2    0    0 -0.33093668990E+02  0.33239216820E+02 -0.16087096153E+03  0.16756939674E+03  0.00000000000E+00 0. -1.
         11    1    1    2    0    0 -0.26193420112E+02 -0.32157446019E+02 -0.40495290539E+02  0.57966068932E+02  0.00000000000E+00 0.  1.
</event>
<event>
 6    1  0.8259171E-006  0.9422412E+02  0.7561462E-02  0.1292933E+00
         -1   -1    0    0    0  501 -0.00000000000E+00  0.00000000000E+00  0.39238386119E+03  0.39238386119E+03  0.00000000000E+00 0.  1.
          1   -1    0    0  501    0  0.00000000000E+00 -0.00000000000E+00 -0.39218319266E+02  0.39218319266E+02  0.00000000000E+00 0. -1.
          5    1    1    2  502    0  0.15211775618E+02  0.64541754119E+02  0.27181649521E+03  0.27981907657E+03  0.41800000000E+01 0.  1.
         -5    1    1    2    0  502  0.32535519921E+01 -0.26406388167E+02  0.57127418608E+01  0.27531631920E+02  0.41800000000E+01 0.  1.
        -11    1    1    2    0    0 -0.49189373408E+02 -0.43096422028E+01  0.55584931978E+02  0.74349526799E+02  0.00000000000E+00 0. -1.
         11    1    1    2    0    0  0.30724045798E+02 -0.33825723749E+02  0.20051372868E+02  0.49901945165E+02  0.00000000000E+00 0.  1.
</event>
<event>
 6    1  0.8259171E-006  0.1840032E+03  0.7561462E-02  0.1163984E+00
         -2   -1    0    0    0  501 -0.00000000000E+00  0.00000000000E+00  0.22098521984E+02  0.22098521984E+02  0.00000000000E+00 0.  1.
          2   -1    0    0  501    0  0.00000000000E+00 -0.00000000000E+00 -0.16093066125E+04  0.16093066125E+04  0.00000000000E+00 0. -1.
          5    1    1    2  502    0 -0.11321975137E+03 -0.52713873896E+02 -0.57742794910E+03  0.59079435797E+03  0.41800000000E+01 0. -1.
         -5    1    1    2    0  502  0.10874678675E+03  0.62590961607E+02 -0.50482645812E+03  0.52020257335E+03  0.41800000000E+01 0.  1.
        -11    1    1    2    0    0  0.42588675895E+02 -0.47604068893E+02 -0.36469113127E+03  0.37024257442E+03  0.00000000000E+00 0.  1.
         11    1    1    2    0    0 -0.38115711282E+02  0.37726981182E+02 -0.14026255205E+03  0.15016562877E+03  0.00000000000E+00 0. -1.
</event>
<event>
 6    1  0.8259171E-006  0.2216788E+03  0.7561462E-02  0.1132638E+00
         -1   -1    0    0    0  501 -0.00000000000E+00  0.00000000000E+00  0.14017159646E+03  0.14017159646E+03  0.00000000000E+00 0.  1.
          1   -1    0    0  501    0  0.00000000000E+00 -0.00000000000E+00 -0.39329170472E+03  0.39329170472E+03  0.00000000000E+00 0. -1.
          5    1    1    2  502    0  0.11959617103E+02 -0.35656784670E+00  0.14957011970E+02  0.19604698134E+02  0.41800000000E+01 0. -1.
         -5    1    1    2    0  502 -0.73749882050E+02 -0.19786282999E+03 -0.13740081432E+03  0.25196269718E+03  0.41800000000E+01 0. -1.
        -11    1    1    2    0    0  0.16394735323E+02  0.27330566351E+00  0.55984891428E+01  0.17326428454E+02  0.00000000000E+00 0.  1.
         11    1    1    2    0    0  0.45395529625E+02  0.19794609217E+03 -0.13627479505E+03  0.24456947742E+03  0.00000000000E+00 0. -1.
</event>
<event>
 6    1  0.8259171E-006  0.1091780E+03  0.7561462E-02  0.1262100E+00
          3   -1    0    0  501    0  0.00000000000E+00  0.00000000000E+00  0.34254098624E+03  0.34254098624E+03  0.00000000000E+00 0. -1.
         -3   -1    0    0    0  501 -0.00000000000E+00 -0.00000000000E+00 -0.35019869812E+02  0.35019869812E+02  0.00000000000E+00 0.  1.
          5    1    1    2  502    0 -0.65335689785E+02  0.89151101294E+01  0.96394561828E+02  0.11686580124E+03  0.41800000000E+01 0.  1.
         -5    1    1    2    0  502  0.56325850671E+02 -0.18157675165E+02  0.71979155474E+02  0.93277938678E+02  0.41800000000E+01 0.  1.
        -11    1    1    2    0    0  0.38578699872E+02 -0.26322698374E+02  0.65336158389E+02  0.80311979969E+02  0.00000000000E+00 0. -1.
         11    1    1    2    0    0 -0.29568860758E+02  0.35565263410E+02  0.73811240736E+02  0.87105136168E+02  0.00000000000E+00 0.  1.
</event>
<event>
 6    1  0.8259171E-006  0.7319010E+02  0.7561462E-02  0.1349569E+00
          2   -1    0    0  501    0  0.00000000000E+00  0.00000000000E+00  0.64326896197E+03  0.64326896197E+03  0.00000000000E+00 0. -1.
         -2   -1    0    0    0  501 -0.00000000000E+00 -0.00000000000E+00 -0.19407377629E+02  0.19407377629E+02  0.00000000000E+00 0.  1.
          5    1    1    2  502    0 -0.61788191369E+01  0.26861808965E+02  0.42689370810E+01  0.28203382964E+02  0.41800000000E+01 0.  1.
         -5    1    1    2    0  502 -0.10357725863E+02 -0.22599397699E+02  0.30222478032E+03  0.30327430735E+03  0.41800000000E+01 0.  1.
        -11    1    1    2    0    0  0.52491977312E+02 -0.16955943388E+02  0.21487792619E+03  0.22184552027E+03  0.00000000000E+00 0. -1.
         11    1    1    2    0    0 -0.35955432312E+02  0.12693532122E+02  0.10248994075E+03  0.10935312902E+03  0.00000000000E+00 0.  1.
</event>
<event>
 6    1  0.8259171E-006  0.7596232E+02  0.7561462E-02  0.1340917E+00
          3   -1    0    0  501    0  0.00000000000E+00  0.00000000000E+00  0.34712365035E+02  0.34712365035E+02  0.00000000000E+00 0. -1.
         -3   -1    0    0    0  501 -0.00000000000E+00 -0.00000000000E+00 -0.39832783006E+03  0.39832783006E+03  0.00000000000E+00 0.  1.
          5    1    1    2  502    0  0.41529387519E+01  0.81370292279E+01 -0.23932610502E+03  0.23953687626E+03  0.41800000000E+01 0. -1.
         -5    1    1    2    0  502  0.19127501632E+02 -0.38916445593E+02 -0.14251122940E+02  0.45835771634E+02  0.41800000000E+01 0. -1.
        -11    1    1    2    0    0  0.68928579474E+00  0.60290876140E+02 -0.63338360779E+02  0.87448343648E+02  0.00000000000E+00 0. -1.
         11    1    1    2    0    0 -0.23969726179E+02 -0.29511459775E+02 -0.46699876286E+02  0.60219203551E+02  0.00000000000E+00 0.  1.
</event>
<event>
 6    1  0.8259171E-006  0.5998766E+02  0.7561462E-02  0.1397884E+00
          4   -1    0    0  501    0  0.00000000000E+00  0.00000000000E+00  0.14455715398E+03  0.14455715398E+03  0.00000000000E+00 0. -1.
         -4   -1    0    0    0  501 -0.00000000000E+00 -0.00000000000E+00 -0.10534600279E+03  0.10534600279E+03  0.00000000000E+00 0.  1.
          5    1    1    2  502    0 -0.23022904148E+02 -0.20838327233E+02 -0.57454249819E+02  0.65442747647E+02  0.41800000000E+01 0.  1.
         -5    1    1    2    0  502 -0.15308115899E+02 -0.21808780966E+02  0.67302659189E+02  0.72505735453E+02  0.41800000000E+01 0.  1.
        -11    1    1    2    0    0  0.37146933115E+02  0.26861764358E+02  0.61161234205E+02  0.76433929598E+02  0.00000000000E+00 0. -1.
         11    1    1    2    0    0  0.11840869315E+01  0.15785343842E+02 -0.31798492379E+02  0.35520744075E+02  0.00000000000E+00 0.  1.
</event>
<event>
 6    1  0.8259171E-006  0.1094576E+03  0.7561462E-02  0.1261578E+00
         -1   -1    0    0    0  501 -0.00000000000E+00  0.00000000000E+00  0.54789546522E+02  0.54789546522E+02  0.00000000000E+00 0.  1.
          1   -1    0    0  501    0  0.00000000000E+00 -0.00000000000E+00 -0.27640738148E+03  0.27640738148E+03  0.00000000000E+00 0. -1.
          5    1    1    2  502    0  0.12561954421E+02  0.60282833738E+02 -0.26622563888E+02  0.67216486448E+02  0.41800000000E+01 0.  1.
         -5    1    1    2    0  502  0.44906635047E+02 -0.50577445000E+02 -0.95258382179E+02  0.11690301788E+03  0.41800000000E+01 0.  1.
        -11    1    1    2    0    0 -0.63235298734E+02  0.14224386059E+02 -0.10355666268E+03  0.12216799315E+03  0.00000000000E+00 0. -1.
         11    1    1    2    0    0  0.57667092658E+01 -0.23929774797E+02  0.38197737847E+01  0.24909430530E+02  0.00000000000E+00 0.  1.
</event>
<event>
 6    1  0.8259171E-006  0.1561615E+03  0.7561462E-02  0.1193100E+00
         -1   -1    0    0    0  501 -0.00000000000E+00  0.00000000000E+00  0.14331305986E+03  0.14331305986E+03  0.00000000000E+00 0.  1.
          1   -1    0    0  501    0  0.00000000000E+00 -0.00000000000E+00 -0.18174841148E+03  0.18174841148E+03  0.00000000000E+00 0. -1.
          5    1    1    2  502    0  0.98342084323E+02 -0.96021949934E+01  0.20892082492E+02  0.10108075588E+03  0.41800000000E+01 0. -1.
         -5    1    1    2    0  502 -0.13584455466E+02 -0.67590988639E+02 -0.55215564569E+01  0.69289531397E+02  0.41800000000E+01 0. -1.
        -11    1    1    2    0    0 -0.57600508570E+02  0.95555299472E+02 -0.35186424227E+02  0.11699024872E+03  0.00000000000E+00 0.  1.
         11    1    1    2    0    0 -0.27157120287E+02 -0.18362115840E+02 -0.18619453435E+02  0.37700935355E+02  0.00000000000E+00 0. -1.
</event>
<event>
 6    1  0.8259171E-006  0.1649646E+03  0.7561462E-02  0.1183203E+00
         -2   -1    0    0    0  501 -0.00000000000E+00  0.00000000000E+00  0.36820786560E+03  0.36820786560E+03  0.00000000000E+00 0. -1.
          2   -1    0    0  501    0  0.00000000000E+00 -0.00000000000E+00 -0.90379060807E+02  0.90379060807E+02  0.00000000000E+00 0.  1.
          5    1    1    2  502    0  0.57010805249E+01  0.66501393253E+02 -0.98167504127E+01  0.67592740826E+02  0.41800000000E+01 0. -1.
         -5    1    1    2    0  502 -0.68598542768E+02  0.26949795246E+02  0.97249769454E+02  0.12209439624E+03  0.41800000000E+01 0. -1.
        -11    1    1    2    0    0  0.21061259767E+02  0.42260769656E+02  0.38180027927E+02  0.60722844526E+02  0.00000000000E+00 0.  1.
         11    1    1    2    0    0  0.41836202476E+02 -0.13571195815E+03  0.15221575782E+03  0.20817694482E+03  0.00000000000E+00 0. -1.
</event>
<event>
 6    1  0.8259171E-006  0.8866045E+02  0.7561462E-02  0.1306128E+00
          1   -1    0    0  501    0  0.00000000000E+00  0.00000000000E+00  0.98962127966E+02  0.98962127966E+02  0.00000000000E+00 0. -1.
         -1   -1    0    0    0  501 -0.00000000000E+00 -0.00000000000E+00 -0.18324226511E+03  0.18324226511E+03  0.00000000000E+00 0.  1.
          5    1    1    2  502    0  0.45665887064E+02 -0.85394022860E+01 -0.16882866904E+02  0.49606433329E+02  0.41800000000E+01 0. -1.
         -5    1    1    2    0  502 -0.62661561094E+02  0.40720135042E+02 -0.10385367568E+03  0.12801429213E+03  0.41800000000E+01 0. -1.
        -11    1    1    2    0    0  0.31055998280E+02 -0.25860067188E+02  0.62436478619E+02  0.74374269519E+02  0.00000000000E+00 0. -1.
         11    1    1    2    0    0 -0.14060324250E+02 -0.63206655682E+01 -0.25980073179E+02  0.30209398101E+02  0.00000000000E+00 0.  1.
</event>
<event>
 6    1  0.8259171E-006  0.1727112E+03  0.7561462E-02  0.1175050E+00
         -3   -1    0    0    0  501 -0.00000000000E+00  0.00000000000E+00  0.78502949338E+03  0.78502949338E+03  0.00000000000E+00 0.  1.
          3   -1    0    0  501    0  0.00000000000E+00 -0.00000000000E+00 -0.46675675180E+02  0.46675675180E+02  0.00000000000E+00 0. -1.
          5    1    1    2  502    0  0.11202173565E+03  0.12218933279E+03  0.42249057471E+03  0.45386656676E+03  0.41800000000E+01 0.  1.
         -5    1    1    2    0  502  0.28340511507E+01 -0.10238682397E+02 -0.34534590547E+01  0.11927331746E+02  0.41800000000E+01 0.  1.
        -11    1    1    2    0    0 -0.79844722265E+02 -0.42600726382E+02  0.10880372612E+03  0.14152120823E+03  0.00000000000E+00 0. -1.
         11    1    1    2    0    0 -0.35011064531E+02 -0.69349924013E+02  0.21051297643E+03  0.22439006183E+03  0.00000000000E+00 0.  1.
</event>
<event>
 6    1  0.8259171E-006  0.8794851E+02  0.7561462E-02  0.1307897E+00
         -2   -1    0    0    0  501 -0.00000000000E+00  0.00000000000E+00  0.37611569823E+02  0.37611569823E+02  0.00000000000E+00 0. -1.
          2   -1    0    0  501    0  0.00000000000E+00 -0.00000000000E+00 -0.38627386683E+03  0.38627386683E+03  0.00000000000E+00 0.  1.
          5    1    1    2  502    0  0.48139093812E+01 -0.28971357634E+02 -0.12280807550E+03  0.12634005340E+03  0.41800000000E+01 0.  1.
         -5    1    1    2    0  502 -0.41682943469E+02  0.52202717576E+02 -0.23293120664E+02  0.70870539498E+02  0.41800000000E+01 0.  1.
        -11    1    1    2    0    0  0.69524296386E+01  0.23113875148E+02 -0.14482603818E+03  0.14682359769E+03  0.00000000000E+00 0. -1.
         11    1    1    2    0    0  0.29916604449E+02 -0.46345235090E+02 -0.57735062666E+02  0.79851246066E+02  0.00000000000E+00 0.  1.
</event>
<event>
 6    1  0.8259171E-006  0.1145339E+03  0.7561462E-02  0.1252397E+00
         -2   -1    0    0    0  501 -0.00000000000E+00  0.00000000000E+00  0.26293183197E+02  0.26293183197E+02  0.00000000000E+00 0.  1.
          2   -1    0    0  501    0  0.00000000000E+00 -0.00000000000E+00 -0.57790774961E+03  0.57790774961E+03  0.00000000000E+00 0. -1.
          5    1    1    2  502    0 -0.27028833963E+01 -0.76735654157E+02 -0.22486889443E+03  0.23765344155E+03  0.41800000000E+01 0. -1.
         -5    1    1    2    0  502  0.43225551345E+02  0.34420550362E+02 -0.83171957719E+02  0.99941330425E+02  0.41800000000E+01 0. -1.
        -11    1    1    2    0    0 -0.63638010982E+02  0.27672494839E+02 -0.10853572308E+03  0.12882378117E+03  0.00000000000E+00 0.  1.
         11    1    1    2    0    0  0.23115343033E+02  0.14642608956E+02 -0.13503799119E+03  0.13778237966E+03  0.00000000000E+00 0. -1.
</event>
<event>
 6    1  0.8259171E-006  0.6169967E+02  0.7561462E-02  0.1390834E+00
          2   -1    0    0  501    0  0.00000000000E+00  0.00000000000E+00  0.16446860093E+03  0.16446860093E+03  0.00000000000E+00 0. -1.
         -2   -1    0    0    0  501 -0.00000000000E+00 -0.00000000000E+00 -0.71785072836E+02  0.71785072836E+02  0.00000000000E+00 0.  1.
          5    1    1    2  502    0 -0.45954518196E+02 -0.17250808448E+02 -0.14261953015E+02  0.51286292891E+02  0.41800000000E+01 0. -1.
         -5    1    1    2    0  502  0.46942603181E+02  0.13445231445E+02  0.70641089008E+02  0.85976846292E+02  0.41800000000E+01 0. -1.
        -11    1    1    2    0    0 -0.74839368241E+01 -0.84309328296E+01 -0.29585181174E+02  0.31660272959E+02  0.00000000000E+00 0.  1.
         11    1    1    2    0    0  0.64958518388E+01  0.12236509832E+02  0.65889573278E+02  0.67330261627E+02  0.00000000000E+00 0. -1.
</event>
<event>
 6    1  0.8259171E-006  0.1647575E+03  0.7561462E-02  0.1183428E+00
         -2   -1    0    0    0  501 -0.00000000000E+00  0.00000000000E+00  0.11275610144E+03  0.11275610144E+03  0.00000000000E+00 0.  1.
          2   -1    0    0  501    0  0.00000000000E+00 -0.00000000000E+00 -0.44923722960E+03  0.44923722960E+03  0.00000000000E+00 0. -1.
          5    1    1    2  502    0 -0.41916403997E+02 -0.94987774941E+02 -0.44221387612E+02  0.11292770180E+03  0.41800000000E+01 0. -1.
         -5    1    1    2    0  502  0.41282441990E+02 -0.46299799163E+02  0.43326742928E+02  0.75779881710E+02  0.41800000000E+01 0. -1.
        -11    1    1    2    0    0 -0.32209196914E+02  0.12011230016E+03 -0.25173456705E+03  0.28077515785E+03  0.00000000000E+00 0.  1.
         11    1    1    2    0    0  0.32843158921E+02  0.21175273947E+02 -0.83851916428E+02  0.92510589682E+02  0.00000000000E+00 0. -1.
</event>
<event>
 6    1  0.8259171E-006  0.1023217E+03  0.7561462E-02  0.1275488E+00
         -1   -1    0    0    0  501 -0.00000000000E+00  0.00000000000E+00  0.67556933110E+02  0.67556933110E+02  0.00000000000E+00 0.  1.
          1   -1    0    0  501    0  0.00000000000E+00 -0.00000000000E+00 -0.18351243166E+03  0.18351243166E+03  0.00000000000E+00 0. -1.
          5    1    1    2  502    0 -0.40120648470E+02  0.30048094310E+02 -0.79022727409E+01  0.50916330580E+02  0.41800000000E+01 0.  1.
         -5    1    1    2    0  502  0.65977282432E+02 -0.30825365141E+02 -0.55847135189E+02  0.91867185883E+02  0.41800000000E+01 0.  1.
        -11    1    1    2    0    0  0.11266346047E+02  0.31347752988E+02  0.48547291863E+01  0.33662747454E+02  0.00000000000E+00 0.  1.
         11    1    1    2    0    0 -0.37122980009E+02 -0.30570482157E+02 -0.57060819809E+02  0.74623100856E+02  0.00000000000E+00 0. -1.
</event>
<event>
 6    1  0.8259171E-006  0.1133508E+03  0.7561462E-02  0.1254488E+00
         -3   -1    0    0    0  501 -0.00000000000E+00  0.00000000000E+00  0.22299183021E+03  0.22299183021E+03  0.00000000000E+00 0.  1.
          3   -1    0    0  501    0  0.00000000000E+00 -0.00000000000E+00 -0.90199959562E+02  0.90199959562E+02  0.00000000000E+00 0. -1.
          5    1    1    2  502    0  0.28184753219E+02 -0.14961243815E+02  0.72999201304E+01  0.32999702490E+02  0.41800000000E+01 0. -1.
         -5    1    1    2    0  502 -0.86219060725E+02  0.58564943007E+02  0.12719049192E+03  0.16449459753E+03  0.41800000000E+01 0. -1.
        -11    1    1    2    0    0  0.24816546964E+01 -0.33684696612E+02  0.34796572544E+02  0.48493492931E+02  0.00000000000E+00 0.  1.
         11    1    1    2    0    0  0.55552652810E+02 -0.99190025798E+01 -0.36495113949E+02  0.67203996820E+02  0.00000000000E+00 0. -1.
</event>
<event>
 6    1  0.8259171E-006  0.1128561E+03  0.7561462E-02  0.1255370E+00
          1   -1    0    0  501    0  0.00000000000E+00  0.00000000000E+00  0.10737012374E+03  0.10737012374E+03  0.00000000000E+00 0. -1.
         -1   -1    0    0    0  501 -0.00000000000E+00 -0.00000000000E+00 -0.12484843798E+03  0.12484843798E+03  0.00000000000E+00 0.  1.
          5    1    1    2  502    0 -0.87660753377E+01 -0.47918948125E+02  0.32550083495E+01  0.49001399425E+02  0.41800000000E+01 0.  1.
         -5    1    1    2    0  502 -0.13105952265E+02  0.77538689410E+02 -0.28949636554E+02  0.83902134638E+02  0.41800000000E+01 0.  1.
        -11    1    1    2    0    0  0.19992636397E+01 -0.60942084134E+02  0.11592310208E+02  0.62067030939E+02  0.00000000000E+00 0.  1.
         11    1    1    2    0    0  0.19872763963E+02  0.31322342849E+02 -0.33759962427E+01  0.37247996721E+02  0.00000000000E+00 0. -1.
</event>
<event>
 6    1  0.8259171E-006  0.3735544E+03  0.7561462E-02  0.1053342E+00
          1   -1    0    0  501    0  0.00000000000E+00  0.00000000000E+00  0.80687393499E+03  0.80687393499E+03  0.00000000000E+00 0. -1.
         -1   -1    0    0    0  501 -0.00000000000E+00 -0.00000000000E+00 -0.20471941044E+03  0.20471941044E+03  0.00000000000E+00 0.  1.
          5    1    1    2  502    0 -0.12620548738E+03 -0.47311756072E+02  0.10979744847E+03  0.17389416148E+03  0.41800000000E+01 0.  1.
         -5    1    1    2    0  502 -0.19067802833E+03 -0.13803538543E+03  0.25267515598E+02  0.23678639713E+03  0.41800000000E+01 0.  1.
        -11    1    1    2    0    0  0.43739791068E+02  0.64999741683E+02  0.78348321046E+02  0.11079979762E+03  0.00000000000E+00 0. -1.
         11    1    1    2    0    0  0.27314372464E+03  0.12034739982E+03  0.38874123944E+03  0.49011298921E+03  0.00000000000E+00 0.  1.
</event>
<event>
 6    1  0.8259171E-006  0.1438101E+03  0.7561462E-02  0.1208292E+00
          2   -1    0    0  501    0  0.00000000000E+00  0.00000000000E+00  0.53916475580E+03  0.53916475580E+03  0.00000000000E+00 0. -1.
         -2   -1    0    0    0  501 -0.00000000000E+00 -0.00000000000E+00 -0.41808862765E+02  0.41808862765E+02  0.00000000000E+00 0.  1.
          5    1    1    2  502    0 -0.11452597817E+02  0.11610601538E+03  0.19666287348E+03  0.22870401616E+03  0.41800000000E+01 0. -1.
         -5    1    1    2    0  502  0.38332638080E+02 -0.18567717062E+02  0.43969341949E+02  0.61358998448E+02  0.41800000000E+01 0.  1.
        -11    1    1    2    0    0  0.27674137819E+02 -0.41411271594E+02  0.15342622208E+03  0.16130826681E+03  0.00000000000E+00 0. -1.
         11    1    1    2    0    0 -0.54554178083E+02 -0.56127026724E+02  0.10329745553E+03  0.12960233715E+03  0.00000000000E+00 0.  1.
</event>
<event>
 6    1  0.8259171E-006  0.1128267E+03  0.7561462E-02  0.1255423E+00
          2   -1    0    0  501    0  0.00000000000E+00  0.00000000000E+00  0.27880363615E+03  0.27880363615E+03  0.00000000000E+00 0. -1.
         -2   -1    0    0    0  501 -0.00000000000E+00 -0.00000000000E+00 -0.55920895749E+02  0.55920895749E+02  0.00000000000E+00 0.  1.
          5    1    1    2  502    0  0.17016459246E-01  0.79947342253E+02  0.55570455802E+02  0.97453197900E+02  0.41800000000E+01 0.  1.
         -5    1    1    2    0  502  0.22850783145E+02 -0.43162930665E+02  0.90410256429E+01  0.49843850359E+02  0.41800000000E+01 0.  1.
        -11    1    1    2    0    0  0.27061964215E+02 -0.37980897758E+02  0.10220368491E+03  0.11234096186E+03  0.00000000000E+00 0. -1.
         11    1    1    2    0    0 -0.49929763819E+02  0.11964861699E+01  0.56067574047E+02  0.75086521784E+02  0.00000000000E+00 0.  1.
</event>
<event>
 6    1  0.1560534E-005  0.3485944E+03  0.7561462E-02  0.1063193E+00
         -1   -1    0    0    0  501 -0.00000000000E+00  0.00000000000E+00  0.13456438010E+03  0.13456438010E+03  0.00000000000E+00 0.  1.
          1   -1    0    0  501    0  0.00000000000E+00 -0.00000000000E+00 -0.10369361856E+04  0.10369361856E+04  0.00000000000E+00 0. -1.
          5    1    1    2  502    0  0.30572845336E+03 -0.10523128043E+03 -0.21884892844E+03  0.39045593280E+03  0.41800000000E+01 0. -1.
         -5    1    1    2    0  502  0.42196971439E+01 -0.27359523758E+02 -0.54335726591E+02  0.61124405670E+02  0.41800000000E+01 0. -1.
        -11    1    1    2    0    0 -0.19366208196E+03  0.41356443196E+02 -0.30527767615E+03  0.36388159742E+03  0.00000000000E+00 0.  1.
         11    1    1    2    0    0 -0.11628606855E+03  0.91234360996E+02 -0.32390947431E+03  0.35603862981E+03  0.00000000000E+00 0. -1.
</event>
<event>
 6    1  0.8259171E-006  0.1146057E+03  0.7561462E-02  0.1252271E+00
          2   -1    0    0  501    0  0.00000000000E+00  0.00000000000E+00  0.26337644586E+02  0.26337644586E+02  0.00000000000E+00 0. -1.
         -2   -1    0    0    0  501 -0.00000000000E+00 -0.00000000000E+00 -0.95880916646E+03  0.95880916646E+03  0.00000000000E+00 0.  1.
          5    1    1    2  502    0 -0.36399688598E+02 -0.10419128667E+02 -0.13183600515E+03  0.13722864215E+03  0.41800000000E+01 0. -1.
         -5    1    1    2    0  502  0.84550082903E+02  0.22602696025E+02 -0.69305782788E+03  0.69857442236E+03  0.41800000000E+01 0. -1.
        -11    1    1    2    0    0 -0.46008658622E+02  0.34037304002E+02 -0.56422381433E+02  0.80366783303E+02  0.00000000000E+00 0. -1.
         11    1    1    2    0    0 -0.21417356828E+01 -0.46220871360E+02 -0.51155307414E+02  0.68976963238E+02  0.00000000000E+00 0.  1.
</event>
<event>
 6    1  0.8259171E-006  0.1430384E+03  0.7561462E-02  0.1209298E+00
         -2   -1    0    0    0  501 -0.00000000000E+00  0.00000000000E+00  0.61922272253E+02  0.61922272253E+02  0.00000000000E+00 0.  1.
          2   -1    0    0  501    0  0.00000000000E+00 -0.00000000000E+00 -0.59705693012E+03  0.59705693012E+03  0.00000000000E+00 0. -1.
          5    1    1    2  502    0 -0.42137773892E+02  0.11098325460E+03 -0.90648397059E+02  0.14942382367E+03  0.41800000000E+01 0.  1.
         -5    1    1    2    0  502  0.31431849860E+02 -0.49379504418E+01  0.10038230807E+02  0.33624143378E+02  0.41800000000E+01 0.  1.
        -11    1    1    2    0    0 -0.92546397903E+01  0.12181959042E+02 -0.20073807047E+02  0.25238982014E+02  0.00000000000E+00 0.  1.
         11    1    1    2    0    0  0.19960563822E+02 -0.11822726320E+03 -0.43445068457E+03  0.45069225331E+03  0.00000000000E+00 0. -1.
</event>
<event>
 6    1  0.8259171E-006  0.9764796E+02  0.7561462E-02  0.1285321E+00
          3   -1    0    0  501    0  0.00000000000E+00  0.00000000000E+00  0.42417420826E+02  0.42417420826E+02  0.00000000000E+00 0. -1.
         -3   -1    0    0    0  501 -0.00000000000E+00 -0.00000000000E+00 -0.37996757258E+03  0.37996757258E+03  0.00000000000E+00 0.  1.
          5    1    1    2  502    0  0.25134829208E+02 -0.18782155816E+02  0.26468956057E+01  0.31764877975E+02  0.41800000000E+01 0. -1.
         -5    1    1    2    0  502  0.33677828486E+02  0.43798212804E+02 -0.22124151405E+03  0.22807402201E+03  0.41800000000E+01 0. -1.
        -11    1    1    2    0    0 -0.43022183391E+02  0.29048719000E+02 -0.39874378301E+02  0.65457638089E+02  0.00000000000E+00 0. -1.
         11    1    1    2    0    0 -0.15790474304E+02 -0.54064775988E+02 -0.79081155010E+02  0.97088455334E+02  0.00000000000E+00 0.  1.
</event>
<event>
 6    1  0.8545268E-006  0.2418858E+03  0.7561462E-02  0.1118543E+00
         -2   -1    0    0    0  501 -0.00000000000E+00  0.00000000000E+00  0.79605838933E+02  0.79605838933E+02  0.00000000000E+00 0.  1.
          2   -1    0    0  501    0  0.00000000000E+00 -0.00000000000E+00 -0.93777071086E+03  0.93777071086E+03  0.00000000000E+00 0. -1.
          5    1    1    2  502    0 -0.74518238239E+02 -0.12288725940E+02 -0.18814735181E+03  0.20278283707E+03  0.41800000000E+01 0. -1.
         -5    1    1    2    0  502 -0.15438153086E+03 -0.45584278099E+02 -0.96988283495E+02  0.18797814504E+03  0.41800000000E+01 0. -1.
        -11    1    1    2    0    0  0.12225164938E+03  0.68150361059E+02 -0.25309908792E+03  0.28922151682E+03  0.00000000000E+00 0.  1.
         11    1    1    2    0    0  0.10664811971E+03 -0.10277357019E+02 -0.31993014870E+03  0.33739405086E+03  0.00000000000E+00 0. -1.
</event>
<event>
 6    1  0.8259171E-006  0.9581828E+02  0.7561462E-02  0.1289344E+00
         -1   -1    0    0    0  501 -0.00000000000E+00  0.00000000000E+00  0.26075979048E+03  0.26075979048E+03  0.00000000000E+00 0.  1.
          1   -1    0    0  501    0  0.00000000000E+00 -0.00000000000E+00 -0.55996279448E+02  0.55996279448E+02  0.00000000000E+00 0. -1.
          5    1    1    2  502    0 -0.53755200166E+02  0.58348620179E+02  0.38498058599E+02  0.88282251543E+02  0.41800000000E+01 0. -1.
         -5    1    1    2    0  502  0.15842604371E+02 -0.21028379320E+02  0.10935627966E+03  0.11255864760E+03  0.41800000000E+01 0. -1.
        -11    1    1    2    0    0  0.33245494237E+02 -0.56629616805E+02  0.66844685626E+02  0.93703726623E+02  0.00000000000E+00 0.  1.
         11    1    1    2    0    0  0.46671015577E+01  0.19309375946E+02 -0.99355128444E+01  0.22211444164E+02  0.00000000000E+00 0. -1.
</event>
<event>
 6    1  0.8259171E-006  0.1002445E+03  0.7561462E-02  0.1279783E+00
          2   -1    0    0  501    0  0.00000000000E+00  0.00000000000E+00  0.68003070880E+03  0.68003070880E+03  0.00000000000E+00 0. -1.
         -2   -1    0    0    0  501 -0.00000000000E+00 -0.00000000000E+00 -0.23559849359E+02  0.23559849359E+02  0.00000000000E+00 0.  1.
          5    1    1    2  502    0 -0.20570543870E+02 -0.42207145528E+02  0.33890378232E+03  0.34216638712E+03  0.41800000000E+01 0.  1.
         -5    1    1    2    0  502  0.52289798629E+02 -0.11641495519E+02  0.60039878270E+02  0.80572990767E+02  0.41800000000E+01 0.  1.
        -11    1    1    2    0    0 -0.37068162542E+02  0.71844427530E+02  0.24570963645E+03  0.25866753930E+03  0.00000000000E+00 0.  1.
         11    1    1    2    0    0  0.53489077837E+01 -0.17995786483E+02  0.11817562407E+02  0.22183640974E+02  0.00000000000E+00 0. -1.
</event>
<event>
 6    1  0.8259171E-006  0.8295492E+02  0.7561462E-02  0.1320869E+00
          2   -1    0    0  501    0  0.00000000000E+00  0.00000000000E+00  0.24508150396E+03  0.24508150396E+03  0.00000000000E+00 0.  1.
         -2   -1    0    0    0  501 -0.00000000000E+00 -0.00000000000E+00 -0.56347101776E+02  0.56347101776E+02  0.00000000000E+00 0. -1.
          5    1    1    2  502    0  0.40018206948E+02 -0.42969631881E+02  0.10356006572E+03  0.11912181061E+03  0.41800000000E+01 0. -1.
         -5    1    1    2    0  502 -0.63852241128E+01  0.22996621674E+02 -0.24075532498E+02  0.34157273902E+02  0.41800000000E+01 0. -1.
        -11    1    1    2    0    0  0.17090966675E+02  0.26641731390E+02  0.86592901498E+02  0.92196602883E+02  0.00000000000E+00 0.  1.
         11    1    1    2    0    0 -0.50723949510E+02 -0.66687211826E+01  0.22656967466E+02  0.55952918341E+02  0.00000000000E+00 0. -1.
</event>
<event>
 6    1  0.8259171E-006  0.1138417E+03  0.7561462E-02  0.1253617E+00
          2   -1    0    0  501    0  0.00000000000E+00  0.00000000000E+00  0.80334334131E+02  0.80334334131E+02  0.00000000000E+00 0. -1.
         -2   -1    0    0    0  501 -0.00000000000E+00 -0.00000000000E+00 -0.32357216859E+03  0.32357216859E+03  0.00000000000E+00 0.  1.
          5    1    1    2  502    0 -0.57650228568E+02  0.82665505921E+02 -0.57185942215E+02  0.11595188274E+03  0.41800000000E+01 0.  1.
         -5    1    1    2    0  502 -0.17722086716E+02 -0.79378014780E+01 -0.13620990737E+03  0.13765061684E+03  0.41800000000E+01 0.  1.
        -11    1    1    2    0    0  0.20822998217E+02 -0.12882458345E+02 -0.62266904531E+02  0.66908313292E+02  0.00000000000E+00 0.  1.
         11    1    1    2    0    0  0.54549317066E+02 -0.61845246098E+02  0.12424919660E+02  0.83395689852E+02  0.00000000000E+00 0. -1.
</event>
<event>
 6    1  0.8259171E-006  0.1011284E+03  0.7561462E-02  0.1277941E+00
          2   -1    0    0  501    0  0.00000000000E+00  0.00000000000E+00  0.21272766317E+03  0.21272766317E+03  0.00000000000E+00 0. -1.
         -2   -1    0    0    0  501 -0.00000000000E+00 -0.00000000000E+00 -0.83192681354E+02  0.83192681354E+02  0.00000000000E+00 0.  1.
          5    1    1    2  502    0 -0.17532333728E+02  0.23921914973E+02 -0.16708683456E+02  0.34297131728E+02  0.41800000000E+01 0. -1.
         -5    1    1    2    0  502  0.51572823531E+02 -0.84329014561E+02  0.57474025308E+02  0.11441973085E+03  0.41800000000E+01 0. -1.
        -11    1    1    2    0    0  0.29698621723E+01  0.12397447585E+02 -0.19395507858E+02  0.23209965812E+02  0.00000000000E+00 0.  1.
         11    1    1    2    0    0 -0.37010351975E+02  0.48009652003E+02  0.10816514782E+03  0.12399351613E+03  0.00000000000E+00 0. -1.
</event>
<event>
 6    1  0.8259171E-006  0.1230605E+03  0.7561462E-02  0.1238132E+00
          1   -1    0    0  501    0  0.00000000000E+00  0.00000000000E+00  0.21168592408E+02  0.21168592408E+02  0.00000000000E+00 0. -1.
         -1   -1    0    0    0  501 -0.00000000000E+00 -0.00000000000E+00 -0.79745468624E+03  0.79745468624E+03  0.00000000000E+00 0.  1.
          5    1    1    2  502    0  0.71233497302E+02  0.50353185360E+02 -0.18741574109E+03  0.20676505222E+03  0.41800000000E+01 0. -1.
         -5    1    1    2    0  502 -0.42511846509E+02  0.41058532177E+02 -0.28968977040E+03  0.29568682019E+03  0.41800000000E+01 0. -1.
        -11    1    1    2    0    0 -0.15115719542E+02 -0.81018228263E+02 -0.21473802943E+03  0.23001056405E+03  0.00000000000E+00 0. -1.
         11    1    1    2    0    0 -0.13605931251E+02 -0.10393489274E+02 -0.84442552909E+02  0.86160842187E+02  0.00000000000E+00 0.  1.
</event>
<event>
 6    1  0.8259171E-006  0.1090962E+03  0.7561462E-02  0.1262253E+00
         -2   -1    0    0    0  501 -0.00000000000E+00  0.00000000000E+00  0.84419532099E+03  0.84419532099E+03  0.00000000000E+00 0.  1.
          2   -1    0    0  501    0  0.00000000000E+00 -0.00000000000E+00 -0.18909337675E+02  0.18909337675E+02  0.00000000000E+00 0. -1.
          5    1    1    2  502    0 -0.19133862817E+02  0.68219821307E+02  0.48276283054E+03  0.48795232521E+03  0.41800000000E+01 0. -1.
         -5    1    1    2    0  502  0.39620417859E+02 -0.31717720495E+02  0.14985681525E+03  0.15827295657E+03  0.41800000000E+01 0. -1.
        -11    1    1    2    0    0 -0.51724667850E+02 -0.50610658204E+01  0.13104400687E+03  0.14097371169E+03  0.00000000000E+00 0.  1.
         11    1    1    2    0    0  0.31238112808E+02 -0.31441034992E+02  0.61622330651E+02  0.75905665191E+02  0.00000000000E+00 0. -1.
</event>
<event>
 6    1  0.8259171E-006  0.1535267E+03  0.7561462E-02  0.1196205E+00
         -3   -1    0    0    0  501 -0.00000000000E+00  0.00000000000E+00  0.59722125890E+02  0.59722125890E+02  0.00000000000E+00 0.  1.
          3   -1    0    0  501    0  0.00000000000E+00 -0.00000000000E+00 -0.50536051364E+03  0.50536051364E+03  0.00000000000E+00 0. -1.
          5    1    1    2  502    0  0.44555157371E+01 -0.33876941347E+02 -0.55569620102E+02  0.65367835010E+02  0.41800000000E+01 0. -1.
         -5    1    1    2    0  502 -0.13240049853E+03  0.51156212611E+02 -0.12000648740E+03  0.18591901333E+03  0.41800000000E+01 0. -1.
        -11    1    1    2    0    0  0.92775560777E+02 -0.34547273838E+01 -0.88226237673E+02  0.12807462213E+03  0.00000000000E+00 0.  1.
         11    1    1    2    0    0  0.35169422018E+02 -0.13824543879E+02 -0.18183604257E+03  0.18572116906E+03  0.00000000000E+00 0. -1.
</event>
<event>
 6    1  0.8259171E-006  0.1212740E+03  0.7561462E-02  0.1241010E+00
         -2   -1    0    0    0  501 -0.00000000000E+00  0.00000000000E+00  0.28541784522E+02  0.28541784522E+02  0.00000000000E+00 0.  1.
          2   -1    0    0  501    0  0.00000000000E+00 -0.00000000000E+00 -0.67406229905E+03  0.67406229905E+03  0.00000000000E+00 0. -1.
          5    1    1    2  502    0  0.62629331421E+02 -0.94644257783E+01 -0.76602121260E+02  0.99485505935E+02  0.41800000000E+01 0. -1.
         -5    1    1    2    0  502 -0.83813089214E+02 -0.15378400600E+02 -0.13955707571E+03  0.16356888124E+03  0.41800000000E+01 0.  1.
        -11    1    1    2    0    0  0.32959879100E+01  0.56926520366E+02 -0.24273820731E+03  0.24934580314E+03  0.00000000000E+00 0.  1.
         11    1    1    2    0    0  0.17887769883E+02 -0.32083693987E+02 -0.18662311025E+03  0.19020389326E+03  0.00000000000E+00 0. -1.
</event>
<event>
 6    1  0.8259171E-006  0.1199613E+03  0.7561462E-02  0.1243161E+00
          1   -1    0    0  501    0  0.00000000000E+00  0.00000000000E+00  0.11704882798E+03  0.11704882798E+03  0.00000000000E+00 0. -1.
         -1   -1    0    0    0  501 -0.00000000000E+00 -0.00000000000E+00 -0.19890160890E+03  0.19890160890E+03  0.00000000000E+00 0.  1.
          5    1    1    2  502    0  0.10856023576E+02  0.31289343031E+02 -0.81671361846E+02  0.88230153467E+02  0.41800000000E+01 0. -1.
         -5    1    1    2    0  502  0.37758375836E+02 -0.85616363118E+02 -0.43986164928E+02  0.10348000621E+03  0.41800000000E+01 0. -1.
        -11    1    1    2    0    0  0.24003801939E+02  0.35503811823E+01  0.22531494016E+02  0.33112776034E+02  0.00000000000E+00 0.  1.
         11    1    1    2    0    0 -0.72618201350E+02  0.50776638904E+02  0.21273251844E+02  0.91127501172E+02  0.00000000000E+00 0. -1.
</event>
<event>
 6    1  0.8259171E-006  0.1673110E+03  0.7561462E-02  0.1180681E+00
         -2   -1    0    0    0  501 -0.00000000000E+00  0.00000000000E+00  0.41747805552E+02  0.41747805552E+02  0.00000000000E+00 0.  1.
          2   -1    0    0  501    0  0.00000000000E+00 -0.00000000000E+00 -0.73189762878E+03  0.73189762878E+03  0.00000000000E+00 0. -1.
          5    1    1    2  502    0 -0.33203948660E+02 -0.31622493860E+01 -0.10836951515E+03  0.11346332553E+03  0.41800000000E+01 0. -1.
         -5    1    1    2    0  502  0.59707972344E+02 -0.13128574262E+03 -0.20435969133E+03  0.25016263513E+03  0.41800000000E+01 0. -1.
        -11    1    1    2    0    0 -0.29877318743E+02  0.89660982569E+01 -0.45595082139E+02  0.55244516547E+02  0.00000000000E+00 0.  1.
         11    1    1    2    0    0  0.33732950584E+01  0.12548189375E+03 -0.33182553461E+03  0.35477495712E+03  0.00000000000E+00 0. -1.
</event>
<event>
 6    1  0.8259171E-006  0.1189305E+03  0.7561462E-02  0.1244872E+00
          1   -1    0    0  501    0  0.00000000000E+00  0.00000000000E+00  0.14595143349E+03  0.14595143349E+03  0.00000000000E+00 0. -1.
         -1   -1    0    0    0  501 -0.00000000000E+00 -0.00000000000E+00 -0.15295979200E+03  0.15295979200E+03  0.00000000000E+00 0.  1.
          5    1    1    2  502    0 -0.42728886773E+02 -0.70067736652E+01 -0.55218140471E+02  0.70294865240E+02  0.41800000000E+01 0. -1.
         -5    1    1    2    0  502  0.78463464743E+02 -0.37752954229E+02 -0.33412209511E+02  0.93357640271E+02  0.41800000000E+01 0. -1.
        -11    1    1    2    0    0  0.32969789566E+01 -0.26089497011E+02  0.26768717135E+02  0.37524607147E+02  0.00000000000E+00 0.  1.
         11    1    1    2    0    0 -0.39031556927E+02  0.70849224906E+02  0.54853274336E+02  0.97734112833E+02  0.00000000000E+00 0. -1.
</event>
<event>
 6    1  0.8259171E-006  0.9953326E+02  0.7561462E-02  0.1281280E+00
          3   -1    0    0  501    0  0.00000000000E+00  0.00000000000E+00  0.57504728831E+02  0.57504728831E+02  0.00000000000E+00 0. -1.
         -3   -1    0    0    0  501 -0.00000000000E+00 -0.00000000000E+00 -0.21502852956E+03  0.21502852956E+03  0.00000000000E+00 0.  1.
          5    1    1    2  502    0 -0.28708078973E+02  0.52412533005E+02 -0.26592308120E+02  0.65542739228E+02  0.41800000000E+01 0.  1.
         -5    1    1    2    0  502  0.44975546757E+02 -0.38136387216E+02 -0.84654706584E+02  0.10325248463E+03  0.41800000000E+01 0.  1.
        -11    1    1    2    0    0 -0.46585244881E+02 -0.12032069686E+00  0.57483772310E-01  0.46585435729E+02  0.00000000000E+00 0.  1.
         11    1    1    2    0    0  0.30317777097E+02 -0.14155825092E+02 -0.46334269795E+02  0.57152598800E+02  0.00000000000E+00 0. -1.
</event>
<event>
 6    1  0.8259171E-006  0.6617810E+02  0.7561462E-02  0.1373594E+00
         -2   -1    0    0    0  501 -0.00000000000E+00  0.00000000000E+00  0.47173844590E+02  0.47173844590E+02  0.00000000000E+00 0.  1.
          2   -1    0    0  501    0  0.00000000000E+00 -0.00000000000E+00 -0.24969761327E+03  0.24969761327E+03  0.00000000000E+00 0. -1.
          5    1    1    2  502    0 -0.24879689820E+02  0.43823073424E+01  0.22691517198E+02  0.34213753608E+02  0.41800000000E+01 0.  1.
         -5    1    1    2    0  502 -0.52785220905E+01  0.20698998089E+02 -0.14006631317E+03  0.14174750722E+03  0.41800000000E+01 0.  1.
        -11    1    1    2    0    0  0.37300544086E+02  0.17927880023E+02 -0.32959658142E+02  0.52906318489E+02  0.00000000000E+00 0.  1.
         11    1    1    2    0    0 -0.71423321759E+01 -0.43009185455E+02 -0.52189314570E+02  0.68003878548E+02  0.00000000000E+00 0. -1.
</event>
<event>
 6    1  0.8259171E-006  0.9418953E+02  0.7561462E-02  0.1293012E+00
         -3   -1    0    0    0  501 -0.00000000000E+00  0.00000000000E+00  0.29304747237E+03  0.29304747237E+03  0.00000000000E+00 0.  1.
          3   -1    0    0  501    0  0.00000000000E+00 -0.00000000000E+00 -0.61011680538E+02  0.61011680538E+02  0.00000000000E+00 0. -1.
          5    1    1    2  502    0  0.49349386735E+02  0.16238711671E+02  0.36037795765E+01  0.52244783042E+02  0.41800000000E+01 0. -1.
         -5    1    1    2    0  502  0.21206530178E+02  0.87522000531E+01  0.16742733694E+03  0.16904349583E+03  0.41800000000E+01 0.  1.
        -11    1    1    2    0    0  0.18814768590E+02 -0.12765041724E+02  0.29455267188E+02  0.37209603229E+02  0.00000000000E+00 0.  1.
         11    1    1    2    0    0 -0.89370685503E+02 -0.12225869999E+02  0.31549408126E+02  0.95561270804E+02  0.00000000000E+00 0. -1.
</event>
<event>
 6    1  0.8259171E-006  0.1546420E+03  0.7561462E-02  0.1194882E+00
          4   -1    0    0  501    0  0.00000000000E+00  0.00000000000E+00  0.22505389590E+03  0.22505389590E+03  0.00000000000E+00 0.  1.
         -4   -1    0    0    0  501 -0.00000000000E+00 -0.00000000000E+00 -0.13460201970E+03  0.13460201970E+03  0.00000000000E+00 0. -1.
          5    1    1    2  502    0  0.10903483996E+03 -0.72226049115E+02 -0.27412611798E+02  0.13369413667E+03  0.41800000000E+01 0. -1.
         -5    1    1    2    0  502  0.10718819553E+02  0.13580472621E+02  0.46910715663E+02  0.50173797676E+02  0.41800000000E+01 0. -1.
        -11    1    1    2    0    0  0.14788275925E+02  0.84419703309E+01  0.48842727122E+01  0.17714855005E+02  0.00000000000E+00 0.  1.
         11    1    1    2    0    0 -0.13454193543E+03  0.50203606164E+02  0.66069499616E+02  0.15807312625E+03  0.00000000000E+00 0. -1.
</event>
<event>
 6    1  0.8259171E-006  0.1497306E+03  0.7561462E-02  0.1200804E+00
          1   -1    0    0  501    0  0.00000000000E+00  0.00000000000E+00  0.28168132709E+03  0.28168132709E+03  0.00000000000E+00 0. -1.
         -1   -1    0    0    0  501 -0.00000000000E+00 -0.00000000000E+00 -0.10427567603E+03  0.10427567603E+03  0.00000000000E+00 0.  1.
          5    1    1    2  502    0 -0.12390950576E+03  0.51665015246E+02  0.10156996421E+03  0.16839468355E+03  0.41800000000E+01 0. -1.
         -5    1    1    2    0  502 -0.31397661851E+01 -0.17526916074E+02 -0.23022904359E+02  0.29403697793E+02  0.41800000000E+01 0. -1.
        -11    1    1    2    0    0  0.11463700933E+03 -0.51369710062E+02  0.50589633806E+02  0.13542452536E+03  0.00000000000E+00 0.  1.
         11    1    1    2    0    0  0.12412262607E+02  0.17231610890E+02  0.48268957395E+02  0.52734096417E+02  0.00000000000E+00 0. -1.
</event>
<event>
 6    1  0.8259171E-006  0.1038657E+03  0.7561462E-02  0.1272371E+00
          1   -1    0    0  501    0  0.00000000000E+00  0.00000000000E+00  0.21619540468E+03  0.21619540468E+03  0.00000000000E+00 0. -1.
         -1   -1    0    0    0  501 -0.00000000000E+00 -0.00000000000E+00 -0.59750518956E+02  0.59750518956E+02  0.00000000000E+00 0.  1.
          5    1    1    2  502    0 -0.36821035254E+02 -0.35375615537E+02  0.49188928603E+02  0.71022854835E+02  0.41800000000E+01 0. -1.
         -5    1    1    2    0  502  0.56224668525E+02  0.36674777337E+02  0.76473560266E+01  0.67692001726E+02  0.41800000000E+01 0. -1.
        -11    1    1    2    0    0  0.12959959533E+02 -0.38094096782E+02  0.67699376868E+02  0.78754849940E+02  0.00000000000E+00 0.  1.
         11    1    1    2    0    0 -0.32363592805E+02  0.36794934982E+02  0.31909224223E+02  0.58476217132E+02  0.00000000000E+00 0. -1.
</event>
<event>
 6    1  0.8259171E-006  0.7800689E+02  0.7561462E-02  0.1334805E+00
          2   -1    0    0  501    0  0.00000000000E+00  0.00000000000E+00  0.13582557069E+03  0.13582557069E+03  0.00000000000E+00 0. -1.
         -2   -1    0    0    0  501 -0.00000000000E+00 -0.00000000000E+00 -0.86351207968E+02  0.86351207968E+02  0.00000000000E+00 0.  1.
          5    1    1    2  502    0 -0.11410396728E+02 -0.31964402145E+02  0.58628672245E+02  0.67872776333E+02  0.41800000000E+01 0.  1.
         -5    1    1    2    0  502  0.32401561323E+02  0.36913717229E+02 -0.36031332290E+02  0.61059094347E+02  0.41800000000E+01 0.  1.
        -11    1    1    2    0    0 -0.25915081815E+02 -0.34172525623E+02 -0.11836097978E+02  0.44490967491E+02  0.00000000000E+00 0.  1.
         11    1    1    2    0    0  0.49239172193E+01  0.29223210540E+02  0.38713120744E+02  0.48753940484E+02  0.00000000000E+00 0. -1.
</event>
<event>
 6    1  0.8259171E-006  0.1181078E+03  0.7561462E-02  0.1246252E+00
         -2   -1    0    0    0  501 -0.00000000000E+00  0.00000000000E+00  0.19499516402E+02  0.19499516402E+02  0.00000000000E+00 0.  1.
          2   -1    0    0  501    0  0.00000000000E+00 -0.00000000000E+00 -0.91367491542E+03  0.91367491542E+03  0.00000000000E+00 0. -1.
          5    1    1    2  502    0 -0.25756997663E+02 -0.42679591104E+02 -0.23812869812E+03  0.24332636456E+03  0.41800000000E+01 0.  1.
         -5    1    1    2    0  502  0.88174860972E+02  0.37360417274E+01 -0.21401687618E+03  0.23153716722E+03  0.41800000000E+01 0.  1.
        -11    1    1    2    0    0  0.53792874001E+01  0.28786039067E+02 -0.35399552477E+02  0.45942367089E+02  0.00000000000E+00 0.  1.
         11    1    1    2    0    0 -0.67797150710E+02  0.10157510310E+02 -0.40663027224E+03  0.41236853294E+03  0.00000000000E+00 0. -1.
</event>
<event>
 6    1  0.8259171E-006  0.1640927E+03  0.7561462E-02  0.1184152E+00
         -2   -1    0    0    0  501 -0.00000000000E+00  0.00000000000E+00  0.57354408294E+02  0.57354408294E+02  0.00000000000E+00 0. -1.
          2   -1    0    0  501    0  0.00000000000E+00 -0.00000000000E+00 -0.69220519412E+03  0.69220519412E+03  0.00000000000E+00 0.  1.
          5    1    1    2  502    0  0.33161338088E+02  0.95126716178E+02 -0.12184804675E+03  0.15815557331E+03  0.41800000000E+01 0. -1.
         -5    1    1    2    0  502  0.14737438263E+02  0.42312500758E+02 -0.32586154019E+03  0.32895403262E+03  0.41800000000E+01 0. -1.
        -11    1    1    2    0    0 -0.50568365148E+02 -0.60362093054E+01 -0.37240672714E+02  0.63090911237E+02  0.00000000000E+00 0. -1.
         11    1    1    2    0    0  0.26695887969E+01 -0.13140300763E+03 -0.14990052618E+03  0.19935908524E+03  0.00000000000E+00 0.  1.
</event>
<event>
 6    1  0.8259171E-006  0.1139564E+03  0.7561462E-02  0.1253414E+00
         -1   -1    0    0    0  501 -0.00000000000E+00  0.00000000000E+00  0.88328919323E+02  0.88328919323E+02  0.00000000000E+00 0.  1.
          1   -1    0    0  501    0  0.00000000000E+00 -0.00000000000E+00 -0.26409013340E+03  0.26409013340E+03  0.00000000000E+00 0. -1.
          5    1    1    2  502    0  0.40282402365E+02  0.97340003955E+02 -0.53790332560E+02  0.11835801869E+03  0.41800000000E+01 0. -1.
         -5    1    1    2    0  502  0.35195932935E+01 -0.20254816551E+02  0.30198270955E+02  0.36770274667E+02  0.41800000000E+01 0. -1.
        -11    1    1    2    0    0 -0.54554252892E+02 -0.58181307043E+02 -0.15600175173E+03  0.17520781244E+03  0.00000000000E+00 0.  1.
         11    1    1    2    0    0  0.10752257234E+02 -0.18903880361E+02  0.38325992511E+01  0.22082946936E+02  0.00000000000E+00 0. -1.
</event>
<event>
 6    1  0.8259171E-006  0.9640557E+02  0.7561462E-02  0.1288041E+00
         -3   -1    0    0    0  501 -0.00000000000E+00  0.00000000000E+00  0.10635495529E+04  0.10635495529E+04  0.00000000000E+00 0.  1.
          3   -1    0    0  501    0  0.00000000000E+00 -0.00000000000E+00 -0.16285975097E+02  0.16285975097E+02  0.00000000000E+00 0. -1.
          5    1    1    2  502    0 -0.27457056633E+02  0.51399768867E+02  0.57686671596E+03  0.57981764942E+03  0.41800000000E+01 0. -1.
         -5    1    1    2    0  502 -0.13200472669E+02  0.10842866899E+02  0.27678825135E+01  0.17803196760E+02  0.41800000000E+01 0. -1.
        -11    1    1    2    0    0  0.52272265273E+02  0.12177733207E+01  0.23935088788E+03  0.24499534734E+03  0.00000000000E+00 0.  1.
         11    1    1    2    0    0 -0.11614735971E+02 -0.63460409087E+02  0.22827809144E+03  0.23721933446E+03  0.00000000000E+00 0. -1.
</event>
<event>
 6    1  0.8259171E-006  0.1561663E+03  0.7561462E-02  0.1193094E+00
          2   -1    0    0  501    0  0.00000000000E+00  0.00000000000E+00  0.27383503748E+03  0.27383503748E+03  0.00000000000E+00 0. -1.
         -2   -1    0    0    0  501 -0.00000000000E+00 -0.00000000000E+00 -0.69776937783E+03  0.69776937783E+03  0.00000000000E+00 0.  1.
          5    1    1    2  502    0  0.53062015817E+02  0.74368912393E+02 -0.20053866689E+03  0.22040767221E+03  0.41800000000E+01 0. -1.
         -5    1    1    2    0  502 -0.10115692635E+03 -0.15474898445E+02 -0.46812687631E+03  0.47919979231E+03  0.41800000000E+01 0.  1.
        -11    1    1    2    0    0 -0.24969999001E+02 -0.57948537994E+00  0.58902713748E+02  0.63979421225E+02  0.00000000000E+00 0. -1.
         11    1    1    2    0    0  0.73064909530E+02 -0.58314528568E+02  0.18582848910E+03  0.20801752957E+03  0.00000000000E+00 0.  1.
</event>
<event>
 6    1  0.8259171E-006  0.1158968E+03  0.7561462E-02  0.1250024E+00
         -2   -1    0    0    0  501 -0.00000000000E+00  0.00000000000E+00  0.58480613719E+02  0.58480613719E+02  0.00000000000E+00 0.  1.
          2   -1    0    0  501    0  0.00000000000E+00 -0.00000000000E+00 -0.33782839981E+03  0.33782839981E+03  0.00000000000E+00 0. -1.
          5    1    1    2  502    0  0.10841734496E+02 -0.65756570820E+02 -0.15750021511E+02  0.68607619041E+02  0.41800000000E+01 0.  1.
         -5    1    1    2    0  502 -0.20180214799E+02  0.55078540203E+02 -0.22569745535E+02  0.62990098220E+02  0.41800000000E+01 0.  1.
        -11    1    1    2    0    0 -0.47849626255E+02 -0.91850536303E+00 -0.14107885901E+03  0.14897541691E+03  0.00000000000E+00 0. -1.
         11    1    1    2    0    0  0.57188106558E+02  0.11596535980E+02 -0.99949160039E+02  0.11573587936E+03  0.00000000000E+00 0.  1.
</event>
<event>
 6    1  0.8259171E-006  0.3466275E+03  0.7561462E-02  0.1064008E+00
         -1   -1    0    0    0  501 -0.00000000000E+00  0.00000000000E+00  0.31366678712E+03  0.31366678712E+03  0.00000000000E+00 0.  1.
          1   -1    0    0  501    0  0.00000000000E+00 -0.00000000000E+00 -0.63835823583E+03  0.63835823583E+03  0.00000000000E+00 0. -1.
          5    1    1    2  502    0  0.11075199314E+03 -0.21416336200E+03  0.25458745171E+02  0.24248210184E+03  0.41800000000E+01 0.  1.
         -5    1    1    2    0  502  0.68373728126E+02 -0.75375479461E+02  0.96195152662E+02  0.14009785651E+03  0.41800000000E+01 0.  1.
        -11    1    1    2    0    0 -0.16155857364E+03  0.19098226070E+03 -0.28154105152E+03  0.37661752523E+03  0.00000000000E+00 0.  1.
         11    1    1    2    0    0 -0.17567147618E+02  0.98556580755E+02 -0.16480429502E+03  0.19282753938E+03  0.00000000000E+00 0. -1.
</event>
<event>
 6    1  0.8259171E-006  0.9230144E+02  0.7561462E-02  0.1297372E+00
          2   -1    0    0  501    0  0.00000000000E+00  0.00000000000E+00  0.11464306300E+03  0.11464306300E+03  0.00000000000E+00 0. -1.
         -2   -1    0    0    0  501 -0.00000000000E+00 -0.00000000000E+00 -0.12501894676E+03  0.12501894676E+03  0.00000000000E+00 0.  1.
          5    1    1    2  502    0  0.19261357894E+02 -0.23852189767E+02 -0.65087041898E+02  0.72067484261E+02  0.41800000000E+01 0.  1.
         -5    1    1    2    0  502 -0.45261317067E+01  0.57694003790E+02  0.26721903370E+02  0.63879703046E+02  0.41800000000E+01 0.  1.
        -11    1    1    2    0    0 -0.50427584318E+02 -0.68522345594E+01 -0.81494790598E-01  0.50891070140E+02  0.00000000000E+00 0.  1.
         11    1    1    2    0    0  0.35692358131E+02 -0.26989579464E+02  0.28070749559E+02  0.52823752322E+02  0.00000000000E+00 0. -1.
</event>
<event>
 6    1  0.8259171E-006  0.1041010E+03  0.7561462E-02  0.1271901E+00
         -2   -1    0    0    0  501 -0.00000000000E+00  0.00000000000E+00  0.94658504157E+02  0.94658504157E+02  0.00000000000E+00 0.  1.
          2   -1    0    0  501    0  0.00000000000E+00 -0.00000000000E+00 -0.17804744896E+03  0.17804744896E+03  0.00000000000E+00 0. -1.
          5    1    1    2  502    0  0.48902110907E+01  0.76630510434E+02  0.30062180871E+02  0.82567284154E+02  0.41800000000E+01 0.  1.
         -5    1    1    2    0  502  0.27516650137E+02 -0.38789343279E+02 -0.21481716136E+02  0.52351845383E+02  0.41800000000E+01 0.  1.
        -11    1    1    2    0    0  0.87233450064E+01 -0.41369404783E+02 -0.86323683380E+02  0.96121291670E+02  0.00000000000E+00 0. -1.
         11    1    1    2    0    0 -0.41130206234E+02  0.35282376284E+01 -0.56457261604E+01  0.41665531912E+02  0.00000000000E+00 0.  1.
</event>
<event>
 6    1  0.8259171E-006  0.2156251E+03  0.7561462E-02  0.1137187E+00
         -4   -1    0    0    0  501 -0.00000000000E+00  0.00000000000E+00  0.30859167998E+03  0.30859167998E+03  0.00000000000E+00 0. -1.
          4   -1    0    0  501    0  0.00000000000E+00 -0.00000000000E+00 -0.15977159326E+03  0.15977159326E+03  0.00000000000E+00 0.  1.
          5    1    1    2  502    0  0.29863609519E+02 -0.17356817121E+03  0.52640627358E+02  0.18386476900E+03  0.41800000000E+01 0.  1.
         -5    1    1    2    0  502  0.53530987907E+02 -0.47953451099E+00  0.20476895324E+02  0.57468010769E+02  0.41800000000E+01 0.  1.
        -11    1    1    2    0    0  0.58950648281E+01  0.39298450302E+02 -0.14035818038E+02  0.42144088239E+02  0.00000000000E+00 0.  1.
         11    1    1    2    0    0 -0.89289662253E+02  0.13474925542E+03  0.89738382078E+02  0.18488640523E+03  0.00000000000E+00 0. -1.
</event>
<event>
 6    1  0.8259171E-006  0.8036483E+02  0.7561462E-02  0.1328019E+00
          2   -1    0    0  501    0  0.00000000000E+00  0.00000000000E+00  0.11843482260E+03  0.11843482260E+03  0.00000000000E+00 0. -1.
         -2   -1    0    0    0  501 -0.00000000000E+00 -0.00000000000E+00 -0.16049456603E+03  0.16049456603E+03  0.00000000000E+00 0.  1.
          5    1    1    2  502    0  0.35246384131E+01  0.47412065328E+01 -0.92952418332E+02  0.93233720237E+02  0.41800000000E+01 0.  1.
         -5    1    1    2    0  502  0.25809765663E+02 -0.61666653619E+02  0.13319684180E+02  0.68292068052E+02  0.41800000000E+01 0.  1.
        -11    1    1    2    0    0 -0.11864844436E+02 -0.11119182220E+02  0.43951688230E+02  0.46863222734E+02  0.00000000000E+00 0. -1.
         11    1    1    2    0    0 -0.17469559640E+02  0.68044629306E+02 -0.63786975015E+01  0.70540377609E+02  0.00000000000E+00 0.  1.
</event>
<event>
 6    1  0.8259171E-006  0.1217174E+03  0.7561462E-02  0.1240290E+00
         -1   -1    0    0    0  501 -0.00000000000E+00  0.00000000000E+00  0.98820421634E+02  0.98820421634E+02  0.00000000000E+00 0.  1.
          1   -1    0    0  501    0  0.00000000000E+00 -0.00000000000E+00 -0.15323628158E+03  0.15323628158E+03  0.00000000000E+00 0. -1.
          5    1    1    2  502    0  0.19503906200E+02  0.92119947655E+02 -0.13111399265E+02  0.95162326073E+02  0.41800000000E+01 0.  1.
         -5    1    1    2    0  502 -0.53217911970E+01 -0.40842931249E+02  0.14330923943E+00  0.41399993141E+02  0.41800000000E+01 0.  1.
        -11    1    1    2    0    0 -0.16885113316E+02 -0.78564923741E+02 -0.29916737620E+02  0.85747101898E+02  0.00000000000E+00 0. -1.
         11    1    1    2    0    0  0.27029983131E+01  0.27287907335E+02 -0.11531032304E+02  0.29747282105E+02  0.00000000000E+00 0.  1.
</event>
<event>
 6    1  0.8259171E-006  0.1171110E+03  0.7561462E-02  0.1247941E+00
          1   -1    0    0  501    0  0.00000000000E+00  0.00000000000E+00  0.40558007400E+02  0.40558007400E+02  0.00000000000E+00 0. -1.
         -1   -1    0    0    0  501 -0.00000000000E+00 -0.00000000000E+00 -0.64124279983E+03  0.64124279983E+03  0.00000000000E+00 0.  1.
          5    1    1    2  502    0  0.23804268490E+02  0.65381301124E+02 -0.13216500016E+03  0.14942027106E+03  0.41800000000E+01 0.  1.
         -5    1    1    2    0  502 -0.55955826955E+02  0.88810049402E+01 -0.37146527659E+03  0.37578431438E+03  0.41800000000E+01 0.  1.
        -11    1    1    2    0    0  0.32053572787E+02  0.13615469683E+01 -0.68716950405E+02  0.75837356307E+02  0.00000000000E+00 0.  1.
         11    1    1    2    0    0  0.97985677785E-01 -0.75623853033E+02 -0.28337565265E+02  0.80758865482E+02  0.00000000000E+00 0. -1.
</event>
<event>
 6    1  0.8259171E-006  0.1041206E+03  0.7561462E-02  0.1271862E+00
         -1   -1    0    0    0  501 -0.00000000000E+00  0.00000000000E+00  0.79046858815E+02  0.79046858815E+02  0.00000000000E+00 0.  1.
          1   -1    0    0  501    0  0.00000000000E+00 -0.00000000000E+00 -0.18190415022E+03  0.18190415022E+03  0.00000000000E+00 0. -1.
          5    1    1    2  502    0 -0.28196583012E+02 -0.53389974471E+02  0.15282460127E+02  0.62422453133E+02  0.41800000000E+01 0. -1.
         -5    1    1    2    0  502 -0.17432405898E+02  0.64955800887E+02 -0.65260874328E+02  0.93806177634E+02  0.41800000000E+01 0.  1.
        -11    1    1    2    0    0 -0.15999130714E+02  0.45505443955E+01  0.62883019788E+01  0.17782642651E+02  0.00000000000E+00 0. -1.
         11    1    1    2    0    0  0.61628119624E+02 -0.16116370811E+02 -0.59167179183E+02  0.86939735616E+02  0.00000000000E+00 0.  1.
</event>
<event>
 6    1  0.8259171E-006  0.1044154E+03  0.7561462E-02  0.1271276E+00
         -1   -1    0    0    0  501 -0.00000000000E+00  0.00000000000E+00  0.93228382445E+02  0.93228382445E+02  0.00000000000E+00 0.  1.
          1   -1    0    0  501    0  0.00000000000E+00 -0.00000000000E+00 -0.20747750166E+03  0.20747750166E+03  0.00000000000E+00 0. -1.
          5    1    1    2  502    0 -0.14449090310E+02 -0.40930951891E+02 -0.56573596855E+02  0.71429428771E+02  0.41800000000E+01 0. -1.
         -5    1    1    2    0  502  0.53563207386E+02 -0.17646518438E+02  0.45460902009E+02  0.72557444896E+02  0.41800000000E+01 0. -1.
        -11    1    1    2    0    0 -0.22518202520E+02  0.79121695847E+02 -0.10094266804E+03  0.13021802652E+03  0.00000000000E+00 0. -1.
         11    1    1    2    0    0 -0.16595914555E+02 -0.20544225518E+02 -0.21937563277E+01  0.26500983923E+02  0.00000000000E+00 0.  1.
</event>
<event>
 6    1  0.8259171E-006  0.1091824E+03  0.7561462E-02  0.1262091E+00
         -1   -1    0    0    0  501 -0.00000000000E+00  0.00000000000E+00  0.49286217059E+02  0.49286217059E+02  0.00000000000E+00 0.  1.
          1   -1    0    0  501    0  0.00000000000E+00 -0.00000000000E+00 -0.26817721764E+03  0.26817721764E+03  0.00000000000E+00 0. -1.
          5    1    1    2  502    0  0.52106284792E+02  0.50599175456E+02 -0.35275141861E+02  0.80852640681E+02  0.41800000000E+01 0.  1.
         -5    1    1    2    0  502 -0.28608752284E+02 -0.44877453121E+02 -0.44244242180E+02  0.69335934925E+02  0.41800000000E+01 0.  1.
        -11    1    1    2    0    0  0.34274748738E+02 -0.17265314440E+01 -0.45761919972E+02  0.57200460063E+02  0.00000000000E+00 0.  1.
         11    1    1    2    0    0 -0.57772281246E+02 -0.39951908915E+01 -0.93609696565E+02  0.11007439903E+03  0.00000000000E+00 0. -1.
</event>
<event>
 6    1  0.8259171E-006  0.1021816E+03  0.7561462E-02  0.1275774E+00
         -2   -1    0    0    0  501 -0.00000000000E+00  0.00000000000E+00  0.45094009152E+02  0.45094009152E+02  0.00000000000E+00 0.  1.
          2   -1    0    0  501    0  0.00000000000E+00 -0.00000000000E+00 -0.29535167068E+03  0.29535167068E+03  0.00000000000E+00 0. -1.
          5    1    1    2  502    0 -0.31761322357E+02  0.52426301341E+02 -0.42180839308E+02  0.74525125125E+02  0.41800000000E+01 0. -1.
         -5    1    1    2    0  502  0.47178701677E+02 -0.44277211583E+02 -0.47635638285E+02  0.80454507595E+02  0.41800000000E+01 0. -1.
        -11    1    1    2    0    0 -0.16353744961E+02 -0.41560894114E+02 -0.13840010282E+03  0.14542813124E+03  0.00000000000E+00 0. -1.
         11    1    1    2    0    0  0.93636564151E+00  0.33411804356E+02 -0.22041081109E+02  0.40037915873E+02  0.00000000000E+00 0.  1.
</event>
<event>
 6    1  0.8259171E-006  0.1995635E+03  0.7561462E-02  0.1150108E+00
         -1   -1    0    0    0  501 -0.00000000000E+00  0.00000000000E+00  0.50342728376E+03  0.50342728376E+03  0.00000000000E+00 0.  1.
          1   -1    0    0  501    0  0.00000000000E+00 -0.00000000000E+00 -0.15109698477E+03  0.15109698477E+03  0.00000000000E+00 0. -1.
          5    1    1    2  502    0 -0.59878650909E+02 -0.46658736415E+02  0.14116278240E+03  0.16033369594E+03  0.41800000000E+01 0.  1.
         -5    1    1    2    0  502  0.55410716288E+02 -0.12059889712E+03  0.26483384624E+03  0.29625813066E+03  0.41800000000E+01 0.  1.
        -11    1    1    2    0    0 -0.42193432891E+02  0.99178415199E+02 -0.34905637630E+02  0.11329186802E+03  0.00000000000E+00 0. -1.
         11    1    1    2    0    0  0.46661367511E+02  0.68079218334E+02 -0.18760692025E+02  0.84640573912E+02  0.00000000000E+00 0.  1.
</event>
<event>
 6    1  0.8259171E-006  0.1528275E+03  0.7561462E-02  0.1197041E+00
         -2   -1    0    0    0  501 -0.00000000000E+00  0.00000000000E+00  0.80489402352E+02  0.80489402352E+02  0.00000000000E+00 0. -1.
          2   -1    0    0  501    0  0.00000000000E+00 -0.00000000000E+00 -0.32840348106E+03  0.32840348106E+03  0.00000000000E+00 0.  1.
          5    1    1    2  502    0 -0.26470532305E+02 -0.13207658263E+02  0.31906211178E+01  0.30046360519E+02  0.41800000000E+01 0.  1.
         -5    1    1    2    0  502 -0.40969169563E+01  0.12890031449E+03 -0.14178885431E+03  0.19171235591E+03  0.41800000000E+01 0.  1.
        -11    1    1    2    0    0  0.90207743003E+01  0.13242093560E+02 -0.30600280164E+02  0.34541345615E+02  0.00000000000E+00 0.  1.
         11    1    1    2    0    0  0.21546674961E+02 -0.12893474978E+03 -0.78715565349E+02  0.15259282136E+03  0.00000000000E+00 0. -1.
</event>
<event>
 6    1  0.8259171E-006  0.9547352E+02  0.7561462E-02  0.1290113E+00
         -2   -1    0    0    0  501 -0.00000000000E+00  0.00000000000E+00  0.39639553313E+02  0.39639553313E+02  0.00000000000E+00 0.  1.
          2   -1    0    0  501    0  0.00000000000E+00 -0.00000000000E+00 -0.41000184553E+03  0.41000184553E+03  0.00000000000E+00 0. -1.
          5    1    1    2  502    0  0.53996245205E+02 -0.67671402377E+02 -0.17939013227E+03  0.19923178751E+03  0.41800000000E+01 0. -1.
         -5    1    1    2    0  502  0.53386247819E+01  0.36605309791E+02 -0.12192758932E+02  0.39173784472E+02  0.41800000000E+01 0. -1.
        -11    1    1    2    0    0 -0.27756863202E+02  0.12824482098E+02 -0.18990774122E+01  0.30635229572E+02  0.00000000000E+00 0.  1.
         11    1    1    2    0    0 -0.31578006785E+02  0.18241610488E+02 -0.17688032360E+03  0.18060059729E+03  0.00000000000E+00 0. -1.
</event>
<event>
 6    1  0.8259171E-006  0.8929432E+02  0.7561462E-02  0.1304570E+00
         -1   -1    0    0    0  501 -0.00000000000E+00  0.00000000000E+00  0.31547165455E+03  0.31547165455E+03  0.00000000000E+00 0.  1.
          1   -1    0    0  501    0  0.00000000000E+00 -0.00000000000E+00 -0.50750333159E+02  0.50750333159E+02  0.00000000000E+00 0. -1.
          5    1    1    2  502    0 -0.43838635530E+02 -0.15858793021E+02  0.47298252163E+02  0.66542650525E+02  0.41800000000E+01 0. -1.
         -5    1    1    2    0  502  0.44133795081E+02  0.83730820124E+01  0.20077259275E+03  0.20577902413E+03  0.41800000000E+01 0.  1.
        -11    1    1    2    0    0  0.40326779750E+02 -0.11346506306E+02  0.24369203150E+02  0.48464940241E+02  0.00000000000E+00 0.  1.
         11    1    1    2    0    0 -0.40621939301E+02  0.18832217314E+02 -0.77187266727E+01  0.45435372817E+02  0.00000000000E+00 0. -1.
</event>
<event>
 6    1  0.8259171E-006  0.1665930E+03  0.7561462E-02  0.1181448E+00
          4   -1    0    0  501    0  0.00000000000E+00  0.00000000000E+00  0.80557240679E+03  0.80557240679E+03  0.00000000000E+00 0. -1.
         -4   -1    0    0    0  501 -0.00000000000E+00 -0.00000000000E+00 -0.40778750898E+02  0.40778750898E+02  0.00000000000E+00 0.  1.
          5    1    1    2  502    0 -0.35319447788E+02 -0.20073801825E+02  0.63959750825E+02  0.75886382423E+02  0.41800000000E+01 0. -1.
         -5    1    1    2    0  502  0.10841239873E+03 -0.84465752206E+02  0.18092534867E+03  0.22724252614E+03  0.41800000000E+01 0. -1.
        -11    1    1    2    0    0 -0.88949657939E+02  0.59280090327E+02  0.40111778593E+03  0.41511642818E+03  0.00000000000E+00 0. -1.
         11    1    1    2    0    0  0.15856706994E+02  0.45259463705E+02  0.11879077047E+03  0.12810582094E+03  0.00000000000E+00 0.  1.
</event>
<event>
 6    1  0.8259171E-006  0.9783763E+02  0.7561462E-02  0.1284910E+00
          2   -1    0    0  501    0  0.00000000000E+00  0.00000000000E+00  0.81722531522E+02  0.81722531522E+02  0.00000000000E+00 0. -1.
         -2   -1    0    0    0  501 -0.00000000000E+00 -0.00000000000E+00 -0.17940095047E+03  0.17940095047E+03  0.00000000000E+00 0.  1.
          5    1    1    2  502    0  0.72190100618E+02 -0.23936232835E+02 -0.62270482232E+02  0.98384141136E+02  0.41800000000E+01 0.  1.
         -5    1    1    2    0  502 -0.46472537519E+02  0.21899971502E+02 -0.43879522722E+02  0.67691878461E+02  0.41800000000E+01 0.  1.
        -11    1    1    2    0    0 -0.12322942324E+02 -0.30435547492E+02 -0.28912287467E+02  0.43750403715E+02  0.00000000000E+00 0.  1.
         11    1    1    2    0    0 -0.13394620776E+02  0.32471808825E+02  0.37383873468E+02  0.51297058684E+02  0.00000000000E+00 0. -1.
</event>
<event>
 6    1  0.8259171E-006  0.1432269E+03  0.7561462E-02  0.1209052E+00
         -2   -1    0    0    0  501 -0.00000000000E+00  0.00000000000E+00  0.82737219616E+02  0.82737219616E+02  0.00000000000E+00 0.  1.
          2   -1    0    0  501    0  0.00000000000E+00 -0.00000000000E+00 -0.32522624109E+03  0.32522624109E+03  0.00000000000E+00 0. -1.
          5    1    1    2  502    0  0.16277731620E+02  0.12875539831E+02 -0.40121468947E+02  0.45364619949E+02  0.41800000000E+01 0. -1.
         -5    1    1    2    0  502 -0.98760962227E+02 -0.87032287974E+02 -0.24985710849E+02  0.13405262010E+03  0.41800000000E+01 0. -1.
        -11    1    1    2    0    0  0.77832881063E+02  0.21541656045E+02 -0.14670357292E+03  0.16746324560E+03  0.00000000000E+00 0.  1.
         11    1    1    2    0    0  0.46503495444E+01  0.52615092098E+02 -0.30678268760E+02  0.61082975054E+02  0.00000000000E+00 0. -1.
</event>
<event>
 6    1  0.8259171E-006  0.8679582E+02  0.7561462E-02  0.1310802E+00
          1   -1    0    0  501    0  0.00000000000E+00  0.00000000000E+00  0.36028879371E+03  0.36028879371E+03  0.00000000000E+00 0.  1.
         -1   -1    0    0    0  501 -0.00000000000E+00 -0.00000000000E+00 -0.60178795541E+02  0.60178795541E+02  0.00000000000E+00 0. -1.
          5    1    1    2  502    0 -0.68260642999E+01 -0.66958743781E+01 -0.28837184004E+02  0.30667335535E+02  0.41800000000E+01 0.  1.
         -5    1    1    2    0  502  0.84789072430E+02  0.59835699052E+01  0.10527223095E+03  0.13536877380E+03  0.41800000000E+01 0.  1.
        -11    1    1    2    0    0 -0.63958763889E+02 -0.83235487024E+00  0.23018789225E+03  0.23890977801E+03  0.00000000000E+00 0.  1.
         11    1    1    2    0    0 -0.14004244241E+02  0.15446593431E+01 -0.65129410193E+01  0.15521701903E+02  0.00000000000E+00 0. -1.
</event>
<event>
 6    1  0.8259171E-006  0.8312314E+02  0.7561462E-02  0.1320415E+00
          1   -1    0    0  501    0  0.00000000000E+00  0.00000000000E+00  0.25664449721E+03  0.25664449721E+03  0.00000000000E+00 0. -1.
         -1   -1    0    0    0  501 -0.00000000000E+00 -0.00000000000E+00 -0.63219754751E+02  0.63219754751E+02  0.00000000000E+00 0.  1.
          5    1    1    2  502    0 -0.58081343076E+01 -0.38566509051E+02  0.76362845043E+02  0.85847926868E+02  0.41800000000E+01 0. -1.
         -5    1    1    2    0  502 -0.55451164766E+02  0.27065241941E+02 -0.19777331407E+02  0.64930533903E+02  0.41800000000E+01 0. -1.
        -11    1    1    2    0    0  0.28354038763E+02 -0.42922854229E+01  0.12848009693E+03  0.13164159880E+03  0.00000000000E+00 0. -1.
         11    1    1    2    0    0  0.32905260311E+02  0.15793552532E+02  0.83591318954E+01  0.37444192390E+02  0.00000000000E+00 0.  1.
</event>
<event>
 6    1  0.8259171E-006  0.1557104E+03  0.7561462E-02  0.1193627E+00
         -1   -1    0    0    0  501 -0.00000000000E+00  0.00000000000E+00  0.56686185420E+03  0.56686185420E+03  0.00000000000E+00 0.  1.
          1   -1    0    0  501    0  0.00000000000E+00 -0.00000000000E+00 -0.45845429525E+02  0.45845429525E+02  0.00000000000E+00 0. -1.
          5    1    1    2  502    0 -0.68856993250E+02 -0.90201099604E+02  0.24129995938E+03  0.26668458277E+03  0.41800000000E+01 0. -1.
         -5    1    1    2    0  502 -0.22467807768E+02  0.61880561446E+02  0.12709032280E+03  0.14319018409E+03  0.41800000000E+01 0.  1.
        -11    1    1    2    0    0  0.91263256933E+02  0.54117207837E+02  0.10875143774E+03  0.15193593867E+03  0.00000000000E+00 0. -1.
         11    1    1    2    0    0  0.61544086045E-01 -0.25796669679E+02  0.43874704757E+02  0.50896578193E+02  0.00000000000E+00 0.  1.
</event>
<event>
 6    1  0.8259171E-006  0.1125384E+03  0.7561462E-02  0.1255940E+00
          1   -1    0    0  501    0  0.00000000000E+00  0.00000000000E+00  0.30808779335E+03  0.30808779335E+03  0.00000000000E+00 0. -1.
         -1   -1    0    0    0  501 -0.00000000000E+00 -0.00000000000E+00 -0.80548923247E+02  0.80548923247E+02  0.00000000000E+00 0.  1.
          5    1    1    2  502    0 -0.15127756277E+02 -0.45084280380E+02 -0.40008752199E+02  0.62286547503E+02  0.41800000000E+01 0. -1.
         -5    1    1    2    0  502 -0.35408591517E+02 -0.39060871359E+02  0.89998545604E+02  0.10438740650E+03  0.41800000000E+01 0. -1.
        -11    1    1    2    0    0  0.63708043710E+02  0.33215611973E+02  0.61602642404E+02  0.94640780128E+02  0.00000000000E+00 0.  1.
         11    1    1    2    0    0 -0.13171695915E+02  0.50929539766E+02  0.11594643430E+03  0.12732198247E+03  0.00000000000E+00 0. -1.
</event>
<event>
 6    1  0.8259171E-006  0.1085519E+03  0.7561462E-02  0.1263275E+00
         -2   -1    0    0    0  501 -0.00000000000E+00  0.00000000000E+00  0.23168044792E+03  0.23168044792E+03  0.00000000000E+00 0.  1.
          2   -1    0    0  501    0  0.00000000000E+00 -0.00000000000E+00 -0.59501858930E+02  0.59501858930E+02  0.00000000000E+00 0. -1.
          5    1    1    2  502    0  0.42153153059E+02  0.34860227013E+02  0.75911361387E+02  0.93659654749E+02  0.41800000000E+01 0.  1.
         -5    1    1    2    0  502 -0.46760658455E+02 -0.52845276443E+02  0.71115288617E+02  0.10026983144E+03  0.41800000000E+01 0.  1.
        -11    1    1    2    0    0 -0.30191545692E+01 -0.36457784645E+02 -0.50477771223E+00  0.36586065053E+02  0.00000000000E+00 0. -1.
         11    1    1    2    0    0  0.76266599650E+01  0.54442834074E+02  0.25656716696E+02  0.60666755607E+02  0.00000000000E+00 0.  1.
</event>
<event>
 6    1  0.8259171E-006  0.9805208E+02  0.7561462E-02  0.1284446E+00
          1   -1    0    0  501    0  0.00000000000E+00  0.00000000000E+00  0.70632195342E+02  0.70632195342E+02  0.00000000000E+00 0. -1.
         -1   -1    0    0    0  501 -0.00000000000E+00 -0.00000000000E+00 -0.45245253932E+03  0.45245253932E+03  0.00000000000E+00 0.  1.
          5    1    1    2  502    0 -0.56022675601E+00  0.12238434189E+02 -0.22888720012E+03  0.22925295179E+03  0.41800000000E+01 0.  1.
         -5    1    1    2    0  502  0.50036028723E+02 -0.80645668639E+02 -0.13877403418E+03  0.16817560169E+03  0.41800000000E+01 0.  1.
        -11    1    1    2    0    0 -0.32873626630E+02  0.62354445667E+02  0.31118279054E+02  0.77052576294E+02  0.00000000000E+00 0. -1.
         11    1    1    2    0    0 -0.16602175336E+02  0.60527887833E+01 -0.45277388732E+02  0.48603604890E+02  0.00000000000E+00 0.  1.
</event>
<event>
 6    1  0.8259171E-006  0.1047463E+03  0.7561462E-02  0.1270620E+00
          1   -1    0    0  501    0  0.00000000000E+00  0.00000000000E+00  0.64416049753E+02  0.64416049753E+02  0.00000000000E+00 0. -1.
         -1   -1    0    0    0  501 -0.00000000000E+00 -0.00000000000E+00 -0.26037606036E+03  0.26037606036E+03  0.00000000000E+00 0.  1.
          5    1    1    2  502    0  0.61326308738E+02  0.63613420562E+02 -0.26734894978E+02  0.92411094727E+02  0.41800000000E+01 0.  1.
         -5    1    1    2    0  502 -0.31276215080E+02  0.18485081142E+01 -0.83289731954E+02  0.89085747799E+02  0.41800000000E+01 0.  1.
        -11    1    1    2    0    0  0.15299431700E+02 -0.20338947927E+02  0.10531117774E+02  0.27543599160E+02  0.00000000000E+00 0. -1.
         11    1    1    2    0    0 -0.45349525358E+02 -0.45122980750E+02 -0.96466501451E+02  0.11575166843E+03  0.00000000000E+00 0.  1.
</event>
<event>
 6    1  0.8259171E-006  0.1179069E+03  0.7561462E-02  0.1246591E+00
         -3   -1    0    0    0  501 -0.00000000000E+00  0.00000000000E+00  0.16845099538E+03  0.16845099538E+03  0.00000000000E+00 0.  1.
          3   -1    0    0  501    0  0.00000000000E+00 -0.00000000000E+00 -0.10056673601E+03  0.10056673601E+03  0.00000000000E+00 0. -1.
          5    1    1    2  502    0  0.23272918307E+02 -0.84965106523E+02  0.51249887096E+02  0.10200353612E+03  0.41800000000E+01 0.  1.
         -5    1    1    2    0  502 -0.31004350749E+02  0.34284828730E+02  0.37866607693E+02  0.59900514393E+02  0.41800000000E+01 0.  1.
        -11    1    1    2    0    0 -0.38003250614E+02  0.38009362672E+02 -0.25448643456E+02  0.59469253919E+02  0.00000000000E+00 0.  1.
         11    1    1    2    0    0  0.45734683055E+02  0.12670915121E+02  0.42164080396E+01  0.47644426966E+02  0.00000000000E+00 0. -1.
</event>
<event>
 6    1  0.8259171E-006  0.9785131E+02  0.7561462E-02  0.1284880E+00
          2   -1    0    0  501    0  0.00000000000E+00  0.00000000000E+00  0.10436879356E+03  0.10436879356E+03  0.00000000000E+00 0. -1.
         -2   -1    0    0    0  501 -0.00000000000E+00 -0.00000000000E+00 -0.19282077571E+03  0.19282077571E+03  0.00000000000E+00 0.  1.
          5    1    1    2  502    0  0.16539101659E+02 -0.56119528097E+02  0.11072671116E+02  0.59691035869E+02  0.41800000000E+01 0. -1.
         -5    1    1    2    0  502  0.27196288158E+02  0.62887464711E+02 -0.11703161711E+03  0.13567734929E+03  0.41800000000E+01 0.  1.
        -11    1    1    2    0    0 -0.52377216086E+02 -0.16947574270E+02 -0.22630458898E+02  0.59520842639E+02  0.00000000000E+00 0. -1.
         11    1    1    2    0    0  0.86418262692E+01  0.10179637656E+02  0.40137422738E+02  0.42300341466E+02  0.00000000000E+00 0.  1.
</event>
<event>
 6    1  0.8259171E-006  0.1001077E+03  0.7561462E-02  0.1280070E+00
          1   -1    0    0  501    0  0.00000000000E+00  0.00000000000E+00  0.18059771113E+03  0.18059771113E+03  0.00000000000E+00 0. -1.
         -1   -1    0    0    0  501 -0.00000000000E+00 -0.00000000000E+00 -0.11991431887E+03  0.11991431887E+03  0.00000000000E+00 0.  1.
          5    1    1    2  502    0 -0.38280582247E+02  0.82295276851E+02  0.12591633158E+02  0.91727516017E+02  0.41800000000E+01 0. -1.
         -5    1    1    2    0  502  0.16301810590E+02 -0.15395697268E+02 -0.52507280297E+02  0.57247387775E+02  0.41800000000E+01 0. -1.
        -11    1    1    2    0    0  0.31588668903E+02 -0.17280849759E+02  0.93884449964E+02  0.10055228350E+03  0.00000000000E+00 0. -1.
         11    1    1    2    0    0 -0.96098972454E+01 -0.49618729824E+02  0.67145894354E+01  0.50984842705E+02  0.00000000000E+00 0.  1.
</event>
<event>
 6    1  0.8259171E-006  0.1085292E+03  0.7561462E-02  0.1263318E+00
          2   -1    0    0  501    0  0.00000000000E+00  0.00000000000E+00  0.72125036290E+02  0.72125036290E+02  0.00000000000E+00 0. -1.
         -2   -1    0    0    0  501 -0.00000000000E+00 -0.00000000000E+00 -0.20682846964E+03  0.20682846964E+03  0.00000000000E+00 0.  1.
          5    1    1    2  502    0  0.36664343489E+00 -0.68017816143E+02 -0.62168214095E+02  0.92243791032E+02  0.41800000000E+01 0. -1.
         -5    1    1    2    0  502  0.96393132209E+01  0.55769871548E+02 -0.75527085500E+02  0.94472260351E+02  0.41800000000E+01 0. -1.
        -11    1    1    2    0    0  0.31845007733E+02  0.32643877833E+02  0.33379942523E+00  0.45605248597E+02  0.00000000000E+00 0.  1.
         11    1    1    2    0    0 -0.41850964389E+02 -0.20395933238E+02  0.26580668147E+01  0.46632205954E+02  0.00000000000E+00 0. -1.
</event>
<event>
 6    1  0.8259171E-006  0.2333976E+03  0.7561462E-02  0.1124271E+00
          2   -1    0    0  501    0  0.00000000000E+00  0.00000000000E+00  0.18503834324E+04  0.18503834324E+04  0.00000000000E+00 0. -1.
         -2   -1    0    0    0  501 -0.00000000000E+00 -0.00000000000E+00 -0.31896151490E+02  0.31896151490E+02  0.00000000000E+00 0.  1.
          5    1    1    2  502    0 -0.40441331949E+02 -0.22056613449E+03  0.81168763721E+03  0.84210403978E+03  0.41800000000E+01 0.  1.
         -5    1    1    2    0  502  0.95008733757E+00  0.95110174202E+01  0.50303034521E+01  0.11581816401E+02  0.41800000000E+01 0.  1.
        -11    1    1    2    0    0  0.67737090827E+02  0.13724117712E+03  0.60759242866E+03  0.62657163480E+03  0.00000000000E+00 0. -1.
         11    1    1    2    0    0 -0.28245846216E+02  0.73813939948E+02  0.39417691154E+03  0.40202209286E+03  0.00000000000E+00 0.  1.
</event>
<event>
 6    1  0.8259171E-006  0.1078580E+03  0.7561462E-02  0.1264589E+00
          2   -1    0    0  501    0  0.00000000000E+00  0.00000000000E+00  0.32698070636E+02  0.32698070636E+02  0.00000000000E+00 0. -1.
         -2   -1    0    0    0  501 -0.00000000000E+00 -0.00000000000E+00 -0.39484864436E+03  0.39484864436E+03  0.00000000000E+00 0.  1.
          5    1    1    2  502    0  0.40198971057E+01  0.70397903939E+02 -0.17784989367E+03  0.19136374142E+03  0.41800000000E+01 0.  1.
         -5    1    1    2    0  502 -0.24010673473E+02 -0.42919479711E+02 -0.46890585230E+02  0.68079318170E+02  0.41800000000E+01 0.  1.
        -11    1    1    2    0    0 -0.30966243401E+02 -0.32044554625E+02 -0.76756349011E+02  0.88754148213E+02  0.00000000000E+00 0.  1.
         11    1    1    2    0    0  0.50957019769E+02  0.45661303970E+01 -0.60653745815E+02  0.79349507194E+02  0.00000000000E+00 0. -1.
</event>
<event>
 6    1  0.8259171E-006  0.1147111E+03  0.7561462E-02  0.1252086E+00
          2   -1    0    0  501    0  0.00000000000E+00  0.00000000000E+00  0.28546083688E+03  0.28546083688E+03  0.00000000000E+00 0. -1.
         -2   -1    0    0    0  501 -0.00000000000E+00 -0.00000000000E+00 -0.13325865477E+03  0.13325865477E+03  0.00000000000E+00 0.  1.
          5    1    1    2  502    0  0.92215818150E+02 -0.18419408644E+02  0.51474217937E+01  0.94270886720E+02  0.41800000000E+01 0.  1.
         -5    1    1    2    0  502 -0.11392771289E+02 -0.13414475340E+02 -0.70564767299E+02  0.72846428672E+02  0.41800000000E+01 0.  1.
        -11    1    1    2    0    0 -0.72509922218E+00  0.36935457521E+02  0.30183870771E+02  0.47705553617E+02  0.00000000000E+00 0.  1.
         11    1    1    2    0    0 -0.80097947638E+02 -0.51015735379E+01  0.18743565684E+03  0.20389662264E+03  0.00000000000E+00 0. -1.
</event>
<event>
 6    1  0.8259171E-006  0.1369805E+03  0.7561462E-02  0.1217451E+00
          2   -1    0    0  501    0  0.00000000000E+00  0.00000000000E+00  0.59797128422E+03  0.59797128422E+03  0.00000000000E+00 0.  1.
         -2   -1    0    0    0  501 -0.00000000000E+00 -0.00000000000E+00 -0.40159106739E+02  0.40159106739E+02  0.00000000000E+00 0. -1.
          5    1    1    2  502    0 -0.10216620746E+03 -0.36896082825E+02  0.28056300793E+03  0.30088590644E+03  0.41800000000E+01 0.  1.
         -5    1    1    2    0  502  0.17470477502E+02  0.35657580412E+02  0.15805310088E+03  0.16301820673E+03  0.41800000000E+01 0.  1.
        -11    1    1    2    0    0  0.66557690487E+02  0.43382512420E+02  0.61261476024E+02  0.10032415956E+03  0.00000000000E+00 0. -1.
         11    1    1    2    0    0  0.18138039468E+02 -0.42144010007E+02  0.57934592645E+02  0.73902118238E+02  0.00000000000E+00 0.  1.
</event>
<event>
 6    1  0.8259171E-006  0.9925991E+02  0.7561462E-02  0.1281860E+00
          1   -1    0    0  501    0  0.00000000000E+00  0.00000000000E+00  0.16058342609E+03  0.16058342609E+03  0.00000000000E+00 0.  1.
         -1   -1    0    0    0  501 -0.00000000000E+00 -0.00000000000E+00 -0.85561527911E+02  0.85561527911E+02  0.00000000000E+00 0. -1.
          5    1    1    2  502    0 -0.36144566336E+02  0.37529140413E+02  0.13673146655E+02  0.54030485795E+02  0.41800000000E+01 0. -1.
         -5    1    1    2    0  502  0.30736115343E+02 -0.68092631520E+02 -0.60924518190E+01  0.75072668947E+02  0.41800000000E+01 0. -1.
        -11    1    1    2    0    0  0.74639505282E+01 -0.19726320193E+02  0.63090223161E+02  0.66522285922E+02  0.00000000000E+00 0.  1.
         11    1    1    2    0    0 -0.20554995351E+01  0.50289811300E+02  0.43509801783E+01  0.50519513333E+02  0.00000000000E+00 0. -1.
</event>
<event>
 6    1  0.8259171E-006  0.8869170E+02  0.7561462E-02  0.1306051E+00
          1   -1    0    0  501    0  0.00000000000E+00  0.00000000000E+00  0.76056116450E+03  0.76056116450E+03  0.00000000000E+00 0. -1.
         -1   -1    0    0    0  501 -0.00000000000E+00 -0.00000000000E+00 -0.21819767305E+02  0.21819767305E+02  0.00000000000E+00 0.  1.
          5    1    1    2  502    0  0.22415343320E+02 -0.46470119420E+02  0.40557845845E+02  0.65759644727E+02  0.41800000000E+01 0. -1.
         -5    1    1    2    0  502  0.46571365443E+01 -0.19580809454E+02  0.34841417691E+03  0.34902006832E+03  0.41800000000E+01 0. -1.
        -11    1    1    2    0    0 -0.12572219070E+02  0.82317944565E+02  0.32031344080E+03  0.33096073037E+03  0.00000000000E+00 0.  1.
         11    1    1    2    0    0 -0.14500260794E+02 -0.16267015691E+02  0.29455933639E+02  0.36640488386E+02  0.00000000000E+00 0. -1.
</event>
<event>
 6    1  0.8259171E-006  0.8043668E+02  0.7561462E-02  0.1327817E+00
          3   -1    0    0  501    0  0.00000000000E+00  0.00000000000E+00  0.21297222456E+02  0.21297222456E+02  0.00000000000E+00 0. -1.
         -3   -1    0    0    0  501 -0.00000000000E+00 -0.00000000000E+00 -0.66861452981E+03  0.66861452981E+03  0.00000000000E+00 0.  1.
          5    1    1    2  502    0  0.14233763492E+02 -0.11605762197E+02  0.13933173044E+01  0.18886700941E+02  0.41800000000E+01 0.  1.
         -5    1    1    2    0  502  0.31154159679E+02  0.29717427921E+02 -0.38752922382E+03  0.38993599334E+03  0.41800000000E+01 0.  1.
        -11    1    1    2    0    0 -0.18624791730E+02 -0.52210846481E+02 -0.18831006380E+03  0.19629960644E+03  0.00000000000E+00 0.  1.
         11    1    1    2    0    0 -0.26763131441E+02  0.34099180756E+02 -0.72871337039E+02  0.84789451553E+02  0.00000000000E+00 0. -1.
</event>
<event>
 6    1  0.8259171E-006  0.1131678E+03  0.7561462E-02  0.1254813E+00
         -1   -1    0    0    0  501 -0.00000000000E+00  0.00000000000E+00  0.14053042793E+03  0.14053042793E+03  0.00000000000E+00 0.  1.
          1   -1    0    0  501    0  0.00000000000E+00 -0.00000000000E+00 -0.20356330112E+03  0.20356330112E+03  0.00000000000E+00 0. -1.
          5    1    1    2  502    0 -0.58825772268E+02 -0.43268011235E+01 -0.10759063844E+02  0.60103432062E+02  0.41800000000E+01 0.  1.
         -5    1    1    2    0  502  0.13520610611E+02 -0.55519882734E+02  0.87883042907E+02  0.10491027557E+03  0.41800000000E+01 0.  1.
        -11    1    1    2    0    0 -0.18122365251E+02 -0.54026247072E+01 -0.13998795933E+02  0.23528169576E+02  0.00000000000E+00 0.  1.
         11    1    1    2    0    0  0.63427526907E+02  0.65249308564E+02 -0.12615805632E+03  0.15555185185E+03  0.00000000000E+00 0. -1.
</event>
<event>
 6    1  0.8259171E-006  0.1105859E+03  0.7561462E-02  0.1259489E+00
          2   -1    0    0  501    0  0.00000000000E+00  0.00000000000E+00  0.82535073334E+03  0.82535073334E+03  0.00000000000E+00 0. -1.
         -2   -1    0    0    0  501 -0.00000000000E+00 -0.00000000000E+00 -0.24279923574E+02  0.24279923574E+02  0.00000000000E+00 0.  1.
          5    1    1    2  502    0  0.31918346584E+01  0.19038892254E+02  0.40797413336E+01  0.20168884850E+02  0.41800000000E+01 0.  1.
         -5    1    1    2    0  502  0.85089238310E+02 -0.33102992771E+02  0.45143073191E+03  0.46059001804E+03  0.41800000000E+01 0.  1.
        -11    1    1    2    0    0 -0.85997262194E+02 -0.93439742082E+01  0.32880766760E+03  0.33999606061E+03  0.00000000000E+00 0. -1.
         11    1    1    2    0    0 -0.22838107747E+01  0.23408074725E+02  0.16752668924E+02  0.28875693412E+02  0.00000000000E+00 0.  1.
</event>
<event>
 6    1  0.8259171E-006  0.1181780E+03  0.7561462E-02  0.1246133E+00
         -3   -1    0    0    0  501 -0.00000000000E+00  0.00000000000E+00  0.99219178692E+02  0.99219178692E+02  0.00000000000E+00 0.  1.
          3   -1    0    0  501    0  0.00000000000E+00 -0.00000000000E+00 -0.16627058467E+03  0.16627058467E+03  0.00000000000E+00 0. -1.
          5    1    1    2  502    0 -0.37870019472E+02 -0.33149017644E+02 -0.38131320485E+01  0.50645909228E+02  0.41800000000E+01 0. -1.
         -5    1    1    2    0  502  0.91277271923E+02 -0.10999867401E+02 -0.23396649585E+02  0.94960060364E+02  0.41800000000E+01 0. -1.
        -11    1    1    2    0    0 -0.15874177861E+02 -0.16245855891E+02 -0.43081682081E+02  0.48702655854E+02  0.00000000000E+00 0.  1.
         11    1    1    2    0    0 -0.37533074590E+02  0.60394740936E+02  0.32400577362E+01  0.71181137916E+02  0.00000000000E+00 0. -1.
</event>
<event>
 6    1  0.8259171E-006  0.1402370E+03  0.7561462E-02  0.1213010E+00
          1   -1    0    0  501    0  0.00000000000E+00  0.00000000000E+00  0.64401451868E+03  0.64401451868E+03  0.00000000000E+00 0. -1.
         -1   -1    0    0    0  501 -0.00000000000E+00 -0.00000000000E+00 -0.40017772049E+02  0.40017772049E+02  0.00000000000E+00 0.  1.
          5    1    1    2  502    0  0.45058685683E+02  0.91936832402E+02  0.17713438195E+03  0.20463804137E+03  0.41800000000E+01 0. -1.
         -5    1    1    2    0  502  0.37781426752E+02 -0.28780717095E+02  0.21845364053E+02  0.52444811131E+02  0.41800000000E+01 0. -1.
        -11    1    1    2    0    0  0.76842913220E+01 -0.34541696643E+02  0.65974901561E+02  0.74865644832E+02  0.00000000000E+00 0.  1.
         11    1    1    2    0    0 -0.90524403758E+02 -0.28614418664E+02  0.33904209906E+03  0.35208379339E+03  0.00000000000E+00 0. -1.
</event>
<event>
 6    1  0.8259171E-006  0.2077826E+03  0.7561462E-02  0.1143334E+00
         -2   -1    0    0    0  501 -0.00000000000E+00  0.00000000000E+00  0.25256640231E+03  0.25256640231E+03  0.00000000000E+00 0.  1.
          2   -1    0    0  501    0  0.00000000000E+00 -0.00000000000E+00 -0.17991273531E+03  0.17991273531E+03  0.00000000000E+00 0. -1.
          5    1    1    2  502    0  0.70538028895E+02 -0.12975926778E+03  0.28511746055E+02  0.15047748389E+03  0.41800000000E+01 0. -1.
         -5    1    1    2    0  502  0.70254124889E+02  0.14753407041E+02  0.29242531612E+02  0.77626690889E+02  0.41800000000E+01 0. -1.
        -11    1    1    2    0    0 -0.85855201300E+02  0.23228372238E+02  0.34924651943E+02  0.95553148459E+02  0.00000000000E+00 0.  1.
         11    1    1    2    0    0 -0.54936952485E+02  0.91777488497E+02 -0.20025262617E+02  0.10882181439E+03  0.00000000000E+00 0. -1.
</event>
<event>
 6    1  0.8259171E-006  0.1967928E+03  0.7561462E-02  0.1152473E+00
          2   -1    0    0  501    0  0.00000000000E+00  0.00000000000E+00  0.63156477775E+03  0.63156477775E+03  0.00000000000E+00 0. -1.
         -2   -1    0    0    0  501 -0.00000000000E+00 -0.00000000000E+00 -0.81378538234E+02  0.81378538234E+02  0.00000000000E+00 0.  1.
          5    1    1    2  502    0 -0.12526679595E+02  0.48606492206E+02  0.90548563494E+02  0.10361478436E+03  0.41800000000E+01 0.  1.
         -5    1    1    2    0  502 -0.14920997902E+03  0.39592289653E+02  0.62553924023E+02  0.16661822544E+03  0.41800000000E+01 0.  1.
        -11    1    1    2    0    0  0.96038399392E+02 -0.28919247936E+02  0.26848796535E+03  0.28661033581E+03  0.00000000000E+00 0. -1.
         11    1    1    2    0    0  0.65698259219E+02 -0.59279533924E+02  0.12859578665E+03  0.15609997038E+03  0.00000000000E+00 0.  1.
</event>
<event>
 6    1  0.8259171E-006  0.1850373E+03  0.7561462E-02  0.1163015E+00
          2   -1    0    0  501    0  0.00000000000E+00  0.00000000000E+00  0.11877641501E+03  0.11877641501E+03  0.00000000000E+00 0. -1.
         -2   -1    0    0    0  501 -0.00000000000E+00 -0.00000000000E+00 -0.62519903781E+03  0.62519903781E+03  0.00000000000E+00 0.  1.
          5    1    1    2  502    0  0.12492942545E+03  0.47254978332E+02 -0.33631748100E+03  0.36189406564E+03  0.41800000000E+01 0.  1.
         -5    1    1    2    0  502 -0.16732614372E+02  0.60962982928E+02 -0.19217385554E+03  0.20234803884E+03  0.41800000000E+01 0.  1.
        -11    1    1    2    0    0 -0.38901435969E+02 -0.94843322246E+02 -0.84165669898E+01  0.10285628855E+03  0.00000000000E+00 0.  1.
         11    1    1    2    0    0 -0.69295375111E+02 -0.13374639014E+02  0.30485280725E+02  0.76877059787E+02  0.00000000000E+00 0. -1.
</event>
<event>
 6    1  0.8259171E-006  0.1614167E+03  0.7561462E-02  0.1187106E+00
         -2   -1    0    0    0  501 -0.00000000000E+00  0.00000000000E+00  0.18096571874E+03  0.18096571874E+03  0.00000000000E+00 0.  1.
          2   -1    0    0  501    0  0.00000000000E+00 -0.00000000000E+00 -0.17429375299E+03  0.17429375299E+03  0.00000000000E+00 0. -1.
          5    1    1    2  502    0 -0.31460512053E+02 -0.48505418986E+02  0.11887413741E+02  0.59171973899E+02  0.41800000000E+01 0.  1.
         -5    1    1    2    0  502 -0.10241101090E+03  0.74448538506E+02  0.44689061785E+02  0.13433236647E+03  0.41800000000E+01 0.  1.
        -11    1    1    2    0    0  0.75428476531E+02 -0.32682655614E+01  0.86261890639E+01  0.75990445250E+02  0.00000000000E+00 0.  1.
         11    1    1    2    0    0  0.58443046418E+02 -0.22674853959E+02 -0.58530698837E+02  0.85764686107E+02  0.00000000000E+00 0. -1.
</event>
<event>
 6    1  0.8259171E-006  0.2956680E+03  0.7561462E-02  0.1087426E+00
          1   -1    0    0  501    0  0.00000000000E+00  0.00000000000E+00  0.20512039590E+04  0.20512039590E+04  0.00000000000E+00 0. -1.
         -1   -1    0    0    0  501 -0.00000000000E+00 -0.00000000000E+00 -0.46945390200E+02  0.46945390200E+02  0.00000000000E+00 0.  1.
          5    1    1    2  502    0  0.17601381843E+02  0.14967498412E+03  0.75983340559E+03  0.77464616836E+03  0.41800000000E+01 0.  1.
         -5    1    1    2    0  502  0.16553607406E+02  0.13936292939E+03  0.29461030869E+03  0.32635679002E+03  0.41800000000E+01 0.  1.
        -11    1    1    2    0    0  0.12851744010E+02 -0.19110636907E+03  0.53158089244E+03  0.56503544741E+03  0.00000000000E+00 0.  1.
         11    1    1    2    0    0 -0.47006733260E+02 -0.97931544447E+02  0.41823396212E+03  0.43211094344E+03  0.00000000000E+00 0. -1.
</event>
<event>
 6    1  0.8259171E-006  0.1082905E+03  0.7561462E-02  0.1263769E+00
          2   -1    0    0  501    0  0.00000000000E+00  0.00000000000E+00  0.18576171893E+02  0.18576171893E+02  0.00000000000E+00 0. -1.
         -2   -1    0    0    0  501 -0.00000000000E+00 -0.00000000000E+00 -0.76606980739E+03  0.76606980739E+03  0.00000000000E+00 0.  1.
          5    1    1    2  502    0  0.61508750121E+02 -0.39143094778E+02 -0.35774656267E+03  0.36512406620E+03  0.41800000000E+01 0.  1.
         -5    1    1    2    0  502 -0.47506900473E+02 -0.87007019176E+01 -0.87416220799E+02  0.99958370661E+02  0.41800000000E+01 0.  1.
        -11    1    1    2    0    0 -0.48053710535E+02  0.29718388029E+02 -0.23746421000E+03  0.24409340981E+03  0.00000000000E+00 0.  1.
         11    1    1    2    0    0  0.34051860887E+02  0.18125408667E+02 -0.64866642019E+02  0.75470132609E+02  0.00000000000E+00 0. -1.
</event>
<event>
 6    1  0.8259171E-006  0.1076477E+03  0.7561462E-02  0.1264989E+00
          1   -1    0    0  501    0  0.00000000000E+00  0.00000000000E+00  0.48993101488E+02  0.48993101488E+02  0.00000000000E+00 0. -1.
         -1   -1    0    0    0  501 -0.00000000000E+00 -0.00000000000E+00 -0.27531276069E+03  0.27531276069E+03  0.00000000000E+00 0.  1.
          5    1    1    2  502    0  0.21635631241E+02  0.55731826211E+02 -0.12150882428E+03  0.13548433035E+03  0.41800000000E+01 0. -1.
         -5    1    1    2    0  502  0.18558492551E+02 -0.52660223590E+02 -0.24960036616E+02  0.61302468321E+02  0.41800000000E+01 0. -1.
        -11    1    1    2    0    0  0.21465119808E+02 -0.25887602645E+02 -0.28925092337E+02  0.44357415455E+02  0.00000000000E+00 0.  1.
         11    1    1    2    0    0 -0.61659243601E+02  0.22816000024E+02 -0.50925705965E+02  0.83161648051E+02  0.00000000000E+00 0. -1.
</event>
<event>
 6    1  0.8259171E-006  0.1862344E+03  0.7561462E-02  0.1161902E+00
          1   -1    0    0  501    0  0.00000000000E+00  0.00000000000E+00  0.12132414975E+04  0.12132414975E+04  0.00000000000E+00 0. -1.
         -1   -1    0    0    0  501 -0.00000000000E+00 -0.00000000000E+00 -0.53776513627E+02  0.53776513627E+02  0.00000000000E+00 0.  1.
          5    1    1    2  502    0  0.73218953051E+02 -0.41329909422E+02  0.20303993648E+02  0.86596195394E+02  0.41800000000E+01 0.  1.
         -5    1    1    2    0  502  0.93613198985E+02 -0.20831441077E+01  0.19449189557E+03  0.21589891236E+03  0.41800000000E+01 0.  1.
        -11    1    1    2    0    0 -0.33999297613E+02  0.51239904708E+02  0.28216040050E+03  0.28878360701E+03  0.00000000000E+00 0.  1.
         11    1    1    2    0    0 -0.13283285442E+03 -0.78268511788E+01  0.66250869412E+03  0.67573929632E+03  0.00000000000E+00 0. -1.
</event>
<event>
 6    1  0.8259171E-006  0.1016886E+03  0.7561462E-02  0.1276785E+00
          2   -1    0    0  501    0  0.00000000000E+00  0.00000000000E+00  0.37326318772E+03  0.37326318772E+03  0.00000000000E+00 0. -1.
         -2   -1    0    0    0  501 -0.00000000000E+00 -0.00000000000E+00 -0.35077273928E+02  0.35077273928E+02  0.00000000000E+00 0.  1.
          5    1    1    2  502    0  0.71073047328E+02 -0.36945796690E+02  0.14992267995E+03  0.17003132744E+03  0.41800000000E+01 0. -1.
         -5    1    1    2    0  502 -0.38904355669E+02  0.24395538291E+02  0.47302920738E+02  0.66058533808E+02  0.41800000000E+01 0. -1.
        -11    1    1    2    0    0 -0.10384411030E+02 -0.28637260376E+02  0.81925447086E+01  0.31544357072E+02  0.00000000000E+00 0.  1.
         11    1    1    2    0    0 -0.21784280629E+02  0.41187518775E+02  0.13276776840E+03  0.14070624332E+03  0.00000000000E+00 0. -1.
</event>
<event>
 6    1  0.8259171E-006  0.1118889E+03  0.7561462E-02  0.1257111E+00
          3   -1    0    0  501    0  0.00000000000E+00  0.00000000000E+00  0.93487823208E+02  0.93487823208E+02  0.00000000000E+00 0. -1.
         -3   -1    0    0    0  501 -0.00000000000E+00 -0.00000000000E+00 -0.16640177558E+03  0.16640177558E+03  0.00000000000E+00 0.  1.
          5    1    1    2  502    0  0.14030501087E+02 -0.36120955666E+02 -0.37583765444E+02  0.54144161494E+02  0.41800000000E+01 0. -1.
         -5    1    1    2    0  502 -0.11265313285E+02  0.94376227802E+02 -0.31647202017E+02  0.10026363974E+03  0.41800000000E+01 0. -1.
        -11    1    1    2    0    0 -0.32106332597E+02 -0.10805363988E+02 -0.28644717120E+02  0.44363186344E+02  0.00000000000E+00 0.  1.
         11    1    1    2    0    0  0.29341144795E+02 -0.47449908149E+02  0.24961732213E+02  0.61118611210E+02  0.00000000000E+00 0. -1.
</event>
<event>
 6    1  0.8259171E-006  0.1032153E+03  0.7561462E-02  0.1273676E+00
         -1   -1    0    0    0  501 -0.00000000000E+00  0.00000000000E+00  0.10311732104E+03  0.10311732104E+03  0.00000000000E+00 0.  1.
          1   -1    0    0  501    0  0.00000000000E+00 -0.00000000000E+00 -0.16992552585E+03  0.16992552585E+03  0.00000000000E+00 0. -1.
          5    1    1    2  502    0  0.28444209900E+02  0.28023836224E+02 -0.69830738460E+02  0.80549443868E+02  0.41800000000E+01 0.  1.
         -5    1    1    2    0  502  0.45831691454E+02 -0.19730129274E+02  0.44934159860E+02  0.67278325373E+02  0.41800000000E+01 0.  1.
        -11    1    1    2    0    0 -0.17446479858E+02 -0.45198267829E+02 -0.68807623913E+01  0.48934731686E+02  0.00000000000E+00 0. -1.
         11    1    1    2    0    0 -0.56829421496E+02  0.36904560878E+02 -0.35030863814E+02  0.76280345966E+02  0.00000000000E+00 0.  1.
</event>
<event>
 6    1  0.8259171E-006  0.1295063E+03  0.7561462E-02  0.1228190E+00
         -1   -1    0    0    0  501 -0.00000000000E+00  0.00000000000E+00  0.55247849425E+02  0.55247849425E+02  0.00000000000E+00 0.  1.
          1   -1    0    0  501    0  0.00000000000E+00 -0.00000000000E+00 -0.39122977716E+03  0.39122977716E+03  0.00000000000E+00 0. -1.
          5    1    1    2  502    0 -0.76178829391E+02 -0.70237216062E+02 -0.11304336273E+03  0.15340389443E+03  0.41800000000E+01 0. -1.
         -5    1    1    2    0  502 -0.20440364539E+02  0.51344003712E+02 -0.55700424866E+02  0.78574963888E+02  0.41800000000E+01 0. -1.
        -11    1    1    2    0    0  0.56495543504E+02  0.19488290845E+02 -0.21780765094E+02  0.63607716859E+02  0.00000000000E+00 0.  1.
         11    1    1    2    0    0  0.40123650426E+02 -0.59507849473E+00 -0.14545737504E+03  0.15089105141E+03  0.00000000000E+00 0. -1.
</event>
<event>
 6    1  0.8259171E-006  0.1353981E+03  0.7561462E-02  0.1219659E+00
         -2   -1    0    0    0  501 -0.00000000000E+00  0.00000000000E+00  0.42741248011E+02  0.42741248011E+02  0.00000000000E+00 0.  1.
          2   -1    0    0  501    0  0.00000000000E+00 -0.00000000000E+00 -0.64272630981E+03  0.64272630981E+03  0.00000000000E+00 0. -1.
          5    1    1    2  502    0  0.43983045410E+02  0.80330283005E+02 -0.17833546676E+03  0.20052050707E+03  0.41800000000E+01 0.  1.
         -5    1    1    2    0  502  0.46186390880E+02 -0.20220204603E+02 -0.12551906725E+02  0.52125446177E+02  0.41800000000E+01 0.  1.
        -11    1    1    2    0    0 -0.73791815108E+02 -0.75841715907E+02 -0.38673369547E+03  0.40094906043E+03  0.00000000000E+00 0. -1.
         11    1    1    2    0    0 -0.16377621182E+02  0.15731637505E+02 -0.22363992838E+02  0.31872544138E+02  0.00000000000E+00 0.  1.
</event>
<event>
 6    1  0.8259171E-006  0.1036973E+03  0.7561462E-02  0.1272708E+00
          1   -1    0    0  501    0  0.00000000000E+00  0.00000000000E+00  0.23714615335E+03  0.23714615335E+03  0.00000000000E+00 0. -1.
         -1   -1    0    0    0  501 -0.00000000000E+00 -0.00000000000E+00 -0.10305338324E+03  0.10305338324E+03  0.00000000000E+00 0.  1.
          5    1    1    2  502    0 -0.41493194698E+02  0.65771842347E+01 -0.32999669242E+02  0.53585400333E+02  0.41800000000E+01 0.  1.
         -5    1    1    2    0  502  0.79610292616E+02 -0.12749085520E+02  0.27338502922E+01  0.80779231300E+02  0.41800000000E+01 0.  1.
        -11    1    1    2    0    0 -0.26185547433E+02  0.40428516021E+02  0.12582668816E+02  0.49784248076E+02  0.00000000000E+00 0.  1.
         11    1    1    2    0    0 -0.11931550484E+02 -0.34256614735E+02  0.15177592024E+03  0.15605065689E+03  0.00000000000E+00 0. -1.
</event>
<event>
 6    1  0.8259171E-006  0.8682637E+02  0.7561462E-02  0.1310724E+00
          3   -1    0    0  501    0  0.00000000000E+00  0.00000000000E+00  0.29302915170E+03  0.29302915170E+03  0.00000000000E+00 0. -1.
         -3   -1    0    0    0  501 -0.00000000000E+00 -0.00000000000E+00 -0.60702106682E+02  0.60702106682E+02  0.00000000000E+00 0.  1.
          5    1    1    2  502    0 -0.42609823945E+02 -0.50851158983E+02  0.10949627318E+03  0.12809505731E+03  0.41800000000E+01 0. -1.
         -5    1    1    2    0  502  0.56093586255E+01 -0.52697578583E+01 -0.32350367599E+02  0.33514980767E+02  0.41800000000E+01 0. -1.
        -11    1    1    2    0    0  0.27366533813E+01  0.63343662768E+02  0.48458188052E+02  0.79800406477E+02  0.00000000000E+00 0. -1.
         11    1    1    2    0    0  0.34263811938E+02 -0.72227459266E+01  0.10672295138E+03  0.11232081383E+03  0.00000000000E+00 0.  1.
</event>
<event>
 6    1  0.8259171E-006  0.1765551E+03  0.7561462E-02  0.1171179E+00
         -2   -1    0    0    0  501 -0.00000000000E+00  0.00000000000E+00  0.50733155728E+03  0.50733155728E+03  0.00000000000E+00 0.  1.
          2   -1    0    0  501    0  0.00000000000E+00 -0.00000000000E+00 -0.72104941479E+02  0.72104941479E+02  0.00000000000E+00 0. -1.
          5    1    1    2  502    0  0.92229947266E+01  0.20280410739E+02  0.47587788186E+01  0.23161974599E+02  0.41800000000E+01 0.  1.
         -5    1    1    2    0  502  0.94131339123E+02 -0.13937658067E+03  0.25430992341E+03  0.30492220285E+03  0.41800000000E+01 0.  1.
        -11    1    1    2    0    0 -0.89594938125E+02  0.11833150034E+03  0.11255759299E+03  0.18627616232E+03  0.00000000000E+00 0. -1.
         11    1    1    2    0    0 -0.13759395725E+02  0.76466959187E+00  0.63600320582E+02  0.65076158987E+02  0.00000000000E+00 0.  1.
</event>
<event>
 6    1  0.8259171E-006  0.1112394E+03  0.7561462E-02  0.1258292E+00
         -1   -1    0    0    0  501 -0.00000000000E+00  0.00000000000E+00  0.30738863066E+03  0.30738863066E+03  0.00000000000E+00 0.  1.
          1   -1    0    0  501    0  0.00000000000E+00 -0.00000000000E+00 -0.10727789131E+03  0.10727789131E+03  0.00000000000E+00 0. -1.
          5    1    1    2  502    0  0.22821560684E+02  0.62745369530E+01  0.78317485211E+00  0.24047436638E+02  0.41800000000E+01 0. -1.
         -5    1    1    2    0  502 -0.86502630517E+02  0.40588308144E+02  0.24287186030E+03  0.26102553279E+03  0.41800000000E+01 0. -1.
        -11    1    1    2    0    0 -0.12428021985E+01  0.13854104498E+02  0.17057468774E+02  0.22009952515E+02  0.00000000000E+00 0.  1.
         11    1    1    2    0    0  0.64923872032E+02 -0.60716949595E+02 -0.60601764568E+02  0.10758360004E+03  0.00000000000E+00 0. -1.
</event>
<event>
 6    1  0.8259171E-006  0.1564811E+03  0.7561462E-02  0.1192728E+00
          2   -1    0    0  501    0  0.00000000000E+00  0.00000000000E+00  0.68283683519E+03  0.68283683519E+03  0.00000000000E+00 0. -1.
         -2   -1    0    0    0  501 -0.00000000000E+00 -0.00000000000E+00 -0.40082919832E+02  0.40082919832E+02  0.00000000000E+00 0.  1.
          5    1    1    2  502    0 -0.18884326526E+02  0.23312498691E+02  0.67815818879E+02  0.74273468168E+02  0.41800000000E+01 0.  1.
         -5    1    1    2    0  502 -0.21706262489E+01 -0.13650425725E+03  0.17190568473E+03  0.21956129147E+03  0.41800000000E+01 0.  1.
        -11    1    1    2    0    0 -0.26288476925E+01  0.12109066662E+03  0.31180353773E+03  0.33450157926E+03  0.00000000000E+00 0.  1.
         11    1    1    2    0    0  0.23683800468E+02 -0.78989080624E+01  0.91228874010E+02  0.94583416127E+02  0.00000000000E+00 0. -1.
</event>
<event>
 6    1  0.8259171E-006  0.2944827E+03  0.7561462E-02  0.1088032E+00
          2   -1    0    0  501    0  0.00000000000E+00  0.00000000000E+00  0.55703772636E+03  0.55703772636E+03  0.00000000000E+00 0. -1.
         -2   -1    0    0    0  501 -0.00000000000E+00 -0.00000000000E+00 -0.17789953612E+03  0.17789953612E+03  0.00000000000E+00 0.  1.
          5    1    1    2  502    0  0.96277451283E+02 -0.53003583219E+02 -0.85870540635E+01  0.11031743904E+03  0.41800000000E+01 0.  1.
         -5    1    1    2    0  502  0.90572838663E+02 -0.16227606496E+03  0.11539183478E+03  0.21879147217E+03  0.41800000000E+01 0.  1.
        -11    1    1    2    0    0 -0.56844438867E+02  0.23742465480E+02  0.99134692371E+02  0.11671624621E+03  0.00000000000E+00 0. -1.
         11    1    1    2    0    0 -0.13000585108E+03  0.19153718269E+03  0.17319871714E+03  0.28911210505E+03  0.00000000000E+00 0.  1.
</event>
<event>
 6    1  0.8259171E-006  0.1360625E+03  0.7561462E-02  0.1218728E+00
         -3   -1    0    0    0  501 -0.00000000000E+00  0.00000000000E+00  0.43728590710E+03  0.43728590710E+03  0.00000000000E+00 0.  1.
          3   -1    0    0  501    0  0.00000000000E+00 -0.00000000000E+00 -0.54628289026E+02  0.54628289026E+02  0.00000000000E+00 0. -1.
          5    1    1    2  502    0  0.92058613451E+02 -0.72353144559E+02  0.14665193358E+03  0.18770729304E+03  0.41800000000E+01 0.  1.
         -5    1    1    2    0  502  0.79338804400E+01  0.39701274408E+02  0.10229029397E+03  0.11009048228E+03  0.41800000000E+01 0.  1.
        -11    1    1    2    0    0 -0.66604677478E+02 -0.13338898226E+01  0.18044902491E+02  0.69018699132E+02  0.00000000000E+00 0.  1.
         11    1    1    2    0    0 -0.33387816413E+02  0.33985759974E+02  0.11567048804E+03  0.12509772168E+03  0.00000000000E+00 0. -1.
</event>
<event>
 6    1  0.8259171E-006  0.9442313E+02  0.7561462E-02  0.1292481E+00
          2   -1    0    0  501    0  0.00000000000E+00  0.00000000000E+00  0.49416388103E+03  0.49416388103E+03  0.00000000000E+00 0. -1.
         -2   -1    0    0    0  501 -0.00000000000E+00 -0.00000000000E+00 -0.28027604016E+02  0.28027604016E+02  0.00000000000E+00 0.  1.
          5    1    1    2  502    0 -0.43850294829E+02  0.20196419670E+02  0.24252819140E+03  0.24732193544E+03  0.41800000000E+01 0. -1.
         -5    1    1    2    0  502  0.17012750533E+02 -0.45689309601E+02  0.37665310931E+02  0.61750261053E+02  0.41800000000E+01 0. -1.
        -11    1    1    2    0    0 -0.27096390911E+02  0.25951372833E+02  0.13043111445E+03  0.13572016714E+03  0.00000000000E+00 0. -1.
         11    1    1    2    0    0  0.53933935207E+02 -0.45848290181E+00  0.55511660222E+02  0.77399121404E+02  0.00000000000E+00 0.  1.
</event>
<event>
 6    1  0.8259171E-006  0.1199129E+03  0.7561462E-02  0.1243241E+00
          1   -1    0    0  501    0  0.00000000000E+00  0.00000000000E+00  0.76416762128E+02  0.76416762128E+02  0.00000000000E+00 0. -1.
         -1   -1    0    0    0  501 -0.00000000000E+00 -0.00000000000E+00 -0.30153787548E+03  0.30153787548E+03  0.00000000000E+00 0.  1.
          5    1    1    2  502    0  0.37050984488E+02  0.55335576680E+02 -0.85775257825E+02  0.10867229984E+03  0.41800000000E+01 0.  1.
         -5    1    1    2    0  502  0.48431633296E+02 -0.70370355855E+02 -0.11072428618E+03  0.13991050724E+03  0.41800000000E+01 0.  1.
        -11    1    1    2    0    0 -0.50132823363E+02  0.29714217358E+01 -0.61646916560E+02  0.79513971394E+02  0.00000000000E+00 0.  1.
         11    1    1    2    0    0 -0.35349794421E+02  0.12063357439E+02  0.33025347214E+02  0.49857859129E+02  0.00000000000E+00 0. -1.
</event>
<event>
 6    1  0.8259171E-006  0.8303229E+02  0.7561462E-02  0.1320660E+00
         -1   -1    0    0    0  501 -0.00000000000E+00  0.00000000000E+00  0.66221118319E+02  0.66221118319E+02  0.00000000000E+00 0.  1.
          1   -1    0    0  501    0  0.00000000000E+00 -0.00000000000E+00 -0.22225773199E+03  0.22225773199E+03  0.00000000000E+00 0. -1.
          5    1    1    2  502    0 -0.10657278370E+02  0.38053134305E+01  0.28671440214E+02  0.31105978147E+02  0.41800000000E+01 0.  1.
         -5    1    1    2    0  502  0.33702755793E+02 -0.53015046014E+02 -0.11267888348E+03  0.12907545868E+03  0.41800000000E+01 0.  1.
        -11    1    1    2    0    0 -0.41774510382E+02  0.57073400693E+02 -0.79724095716E+02  0.10657586135E+03  0.00000000000E+00 0.  1.
         11    1    1    2    0    0  0.18729032958E+02 -0.78636681103E+01  0.76949253068E+01  0.21721552135E+02  0.00000000000E+00 0. -1.
</event>
<event>
 6    1  0.8259171E-006  0.1162721E+03  0.7561462E-02  0.1249377E+00
          1   -1    0    0  501    0  0.00000000000E+00  0.00000000000E+00  0.17466144809E+03  0.17466144809E+03  0.00000000000E+00 0. -1.
         -1   -1    0    0    0  501 -0.00000000000E+00 -0.00000000000E+00 -0.18512892827E+03  0.18512892827E+03  0.00000000000E+00 0.  1.
          5    1    1    2  502    0  0.34923090926E+02  0.11086090907E+02  0.13563733862E+01  0.36903060038E+02  0.41800000000E+01 0. -1.
         -5    1    1    2    0  502  0.11311788048E+02 -0.78085011701E+02 -0.13061956103E+03  0.15265702645E+03  0.41800000000E+01 0.  1.
        -11    1    1    2    0    0 -0.58217014756E+02  0.80022289478E+02  0.11572932751E+03  0.15226971093E+03  0.00000000000E+00 0. -1.
         11    1    1    2    0    0  0.11982135783E+02 -0.13023368683E+02  0.30663799469E+01  0.17960578937E+02  0.00000000000E+00 0.  1.
</event>
<event>
 6    1  0.8259171E-006  0.1827470E+03  0.7561462E-02  0.1165171E+00
          2   -1    0    0  501    0  0.00000000000E+00  0.00000000000E+00  0.44351923675E+03  0.44351923675E+03  0.00000000000E+00 0. -1.
         -2   -1    0    0    0  501 -0.00000000000E+00 -0.00000000000E+00 -0.94285949606E+02  0.94285949606E+02  0.00000000000E+00 0.  1.
          5    1    1    2  502    0  0.34124082347E+02 -0.48809768788E+02  0.11338720267E+03  0.12814435865E+03  0.41800000000E+01 0.  1.
         -5    1    1    2    0  502 -0.50973890353E+02 -0.12294445737E+03  0.57479271493E+02  0.14503453433E+03  0.41800000000E+01 0.  1.
        -11    1    1    2    0    0  0.55539334782E+01  0.38040991036E+02 -0.35099785372E+01  0.38604185335E+02  0.00000000000E+00 0.  1.
         11    1    1    2    0    0  0.11295874528E+02  0.13371323513E+03  0.18187679153E+03  0.22602210804E+03  0.00000000000E+00 0. -1.
</event>
<event>
 6    1  0.8259171E-006  0.1134684E+03  0.7561462E-02  0.1254279E+00
          2   -1    0    0  501    0  0.00000000000E+00  0.00000000000E+00  0.46692848888E+03  0.46692848888E+03  0.00000000000E+00 0. -1.
         -2   -1    0    0    0  501 -0.00000000000E+00 -0.00000000000E+00 -0.42404323901E+02  0.42404323901E+02  0.00000000000E+00 0.  1.
          5    1    1    2  502    0  0.96488850829E+01 -0.82524916136E+02  0.30009701605E+02  0.88439342812E+02  0.41800000000E+01 0.  1.
         -5    1    1    2    0  502  0.20464486078E+02  0.16818810387E+02  0.10827315984E+03  0.11154468663E+03  0.41800000000E+01 0.  1.
        -11    1    1    2    0    0  0.22494597501E+01  0.81071393663E+02  0.20974569475E+03  0.22487971764E+03  0.00000000000E+00 0. -1.
         11    1    1    2    0    0 -0.32362830911E+02 -0.15365287914E+02  0.76495608779E+02  0.84469065697E+02  0.00000000000E+00 0.  1.
</event>
<event>
 6    1  0.8259171E-006  0.1134490E+03  0.7561462E-02  0.1254313E+00
          1   -1    0    0  501    0  0.00000000000E+00  0.00000000000E+00  0.27443628096E+02  0.27443628096E+02  0.00000000000E+00 0. -1.
         -1   -1    0    0    0  501 -0.00000000000E+00 -0.00000000000E+00 -0.57635096859E+03  0.57635096859E+03  0.00000000000E+00 0.  1.
          5    1    1    2  502    0  0.46947283678E+02  0.15883525238E+02 -0.14522754348E+03  0.15350845450E+03  0.41800000000E+01 0. -1.
         -5    1    1    2    0  502 -0.82034721744E+02  0.33023357678E+02 -0.21197793984E+03  0.22972234785E+03  0.41800000000E+01 0. -1.
        -11    1    1    2    0    0  0.37720427344E+02  0.18870466517E+01 -0.15032578986E+03  0.15499753121E+03  0.00000000000E+00 0.  1.
         11    1    1    2    0    0 -0.26329892776E+01 -0.50793929568E+02 -0.41376067318E+02  0.65566263125E+02  0.00000000000E+00 0. -1.
</event>
<event>
 6    1  0.8259171E-006  0.2373580E+03  0.7561462E-02  0.1121565E+00
          1   -1    0    0  501    0  0.00000000000E+00  0.00000000000E+00  0.94033088451E+03  0.94033088451E+03  0.00000000000E+00 0. -1.
         -1   -1    0    0    0  501 -0.00000000000E+00 -0.00000000000E+00 -0.82535346660E+02  0.82535346660E+02  0.00000000000E+00 0.  1.
          5    1    1    2  502    0 -0.44767397787E+02  0.72762945590E+02  0.19550709624E+02  0.87739778905E+02  0.41800000000E+01 0. -1.
         -5    1    1    2    0  502  0.13602353784E+02  0.15178154519E+03  0.20170981227E+03  0.25283785763E+03  0.41800000000E+01 0. -1.
        -11    1    1    2    0    0 -0.15063084100E+02 -0.13616345506E+03  0.45477194840E+03  0.47495779607E+03  0.00000000000E+00 0.  1.
         11    1    1    2    0    0  0.46228128102E+02 -0.88381035720E+02  0.18176306756E+03  0.20733079856E+03  0.00000000000E+00 0. -1.
</event>
<event>
 6    1  0.8259171E-006  0.2219543E+03  0.7561462E-02  0.1132434E+00
          2   -1    0    0  501    0  0.00000000000E+00  0.00000000000E+00  0.26276418093E+03  0.26276418093E+03  0.00000000000E+00 0. -1.
         -2   -1    0    0    0  501 -0.00000000000E+00 -0.00000000000E+00 -0.21712671399E+03  0.21712671399E+03  0.00000000000E+00 0.  1.
          5    1    1    2  502    0  0.21049996174E+02 -0.21988057608E+03  0.66957846895E+02  0.23084929226E+03  0.41800000000E+01 0. -1.
         -5    1    1    2    0  502 -0.60085931961E+01  0.93178666777E+01 -0.15855280137E+02  0.19793638873E+02  0.41800000000E+01 0. -1.
        -11    1    1    2    0    0 -0.23221218734E+01  0.56382707553E+02 -0.41932001532E+02  0.70304300818E+02  0.00000000000E+00 0.  1.
         11    1    1    2    0    0 -0.12719281105E+02  0.15418000184E+03  0.36466901713E+02  0.15894366298E+03  0.00000000000E+00 0. -1.
</event>
<event>
 6    1  0.8259171E-006  0.1134717E+03  0.7561462E-02  0.1254273E+00
         -2   -1    0    0    0  501 -0.00000000000E+00  0.00000000000E+00  0.58050306140E+02  0.58050306140E+02  0.00000000000E+00 0.  1.
          2   -1    0    0  501    0  0.00000000000E+00 -0.00000000000E+00 -0.37108314958E+03  0.37108314958E+03  0.00000000000E+00 0. -1.
          5    1    1    2  502    0  0.24896814071E+02  0.37137599502E+02 -0.14399984048E+03  0.15083924922E+03  0.41800000000E+01 0.  1.
         -5    1    1    2    0  502 -0.41556187445E+02  0.55680002712E+02 -0.12721955153E+02  0.70756624848E+02  0.41800000000E+01 0.  1.
        -11    1    1    2    0    0 -0.13245456528E+02 -0.77894599799E+02 -0.44166931452E+02  0.90519216912E+02  0.00000000000E+00 0.  1.
         11    1    1    2    0    0  0.29904829902E+02 -0.14923002415E+02 -0.11214411636E+03  0.11701836474E+03  0.00000000000E+00 0. -1.
</event>
<event>
 6    1  0.8259171E-006  0.1722720E+03  0.7561462E-02  0.1175499E+00
         -2   -1    0    0    0  501 -0.00000000000E+00  0.00000000000E+00  0.32735706934E+02  0.32735706934E+02  0.00000000000E+00 0.  1.
          2   -1    0    0  501    0  0.00000000000E+00 -0.00000000000E+00 -0.11111109324E+04  0.11111109324E+04  0.00000000000E+00 0. -1.
          5    1    1    2  502    0  0.38470197233E+02  0.86213607342E+02 -0.17712402790E+03  0.20075640918E+03  0.41800000000E+01 0.  1.
         -5    1    1    2    0  502  0.93261960741E+02 -0.16619034234E+01 -0.38008503807E+03  0.39138556924E+03  0.41800000000E+01 0.  1.
        -11    1    1    2    0    0 -0.81735013513E+02 -0.48598348702E+02 -0.43809771333E+03  0.44829902783E+03  0.00000000000E+00 0. -1.
         11    1    1    2    0    0 -0.49997144461E+02 -0.35953355216E+02 -0.83068446172E+02  0.10340563309E+03  0.00000000000E+00 0.  1.
</event>
<event>
 6    1  0.8259171E-006  0.3365327E+03  0.7561462E-02  0.1068282E+00
         -1   -1    0    0    0  501 -0.00000000000E+00  0.00000000000E+00  0.77704001529E+02  0.77704001529E+02  0.00000000000E+00 0.  1.
          1   -1    0    0  501    0  0.00000000000E+00 -0.00000000000E+00 -0.19804406188E+04  0.19804406188E+04  0.00000000000E+00 0. -1.
          5    1    1    2  502    0 -0.11552855790E+03  0.41212078394E+02 -0.41829005996E+03  0.43592353659E+03  0.41800000000E+01 0. -1.
         -5    1    1    2    0  502 -0.11739850581E+02  0.23807470922E+03 -0.24404851953E+03  0.34116644552E+03  0.41800000000E+01 0.  1.
        -11    1    1    2    0    0  0.36976439526E+02 -0.32790261686E+02 -0.11027670846E+03  0.12084457278E+03  0.00000000000E+00 0. -1.
         11    1    1    2    0    0  0.90291968954E+02 -0.24649652593E+03 -0.11301213294E+04  0.11602100655E+04  0.00000000000E+00 0.  1.
</event>
<event>
 6    1  0.8259171E-006  0.9336044E+02  0.7561462E-02  0.1294912E+00
         -1   -1    0    0    0  501 -0.00000000000E+00  0.00000000000E+00  0.28283929543E+02  0.28283929543E+02  0.00000000000E+00 0.  1.
          1   -1    0    0  501    0  0.00000000000E+00 -0.00000000000E+00 -0.41794336876E+03  0.41794336876E+03  0.00000000000E+00 0. -1.
          5    1    1    2  502    0 -0.43220566424E+02 -0.22356987273E+02 -0.33505927063E+02  0.59228133436E+02  0.41800000000E+01 0. -1.
         -5    1    1    2    0  502  0.44744122962E+02  0.12550705727E+02 -0.20536718550E+03  0.21060083104E+03  0.41800000000E+01 0. -1.
        -11    1    1    2    0    0  0.44573839956E+02  0.38026736869E+01 -0.81312695626E+02  0.92806476097E+02  0.00000000000E+00 0. -1.
         11    1    1    2    0    0 -0.46097396493E+02  0.60036078599E+01 -0.69473631022E+02  0.83591857727E+02  0.00000000000E+00 0.  1.
</event>
<event>
 6    1  0.8259171E-006  0.1280982E+03  0.7561462E-02  0.1230305E+00
         -1   -1    0    0    0  501 -0.00000000000E+00  0.00000000000E+00  0.66596159232E+02  0.66596159232E+02  0.00000000000E+00 0.  1.
          1   -1    0    0  501    0  0.00000000000E+00 -0.00000000000E+00 -0.26314881954E+03  0.26314881954E+03  0.00000000000E+00 0. -1.
          5    1    1    2  502    0  0.48631018665E+02 -0.60415669099E+01 -0.20889033048E+02  0.53435012949E+02  0.41800000000E+01 0. -1.
         -5    1    1    2    0  502 -0.72491727375E+02 -0.59954487362E+02 -0.47605407733E+02  0.10551463566E+03  0.41800000000E+01 0. -1.
        -11    1    1    2    0    0 -0.10005589089E+01 -0.21686472687E+02 -0.21106696257E+02  0.30278653250E+02  0.00000000000E+00 0.  1.
         11    1    1    2    0    0  0.24861267619E+02  0.87682526959E+02 -0.10695152327E+03  0.14051667692E+03  0.00000000000E+00 0. -1.
</event>
<event>
 6    1  0.8259171E-006  0.1295322E+03  0.7561462E-02  0.1228151E+00
          1   -1    0    0  501    0  0.00000000000E+00  0.00000000000E+00  0.22174881846E+03  0.22174881846E+03  0.00000000000E+00 0. -1.
         -1   -1    0    0    0  501 -0.00000000000E+00 -0.00000000000E+00 -0.16456305665E+03  0.16456305665E+03  0.00000000000E+00 0.  1.
          5    1    1    2  502    0 -0.57777415922E+02  0.83043028901E+02 -0.19573386711E+02  0.10312596330E+03  0.41800000000E+01 0. -1.
         -5    1    1    2    0  502 -0.13678173471E+02 -0.21284623062E+02 -0.76571114163E+02  0.80751071402E+02  0.41800000000E+01 0. -1.
        -11    1    1    2    0    0 -0.21767499104E+02 -0.21595998167E+02  0.34939990949E+02  0.46486709085E+02  0.00000000000E+00 0. -1.
         11    1    1    2    0    0  0.93223088496E+02 -0.40162407672E+02  0.11839027174E+03  0.15594813132E+03  0.00000000000E+00 0.  1.
</event>
<event>
 6    1  0.8259171E-006  0.1119991E+03  0.7561462E-02  0.1256912E+00
          4   -1    0    0  501    0  0.00000000000E+00  0.00000000000E+00  0.75937950424E+02  0.75937950424E+02  0.00000000000E+00 0.  1.
         -4   -1    0    0    0  501 -0.00000000000E+00 -0.00000000000E+00 -0.20770288186E+03  0.20770288186E+03  0.00000000000E+00 0. -1.
          5    1    1    2  502    0  0.25721937439E+02  0.10364119214E+02 -0.73685918196E+02  0.78842374223E+02  0.41800000000E+01 0.  1.
         -5    1    1    2    0  502 -0.70724851540E+02 -0.58268075955E+02 -0.30316966263E+02  0.96611407940E+02  0.41800000000E+01 0.  1.
        -11    1    1    2    0    0  0.67542573587E+02  0.24818463623E+02 -0.23178538454E+02  0.75598941978E+02  0.00000000000E+00 0. -1.
         11    1    1    2    0    0 -0.22539659485E+02  0.23085493118E+02 -0.45835085260E+01  0.32588108147E+02  0.00000000000E+00 0.  1.
</event>
<event>
 6    1  0.8259171E-006  0.1070782E+03  0.7561462E-02  0.1266078E+00
          1   -1    0    0  501    0  0.00000000000E+00  0.00000000000E+00  0.27411997028E+03  0.27411997028E+03  0.00000000000E+00 0. -1.
         -1   -1    0    0    0  501 -0.00000000000E+00 -0.00000000000E+00 -0.54121158528E+02  0.54121158528E+02  0.00000000000E+00 0.  1.
          5    1    1    2  502    0  0.10655563873E+02 -0.76068293087E+02  0.77987216514E+02  0.10954179382E+03  0.41800000000E+01 0. -1.
         -5    1    1    2    0  502 -0.47312748963E+02  0.34369030211E+02  0.38192683142E+02  0.69970564509E+02  0.41800000000E+01 0. -1.
        -11    1    1    2    0    0  0.23022976012E+02  0.54958313384E+02  0.11289575192E+03  0.12765549121E+03  0.00000000000E+00 0. -1.
         11    1    1    2    0    0  0.13634209079E+02 -0.13259050507E+02 -0.90768398291E+01  0.21073279261E+02  0.00000000000E+00 0.  1.
</event>
<event>
 6    1  0.8259171E-006  0.2660197E+03  0.7561462E-02  0.1103579E+00
         -2   -1    0    0    0  501 -0.00000000000E+00  0.00000000000E+00  0.31641024276E+03  0.31641024276E+03  0.00000000000E+00 0.  1.
          2   -1    0    0  501    0  0.00000000000E+00 -0.00000000000E+00 -0.75134580252E+03  0.75134580252E+03  0.00000000000E+00 0. -1.
          5    1    1    2  502    0 -0.91110864664E+02  0.40639964060E+02  0.18439959251E+03  0.20969854185E+03  0.41800000000E+01 0. -1.
         -5    1    1    2    0  502 -0.14287801151E+03  0.73819027171E+02  0.20233117001E+02  0.16214261120E+03  0.41800000000E+01 0.  1.
        -11    1    1    2    0    0  0.64842113876E+02  0.37555433320E+01 -0.20074756187E+03  0.21099333505E+03  0.00000000000E+00 0.  1.
         11    1    1    2    0    0  0.16914676229E+03 -0.11821453456E+03 -0.43882070740E+03  0.48492155718E+03  0.00000000000E+00 0. -1.
</event>
<event>
 6    1  0.8259171E-006  0.9111262E+02  0.7561462E-02  0.1300179E+00
          2   -1    0    0  501    0  0.00000000000E+00  0.00000000000E+00  0.47022254161E+03  0.47022254161E+03  0.00000000000E+00 0. -1.
         -2   -1    0    0    0  501 -0.00000000000E+00 -0.00000000000E+00 -0.45154086822E+02  0.45154086822E+02  0.00000000000E+00 0.  1.
          5    1    1    2  502    0 -0.78935005691E+01  0.42895457323E+02  0.13577933187E+03  0.14267384824E+03  0.41800000000E+01 0. -1.
         -5    1    1    2    0  502 -0.22846501877E+02  0.23326219558E+02 -0.23615767480E+02  0.40512368982E+02  0.41800000000E+01 0. -1.
        -11    1    1    2    0    0  0.84492028627E+01  0.17189676585E+02  0.11038497449E+03  0.11203444382E+03  0.00000000000E+00 0.  1.
         11    1    1    2    0    0  0.22290799584E+02 -0.83411353466E+02  0.20251991591E+03  0.22015596738E+03  0.00000000000E+00 0. -1.
</event>
<event>
 6    1  0.8259171E-006  0.1436124E+03  0.7561462E-02  0.1208549E+00
          2   -1    0    0  501    0  0.00000000000E+00  0.00000000000E+00  0.13025809572E+03  0.13025809572E+03  0.00000000000E+00 0. -1.
         -2   -1    0    0    0  501 -0.00000000000E+00 -0.00000000000E+00 -0.16064707557E+03  0.16064707557E+03  0.00000000000E+00 0.  1.
          5    1    1    2  502    0  0.95499922116E+02  0.71072048313E+02 -0.72901755984E+01  0.11934022891E+03  0.41800000000E+01 0. -1.
         -5    1    1    2    0  502 -0.36605431848E+02  0.14963166146E+01 -0.61758326335E+01  0.37387296144E+02  0.41800000000E+01 0. -1.
        -11    1    1    2    0    0 -0.38865018356E+02 -0.94109889254E+02 -0.22408510528E+02  0.10425594588E+03  0.00000000000E+00 0.  1.
         11    1    1    2    0    0 -0.20029471911E+02  0.21541524326E+02  0.54855389035E+01  0.29921700359E+02  0.00000000000E+00 0. -1.
</event>
<event>
 6    1  0.8259171E-006  0.9670672E+02  0.7561462E-02  0.1287378E+00
          4   -1    0    0  501    0  0.00000000000E+00  0.00000000000E+00  0.12794807248E+03  0.12794807248E+03  0.00000000000E+00 0. -1.
         -4   -1    0    0    0  501 -0.00000000000E+00 -0.00000000000E+00 -0.13601587538E+03  0.13601587538E+03  0.00000000000E+00 0.  1.
          5    1    1    2  502    0  0.47497887885E+02 -0.28914763893E+02 -0.13056305831E+02  0.57271742129E+02  0.41800000000E+01 0. -1.
         -5    1    1    2    0  502 -0.29618342431E+02  0.66880983470E+02 -0.51946811465E+02  0.89812336456E+02  0.41800000000E+01 0. -1.
        -11    1    1    2    0    0 -0.15634184076E+02  0.85465232529E+01 -0.20102040690E+02  0.26861921215E+02  0.00000000000E+00 0.  1.
         11    1    1    2    0    0 -0.22453613785E+01 -0.46512742831E+02  0.77037355093E+02  0.90017948061E+02  0.00000000000E+00 0. -1.
</event>
<event>
 6    1  0.8368392E-006  0.1422616E+03  0.7561462E-02  0.1210318E+00
         -2   -1    0    0    0  501 -0.00000000000E+00  0.00000000000E+00  0.24702339388E+02  0.24702339388E+02  0.00000000000E+00 0. -1.
          2   -1    0    0  501    0  0.00000000000E+00 -0.00000000000E+00 -0.11076427403E+04  0.11076427403E+04  0.00000000000E+00 0.  1.
          5    1    1    2  502    0 -0.18394996000E+02 -0.15344616853E+02 -0.27499021387E+03  0.27606325954E+03  0.41800000000E+01 0. -1.
         -5    1    1    2    0  502 -0.91177807379E+02  0.66430982872E+02 -0.19824695923E+03  0.22813548012E+03  0.41800000000E+01 0. -1.
        -11    1    1    2    0    0  0.92178593253E+02 -0.74240402076E+02 -0.53697827235E+03  0.54986743432E+03  0.00000000000E+00 0.  1.
         11    1    1    2    0    0  0.17394210126E+02  0.23154036057E+02 -0.72724955462E+02  0.78278905706E+02  0.00000000000E+00 0. -1.
</event>
<event>
 6    1  0.8259171E-006  0.1133856E+03  0.7561462E-02  0.1254426E+00
          2   -1    0    0  501    0  0.00000000000E+00  0.00000000000E+00  0.35066079094E+03  0.35066079094E+03  0.00000000000E+00 0. -1.
         -2   -1    0    0    0  501 -0.00000000000E+00 -0.00000000000E+00 -0.76304143007E+02  0.76304143007E+02  0.00000000000E+00 0.  1.
          5    1    1    2  502    0 -0.44389256775E+02  0.42837568885E+02 -0.37288242775E+02  0.72203523974E+02  0.41800000000E+01 0.  1.
         -5    1    1    2    0  502 -0.37662553481E+02  0.53864216269E+01  0.83145032548E+02  0.91531690196E+02  0.41800000000E+01 0.  1.
        -11    1    1    2    0    0  0.42677410500E+02 -0.69766193314E+02  0.11446410982E+03  0.14067947801E+03  0.00000000000E+00 0.  1.
         11    1    1    2    0    0  0.39374399755E+02  0.21542202802E+02  0.11403574833E+03  0.12255024176E+03  0.00000000000E+00 0. -1.
</event>
<event>
 6    1  0.8259171E-006  0.9972564E+02  0.7561462E-02  0.1280874E+00
          1   -1    0    0  501    0  0.00000000000E+00  0.00000000000E+00  0.21033620882E+03  0.21033620882E+03  0.00000000000E+00 0. -1.
         -1   -1    0    0    0  501 -0.00000000000E+00 -0.00000000000E+00 -0.72698013801E+02  0.72698013801E+02  0.00000000000E+00 0.  1.
          5    1    1    2  502    0  0.78904757249E+02  0.10281415102E+02  0.74673469501E+02  0.10920287386E+03  0.41800000000E+01 0. -1.
         -5    1    1    2    0  502 -0.29060675888E+02 -0.87808941728E+01 -0.19499916245E+02  0.36322804395E+02  0.41800000000E+01 0. -1.
        -11    1    1    2    0    0  0.45217626276E+01  0.27251744277E+02 -0.74145894238E+01  0.28602098520E+02  0.00000000000E+00 0.  1.
         11    1    1    2    0    0 -0.54365843988E+02 -0.28752265207E+02  0.89879231186E+02  0.10890644584E+03  0.00000000000E+00 0. -1.
</event>
<event>
 6    1  0.8259171E-006  0.2282948E+03  0.7561462E-02  0.1127846E+00
         -2   -1    0    0    0  501 -0.00000000000E+00  0.00000000000E+00  0.33356528022E+03  0.33356528022E+03  0.00000000000E+00 0.  1.
          2   -1    0    0  501    0  0.00000000000E+00 -0.00000000000E+00 -0.18642420428E+03  0.18642420428E+03  0.00000000000E+00 0. -1.
          5    1    1    2  502    0  0.11036137835E+02 -0.59499666150E+02 -0.70486308002E+01  0.61066866683E+02  0.41800000000E+01 0. -1.
         -5    1    1    2    0  502 -0.11559965607E+03 -0.13289950824E+03  0.13346754240E+03  0.22103532987E+03  0.41800000000E+01 0. -1.
        -11    1    1    2    0    0  0.35954372241E+02  0.49026375970E+02 -0.34158514894E+02  0.69735977542E+02  0.00000000000E+00 0.  1.
         11    1    1    2    0    0  0.68609145997E+02  0.14337279842E+03  0.54880679223E+02  0.16815131041E+03  0.00000000000E+00 0. -1.
</event>
<event>
 6    1  0.8259171E-006  0.2228350E+03  0.7561462E-02  0.1131787E+00
          1   -1    0    0  501    0  0.00000000000E+00  0.00000000000E+00  0.82333285558E+03  0.82333285558E+03  0.00000000000E+00 0. -1.
         -1   -1    0    0    0  501 -0.00000000000E+00 -0.00000000000E+00 -0.65743434071E+02  0.65743434071E+02  0.00000000000E+00 0.  1.
          5    1    1    2  502    0  0.64867510182E+01  0.12311951995E+02  0.22719377027E+02  0.26968585302E+02  0.41800000000E+01 0. -1.
         -5    1    1    2    0  502 -0.14680859436E+03 -0.15347564135E+03  0.23964419771E+03  0.32024108069E+03  0.41800000000E+01 0.  1.
        -11    1    1    2    0    0  0.17003643163E+02  0.78626605912E+02  0.21037419721E+03  0.22523003771E+03  0.00000000000E+00 0. -1.
         11    1    1    2    0    0  0.12331820018E+03  0.62537083442E+02  0.28485164957E+03  0.31663658595E+03  0.00000000000E+00 0.  1.
</event>
<event>
 6    1  0.8259171E-006  0.1107499E+03  0.7561462E-02  0.1259187E+00
          1   -1    0    0  501    0  0.00000000000E+00  0.00000000000E+00  0.32426764978E+03  0.32426764978E+03  0.00000000000E+00 0. -1.
         -1   -1    0    0    0  501 -0.00000000000E+00 -0.00000000000E+00 -0.57555901322E+02  0.57555901322E+02  0.00000000000E+00 0.  1.
          5    1    1    2  502    0 -0.41652979334E+02  0.16954734075E+02 -0.15744059490E+01  0.45192752174E+02  0.41800000000E+01 0. -1.
         -5    1    1    2    0  502  0.20652170554E+02 -0.82682864249E+02  0.84029922486E+02  0.11975587026E+03  0.41800000000E+01 0. -1.
        -11    1    1    2    0    0  0.39627304450E+02  0.26755516556E+02  0.29451201170E+02  0.56156514978E+02  0.00000000000E+00 0.  1.
         11    1    1    2    0    0 -0.18626495670E+02  0.38972613618E+02  0.15480503075E+03  0.16071841369E+03  0.00000000000E+00 0. -1.
</event>
<event>
 6    1  0.8259171E-006  0.1346734E+03  0.7561462E-02  0.1220681E+00
         -1   -1    0    0    0  501 -0.00000000000E+00  0.00000000000E+00  0.56830507218E+03  0.56830507218E+03  0.00000000000E+00 0.  1.
          1   -1    0    0  501    0  0.00000000000E+00 -0.00000000000E+00 -0.36816153857E+02  0.36816153857E+02  0.00000000000E+00 0. -1.
          5    1    1    2  502    0  0.16785221580E+02 -0.23279521458E+02  0.34403445926E+02  0.44997214073E+02  0.41800000000E+01 0. -1.
         -5    1    1    2    0  502 -0.84409037519E+02  0.85999062462E+02  0.32114002050E+03  0.34302931293E+03  0.41800000000E+01 0. -1.
        -11    1    1    2    0    0  0.27166531318E+02 -0.73114544344E+02  0.14655935694E+03  0.16602229406E+03  0.00000000000E+00 0. -1.
         11    1    1    2    0    0  0.40457284621E+02  0.10395003340E+02  0.29386094956E+02  0.51072404976E+02  0.00000000000E+00 0.  1.
</event>
<event>
 6    1  0.8259171E-006  0.2406221E+03  0.7561462E-02  0.1119379E+00
          2   -1    0    0  501    0  0.00000000000E+00  0.00000000000E+00  0.16244739697E+03  0.16244739697E+03  0.00000000000E+00 0.  1.
         -2   -1    0    0    0  501 -0.00000000000E+00 -0.00000000000E+00 -0.49109451038E+03  0.49109451038E+03  0.00000000000E+00 0. -1.
          5    1    1    2  502    0  0.91844799502E+02  0.18609141704E+03 -0.16521134690E+03  0.26528804012E+03  0.41800000000E+01 0.  1.
         -5    1    1    2    0  502 -0.17794458698E+01  0.33411734955E+02 -0.12682354430E+03  0.13122954793E+03  0.41800000000E+01 0.  1.
        -11    1    1    2    0    0 -0.65831568500E+02 -0.11338323177E+03  0.22703800589E+02  0.13306019397E+03  0.00000000000E+00 0.  1.
         11    1    1    2    0    0 -0.24233785132E+02 -0.10611992022E+03 -0.59316022800E+02  0.12396412534E+03  0.00000000000E+00 0. -1.
</event>
<event>
 6    1  0.8259171E-006  0.9920711E+02  0.7561462E-02  0.1281972E+00
         -2   -1    0    0    0  501 -0.00000000000E+00  0.00000000000E+00  0.12810741178E+02  0.12810741178E+02  0.00000000000E+00 0.  1.
          2   -1    0    0  501    0  0.00000000000E+00 -0.00000000000E+00 -0.93230218672E+03  0.93230218672E+03  0.00000000000E+00 0. -1.
          5    1    1    2  502    0 -0.59269705516E+02  0.51302829785E-02 -0.17452123800E+03  0.18435843602E+03  0.41800000000E+01 0.  1.
         -5    1    1    2    0  502  0.53994580487E+02  0.10508321659E+02 -0.39679478932E+03  0.40061130386E+03  0.41800000000E+01 0.  1.
        -11    1    1    2    0    0 -0.74624203584E+01 -0.45754332620E+02 -0.26349716551E+03  0.26754420738E+03  0.00000000000E+00 0. -1.
         11    1    1    2    0    0  0.12737545388E+02  0.35240880678E+02 -0.84678252708E+02  0.92598980638E+02  0.00000000000E+00 0.  1.
</event>
<event>
 6    1  0.8259171E-006  0.2436268E+03  0.7561462E-02  0.1117400E+00
         -2   -1    0    0    0  501 -0.00000000000E+00  0.00000000000E+00  0.69947376247E+02  0.69947376247E+02  0.00000000000E+00 0.  1.
          2   -1    0    0  501    0  0.00000000000E+00 -0.00000000000E+00 -0.95045544413E+03  0.95045544413E+03  0.00000000000E+00 0. -1.
          5    1    1    2  502    0 -0.57201883654E+02  0.46510295269E+02 -0.21581097637E+03  0.22809452642E+03  0.41800000000E+01 0.  1.
         -5    1    1    2    0  502 -0.38110645860E+01  0.17787396853E+03 -0.24144950283E+03  0.29994834174E+03  0.41800000000E+01 0.  1.
        -11    1    1    2    0    0  0.57396013535E+02 -0.14450962777E+03 -0.18842218799E+03  0.24429542733E+03  0.00000000000E+00 0.  1.
         11    1    1    2    0    0  0.36169347052E+01 -0.79874636036E+02 -0.23482540069E+03  0.24806452489E+03  0.00000000000E+00 0. -1.
</event>
<event>
 6    1  0.8259171E-006  0.1081453E+03  0.7561462E-02  0.1264043E+00
          2   -1    0    0  501    0  0.00000000000E+00  0.00000000000E+00  0.10247584490E+04  0.10247584490E+04  0.00000000000E+00 0. -1.
         -2   -1    0    0    0  501 -0.00000000000E+00 -0.00000000000E+00 -0.11542609883E+02  0.11542609883E+02  0.00000000000E+00 0.  1.
          5    1    1    2  502    0  0.49512395713E+02 -0.45431851961E+02  0.35920828218E+03  0.36546353154E+03  0.41800000000E+01 0.  1.
         -5    1    1    2    0  502 -0.46476579515E+02  0.33428695932E+02  0.23712719500E+03  0.24397608318E+03  0.41800000000E+01 0.  1.
        -11    1    1    2    0    0 -0.32210916900E+02 -0.27567847460E+02  0.20741885853E+03  0.21170761029E+03  0.00000000000E+00 0.  1.
         11    1    1    2    0    0  0.29175100702E+02  0.39571003488E+02  0.20946150338E+03  0.21515383384E+03  0.00000000000E+00 0. -1.
</event>
<event>
 6    1  0.8259171E-006  0.1253976E+03  0.7561462E-02  0.1234449E+00
         -1   -1    0    0    0  501 -0.00000000000E+00  0.00000000000E+00  0.13439690928E+03  0.13439690928E+03  0.00000000000E+00 0.  1.
          1   -1    0    0  501    0  0.00000000000E+00 -0.00000000000E+00 -0.14700752773E+03  0.14700752773E+03  0.00000000000E+00 0. -1.
          5    1    1    2  502    0 -0.46376181916E+01 -0.31621958035E+02 -0.94750148203E+01  0.33596190830E+02  0.41800000000E+01 0.  1.
         -5    1    1    2    0  502 -0.12602552057E+02  0.11647408075E+03  0.20856543503E+02  0.11906932271E+03  0.41800000000E+01 0.  1.
        -11    1    1    2    0    0  0.36138529750E+02 -0.61022122822E+02  0.21418602540E+02  0.74084069414E+02  0.00000000000E+00 0.  1.
         11    1    1    2    0    0 -0.18898359501E+02 -0.23829999890E+02 -0.45410749671E+02  0.54654854060E+02  0.00000000000E+00 0. -1.
</event>
<event>
 6    1  0.8259171E-006  0.1089173E+03  0.7561462E-02  0.1262588E+00
          3   -1    0    0  501    0  0.00000000000E+00  0.00000000000E+00  0.15941174596E+03  0.15941174596E+03  0.00000000000E+00 0. -1.
         -3   -1    0    0    0  501 -0.00000000000E+00 -0.00000000000E+00 -0.19467005374E+03  0.19467005374E+03  0.00000000000E+00 0.  1.
          5    1    1    2  502    0 -0.40071025429E+02  0.51454580566E+02 -0.54070775782E+02  0.84819703688E+02  0.41800000000E+01 0. -1.
         -5    1    1    2    0  502  0.66180745558E+02 -0.61216179530E+02 -0.88699172344E+02  0.12653982493E+03  0.41800000000E+01 0.  1.
        -11    1    1    2    0    0 -0.36470307424E+02 -0.11785035570E+02  0.64437250925E+01  0.38865048309E+02  0.00000000000E+00 0.  1.
         11    1    1    2    0    0  0.10360587295E+02  0.21546634533E+02  0.10106791526E+03  0.10385722278E+03  0.00000000000E+00 0. -1.
</event>
<event>
 6    1  0.8259171E-006  0.8860190E+02  0.7561462E-02  0.1306273E+00
         -1   -1    0    0    0  501 -0.00000000000E+00  0.00000000000E+00  0.22260700824E+03  0.22260700824E+03  0.00000000000E+00 0.  1.
          1   -1    0    0  501    0  0.00000000000E+00 -0.00000000000E+00 -0.83585535182E+02  0.83585535182E+02  0.00000000000E+00 0. -1.
          5    1    1    2  502    0 -0.45166397104E+02 -0.65026526250E+02  0.14131935118E+03  0.16204037756E+03  0.41800000000E+01 0.  1.
         -5    1    1    2    0  502 -0.87095542430E+01  0.19389350392E+02 -0.17310115032E+02  0.27729329710E+02  0.41800000000E+01 0.  1.
        -11    1    1    2    0    0  0.32937237907E+02  0.91427874511E+01 -0.36436369807E+02  0.49960596954E+02  0.00000000000E+00 0. -1.
         11    1    1    2    0    0  0.20938713441E+02  0.36494388407E+02  0.51448606723E+02  0.66462239200E+02  0.00000000000E+00 0.  1.
</event>
<event>
 6    1  0.8259171E-006  0.3713945E+03  0.7561462E-02  0.1054161E+00
          1   -1    0    0  501    0  0.00000000000E+00  0.00000000000E+00  0.23669867841E+03  0.23669867841E+03  0.00000000000E+00 0. -1.
         -1   -1    0    0    0  501 -0.00000000000E+00 -0.00000000000E+00 -0.72620984013E+03  0.72620984013E+03  0.00000000000E+00 0.  1.
          5    1    1    2  502    0 -0.75948843143E+01  0.26337259748E+02  0.36421797273E+01  0.27965539365E+02  0.41800000000E+01 0.  1.
         -5    1    1    2    0  502 -0.11740681138E+03  0.31773391128E+03 -0.43760993835E+03  0.55340683794E+03  0.41800000000E+01 0.  1.
        -11    1    1    2    0    0  0.80191732686E+02 -0.10014110338E+03 -0.47733304462E+01  0.12838122628E+03  0.00000000000E+00 0.  1.
         11    1    1    2    0    0  0.44809963008E+02 -0.24393006765E+03 -0.50770072655E+02  0.25315491496E+03  0.00000000000E+00 0. -1.
</event>
<event>
 6    1  0.8259171E-006  0.1335500E+03  0.7561462E-02  0.1222281E+00
          2   -1    0    0  501    0  0.00000000000E+00  0.00000000000E+00  0.69883378740E+03  0.69883378740E+03  0.00000000000E+00 0. -1.
         -2   -1    0    0    0  501 -0.00000000000E+00 -0.00000000000E+00 -0.33874896184E+02  0.33874896184E+02  0.00000000000E+00 0.  1.
          5    1    1    2  502    0  0.28828299181E+02 -0.76028060250E+02  0.32970344577E+03  0.33960737821E+03  0.41800000000E+01 0.  1.
         -5    1    1    2    0  502  0.52622775467E+02  0.50628502653E+01  0.43619203124E+02  0.68665101994E+02  0.41800000000E+01 0.  1.
        -11    1    1    2    0    0  0.75258389591E+01  0.36443719443E+02  0.36890249697E+02  0.52399174245E+02  0.00000000000E+00 0.  1.
         11    1    1    2    0    0 -0.88976913607E+02  0.34521490542E+02  0.25474599263E+03  0.27203702914E+03  0.00000000000E+00 0. -1.
</event>
<event>
 6    1  0.8259171E-006  0.1274724E+03  0.7561462E-02  0.1231255E+00
         -1   -1    0    0    0  501 -0.00000000000E+00  0.00000000000E+00  0.18623136140E+03  0.18623136140E+03  0.00000000000E+00 0.  1.
          1   -1    0    0  501    0  0.00000000000E+00 -0.00000000000E+00 -0.10589460511E+03  0.10589460511E+03  0.00000000000E+00 0. -1.
          5    1    1    2  502    0  0.30084789709E+02  0.21561620327E+02  0.30984506081E+02  0.48451109999E+02  0.41800000000E+01 0.  1.
         -5    1    1    2    0  502 -0.11252235460E+03  0.13468101528E+02  0.32355143913E+02  0.11792793469E+03  0.41800000000E+01 0.  1.
        -11    1    1    2    0    0  0.67573337340E+01 -0.27410026304E+02  0.37529015720E+02  0.46961666517E+02  0.00000000000E+00 0.  1.
         11    1    1    2    0    0  0.75680231158E+02 -0.76196955520E+01 -0.20531909430E+02  0.78785255303E+02  0.00000000000E+00 0. -1.
</event>
<event>
 6    1  0.8259171E-006  0.7889976E+02  0.7561462E-02  0.1332203E+00
          2   -1    0    0  501    0  0.00000000000E+00  0.00000000000E+00  0.31700851155E+03  0.31700851155E+03  0.00000000000E+00 0. -1.
         -2   -1    0    0    0  501 -0.00000000000E+00 -0.00000000000E+00 -0.46885992573E+02  0.46885992573E+02  0.00000000000E+00 0.  1.
          5    1    1    2  502    0 -0.46953804888E+02 -0.29693500929E+02  0.77940359874E+01  0.56254628146E+02  0.41800000000E+01 0. -1.
         -5    1    1    2    0  502  0.28892782763E+02 -0.24770182303E+02  0.14240165337E+03  0.14745866576E+03  0.41800000000E+01 0. -1.
        -11    1    1    2    0    0  0.20008790694E+02  0.16910464081E+02 -0.75580402351E+01  0.27266086493E+02  0.00000000000E+00 0.  1.
         11    1    1    2    0    0 -0.19477685687E+01  0.37553219152E+02  0.12748486986E+03  0.13291512372E+03  0.00000000000E+00 0. -1.
</event>
<event>
 6    1  0.8259171E-006  0.1067159E+03  0.7561462E-02  0.1266775E+00
          1   -1    0    0  501    0  0.00000000000E+00  0.00000000000E+00  0.19301921532E+03  0.19301921532E+03  0.00000000000E+00 0. -1.
         -1   -1    0    0    0  501 -0.00000000000E+00 -0.00000000000E+00 -0.65963633957E+02  0.65963633957E+02  0.00000000000E+00 0.  1.
          5    1    1    2  502    0 -0.40912938749E+02  0.14253889904E+02 -0.10503636647E+01  0.43538690820E+02  0.41800000000E+01 0. -1.
         -5    1    1    2    0  502  0.64800011342E+02 -0.33249143212E+02  0.75362088568E+02  0.10488786292E+03  0.41800000000E+01 0. -1.
        -11    1    1    2    0    0 -0.40523972667E+02 -0.26562112790E+02  0.29992618365E+02  0.56985044994E+02  0.00000000000E+00 0.  1.
         11    1    1    2    0    0  0.16636900074E+02  0.45557366099E+02  0.22751238095E+02  0.53571250544E+02  0.00000000000E+00 0. -1.
</event>
<event>
 6    1  0.8259171E-006  0.1410836E+03  0.7561462E-02  0.1211878E+00
         -2   -1    0    0    0  501 -0.00000000000E+00  0.00000000000E+00  0.14687029900E+03  0.14687029900E+03  0.00000000000E+00 0.  1.
          2   -1    0    0  501    0  0.00000000000E+00 -0.00000000000E+00 -0.14139900042E+03  0.14139900042E+03  0.00000000000E+00 0. -1.
          5    1    1    2  502    0  0.86802626968E+02  0.61807043275E+02 -0.52055013926E+01  0.10676786170E+03  0.41800000000E+01 0. -1.
         -5    1    1    2    0  502 -0.44049415231E+02  0.21686197518E+02  0.54992927021E+01  0.49581818898E+02  0.41800000000E+01 0. -1.
        -11    1    1    2    0    0 -0.62369723593E+02 -0.86253417928E+02  0.18514024140E+02  0.10803889862E+03  0.00000000000E+00 0.  1.
         11    1    1    2    0    0  0.19616511856E+02  0.27601771353E+01 -0.13336516870E+02  0.23880720203E+02  0.00000000000E+00 0. -1.
</event>
<event>
 6    1  0.8259171E-006  0.9903598E+02  0.7561462E-02  0.1282336E+00
         -2   -1    0    0    0  501 -0.00000000000E+00  0.00000000000E+00  0.28815172894E+03  0.28815172894E+03  0.00000000000E+00 0.  1.
          2   -1    0    0  501    0  0.00000000000E+00 -0.00000000000E+00 -0.59280237210E+02  0.59280237210E+02  0.00000000000E+00 0. -1.
          5    1    1    2  502    0  0.50043418931E+02  0.32484894600E+02  0.16788575470E+03  0.17822096170E+03  0.41800000000E+01 0.  1.
         -5    1    1    2    0  502  0.19065337578E+02 -0.26166756935E+02 -0.10661719396E+02  0.34341387944E+02  0.41800000000E+01 0.  1.
        -11    1    1    2    0    0  0.18150993832E+02 -0.18438182167E+01  0.36279077816E+02  0.40608247067E+02  0.00000000000E+00 0.  1.
         11    1    1    2    0    0 -0.87259750342E+02 -0.44743194488E+01  0.35368378610E+02  0.94261369445E+02  0.00000000000E+00 0. -1.
</event>
<event>
 6    1  0.8259171E-006  0.3307243E+03  0.7561462E-02  0.1070817E+00
         -1   -1    0    0    0  501 -0.00000000000E+00  0.00000000000E+00  0.24784962682E+03  0.24784962682E+03  0.00000000000E+00 0.  1.
          1   -1    0    0  501    0  0.00000000000E+00 -0.00000000000E+00 -0.49097404927E+03  0.49097404927E+03  0.00000000000E+00 0. -1.
          5    1    1    2  502    0 -0.27885440548E+01 -0.38588755285E+01  0.88006755689E+01  0.10843947102E+02  0.41800000000E+01 0.  1.
         -5    1    1    2    0  502  0.23721366304E+03  0.22036162280E+03 -0.22757346878E+03  0.39577357520E+03  0.41800000000E+01 0.  1.
        -11    1    1    2    0    0 -0.10543413276E+03 -0.40151035798E+02 -0.85027898423E+01  0.11314044132E+03  0.00000000000E+00 0.  1.
         11    1    1    2    0    0 -0.12899098622E+03 -0.17635171148E+03 -0.15848839390E+02  0.21906571246E+03  0.00000000000E+00 0. -1.
</event>
<event>
 6    1  0.8259171E-006  0.1456078E+03  0.7561462E-02  0.1205976E+00
          1   -1    0    0  501    0  0.00000000000E+00  0.00000000000E+00  0.28616368202E+03  0.28616368202E+03  0.00000000000E+00 0. -1.
         -1   -1    0    0    0  501 -0.00000000000E+00 -0.00000000000E+00 -0.98993672127E+02  0.98993672127E+02  0.00000000000E+00 0.  1.
          5    1    1    2  502    0  0.79704105002E+02  0.47460905641E+02  0.34226395647E+02  0.98965653019E+02  0.41800000000E+01 0. -1.
         -5    1    1    2    0  502  0.22538752600E+02 -0.74578198510E+02 -0.45496367314E+01  0.78154172353E+02  0.41800000000E+01 0. -1.
        -11    1    1    2    0    0 -0.71652046713E+02 -0.98788292217E+01  0.43634207048E+02  0.84472191221E+02  0.00000000000E+00 0.  1.
         11    1    1    2    0    0 -0.30590810890E+02  0.36996122091E+02  0.11385904393E+03  0.12356533756E+03  0.00000000000E+00 0. -1.
</event>
<event>
 6    1  0.8259171E-006  0.1129996E+03  0.7561462E-02  0.1255114E+00
         -1   -1    0    0    0  501 -0.00000000000E+00  0.00000000000E+00  0.60840716246E+02  0.60840716246E+02  0.00000000000E+00 0.  1.
          1   -1    0    0  501    0  0.00000000000E+00 -0.00000000000E+00 -0.27541948427E+03  0.27541948427E+03  0.00000000000E+00 0. -1.
          5    1    1    2  502    0  0.25082744764E+02 -0.10709588332E+02  0.14984301019E+02  0.31398105741E+02  0.41800000000E+01 0.  1.
         -5    1    1    2    0  502 -0.51997095363E+02  0.83733730773E+02 -0.91782509375E+02  0.13474619484E+03  0.41800000000E+01 0.  1.
        -11    1    1    2    0    0  0.90763176935E+01 -0.80064012578E+02 -0.10975080416E+03  0.13615382722E+03  0.00000000000E+00 0.  1.
         11    1    1    2    0    0  0.17838032906E+02  0.70398701363E+01 -0.28029755506E+02  0.33962072716E+02  0.00000000000E+00 0. -1.
</event>
<event>
 6    1  0.8259171E-006  0.2011782E+03  0.7561462E-02  0.1148749E+00
          2   -1    0    0  501    0  0.00000000000E+00  0.00000000000E+00  0.11713358259E+04  0.11713358259E+04  0.00000000000E+00 0. -1.
         -2   -1    0    0    0  501 -0.00000000000E+00 -0.00000000000E+00 -0.42364552509E+02  0.42364552509E+02  0.00000000000E+00 0.  1.
          5    1    1    2  502    0 -0.17070540631E+03 -0.94752201776E+01  0.24410181626E+03  0.29804913126E+03  0.41800000000E+01 0. -1.
         -5    1    1    2    0  502  0.15038336433E+01 -0.36632656715E+02  0.11428920521E+03  0.12009874222E+03  0.41800000000E+01 0. -1.
        -11    1    1    2    0    0  0.10637112959E+03  0.69865946123E+02  0.56960647108E+03  0.58365023733E+03  0.00000000000E+00 0.  1.
         11    1    1    2    0    0  0.62830443078E+02 -0.23758069230E+02  0.20097378080E+03  0.21190226757E+03  0.00000000000E+00 0. -1.
</event>
<event>
 6    1  0.8259171E-006  0.1268161E+03  0.7561462E-02  0.1232258E+00
          3   -1    0    0  501    0  0.00000000000E+00  0.00000000000E+00  0.54147156659E+03  0.54147156659E+03  0.00000000000E+00 0. -1.
         -3   -1    0    0    0  501 -0.00000000000E+00 -0.00000000000E+00 -0.41729487854E+02  0.41729487854E+02  0.00000000000E+00 0.  1.
          5    1    1    2  502    0  0.10439072783E+03 -0.22675943986E+02  0.16459375072E+03  0.19626563038E+03  0.41800000000E+01 0. -1.
         -5    1    1    2    0  502 -0.21508877022E+02 -0.19002649498E+01 -0.66513585169E+01  0.22977288085E+02  0.41800000000E+01 0. -1.
        -11    1    1    2    0    0 -0.94105486050E+02 -0.38352684790E+01  0.26888138607E+03  0.28489954645E+03  0.00000000000E+00 0.  1.
         11    1    1    2    0    0  0.11223635244E+02  0.28411477415E+02  0.72918300458E+02  0.79058589531E+02  0.00000000000E+00 0. -1.
</event>
<event>
 6    1  0.8259171E-006  0.1344594E+03  0.7561462E-02  0.1220985E+00
          1   -1    0    0  501    0  0.00000000000E+00  0.00000000000E+00  0.43710789952E+03  0.43710789952E+03  0.00000000000E+00 0. -1.
         -1   -1    0    0    0  501 -0.00000000000E+00 -0.00000000000E+00 -0.46137706556E+02  0.46137706556E+02  0.00000000000E+00 0.  1.
          5    1    1    2  502    0  0.29021597731E+02  0.21269716122E+02  0.20379869089E+02  0.41562788921E+02  0.41800000000E+01 0.  1.
         -5    1    1    2    0  502 -0.15640307358E+02 -0.10905339593E+03  0.17515480030E+03  0.20696361721E+03  0.41800000000E+01 0.  1.
        -11    1    1    2    0    0 -0.46389403327E+02  0.72502542486E+02  0.96499975729E+02  0.12930908987E+03  0.00000000000E+00 0.  1.
         11    1    1    2    0    0  0.33008112955E+02  0.15281137324E+02  0.98935547844E+02  0.10541011007E+03  0.00000000000E+00 0. -1.
</event>
<event>
 6    1  0.8259171E-006  0.9935308E+02  0.7561462E-02  0.1281662E+00
         -2   -1    0    0    0  501 -0.00000000000E+00  0.00000000000E+00  0.37192063252E+03  0.37192063252E+03  0.00000000000E+00 0.  1.
          2   -1    0    0  501    0  0.00000000000E+00 -0.00000000000E+00 -0.40506139486E+02  0.40506139486E+02  0.00000000000E+00 0. -1.
          5    1    1    2  502    0  0.66006699373E+02  0.33113489710E+02  0.19306861317E+03  0.20675190290E+03  0.41800000000E+01 0.  1.
         -5    1    1    2    0  502 -0.48111906486E+02  0.13223283385E+02  0.48103475214E+02  0.69433619356E+02  0.41800000000E+01 0.  1.
        -11    1    1    2    0    0 -0.31194601778E+02 -0.54403637506E+01 -0.47009139678E+01  0.32012487094E+02  0.00000000000E+00 0. -1.
         11    1    1    2    0    0  0.13299808891E+02 -0.40896409344E+02  0.94943318626E+02  0.10422876266E+03  0.00000000000E+00 0.  1.
</event>
<event>
 6    1  0.8259171E-006  0.1049844E+03  0.7561462E-02  0.1270150E+00
          3   -1    0    0  501    0  0.00000000000E+00  0.00000000000E+00  0.15832237708E+03  0.15832237708E+03  0.00000000000E+00 0. -1.
         -3   -1    0    0    0  501 -0.00000000000E+00 -0.00000000000E+00 -0.11395792952E+03  0.11395792952E+03  0.00000000000E+00 0.  1.
          5    1    1    2  502    0  0.50934266375E+02 -0.68318927147E+01  0.38509326064E+02  0.64353825396E+02  0.41800000000E+01 0.  1.
         -5    1    1    2    0  502 -0.22671406280E+01  0.50419975133E+02 -0.59805250348E+02  0.78367430660E+02  0.41800000000E+01 0.  1.
        -11    1    1    2    0    0  0.24866018120E+02 -0.84042492425E+01  0.23658035726E+01  0.26354265101E+02  0.00000000000E+00 0.  1.
         11    1    1    2    0    0 -0.73533143868E+02 -0.35183833176E+02  0.63294568271E+02  0.10320478543E+03  0.00000000000E+00 0. -1.
</event>
<event>
 6    1  0.8259171E-006  0.2127237E+03  0.7561462E-02  0.1139427E+00
         -1   -1    0    0    0  501 -0.00000000000E+00  0.00000000000E+00  0.10042782963E+04  0.10042782963E+04  0.00000000000E+00 0.  1.
          1   -1    0    0  501    0  0.00000000000E+00 -0.00000000000E+00 -0.52875513848E+02  0.52875513848E+02  0.00000000000E+00 0. -1.
          5    1    1    2  502    0 -0.57139358902E+01 -0.28542269892E+02  0.24295211193E+03  0.24472537941E+03  0.41800000000E+01 0. -1.
         -5    1    1    2    0  502 -0.93359129104E+02 -0.14719021230E+03  0.28449933143E+03  0.33367383411E+03  0.41800000000E+01 0. -1.
        -11    1    1    2    0    0  0.21102878757E+02  0.12915144182E+03  0.23091693973E+03  0.26542053324E+03  0.00000000000E+00 0.  1.
         11    1    1    2    0    0  0.77970186237E+02  0.46581040379E+02  0.19303439938E+03  0.21333406340E+03  0.00000000000E+00 0. -1.
</event>
<event>
 6    1  0.8259171E-006  0.1589355E+03  0.7561462E-02  0.1189904E+00
          1   -1    0    0  501    0  0.00000000000E+00  0.00000000000E+00  0.10128344796E+04  0.10128344796E+04  0.00000000000E+00 0. -1.
         -1   -1    0    0    0  501 -0.00000000000E+00 -0.00000000000E+00 -0.29786490761E+02  0.29786490761E+02  0.00000000000E+00 0.  1.
          5    1    1    2  502    0  0.45467690048E+02 -0.12158167586E+02  0.81588205023E+02  0.94282763409E+02  0.41800000000E+01 0.  1.
         -5    1    1    2    0  502 -0.72444581325E+01  0.12465135273E+03  0.25293833333E+03  0.28210940214E+03  0.41800000000E+01 0.  1.
        -11    1    1    2    0    0  0.26802536831E+02 -0.41632807082E+02  0.13533832462E+03  0.14411151487E+03  0.00000000000E+00 0. -1.
         11    1    1    2    0    0 -0.65025768746E+02 -0.70860378063E+02  0.51318312588E+03  0.52211728995E+03  0.00000000000E+00 0.  1.
</event>
<event>
 6    1  0.8259171E-006  0.9744011E+02  0.7561462E-02  0.1285773E+00
         -1   -1    0    0    0  501 -0.00000000000E+00  0.00000000000E+00  0.41381191843E+02  0.41381191843E+02  0.00000000000E+00 0.  1.
          1   -1    0    0  501    0  0.00000000000E+00 -0.00000000000E+00 -0.34900887373E+03  0.34900887373E+03  0.00000000000E+00 0. -1.
          5    1    1    2  502    0  0.37972783781E+02  0.47292478207E+02 -0.10812781922E+03  0.12404679961E+03  0.41800000000E+01 0.  1.
         -5    1    1    2    0  502 -0.44650503530E+02 -0.12667245180E+02 -0.25695597565E+01  0.46671207433E+02  0.41800000000E+01 0.  1.
        -11    1    1    2    0    0  0.37120664468E+02 -0.42110131555E+02 -0.74440214976E+02  0.93233859278E+02  0.00000000000E+00 0.  1.
         11    1    1    2    0    0 -0.30442944718E+02  0.74848985281E+01 -0.12249008794E+03  0.12643819926E+03  0.00000000000E+00 0. -1.
</event>
<event>
 6    1  0.8259171E-006  0.1205950E+03  0.7561462E-02  0.1242119E+00
         -4   -1    0    0    0  501 -0.00000000000E+00  0.00000000000E+00  0.83480241753E+02  0.83480241753E+02  0.00000000000E+00 0.  1.
          4   -1    0    0  501    0  0.00000000000E+00 -0.00000000000E+00 -0.27040734078E+03  0.27040734078E+03  0.00000000000E+00 0. -1.
          5    1    1    2  502    0 -0.75603232442E+02 -0.79270213621E+02 -0.47872640867E+02  0.11961972106E+03  0.41800000000E+01 0.  1.
         -5    1    1    2    0  502 -0.32198385835E+01  0.37675180723E+02  0.84054834091E+01  0.38960379289E+02  0.41800000000E+01 0.  1.
        -11    1    1    2    0    0  0.50404451809E+02  0.10663375142E+02 -0.14425702607E+03  0.15318095803E+03  0.00000000000E+00 0. -1.
         11    1    1    2    0    0  0.28418619216E+02  0.30931657757E+02 -0.32029154982E+01  0.42126524156E+02  0.00000000000E+00 0.  1.
</event>
<event>
 6    1  0.8259171E-006  0.1462647E+03  0.7561462E-02  0.1205139E+00
         -2   -1    0    0    0  501 -0.00000000000E+00  0.00000000000E+00  0.22424637099E+02  0.22424637099E+02  0.00000000000E+00 0.  1.
          2   -1    0    0  501    0  0.00000000000E+00 -0.00000000000E+00 -0.10086872273E+04  0.10086872273E+04  0.00000000000E+00 0. -1.
          5    1    1    2  502    0  0.17269018981E+02 -0.33270689724E+02 -0.13302773803E+03  0.13827150573E+03  0.41800000000E+01 0. -1.
         -5    1    1    2    0  502  0.44463453786E+02  0.11241633662E+03 -0.29726437191E+03  0.32093303144E+03  0.41800000000E+01 0. -1.
        -11    1    1    2    0    0  0.14871974491E+02 -0.49538003185E+02 -0.23102752669E+03  0.23674650467E+03  0.00000000000E+00 0. -1.
         11    1    1    2    0    0 -0.76604447258E+02 -0.29607643707E+02 -0.32494295357E+03  0.33516082256E+03  0.00000000000E+00 0.  1.
</event>
<event>
 6    1  0.8259171E-006  0.1019227E+03  0.7561462E-02  0.1276304E+00
          1   -1    0    0  501    0  0.00000000000E+00  0.00000000000E+00  0.66337420738E+03  0.66337420738E+03  0.00000000000E+00 0. -1.
         -1   -1    0    0    0  501 -0.00000000000E+00 -0.00000000000E+00 -0.19642442956E+02  0.19642442956E+02  0.00000000000E+00 0.  1.
          5    1    1    2  502    0  0.17708107489E+02 -0.41293564180E+02  0.56562745838E+02  0.72357115270E+02  0.41800000000E+01 0.  1.
         -5    1    1    2    0  502 -0.56483807128E+02  0.36792568349E+02  0.30039360660E+03  0.30789268397E+03  0.41800000000E+01 0.  1.
        -11    1    1    2    0    0  0.45153257499E+02 -0.31220229851E+02  0.11813275194E+03  0.13026460185E+03  0.00000000000E+00 0.  1.
         11    1    1    2    0    0 -0.63775578606E+01  0.35721225682E+02  0.16864266005E+03  0.17250224925E+03  0.00000000000E+00 0. -1.
</event>
<event>
 6    1  0.8259171E-006  0.1177023E+03  0.7561462E-02  0.1246936E+00
         -1   -1    0    0    0  501 -0.00000000000E+00  0.00000000000E+00  0.22523918042E+02  0.22523918042E+02  0.00000000000E+00 0.  1.
          1   -1    0    0  501    0  0.00000000000E+00 -0.00000000000E+00 -0.68610867659E+03  0.68610867659E+03  0.00000000000E+00 0. -1.
          5    1    1    2  502    0 -0.26317528793E+02  0.88172838510E+02 -0.26756518363E+03  0.28297643305E+03  0.41800000000E+01 0. -1.
         -5    1    1    2    0  502  0.29704945304E+02 -0.32197306352E+02 -0.16678717654E+03  0.17249488390E+03  0.41800000000E+01 0. -1.
        -11    1    1    2    0    0  0.30518395351E+02  0.36090943612E+01 -0.12259475174E+03  0.12638778094E+03  0.00000000000E+00 0. -1.
         11    1    1    2    0    0 -0.33905811861E+02 -0.59584626519E+02 -0.10663764663E+03  0.12677349674E+03  0.00000000000E+00 0.  1.
</event>
<event>
 6    1  0.8259171E-006  0.1110443E+03  0.7561462E-02  0.1258648E+00
          2   -1    0    0  501    0  0.00000000000E+00  0.00000000000E+00  0.82716596063E+03  0.82716596063E+03  0.00000000000E+00 0. -1.
         -2   -1    0    0    0  501 -0.00000000000E+00 -0.00000000000E+00 -0.28035822358E+02  0.28035822358E+02  0.00000000000E+00 0.  1.
          5    1    1    2  502    0 -0.11400634788E+02  0.87261265047E+02  0.36103042690E+03  0.37162473599E+03  0.41800000000E+01 0.  1.
         -5    1    1    2    0  502  0.10610850600E+02  0.15727341035E+02 -0.45502867768E+01  0.19952867369E+02  0.41800000000E+01 0.  1.
        -11    1    1    2    0    0 -0.22892456138E+02 -0.29446322356E+02  0.44577318519E+02  0.58123039964E+02  0.00000000000E+00 0.  1.
         11    1    1    2    0    0  0.23682240325E+02 -0.73542283726E+02  0.39807267963E+03  0.40550113967E+03  0.00000000000E+00 0. -1.
</event>
<event>
 6    1  0.8259171E-006  0.8165342E+02  0.7561462E-02  0.1324424E+00
          1   -1    0    0  501    0  0.00000000000E+00  0.00000000000E+00  0.37372413912E+03  0.37372413912E+03  0.00000000000E+00 0. -1.
         -1   -1    0    0    0  501 -0.00000000000E+00 -0.00000000000E+00 -0.30844111767E+03  0.30844111767E+03  0.00000000000E+00 0.  1.
          5    1    1    2  502    0  0.15281811592E+02 -0.13775878845E+02  0.34632478108E+02  0.40499253615E+02  0.41800000000E+01 0. -1.
         -5    1    1    2    0  502  0.20628634878E+02 -0.26340095510E+02 -0.29575307585E+03  0.29766876806E+03  0.41800000000E+01 0.  1.
        -11    1    1    2    0    0  0.32185328999E+02  0.72902262958E+01  0.97235556560E+02  0.10268298915E+03  0.00000000000E+00 0.  1.
         11    1    1    2    0    0 -0.68095775469E+02  0.32825748058E+02  0.22916806263E+03  0.24131424595E+03  0.00000000000E+00 0. -1.
</event>
<event>
 6    1  0.8259171E-006  0.7939716E+02  0.7561462E-02  0.1330771E+00
         -1   -1    0    0    0  501 -0.00000000000E+00  0.00000000000E+00  0.51055069096E+02  0.51055069096E+02  0.00000000000E+00 0.  1.
          1   -1    0    0  501    0  0.00000000000E+00 -0.00000000000E+00 -0.29917272125E+03  0.29917272125E+03  0.00000000000E+00 0. -1.
          5    1    1    2  502    0 -0.47472587114E+01 -0.49507648367E+02 -0.12968384481E+03  0.13895652456E+03  0.41800000000E+01 0.  1.
         -5    1    1    2    0  502  0.20922192130E+02  0.51126925751E+02 -0.25390148266E+02  0.60941223234E+02  0.41800000000E+01 0.  1.
        -11    1    1    2    0    0  0.17405578686E+02 -0.82394529037E+01 -0.11032137567E+03  0.11198950256E+03  0.00000000000E+00 0. -1.
         11    1    1    2    0    0 -0.33580512105E+02  0.66201755204E+01  0.17277716588E+02  0.38340540002E+02  0.00000000000E+00 0.  1.
</event>
<event>
 6    1  0.8259171E-006  0.1150246E+03  0.7561462E-02  0.1251538E+00
          1   -1    0    0  501    0  0.00000000000E+00  0.00000000000E+00  0.36219609830E+03  0.36219609830E+03  0.00000000000E+00 0. -1.
         -1   -1    0    0    0  501 -0.00000000000E+00 -0.00000000000E+00 -0.21068226066E+03  0.21068226066E+03  0.00000000000E+00 0.  1.
          5    1    1    2  502    0 -0.56519406607E+02 -0.27837054652E+02 -0.31801671313E+02  0.70697691852E+02  0.41800000000E+01 0. -1.
         -5    1    1    2    0  502  0.45681545311E+02  0.55790402156E+02 -0.14399552281E+03  0.16109486504E+03  0.41800000000E+01 0.  1.
        -11    1    1    2    0    0  0.23297926309E+01  0.33027103257E+02  0.14219595989E+03  0.14599968662E+03  0.00000000000E+00 0.  1.
         11    1    1    2    0    0  0.85080686651E+01 -0.60980450761E+02  0.18511507186E+03  0.19508611544E+03  0.00000000000E+00 0. -1.
</event>
<event>
 6    1  0.8259171E-006  0.1588458E+03  0.7561462E-02  0.1190006E+00
          2   -1    0    0  501    0  0.00000000000E+00  0.00000000000E+00  0.14982651601E+03  0.14982651601E+03  0.00000000000E+00 0.  1.
         -2   -1    0    0    0  501 -0.00000000000E+00 -0.00000000000E+00 -0.27995467611E+03  0.27995467611E+03  0.00000000000E+00 0. -1.
          5    1    1    2  502    0 -0.30824284149E+02  0.25090230130E+02 -0.76548176073E+02  0.86352485786E+02  0.41800000000E+01 0. -1.
         -5    1    1    2    0  502 -0.70986400400E+02 -0.11920971493E+03 -0.10453583442E+03  0.17376777104E+03  0.41800000000E+01 0. -1.
        -11    1    1    2    0    0  0.39900792047E+02  0.42704078981E+02  0.65605612059E+02  0.87862437374E+02  0.00000000000E+00 0.  1.
         11    1    1    2    0    0  0.61909892501E+02  0.51415405816E+02 -0.14649761663E+02  0.81798497917E+02  0.00000000000E+00 0. -1.
</event>
<event>
 6    1  0.8259171E-006  0.9855301E+02  0.7561462E-02  0.1283369E+00
         -3   -1    0    0    0  501 -0.00000000000E+00  0.00000000000E+00  0.80810461544E+02  0.80810461544E+02  0.00000000000E+00 0.  1.
          3   -1    0    0  501    0  0.00000000000E+00 -0.00000000000E+00 -0.21239828510E+03  0.21239828510E+03  0.00000000000E+00 0. -1.
          5    1    1    2  502    0  0.75566263958E+02  0.78070555019E+01 -0.12463502506E+02  0.77097481534E+02  0.41800000000E+01 0. -1.
         -5    1    1    2    0  502 -0.46080870546E+02 -0.18656669361E+02  0.14265534330E+02  0.51889264898E+02  0.41800000000E+01 0. -1.
        -11    1    1    2    0    0 -0.20179608060E+01 -0.25495919634E+02 -0.25793284847E+01  0.25705388914E+02  0.00000000000E+00 0.  1.
         11    1    1    2    0    0 -0.27467432605E+02  0.36345533493E+02 -0.13081052690E+03  0.13851661130E+03  0.00000000000E+00 0. -1.
</event>
<event>
 6    1  0.8259171E-006  0.1593846E+03  0.7561462E-02  0.1189393E+00
          2   -1    0    0  501    0  0.00000000000E+00  0.00000000000E+00  0.70846392980E+03  0.70846392980E+03  0.00000000000E+00 0. -1.
         -2   -1    0    0    0  501 -0.00000000000E+00 -0.00000000000E+00 -0.60340414770E+02  0.60340414770E+02  0.00000000000E+00 0.  1.
          5    1    1    2  502    0  0.74015997093E+02 -0.79370845689E+01  0.52668726448E+02  0.91284348509E+02  0.41800000000E+01 0.  1.
         -5    1    1    2    0  502  0.11243687898E+02  0.10374247933E+03  0.63086858134E+02  0.12200961685E+03  0.41800000000E+01 0.  1.
        -11    1    1    2    0    0 -0.65571507434E+01 -0.46383182309E+02  0.72294214672E+02  0.86144351539E+02  0.00000000000E+00 0.  1.
         11    1    1    2    0    0 -0.78702534248E+02 -0.49422212456E+02  0.46007371578E+03  0.46936602767E+03  0.00000000000E+00 0. -1.
</event>
<event>
 6    1  0.8259171E-006  0.1201019E+03  0.7561462E-02  0.1242929E+00
          1   -1    0    0  501    0  0.00000000000E+00  0.00000000000E+00  0.34153806775E+03  0.34153806775E+03  0.00000000000E+00 0. -1.
         -1   -1    0    0    0  501 -0.00000000000E+00 -0.00000000000E+00 -0.88029377849E+02  0.88029377849E+02  0.00000000000E+00 0.  1.
          5    1    1    2  502    0 -0.37398029104E+02 -0.22122679778E+02 -0.41870455069E+02  0.60486634467E+02  0.41800000000E+01 0. -1.
         -5    1    1    2    0  502 -0.61865048886E+02  0.47279179954E+02  0.67622390131E+02  0.10321271810E+03  0.41800000000E+01 0. -1.
        -11    1    1    2    0    0  0.74860160124E+02 -0.44807529940E+02  0.93003118114E+02  0.12751995253E+03  0.00000000000E+00 0.  1.
         11    1    1    2    0    0  0.24402917865E+02  0.19651029764E+02  0.13475363673E+03  0.13834814051E+03  0.00000000000E+00 0. -1.
</event>
<event>
 6    1  0.8259171E-006  0.9160295E+02  0.7561462E-02  0.1299016E+00
         -3   -1    0    0    0  501 -0.00000000000E+00  0.00000000000E+00  0.13731831719E+03  0.13731831719E+03  0.00000000000E+00 0.  1.
          3   -1    0    0  501    0  0.00000000000E+00 -0.00000000000E+00 -0.15649626382E+03  0.15649626382E+03  0.00000000000E+00 0. -1.
          5    1    1    2  502    0 -0.38048399746E+02 -0.64926592797E+02 -0.36395447616E+00  0.75370737281E+02  0.41800000000E+01 0. -1.
         -5    1    1    2    0  502  0.30214662254E+02  0.10986146058E+02  0.71502041696E+02  0.78508824899E+02  0.41800000000E+01 0. -1.
        -11    1    1    2    0    0  0.19016646366E+02  0.59827889142E+02 -0.16315370435E+02  0.64862936032E+02  0.00000000000E+00 0.  1.
         11    1    1    2    0    0 -0.11182908875E+02 -0.58874424032E+01 -0.74000663416E+02  0.75072082793E+02  0.00000000000E+00 0. -1.
</event>
<event>
 6    1  0.8259171E-006  0.1478822E+03  0.7561462E-02  0.1203100E+00
         -1   -1    0    0    0  501 -0.00000000000E+00  0.00000000000E+00  0.39326606646E+02  0.39326606646E+02  0.00000000000E+00 0.  1.
          1   -1    0    0  501    0  0.00000000000E+00 -0.00000000000E+00 -0.68994121552E+03  0.68994121552E+03  0.00000000000E+00 0. -1.
          5    1    1    2  502    0 -0.67065594265E+02  0.13147448347E+02 -0.26744088625E+03  0.27606656692E+03  0.41800000000E+01 0.  1.
         -5    1    1    2    0  502 -0.46110666357E+02 -0.62346564555E+02 -0.70772668782E+02  0.10506917107E+03  0.41800000000E+01 0.  1.
        -11    1    1    2    0    0  0.88000594563E+02  0.73491303924E+02 -0.26880250184E+03  0.29223254677E+03  0.00000000000E+00 0. -1.
         11    1    1    2    0    0  0.25175666059E+02 -0.24292187715E+02 -0.43598552008E+02  0.55899537411E+02  0.00000000000E+00 0.  1.
</event>
<event>
 6    1  0.8259171E-006  0.1969553E+03  0.7561462E-02  0.1152334E+00
          1   -1    0    0  501    0  0.00000000000E+00  0.00000000000E+00  0.88670988420E+02  0.88670988420E+02  0.00000000000E+00 0. -1.
         -1   -1    0    0    0  501 -0.00000000000E+00 -0.00000000000E+00 -0.53695657694E+03  0.53695657694E+03  0.00000000000E+00 0.  1.
          5    1    1    2  502    0  0.63431794213E+02 -0.12994801410E+03 -0.15809928185E+03  0.21429637003E+03  0.41800000000E+01 0. -1.
         -5    1    1    2    0  502 -0.42351552924E+02 -0.45473964342E+02 -0.14847132442E+03  0.16100540998E+03  0.41800000000E+01 0. -1.
        -11    1    1    2    0    0  0.16027972310E+02  0.11461070075E+03 -0.13641478708E+03  0.17888963848E+03  0.00000000000E+00 0.  1.
         11    1    1    2    0    0 -0.37108213599E+02  0.60811277693E+02 -0.53001951735E+01  0.71436146873E+02  0.00000000000E+00 0. -1.
</event>
<event>
 6    1  0.8259171E-006  0.2858407E+03  0.7561462E-02  0.1092541E+00
         -2   -1    0    0    0  501 -0.00000000000E+00  0.00000000000E+00  0.24644760188E+03  0.24644760188E+03  0.00000000000E+00 0.  1.
          2   -1    0    0  501    0  0.00000000000E+00 -0.00000000000E+00 -0.37582875206E+03  0.37582875206E+03  0.00000000000E+00 0. -1.
          5    1    1    2  502    0  0.64235725067E+02 -0.15289689364E+02  0.31009193023E+02  0.73068771905E+02  0.41800000000E+01 0. -1.
         -5    1    1    2    0  502  0.21964163637E+03  0.27398338656E+02 -0.11034414550E+03  0.24735888954E+03  0.41800000000E+01 0. -1.
        -11    1    1    2    0    0 -0.96358033693E+02 -0.39976692595E+01 -0.60527765292E+02  0.11386159312E+03  0.00000000000E+00 0. -1.
         11    1    1    2    0    0 -0.18751932774E+03 -0.81109800322E+01  0.10481567592E+02  0.18798709938E+03  0.00000000000E+00 0.  1.
</event>
<event>
 6    1  0.8259171E-006  0.1144143E+03  0.7561462E-02  0.1252607E+00
          4   -1    0    0  501    0  0.00000000000E+00  0.00000000000E+00  0.19439141312E+03  0.19439141312E+03  0.00000000000E+00 0.  1.
         -4   -1    0    0    0  501 -0.00000000000E+00 -0.00000000000E+00 -0.79964704212E+02  0.79964704212E+02  0.00000000000E+00 0. -1.
          5    1    1    2  502    0 -0.77151605010E+02 -0.31457647711E+02  0.13084903184E+02  0.84443121960E+02  0.41800000000E+01 0. -1.
         -5    1    1    2    0  502  0.44446963298E+02  0.13192446665E+02 -0.23931880824E+01  0.46613012610E+02  0.41800000000E+01 0. -1.
        -11    1    1    2    0    0  0.51101978871E+02 -0.21189330338E+02  0.57073573208E+02  0.79484543928E+02  0.00000000000E+00 0. -1.
         11    1    1    2    0    0 -0.18397337159E+02  0.39454531384E+02  0.46661420596E+02  0.63815438832E+02  0.00000000000E+00 0.  1.
</event>
<event>
 6    1  0.8259171E-006  0.1068395E+03  0.7561462E-02  0.1266537E+00
         -1   -1    0    0    0  501 -0.00000000000E+00  0.00000000000E+00  0.28385404174E+03  0.28385404174E+03  0.00000000000E+00 0.  1.
          1   -1    0    0  501    0  0.00000000000E+00 -0.00000000000E+00 -0.54423831898E+02  0.54423831898E+02  0.00000000000E+00 0. -1.
          5    1    1    2  502    0 -0.41225773216E+02 -0.30431111298E+02  0.88686289104E+02  0.10251022967E+03  0.41800000000E+01 0. -1.
         -5    1    1    2    0  502  0.73081081399E+02 -0.20001243469E+02  0.36337518029E+02  0.84135496761E+02  0.41800000000E+01 0. -1.
        -11    1    1    2    0    0  0.19045797150E+02  0.10983140899E+02  0.79667238189E+02  0.82645269760E+02  0.00000000000E+00 0.  1.
         11    1    1    2    0    0 -0.50901105333E+02  0.39449213868E+02  0.24739164524E+02  0.68986877449E+02  0.00000000000E+00 0. -1.
</event>
<event>
 6    1  0.8259171E-006  0.1154371E+03  0.7561462E-02  0.1250820E+00
         -2   -1    0    0    0  501 -0.00000000000E+00  0.00000000000E+00  0.18116932032E+02  0.18116932032E+02  0.00000000000E+00 0. -1.
          2   -1    0    0  501    0  0.00000000000E+00 -0.00000000000E+00 -0.95866641981E+03  0.95866641981E+03  0.00000000000E+00 0.  1.
          5    1    1    2  502    0  0.82669023687E+02 -0.47064861533E+01 -0.44970015608E+03  0.45727893158E+03  0.41800000000E+01 0.  1.
         -5    1    1    2    0  502 -0.12722907990E+02  0.31739673089E+02 -0.35929659978E+02  0.49776421142E+02  0.41800000000E+01 0.  1.
        -11    1    1    2    0    0 -0.82939301797E+02  0.64337253740E+00 -0.37718361687E+03  0.38619531657E+03  0.00000000000E+00 0.  1.
         11    1    1    2    0    0  0.12993186100E+02 -0.27676559473E+02 -0.77736054853E+02  0.83532682547E+02  0.00000000000E+00 0. -1.
</event>
<event>
 6    1  0.8259171E-006  0.1153262E+03  0.7561462E-02  0.1251013E+00
         -2   -1    0    0    0  501 -0.00000000000E+00  0.00000000000E+00  0.21079732004E+02  0.21079732004E+02  0.00000000000E+00 0.  1.
          2   -1    0    0  501    0  0.00000000000E+00 -0.00000000000E+00 -0.78504606540E+03  0.78504606540E+03  0.00000000000E+00 0. -1.
          5    1    1    2  502    0 -0.19101502407E+02  0.25835154944E+02 -0.17354945252E+03  0.17654803169E+03  0.41800000000E+01 0.  1.
         -5    1    1    2    0  502  0.75214630110E+02 -0.68618923704E+02 -0.22204181658E+03  0.24430685210E+03  0.41800000000E+01 0.  1.
        -11    1    1    2    0    0 -0.33265084486E+02  0.59415034543E+02 -0.33351300145E+03  0.34039335233E+03  0.00000000000E+00 0. -1.
         11    1    1    2    0    0 -0.22848043218E+02 -0.16631265783E+02 -0.34862062855E+02  0.44877561285E+02  0.00000000000E+00 0.  1.
</event>
<event>
 6    1  0.8259171E-006  0.9766755E+02  0.7561462E-02  0.1285279E+00
         -1   -1    0    0    0  501 -0.00000000000E+00  0.00000000000E+00  0.17193159803E+03  0.17193159803E+03  0.00000000000E+00 0.  1.
          1   -1    0    0  501    0  0.00000000000E+00 -0.00000000000E+00 -0.13256934583E+03  0.13256934583E+03  0.00000000000E+00 0. -1.
          5    1    1    2  502    0  0.51474210057E+01 -0.77967463967E+02  0.20577182338E+02  0.80909296211E+02  0.41800000000E+01 0.  1.
         -5    1    1    2    0  502  0.36412708788E+01  0.32797467492E+02  0.78225491011E+02  0.85003720927E+02  0.41800000000E+01 0.  1.
        -11    1    1    2    0    0 -0.16140813969E+02  0.62736993398E+02  0.10921706614E+02  0.65694291164E+02  0.00000000000E+00 0.  1.
         11    1    1    2    0    0  0.73521220848E+01 -0.17566996922E+02 -0.70362127764E+02  0.72893635549E+02  0.00000000000E+00 0. -1.
</event>
<event>
 6    1  0.8259171E-006  0.1199100E+03  0.7561462E-02  0.1243246E+00
          1   -1    0    0  501    0  0.00000000000E+00  0.00000000000E+00  0.30873016901E+02  0.30873016901E+02  0.00000000000E+00 0. -1.
         -1   -1    0    0    0  501 -0.00000000000E+00 -0.00000000000E+00 -0.51570340117E+03  0.51570340117E+03  0.00000000000E+00 0.  1.
          5    1    1    2  502    0 -0.66770218638E+02  0.66798212621E+02 -0.25506345891E+03  0.27202041059E+03  0.41800000000E+01 0.  1.
         -5    1    1    2    0  502  0.33727392629E+02 -0.23789135650E+02 -0.95443062299E+02  0.10406877788E+03  0.41800000000E+01 0.  1.
        -11    1    1    2    0    0  0.15735916025E+02  0.27233544156E+02 -0.29493742867E+02  0.43118045512E+02  0.00000000000E+00 0. -1.
         11    1    1    2    0    0  0.17306909985E+02 -0.70242621126E+02 -0.10483012020E+03  0.12736918409E+03  0.00000000000E+00 0.  1.
</event>
<event>
 6    1  0.8259171E-006  0.9918642E+02  0.7561462E-02  0.1282016E+00
         -2   -1    0    0    0  501 -0.00000000000E+00  0.00000000000E+00  0.20588054761E+02  0.20588054761E+02  0.00000000000E+00 0.  1.
          2   -1    0    0  501    0  0.00000000000E+00 -0.00000000000E+00 -0.64763258792E+03  0.64763258792E+03  0.00000000000E+00 0. -1.
          5    1    1    2  502    0  0.29787069701E+02 -0.26960381378E+02 -0.19434363208E+03  0.19849698087E+03  0.41800000000E+01 0.  1.
         -5    1    1    2    0  502 -0.38395874056E+02  0.54370941583E+02 -0.78343048630E+02  0.10288609285E+03  0.41800000000E+01 0.  1.
        -11    1    1    2    0    0  0.33196414661E+02  0.19372955922E+02 -0.20062549370E+03  0.20427408571E+03  0.00000000000E+00 0. -1.
         11    1    1    2    0    0 -0.24587610306E+02 -0.46783516126E+02 -0.15373235874E+03  0.16256348325E+03  0.00000000000E+00 0.  1.
</event>
<event>
 6    1  0.8259171E-006  0.9456885E+02  0.7561462E-02  0.1292150E+00
         -1   -1    0    0    0  501 -0.00000000000E+00  0.00000000000E+00  0.67387672510E+03  0.67387672510E+03  0.00000000000E+00 0.  1.
          1   -1    0    0  501    0  0.00000000000E+00 -0.00000000000E+00 -0.47426498553E+02  0.47426498553E+02  0.00000000000E+00 0. -1.
          5    1    1    2  502    0 -0.25762319994E+02 -0.40597438998E+01  0.51418540842E+03  0.51486336564E+03  0.41800000000E+01 0. -1.
         -5    1    1    2    0  502 -0.27556103403E+02 -0.41557678677E+02  0.66206905503E+02  0.82989193441E+02  0.41800000000E+01 0. -1.
        -11    1    1    2    0    0  0.74319565006E+02  0.15417598692E+02  0.41154336897E+02  0.86341065187E+02  0.00000000000E+00 0.  1.
         11    1    1    2    0    0 -0.21001141610E+02  0.30199823885E+02  0.49035757344E+01  0.37109599386E+02  0.00000000000E+00 0. -1.
</event>
<event>
 6    1  0.8259171E-006  0.1258939E+03  0.7561462E-02  0.1233679E+00
          2   -1    0    0  501    0  0.00000000000E+00  0.00000000000E+00  0.53530750726E+03  0.53530750726E+03  0.00000000000E+00 0. -1.
         -2   -1    0    0    0  501 -0.00000000000E+00 -0.00000000000E+00 -0.36654086191E+02  0.36654086191E+02  0.00000000000E+00 0.  1.
          5    1    1    2  502    0 -0.27680951243E+02  0.54590108829E+02  0.18665059963E+03  0.19647451179E+03  0.41800000000E+01 0. -1.
         -5    1    1    2    0  502 -0.46221469035E+02 -0.69181909479E+02  0.69943955017E+02  0.10877587068E+03  0.41800000000E+01 0.  1.
        -11    1    1    2    0    0  0.49610357001E+02 -0.28827931852E+02  0.16768625077E+03  0.17723124971E+03  0.00000000000E+00 0. -1.
         11    1    1    2    0    0  0.24292063277E+02  0.43419732502E+02  0.74372615662E+02  0.89479961272E+02  0.00000000000E+00 0.  1.
</event>
<event>
 6    1  0.8259171E-006  0.1092110E+03  0.7561462E-02  0.1262038E+00
         -3   -1    0    0    0  501 -0.00000000000E+00  0.00000000000E+00  0.15580386604E+03  0.15580386604E+03  0.00000000000E+00 0.  1.
          3   -1    0    0  501    0  0.00000000000E+00 -0.00000000000E+00 -0.12831474633E+03  0.12831474633E+03  0.00000000000E+00 0. -1.
          5    1    1    2  502    0  0.88431248381E+01 -0.71246758635E+02 -0.36542848741E+02  0.80666930442E+02  0.41800000000E+01 0. -1.
         -5    1    1    2    0  502  0.14706962466E+02 -0.12921916141E+02  0.73731307658E+02  0.76400581089E+02  0.41800000000E+01 0. -1.
        -11    1    1    2    0    0 -0.15535310043E+02  0.10397118218E+03 -0.10673999930E+02  0.10566592098E+03  0.00000000000E+00 0.  1.
         11    1    1    2    0    0 -0.80147772607E+01 -0.19802507402E+02  0.97466072404E+00  0.21385179856E+02  0.00000000000E+00 0. -1.
</event>
<event>
 6    1  0.8259171E-006  0.9561688E+02  0.7561462E-02  0.1289793E+00
          2   -1    0    0  501    0  0.00000000000E+00  0.00000000000E+00  0.35214034099E+03  0.35214034099E+03  0.00000000000E+00 0. -1.
         -2   -1    0    0    0  501 -0.00000000000E+00 -0.00000000000E+00 -0.35986336114E+02  0.35986336114E+02  0.00000000000E+00 0.  1.
          5    1    1    2  502    0 -0.12465675715E+02 -0.48969839945E+02  0.12480753961E+03  0.13471389178E+03  0.41800000000E+01 0. -1.
         -5    1    1    2    0  502 -0.16020093147E+01  0.70812012821E+02  0.82673041619E+02  0.10894591229E+03  0.41800000000E+01 0. -1.
        -11    1    1    2    0    0  0.38252206614E+02 -0.24219939693E+02  0.15004016564E+02  0.47696512478E+02  0.00000000000E+00 0.  1.
         11    1    1    2    0    0 -0.24184521584E+02  0.23777668171E+01  0.93669407083E+02  0.96770360559E+02  0.00000000000E+00 0. -1.
</event>
<event>
 6    1  0.8259171E-006  0.1475343E+03  0.7561462E-02  0.1203536E+00
          2   -1    0    0  501    0  0.00000000000E+00  0.00000000000E+00  0.69103507496E+03  0.69103507496E+03  0.00000000000E+00 0.  1.
         -2   -1    0    0    0  501 -0.00000000000E+00 -0.00000000000E+00 -0.42102389466E+02  0.42102389466E+02  0.00000000000E+00 0. -1.
          5    1    1    2  502    0 -0.67152339532E+02  0.25253938314E+01  0.37001662580E+02  0.76827142028E+02  0.41800000000E+01 0.  1.
         -5    1    1    2    0  502 -0.40011386491E+02  0.65243265417E+02  0.24501509799E+03  0.25672449313E+03  0.41800000000E+01 0.  1.
        -11    1    1    2    0    0  0.13688321549E+02 -0.55082165178E+02  0.84166043479E+02  0.10151521040E+03  0.00000000000E+00 0. -1.
         11    1    1    2    0    0  0.93475404474E+02 -0.12686494070E+02  0.28274988145E+03  0.29807061887E+03  0.00000000000E+00 0.  1.
</event>
<event>
 6    1  0.8259171E-006  0.1168426E+03  0.7561462E-02  0.1248399E+00
          2   -1    0    0  501    0  0.00000000000E+00  0.00000000000E+00  0.61896907251E+02  0.61896907251E+02  0.00000000000E+00 0.  1.
         -2   -1    0    0    0  501 -0.00000000000E+00 -0.00000000000E+00 -0.30753088826E+03  0.30753088826E+03  0.00000000000E+00 0. -1.
          5    1    1    2  502    0 -0.47886410197E+01  0.92503602901E+02 -0.15756992391E+03  0.18282669650E+03  0.41800000000E+01 0.  1.
         -5    1    1    2    0  502  0.67031413838E+01 -0.41504205858E+02 -0.63963419322E+02  0.76657175917E+02  0.41800000000E+01 0.  1.
        -11    1    1    2    0    0 -0.33512096528E+02  0.55183070633E+01  0.11740650470E+02  0.35935430984E+02  0.00000000000E+00 0.  1.
         11    1    1    2    0    0  0.31597596164E+02 -0.56517704106E+02 -0.35841288242E+02  0.74008492105E+02  0.00000000000E+00 0. -1.
</event>
<event>
 6    1  0.8259171E-006  0.2348891E+03  0.7561462E-02  0.1123245E+00
          1   -1    0    0  501    0  0.00000000000E+00  0.00000000000E+00  0.58377470157E+03  0.58377470157E+03  0.00000000000E+00 0. -1.
         -1   -1    0    0    0  501 -0.00000000000E+00 -0.00000000000E+00 -0.98202722796E+02  0.98202722796E+02  0.00000000000E+00 0.  1.
          5    1    1    2  502    0  0.17271548676E+02  0.17741825794E+02  0.15856155570E+02  0.29697960294E+02  0.41800000000E+01 0.  1.
         -5    1    1    2    0  502  0.10062136138E+03 -0.19536877306E+03  0.27273371179E+03  0.35027812635E+03  0.41800000000E+01 0.  1.
        -11    1    1    2    0    0 -0.26673261037E+01  0.60525098859E+02  0.29460752970E+02  0.67367189239E+02  0.00000000000E+00 0. -1.
         11    1    1    2    0    0 -0.11522558395E+03  0.11710184841E+03  0.16752135845E+03  0.23463414848E+03  0.00000000000E+00 0.  1.
</event>
<event>
 6    1  0.8259171E-006  0.1209846E+03  0.7561462E-02  0.1241482E+00
         -1   -1    0    0    0  501 -0.00000000000E+00  0.00000000000E+00  0.25442253484E+02  0.25442253484E+02  0.00000000000E+00 0.  1.
          1   -1    0    0  501    0  0.00000000000E+00 -0.00000000000E+00 -0.61419712783E+03  0.61419712783E+03  0.00000000000E+00 0. -1.
          5    1    1    2  502    0 -0.72231536481E+02  0.58614318989E+02 -0.17793618611E+03  0.20082776696E+03  0.41800000000E+01 0. -1.
         -5    1    1    2    0  502  0.49807559508E+02 -0.89403319640E+01 -0.10935913853E+03  0.12057203697E+03  0.41800000000E+01 0.  1.
        -11    1    1    2    0    0  0.53456097320E+02 -0.33468500147E+02 -0.14874239887E+03  0.16156112176E+03  0.00000000000E+00 0. -1.
         11    1    1    2    0    0 -0.31032120346E+02 -0.16205486878E+02 -0.15271715084E+03  0.15667845563E+03  0.00000000000E+00 0.  1.
</event>
<event>
 6    1  0.8259171E-006  0.1757881E+03  0.7561462E-02  0.1171943E+00
          2   -1    0    0  501    0  0.00000000000E+00  0.00000000000E+00  0.34774037301E+03  0.34774037301E+03  0.00000000000E+00 0. -1.
         -2   -1    0    0    0  501 -0.00000000000E+00 -0.00000000000E+00 -0.10777776946E+03  0.10777776946E+03  0.00000000000E+00 0.  1.
          5    1    1    2  502    0 -0.48419073662E+02  0.70699005603E+02  0.72846099960E+02  0.11254680256E+03  0.41800000000E+01 0. -1.
         -5    1    1    2    0  502 -0.96955378164E+02 -0.19407072950E+02  0.13596599844E+00  0.98967018356E+02  0.41800000000E+01 0. -1.
        -11    1    1    2    0    0  0.11027567985E+03 -0.66270119034E+02  0.15983150844E+03  0.20517934919E+03  0.00000000000E+00 0. -1.
         11    1    1    2    0    0  0.35098771972E+02  0.14978186381E+02  0.71490291556E+01  0.38824972364E+02  0.00000000000E+00 0.  1.
</event>
<event>
 6    1  0.8259171E-006  0.1118696E+03  0.7561462E-02  0.1257146E+00
          1   -1    0    0  501    0  0.00000000000E+00  0.00000000000E+00  0.24182390936E+03  0.24182390936E+03  0.00000000000E+00 0. -1.
         -1   -1    0    0    0  501 -0.00000000000E+00 -0.00000000000E+00 -0.15541066471E+03  0.15541066471E+03  0.00000000000E+00 0.  1.
          5    1    1    2  502    0 -0.11463556748E+02  0.10014755120E+02  0.21255928005E+02  0.26476316374E+02  0.41800000000E+01 0.  1.
         -5    1    1    2    0  502  0.39369265815E+02 -0.82120665282E+02 -0.11980068467E+03  0.15054374515E+03  0.41800000000E+01 0.  1.
        -11    1    1    2    0    0  0.48146907686E+01 -0.19200917742E+02  0.16243271734E+02  0.25606646910E+02  0.00000000000E+00 0. -1.
         11    1    1    2    0    0 -0.32720399835E+02  0.91306827904E+02  0.16871472958E+03  0.19460786563E+03  0.00000000000E+00 0.  1.
</event>
<event>
 6    1  0.8259171E-006  0.1017628E+03  0.7561462E-02  0.1276632E+00
          2   -1    0    0  501    0  0.00000000000E+00  0.00000000000E+00  0.77513848216E+03  0.77513848216E+03  0.00000000000E+00 0. -1.
         -2   -1    0    0    0  501 -0.00000000000E+00 -0.00000000000E+00 -0.14211733218E+02  0.14211733218E+02  0.00000000000E+00 0.  1.
          5    1    1    2  502    0  0.11051320722E+02 -0.45874924516E+02  0.10873193758E+03  0.11860331799E+03  0.41800000000E+01 0.  1.
         -5    1    1    2    0  502  0.28594428442E+00  0.75342426583E+02  0.34219996097E+03  0.35042095927E+03  0.41800000000E+01 0.  1.
        -11    1    1    2    0    0 -0.26378953496E+02  0.17314594803E+02  0.12223860591E+03  0.12624547974E+03  0.00000000000E+00 0. -1.
         11    1    1    2    0    0  0.15041688489E+02 -0.46782096869E+02  0.18775624448E+03  0.19408045838E+03  0.00000000000E+00 0.  1.
</event>
<event>
 6    1  0.8259171E-006  0.1330196E+03  0.7561462E-02  0.1223043E+00
         -2   -1    0    0    0  501 -0.00000000000E+00  0.00000000000E+00  0.16946228743E+03  0.16946228743E+03  0.00000000000E+00 0.  1.
          2   -1    0    0  501    0  0.00000000000E+00 -0.00000000000E+00 -0.13856885542E+03  0.13856885542E+03  0.00000000000E+00 0. -1.
          5    1    1    2  502    0 -0.33224303143E+02 -0.74686922902E+02  0.33007298951E+02  0.88254999609E+02  0.41800000000E+01 0.  1.
         -5    1    1    2    0  502 -0.65917753778E+02  0.31544023521E+02 -0.24826541469E+02  0.77291689361E+02  0.41800000000E+01 0.  1.
        -11    1    1    2    0    0  0.19062396812E+02 -0.18282303138E+01  0.44192316467E+02  0.48163038038E+02  0.00000000000E+00 0.  1.
         11    1    1    2    0    0  0.80079660109E+02  0.44971129695E+02 -0.21479641935E+02  0.94321415844E+02  0.00000000000E+00 0. -1.
</event>
<event>
 6    1  0.8259171E-006  0.1278532E+03  0.7561462E-02  0.1230676E+00
         -2   -1    0    0    0  501 -0.00000000000E+00  0.00000000000E+00  0.10349284970E+03  0.10349284970E+03  0.00000000000E+00 0.  1.
          2   -1    0    0  501    0  0.00000000000E+00 -0.00000000000E+00 -0.40704768228E+03  0.40704768228E+03  0.00000000000E+00 0. -1.
          5    1    1    2  502    0  0.69137008318E+02  0.63827993919E+02  0.43607895484E+02  0.10379335082E+03  0.41800000000E+01 0. -1.
         -5    1    1    2    0  502  0.28011264985E+02 -0.48367653719E+02 -0.14708210550E+02  0.57947085776E+02  0.41800000000E+01 0. -1.
        -11    1    1    2    0    0 -0.31691035552E+02 -0.23592316933E+02 -0.11908274445E+03  0.12546560955E+03  0.00000000000E+00 0.  1.
         11    1    1    2    0    0 -0.65457237751E+02  0.81319767332E+01 -0.21337177306E+03  0.22333448583E+03  0.00000000000E+00 0. -1.
</event>
<event>
 6    1  0.8259171E-006  0.1234009E+03  0.7561462E-02  0.1237590E+00
         -2   -1    0    0    0  501 -0.00000000000E+00  0.00000000000E+00  0.97374842406E+02  0.97374842406E+02  0.00000000000E+00 0.  1.
          2   -1    0    0  501    0  0.00000000000E+00 -0.00000000000E+00 -0.20754699081E+03  0.20754699081E+03  0.00000000000E+00 0. -1.
          5    1    1    2  502    0  0.84467586510E+02  0.32778838238E+02 -0.38300269424E+02  0.98456124467E+02  0.41800000000E+01 0.  1.
         -5    1    1    2    0  502 -0.78005089686E+01 -0.35856267344E+02  0.31366785412E+02  0.48454798267E+02  0.41800000000E+01 0.  1.
        -11    1    1    2    0    0 -0.61232364130E+02 -0.40181127178E+02 -0.70044848870E+02  0.10134202609E+03  0.00000000000E+00 0. -1.
         11    1    1    2    0    0 -0.15434713411E+02  0.43258556284E+02 -0.33193815526E+02  0.56668884399E+02  0.00000000000E+00 0.  1.
</event>
<event>
 6    1  0.8259171E-006  0.8767584E+02  0.7561462E-02  0.1308580E+00
          1   -1    0    0  501    0  0.00000000000E+00  0.00000000000E+00  0.40039783781E+02  0.40039783781E+02  0.00000000000E+00 0. -1.
         -1   -1    0    0    0  501 -0.00000000000E+00 -0.00000000000E+00 -0.43081288770E+03  0.43081288770E+03  0.00000000000E+00 0.  1.
          5    1    1    2  502    0  0.38133779716E+02 -0.24940829262E+02 -0.26114401774E+02  0.52684575539E+02  0.41800000000E+01 0.  1.
         -5    1    1    2    0  502  0.20694316230E+02  0.58153257982E+02 -0.25420973635E+03  0.26162973568E+03  0.41800000000E+01 0.  1.
        -11    1    1    2    0    0 -0.29201816557E+02 -0.19252012816E+02 -0.11787619554E+03  0.12295602288E+03  0.00000000000E+00 0.  1.
         11    1    1    2    0    0 -0.29626279389E+02 -0.13960415905E+02  0.74272297385E+01  0.33582337385E+02  0.00000000000E+00 0. -1.
</event>
<event>
 6    1  0.8259171E-006  0.1188103E+03  0.7561462E-02  0.1245073E+00
         -2   -1    0    0    0  501 -0.00000000000E+00  0.00000000000E+00  0.29135264371E+02  0.29135264371E+02  0.00000000000E+00 0.  1.
          2   -1    0    0  501    0  0.00000000000E+00 -0.00000000000E+00 -0.54217853778E+03  0.54217853778E+03  0.00000000000E+00 0. -1.
          5    1    1    2  502    0 -0.85998497856E+02 -0.37477230757E+02 -0.19788004953E+03  0.21903029667E+03  0.41800000000E+01 0.  1.
         -5    1    1    2    0  502  0.26582821101E+02  0.30904619743E+02 -0.46867184040E+02  0.62255499668E+02  0.41800000000E+01 0.  1.
        -11    1    1    2    0    0 -0.60243382268E+00 -0.31603109375E+02 -0.40440079515E+02  0.51327570368E+02  0.00000000000E+00 0.  1.
         11    1    1    2    0    0  0.60018110577E+02  0.38175720389E+02 -0.22785596032E+03  0.23870043544E+03  0.00000000000E+00 0. -1.
</event>
<event>
 6    1  0.8259171E-006  0.8789318E+02  0.7561462E-02  0.1308035E+00
         -1   -1    0    0    0  501 -0.00000000000E+00  0.00000000000E+00  0.24717779541E+02  0.24717779541E+02  0.00000000000E+00 0.  1.
          1   -1    0    0  501    0  0.00000000000E+00 -0.00000000000E+00 -0.49519569373E+03  0.49519569373E+03  0.00000000000E+00 0. -1.
          5    1    1    2  502    0 -0.21124270761E+02  0.50152478539E+02 -0.41378865863E+02  0.68492254006E+02  0.41800000000E+01 0. -1.
         -5    1    1    2    0  502  0.90741269698E+01 -0.33071234053E+02 -0.21261959242E+03  0.21540800770E+03  0.41800000000E+01 0. -1.
        -11    1    1    2    0    0 -0.28082050974E+02  0.17999661787E+02 -0.13178875033E+03  0.13594434202E+03  0.00000000000E+00 0. -1.
         11    1    1    2    0    0  0.40132194766E+02 -0.35080906273E+02 -0.84690705571E+02  0.10006886954E+03  0.00000000000E+00 0.  1.
</event>
<event>
 6    1  0.8259171E-006  0.1079106E+03  0.7561462E-02  0.1264489E+00
          2   -1    0    0  501    0  0.00000000000E+00  0.00000000000E+00  0.37612555410E+03  0.37612555410E+03  0.00000000000E+00 0. -1.
         -2   -1    0    0    0  501 -0.00000000000E+00 -0.00000000000E+00 -0.43261284988E+02  0.43261284988E+02  0.00000000000E+00 0.  1.
          5    1    1    2  502    0  0.39646149502E+02  0.23830157624E+02  0.33337309568E+02  0.57171165738E+02  0.41800000000E+01 0. -1.
         -5    1    1    2    0  502 -0.78279802461E+02  0.15309245398E+01  0.49726265152E+02  0.92845274781E+02  0.41800000000E+01 0.  1.
        -11    1    1    2    0    0  0.14612365399E+02  0.28481709177E+02  0.38869926482E+02  0.50354743221E+02  0.00000000000E+00 0.  1.
         11    1    1    2    0    0  0.24021287560E+02 -0.53842791341E+02  0.21093076792E+03  0.21901565535E+03  0.00000000000E+00 0. -1.
</event>
<event>
 6    1  0.8259171E-006  0.1220255E+03  0.7561462E-02  0.1239793E+00
          1   -1    0    0  501    0  0.00000000000E+00  0.00000000000E+00  0.51474413718E+02  0.51474413718E+02  0.00000000000E+00 0. -1.
         -1   -1    0    0    0  501 -0.00000000000E+00 -0.00000000000E+00 -0.34457244469E+03  0.34457244469E+03  0.00000000000E+00 0.  1.
          5    1    1    2  502    0  0.57720715108E+02  0.80625181343E+02 -0.14332591780E+03  0.17433270471E+03  0.41800000000E+01 0.  1.
         -5    1    1    2    0  502 -0.24277118191E+02 -0.28835083508E+02 -0.87255244103E+02  0.95140898314E+02  0.41800000000E+01 0.  1.
        -11    1    1    2    0    0  0.93453390663E+01 -0.62155700169E+02 -0.51322137679E+02  0.81145722264E+02  0.00000000000E+00 0.  1.
         11    1    1    2    0    0 -0.42788935983E+02  0.10365602335E+02 -0.11194731391E+02  0.45427533119E+02  0.00000000000E+00 0. -1.
</event>
<event>
 6    1  0.8259171E-006  0.1200743E+03  0.7561462E-02  0.1242975E+00
          2   -1    0    0  501    0  0.00000000000E+00  0.00000000000E+00  0.17469864015E+03  0.17469864015E+03  0.00000000000E+00 0. -1.
         -2   -1    0    0    0  501 -0.00000000000E+00 -0.00000000000E+00 -0.13118015406E+03  0.13118015406E+03  0.00000000000E+00 0.  1.
          5    1    1    2  502    0  0.10713692186E+03  0.47388427289E+02  0.43532926329E+02  0.12504627600E+03  0.41800000000E+01 0.  1.
         -5    1    1    2    0  502 -0.96885412653E+01 -0.11215396474E+02 -0.34572722639E+02  0.37847040843E+02  0.41800000000E+01 0.  1.
        -11    1    1    2    0    0 -0.62437932487E+02 -0.87379755936E+01 -0.25704855418E+02  0.68085146859E+02  0.00000000000E+00 0.  1.
         11    1    1    2    0    0 -0.35010448105E+02 -0.27435055221E+02  0.60263137812E+02  0.74900330509E+02  0.00000000000E+00 0. -1.
</event>
<event>
 6    1  0.8259171E-006  0.1393183E+03  0.7561462E-02  0.1214249E+00
         -1   -1    0    0    0  501 -0.00000000000E+00  0.00000000000E+00  0.34717198608E+03  0.34717198608E+03  0.00000000000E+00 0.  1.
          1   -1    0    0  501    0  0.00000000000E+00 -0.00000000000E+00 -0.72457662129E+02  0.72457662129E+02  0.00000000000E+00 0. -1.
          5    1    1    2  502    0 -0.10203041630E+03 -0.20797947027E+02  0.14148382720E+03  0.17572110349E+03  0.41800000000E+01 0.  1.
         -5    1    1    2    0  502 -0.10025366438E+02  0.49098060636E+02  0.80661737689E+01  0.50928018710E+02  0.41800000000E+01 0.  1.
        -11    1    1    2    0    0  0.73635309983E+02 -0.40230756422E+02  0.12755507299E+03  0.15267930208E+03  0.00000000000E+00 0.  1.
         11    1    1    2    0    0  0.38420472751E+02  0.11930642812E+02 -0.23907500179E+01  0.40301223927E+02  0.00000000000E+00 0. -1.
</event>
<event>
 6    1  0.8259171E-006  0.1119878E+03  0.7561462E-02  0.1256933E+00
         -1   -1    0    0    0  501 -0.00000000000E+00  0.00000000000E+00  0.61791454943E+02  0.61791454943E+02  0.00000000000E+00 0.  1.
          1   -1    0    0  501    0  0.00000000000E+00 -0.00000000000E+00 -0.32668765618E+03  0.32668765618E+03  0.00000000000E+00 0. -1.
          5    1    1    2  502    0 -0.56037062619E+02 -0.19442986659E+01  0.10497683077E+02  0.57197958305E+02  0.41800000000E+01 0. -1.
         -5    1    1    2    0  502  0.14115721410E+02 -0.61869340583E+02 -0.88031026924E+02  0.10860019796E+03  0.41800000000E+01 0. -1.
        -11    1    1    2    0    0  0.51557401591E+02  0.14012557230E+02 -0.39740776854E+02  0.66587136625E+02  0.00000000000E+00 0.  1.
         11    1    1    2    0    0 -0.96360603818E+01  0.49801082019E+02 -0.14762208054E+03  0.15609381824E+03  0.00000000000E+00 0. -1.
</event>
<event>
 6    1  0.8259171E-006  0.1296516E+03  0.7561462E-02  0.1227974E+00
         -2   -1    0    0    0  501 -0.00000000000E+00  0.00000000000E+00  0.16395710900E+03  0.16395710900E+03  0.00000000000E+00 0.  1.
          2   -1    0    0  501    0  0.00000000000E+00 -0.00000000000E+00 -0.12940155395E+03  0.12940155395E+03  0.00000000000E+00 0. -1.
          5    1    1    2  502    0  0.64215686880E+02  0.96949476297E+02  0.18275617686E+02  0.11778932888E+03  0.41800000000E+01 0. -1.
         -5    1    1    2    0  502  0.16922032670E+02 -0.31348916151E+02 -0.21827721433E+01  0.35935311711E+02  0.41800000000E+01 0.  1.
        -11    1    1    2    0    0 -0.71711830835E+02 -0.45657199890E+02 -0.26921014712E+02  0.89173469242E+02  0.00000000000E+00 0.  1.
         11    1    1    2    0    0 -0.94258887147E+01 -0.19943360256E+02  0.45383724228E+02  0.50460553119E+02  0.00000000000E+00 0. -1.
</event>
<event>
 6    1  0.8259171E-006  0.1242814E+03  0.7561462E-02  0.1236197E+00
         -2   -1    0    0    0  501 -0.00000000000E+00  0.00000000000E+00  0.93104297031E+03  0.93104297031E+03  0.00000000000E+00 0.  1.
          2   -1    0    0  501    0  0.00000000000E+00 -0.00000000000E+00 -0.16959878466E+02  0.16959878466E+02  0.00000000000E+00 0. -1.
          5    1    1    2  502    0 -0.94218649625E+02 -0.23421400810E+02  0.42125420613E+03  0.43231735396E+03  0.41800000000E+01 0. -1.
         -5    1    1    2    0  502  0.31781596257E+02  0.25292478301E+02  0.12253876455E+03  0.12916269018E+03  0.41800000000E+01 0. -1.
        -11    1    1    2    0    0  0.86371258596E+02 -0.44261769372E+01  0.27772273718E+03  0.29087712887E+03  0.00000000000E+00 0.  1.
         11    1    1    2    0    0 -0.23934205228E+02  0.25550994470E+01  0.92567383984E+02  0.95645675755E+02  0.00000000000E+00 0. -1.
</event>
<event>
 6    1  0.8259171E-006  0.1008610E+03  0.7561462E-02  0.1278496E+00
          1   -1    0    0  501    0  0.00000000000E+00  0.00000000000E+00  0.45019150475E+03  0.45019150475E+03  0.00000000000E+00 0.  1.
         -1   -1    0    0    0  501 -0.00000000000E+00 -0.00000000000E+00 -0.31760320223E+02  0.31760320223E+02  0.00000000000E+00 0. -1.
          5    1    1    2  502    0  0.23229524729E+02  0.42508611680E+02  0.13751612950E+03  0.14585866844E+03  0.41800000000E+01 0. -1.
         -5    1    1    2    0  502 -0.61462571362E+02 -0.20577119092E+02  0.42032587772E+02  0.77364567752E+02  0.41800000000E+01 0. -1.
        -11    1    1    2    0    0  0.16358645678E+02  0.28677921896E+02  0.37629460455E+02  0.50060011854E+02  0.00000000000E+00 0. -1.
         11    1    1    2    0    0  0.21874400955E+02 -0.50609414484E+02  0.20125300681E+03  0.20866857693E+03  0.00000000000E+00 0.  1.
</event>
<event>
 6    1  0.8259171E-006  0.8361446E+02  0.7561462E-02  0.1319096E+00
          2   -1    0    0  501    0  0.00000000000E+00  0.00000000000E+00  0.76626221665E+02  0.76626221665E+02  0.00000000000E+00 0. -1.
         -2   -1    0    0    0  501 -0.00000000000E+00 -0.00000000000E+00 -0.16386671764E+03  0.16386671764E+03  0.00000000000E+00 0.  1.
          5    1    1    2  502    0  0.45323540685E+02 -0.65869736905E+01  0.12850639779E+02  0.47751679608E+02  0.41800000000E+01 0.  1.
         -5    1    1    2    0  502 -0.38870168648E+02  0.16119176424E+02 -0.90596083249E+02  0.99979200634E+02  0.41800000000E+01 0.  1.
        -11    1    1    2    0    0 -0.96651391934E+01 -0.43637827733E+02  0.18646114028E+02  0.48428839478E+02  0.00000000000E+00 0.  1.
         11    1    1    2    0    0  0.32117671560E+01  0.34105624999E+02 -0.28141166528E+02  0.44333219581E+02  0.00000000000E+00 0. -1.
</event>
<event>
 6    1  0.8259171E-006  0.1147066E+03  0.7561462E-02  0.1252094E+00
         -2   -1    0    0    0  501 -0.00000000000E+00  0.00000000000E+00  0.60074295749E+02  0.60074295749E+02  0.00000000000E+00 0.  1.
          2   -1    0    0  501    0  0.00000000000E+00 -0.00000000000E+00 -0.30591021706E+03  0.30591021706E+03  0.00000000000E+00 0. -1.
          5    1    1    2  502    0  0.20887539220E+02 -0.68668521382E+02 -0.14767051650E+02  0.73397502259E+02  0.41800000000E+01 0. -1.
         -5    1    1    2    0  502 -0.51111078644E+02 -0.61029077559E+01 -0.10742062119E+03  0.11918997483E+03  0.41800000000E+01 0. -1.
        -11    1    1    2    0    0  0.77392156037E+01  0.81916093607E+02 -0.12512966503E+03  0.14975838848E+03  0.00000000000E+00 0. -1.
         11    1    1    2    0    0  0.22484323820E+02 -0.71446644696E+01  0.14814165642E+01  0.23638647234E+02  0.00000000000E+00 0.  1.
</event>
<event>
 6    1  0.8259171E-006  0.9755265E+02  0.7561462E-02  0.1285528E+00
          1   -1    0    0  501    0  0.00000000000E+00  0.00000000000E+00  0.35194110798E+03  0.35194110798E+03  0.00000000000E+00 0. -1.
         -1   -1    0    0    0  501 -0.00000000000E+00 -0.00000000000E+00 -0.34322106020E+02  0.34322106020E+02  0.00000000000E+00 0.  1.
          5    1    1    2  502    0 -0.11377087487E+02 -0.50492151124E+02  0.13938548767E+03  0.14874367892E+03  0.41800000000E+01 0.  1.
         -5    1    1    2    0  502  0.39800899452E+02  0.40737211651E+02  0.31695797601E+02  0.65312540878E+02  0.41800000000E+01 0.  1.
        -11    1    1    2    0    0  0.23536776666E+02 -0.15618864632E+02  0.75489307393E+02  0.80601267477E+02  0.00000000000E+00 0. -1.
         11    1    1    2    0    0 -0.51960588631E+02  0.25373804105E+02  0.71048409290E+02  0.91605726722E+02  0.00000000000E+00 0.  1.
</event>
<event>
 6    1  0.8259171E-006  0.8515750E+02  0.7561462E-02  0.1315021E+00
          4   -1    0    0  501    0  0.00000000000E+00  0.00000000000E+00  0.14677758153E+03  0.14677758153E+03  0.00000000000E+00 0. -1.
         -4   -1    0    0    0  501 -0.00000000000E+00 -0.00000000000E+00 -0.86492474971E+02  0.86492474971E+02  0.00000000000E+00 0.  1.
          5    1    1    2  502    0 -0.26540171954E+02  0.10569051837E+02  0.60856201731E+02  0.67357518312E+02  0.41800000000E+01 0. -1.
         -5    1    1    2    0  502  0.49670416364E+02 -0.28316503329E+02 -0.30080577223E+02  0.64740158701E+02  0.41800000000E+01 0. -1.
        -11    1    1    2    0    0  0.29546126215E+02  0.63605360747E+01 -0.12634532777E+02  0.32757616091E+02  0.00000000000E+00 0.  1.
         11    1    1    2    0    0 -0.52676370625E+02  0.11386915417E+02  0.42144014829E+02  0.68414763398E+02  0.00000000000E+00 0. -1.
</event>
<event>
 6    1  0.8259171E-006  0.9857677E+02  0.7561462E-02  0.1283318E+00
          1   -1    0    0  501    0  0.00000000000E+00  0.00000000000E+00  0.25850979148E+03  0.25850979148E+03  0.00000000000E+00 0. -1.
         -1   -1    0    0    0  501 -0.00000000000E+00 -0.00000000000E+00 -0.58290989706E+02  0.58290989706E+02  0.00000000000E+00 0.  1.
          5    1    1    2  502    0  0.21068347096E+02  0.67442841920E+02  0.14615257463E+02  0.72273718088E+02  0.41800000000E+01 0. -1.
         -5    1    1    2    0  502  0.17220761038E+02 -0.53235361090E+02  0.46227131527E+02  0.72697856710E+02  0.41800000000E+01 0. -1.
        -11    1    1    2    0    0 -0.80602845844E+01 -0.33466260530E+02  0.75825696129E+01  0.35248462993E+02  0.00000000000E+00 0.  1.
         11    1    1    2    0    0 -0.30228823549E+02  0.19258779700E+02  0.13179384317E+03  0.13658074340E+03  0.00000000000E+00 0. -1.
</event>
<event>
 6    1  0.8259171E-006  0.1013941E+03  0.7561462E-02  0.1277391E+00
         -1   -1    0    0    0  501 -0.00000000000E+00  0.00000000000E+00  0.49789914967E+03  0.49789914967E+03  0.00000000000E+00 0. -1.
          1   -1    0    0  501    0  0.00000000000E+00 -0.00000000000E+00 -0.25607583317E+02  0.25607583317E+02  0.00000000000E+00 0.  1.
          5    1    1    2  502    0  0.53888019480E+02 -0.21379836257E+02  0.55804757203E+02  0.80577039958E+02  0.41800000000E+01 0.  1.
         -5    1    1    2    0  502 -0.47107283976E+02 -0.70279669415E+01  0.20041255899E+03  0.20603678003E+03  0.41800000000E+01 0.  1.
        -11    1    1    2    0    0 -0.44006564091E+02 -0.80612778361E+01  0.10844720849E+03  0.11731308074E+03  0.00000000000E+00 0.  1.
         11    1    1    2    0    0  0.37225828586E+02  0.36469081035E+02  0.10762704168E+03  0.11957983227E+03  0.00000000000E+00 0. -1.
</event>
<event>
 6    1  0.8259171E-006  0.1544829E+03  0.7561462E-02  0.1195070E+00
          2   -1    0    0  501    0  0.00000000000E+00  0.00000000000E+00  0.55144858652E+03  0.55144858652E+03  0.00000000000E+00 0. -1.
         -2   -1    0    0    0  501 -0.00000000000E+00 -0.00000000000E+00 -0.62039856129E+02  0.62039856129E+02  0.00000000000E+00 0.  1.
          5    1    1    2  502    0  0.13586309455E+03 -0.25905275232E+02  0.89387694137E+02  0.16473462298E+03  0.41800000000E+01 0. -1.
         -5    1    1    2    0  502  0.82450152952E+01  0.32716495364E+01  0.11644087338E+03  0.11685304173E+03  0.41800000000E+01 0. -1.
        -11    1    1    2    0    0 -0.85392089658E+02 -0.20634317522E+02  0.21300203767E+03  0.23040714418E+03  0.00000000000E+00 0.  1.
         11    1    1    2    0    0 -0.58716020187E+02  0.43267943217E+02  0.70578125202E+02  0.10149363376E+03  0.00000000000E+00 0. -1.
</event>
<event>
 6    1  0.8259171E-006  0.1263073E+03  0.7561462E-02  0.1233040E+00
          2   -1    0    0  501    0  0.00000000000E+00  0.00000000000E+00  0.29058587381E+03  0.29058587381E+03  0.00000000000E+00 0. -1.
         -2   -1    0    0    0  501 -0.00000000000E+00 -0.00000000000E+00 -0.59625204486E+02  0.59625204486E+02  0.00000000000E+00 0.  1.
          5    1    1    2  502    0  0.36622497872E+02  0.92413760596E+02  0.96113656570E+02  0.13833588789E+03  0.41800000000E+01 0. -1.
         -5    1    1    2    0  502  0.58393267398E+01 -0.36043693997E+02  0.45082719882E+01  0.37027591470E+02  0.41800000000E+01 0. -1.
        -11    1    1    2    0    0 -0.66433413893E+02 -0.14309997865E+02  0.80862680789E+02  0.10562645343E+03  0.00000000000E+00 0. -1.
         11    1    1    2    0    0  0.23971589281E+02 -0.42060068734E+02  0.49476059981E+02  0.69221145511E+02  0.00000000000E+00 0.  1.
</event>
<event>
 6    1  0.8259171E-006  0.1847748E+03  0.7561462E-02  0.1163260E+00
         -1   -1    0    0    0  501 -0.00000000000E+00  0.00000000000E+00  0.41178461774E+03  0.41178461774E+03  0.00000000000E+00 0.  1.
          1   -1    0    0  501    0  0.00000000000E+00 -0.00000000000E+00 -0.19156482085E+03  0.19156482085E+03  0.00000000000E+00 0. -1.
          5    1    1    2  502    0  0.97599087368E+02 -0.48340664388E+02  0.12308896507E+03  0.16441036284E+03  0.41800000000E+01 0.  1.
         -5    1    1    2    0  502  0.55565110039E+02  0.72983780996E+02  0.20858605421E+03  0.22790289194E+03  0.41800000000E+01 0.  1.
        -11    1    1    2    0    0 -0.11195847393E+03  0.13263795631E+02 -0.10605840655E+03  0.15478699480E+03  0.00000000000E+00 0. -1.
         11    1    1    2    0    0 -0.41205723478E+02 -0.37906912239E+02 -0.53968158417E+01  0.56249189008E+02  0.00000000000E+00 0.  1.
</event>
<event>
 6    1  0.8259171E-006  0.1415991E+03  0.7561462E-02  0.1211193E+00
         -2   -1    0    0    0  501 -0.00000000000E+00  0.00000000000E+00  0.12266033365E+03  0.12266033365E+03  0.00000000000E+00 0.  1.
          2   -1    0    0  501    0  0.00000000000E+00 -0.00000000000E+00 -0.17850048558E+03  0.17850048558E+03  0.00000000000E+00 0. -1.
          5    1    1    2  502    0 -0.20741057636E+02 -0.15873946728E+02  0.15316677702E+02  0.30565448997E+02  0.41800000000E+01 0. -1.
         -5    1    1    2    0  502  0.11893806973E+03  0.27294024165E+02 -0.53937612531E+02  0.13348395646E+03  0.41800000000E+01 0. -1.
        -11    1    1    2    0    0 -0.11005565577E+03  0.96398341874E+01 -0.64890428141E+01  0.11066743625E+03  0.00000000000E+00 0.  1.
         11    1    1    2    0    0  0.11858643673E+02 -0.21059911624E+02 -0.10730174284E+02  0.26443977529E+02  0.00000000000E+00 0. -1.
</event>
<event>
 6    1  0.8259171E-006  0.1459025E+03  0.7561462E-02  0.1205600E+00
         -1   -1    0    0    0  501 -0.00000000000E+00  0.00000000000E+00  0.34699845626E+02  0.34699845626E+02  0.00000000000E+00 0.  1.
          1   -1    0    0  501    0  0.00000000000E+00 -0.00000000000E+00 -0.69843169010E+03  0.69843169010E+03  0.00000000000E+00 0. -1.
          5    1    1    2  502    0  0.11010071589E+03  0.57364306089E+02 -0.36612666850E+03  0.38662519453E+03  0.41800000000E+01 0. -1.
         -5    1    1    2    0  502 -0.23547151816E+02  0.12915512298E+02 -0.18389479954E+02  0.32816523118E+02  0.41800000000E+01 0. -1.
        -11    1    1    2    0    0 -0.47340977703E+02  0.12366232025E+02 -0.12702528543E+03  0.13612316115E+03  0.00000000000E+00 0. -1.
         11    1    1    2    0    0 -0.39212586366E+02 -0.82646050412E+02 -0.15219041059E+03  0.17756665693E+03  0.00000000000E+00 0.  1.
</event>
<event>
 6    1  0.8259171E-006  0.2379627E+03  0.7561462E-02  0.1121158E+00
         -2   -1    0    0    0  501 -0.00000000000E+00  0.00000000000E+00  0.77441919595E+02  0.77441919595E+02  0.00000000000E+00 0. -1.
          2   -1    0    0  501    0  0.00000000000E+00 -0.00000000000E+00 -0.80846278657E+03  0.80846278657E+03  0.00000000000E+00 0.  1.
          5    1    1    2  502    0  0.28291802469E+02  0.11397891263E+03 -0.11437461687E+03  0.16398366990E+03  0.41800000000E+01 0.  1.
         -5    1    1    2    0  502  0.12715011658E+03  0.42106661908E+02 -0.17948651072E+03  0.22399331029E+03  0.41800000000E+01 0.  1.
        -11    1    1    2    0    0 -0.69211089837E+02 -0.99734452039E+02 -0.31817542747E+03  0.34054770374E+03  0.00000000000E+00 0.  1.
         11    1    1    2    0    0 -0.86230829218E+02 -0.56351122497E+02 -0.11898431191E+03  0.15738002222E+03  0.00000000000E+00 0. -1.
</event>
<event>
 6    1  0.8259171E-006  0.9632538E+02  0.7561462E-02  0.1288219E+00
         -2   -1    0    0    0  501 -0.00000000000E+00  0.00000000000E+00  0.36199596257E+02  0.36199596257E+02  0.00000000000E+00 0.  1.
          2   -1    0    0  501    0  0.00000000000E+00 -0.00000000000E+00 -0.34929248967E+03  0.34929248967E+03  0.00000000000E+00 0. -1.
          5    1    1    2  502    0 -0.25262766899E+02  0.50055689743E+02 -0.13381195620E+03  0.14514438153E+03  0.41800000000E+01 0. -1.
         -5    1    1    2    0  502  0.20157201850E+02 -0.37388102822E+02 -0.62430391253E+01  0.43135031663E+02  0.41800000000E+01 0. -1.
        -11    1    1    2    0    0 -0.39570037219E+01 -0.52624538747E+02 -0.11040000354E+03  0.12236486725E+03  0.00000000000E+00 0.  1.
         11    1    1    2    0    0  0.90625687717E+01  0.39956951826E+02 -0.62637894550E+02  0.74847805483E+02  0.00000000000E+00 0. -1.
</event>
<event>
 6    1  0.8866269E-006  0.2355358E+03  0.7561462E-02  0.1122803E+00
         -1   -1    0    0    0  501 -0.00000000000E+00  0.00000000000E+00  0.54279561487E+02  0.54279561487E+02  0.00000000000E+00 0.  1.
          1   -1    0    0  501    0  0.00000000000E+00 -0.00000000000E+00 -0.13036137269E+04  0.13036137269E+04  0.00000000000E+00 0. -1.
          5    1    1    2  502    0  0.47113728692E+02  0.48626914828E+02 -0.66296127400E+02  0.94852143809E+02  0.41800000000E+01 0.  1.
         -5    1    1    2    0  502  0.17024617003E+03 -0.53172804350E+02 -0.30152401343E+03  0.35035026560E+03  0.41800000000E+01 0.  1.
        -11    1    1    2    0    0 -0.12391081847E+03 -0.25817127666E+02 -0.35028832909E+03  0.37245446502E+03  0.00000000000E+00 0.  1.
         11    1    1    2    0    0 -0.93449080256E+02  0.30363017189E+02 -0.53122569548E+03  0.54023641394E+03  0.00000000000E+00 0. -1.
</event>
<event>
 6    1  0.8259171E-006  0.1165586E+03  0.7561462E-02  0.1248885E+00
          1   -1    0    0  501    0  0.00000000000E+00  0.00000000000E+00  0.43264385672E+03  0.43264385672E+03  0.00000000000E+00 0. -1.
         -1   -1    0    0    0  501 -0.00000000000E+00 -0.00000000000E+00 -0.59686076306E+02  0.59686076306E+02  0.00000000000E+00 0.  1.
          5    1    1    2  502    0  0.70676788915E+02  0.24275595778E+02  0.18521646835E+02  0.77104065024E+02  0.41800000000E+01 0. -1.
         -5    1    1    2    0  502 -0.59848137371E+02 -0.28828780645E+02  0.22850293700E+02  0.70374046796E+02  0.41800000000E+01 0.  1.
        -11    1    1    2    0    0 -0.50550060282E+02 -0.51755221840E+01  0.22554822115E+03  0.23120141585E+03  0.00000000000E+00 0.  1.
         11    1    1    2    0    0  0.39721408737E+02  0.97287070516E+01  0.10603761873E+03  0.11365040536E+03  0.00000000000E+00 0. -1.
</event>
<event>
 6    1  0.8259171E-006  0.1502447E+03  0.7561462E-02  0.1200173E+00
          2   -1    0    0  501    0  0.00000000000E+00  0.00000000000E+00  0.54342781416E+03  0.54342781416E+03  0.00000000000E+00 0. -1.
         -2   -1    0    0    0  501 -0.00000000000E+00 -0.00000000000E+00 -0.10670157185E+03  0.10670157185E+03  0.00000000000E+00 0.  1.
          5    1    1    2  502    0 -0.69984546751E+02  0.50701469713E+01  0.86974963520E+02  0.11182870765E+03  0.41800000000E+01 0. -1.
         -5    1    1    2    0  502  0.41925504687E+02  0.88317693823E+02 -0.55130664479E+02  0.11231485009E+03  0.41800000000E+01 0.  1.
        -11    1    1    2    0    0  0.15172716229E+02 -0.11015608224E+03  0.33480657789E+03  0.35278891475E+03  0.00000000000E+00 0. -1.
         11    1    1    2    0    0  0.12886325835E+02  0.16768241445E+02  0.70075365385E+02  0.73196913518E+02  0.00000000000E+00 0.  1.
</event>
<event>
 6    1  0.8259171E-006  0.1734005E+03  0.7561462E-02  0.1174347E+00
          2   -1    0    0  501    0  0.00000000000E+00  0.00000000000E+00  0.60579178533E+03  0.60579178533E+03  0.00000000000E+00 0.  1.
         -2   -1    0    0    0  501 -0.00000000000E+00 -0.00000000000E+00 -0.10706056183E+03  0.10706056183E+03  0.00000000000E+00 0. -1.
          5    1    1    2  502    0  0.20062338728E+02 -0.11770850894E+03  0.52592058348E+02  0.13054189946E+03  0.41800000000E+01 0. -1.
         -5    1    1    2    0  502  0.57070522889E+02 -0.16223126665E+02 -0.35093131720E+02  0.69059646072E+02  0.41800000000E+01 0. -1.
        -11    1    1    2    0    0  0.41002336493E+01  0.53057964126E+02  0.24453412575E+03  0.25025766348E+03  0.00000000000E+00 0.  1.
         11    1    1    2    0    0 -0.81233095267E+02  0.80873671480E+02  0.23669817112E+03  0.26299313816E+03  0.00000000000E+00 0. -1.
</event>
<event>
 6    1  0.8259171E-006  0.5743576E+02  0.7561462E-02  0.1408919E+00
         -3   -1    0    0    0  501 -0.00000000000E+00  0.00000000000E+00  0.17984052746E+03  0.17984052746E+03  0.00000000000E+00 0.  1.
          3   -1    0    0  501    0  0.00000000000E+00 -0.00000000000E+00 -0.68611687950E+02  0.68611687950E+02  0.00000000000E+00 0. -1.
          5    1    1    2  502    0 -0.27890397680E+02 -0.55577139633E+00  0.11442131957E+03  0.11784690890E+03  0.41800000000E+01 0. -1.
         -5    1    1    2    0  502  0.16941744825E+02 -0.11891197570E+01 -0.29096021104E+02  0.33948307286E+02  0.41800000000E+01 0. -1.
        -11    1    1    2    0    0 -0.19794471083E+02 -0.22538746446E+02  0.44200345886E+02  0.53418037714E+02  0.00000000000E+00 0.  1.
         11    1    1    2    0    0  0.30743123938E+02  0.24283637599E+02 -0.18296804847E+02  0.43238961506E+02  0.00000000000E+00 0. -1.
</event>
<event>
 6    1  0.8259171E-006  0.7077596E+02  0.7561462E-02  0.1357474E+00
         -2   -1    0    0    0  501 -0.00000000000E+00  0.00000000000E+00  0.43982524538E+02  0.43982524538E+02  0.00000000000E+00 0.  1.
          2   -1    0    0  501    0  0.00000000000E+00 -0.00000000000E+00 -0.36277532419E+03  0.36277532419E+03  0.00000000000E+00 0. -1.
          5    1    1    2  502    0 -0.14366237858E+01  0.14210275998E+02  0.29685608947E+02  0.33206981350E+02  0.41800000000E+01 0. -1.
         -5    1    1    2    0  502 -0.82470575689E+01  0.26857005476E+02 -0.12878735761E+03  0.13188240437E+03  0.41800000000E+01 0. -1.
        -11    1    1    2    0    0  0.42799605398E+02 -0.48128054126E+02 -0.16749974961E+03  0.17945551520E+03  0.00000000000E+00 0.  1.
         11    1    1    2    0    0 -0.33115924043E+02  0.70607726520E+01 -0.52191301377E+02  0.62212947809E+02  0.00000000000E+00 0. -1.
</event>
<event>
 6    1  0.8259171E-006  0.2354259E+03  0.7561462E-02  0.1122878E+00
          2   -1    0    0  501    0  0.00000000000E+00  0.00000000000E+00  0.81261284782E+03  0.81261284782E+03  0.00000000000E+00 0. -1.
         -2   -1    0    0    0  501 -0.00000000000E+00 -0.00000000000E+00 -0.73883292715E+02  0.73883292715E+02  0.00000000000E+00 0.  1.
          5    1    1    2  502    0  0.91130278898E+02  0.35667827230E+02  0.11713425846E+03  0.15269193999E+03  0.41800000000E+01 0. -1.
         -5    1    1    2    0  502  0.11993313654E+03 -0.94399827656E+02  0.24399612694E+03  0.28783131703E+03  0.41800000000E+01 0. -1.
        -11    1    1    2    0    0 -0.17226991243E+03  0.38733142129E+02  0.21812667113E+03  0.28063574912E+03  0.00000000000E+00 0.  1.
         11    1    1    2    0    0 -0.38793503011E+02  0.19998858297E+02  0.15947249857E+03  0.16533713439E+03  0.00000000000E+00 0. -1.
</event>
<event>
 6    1  0.8259171E-006  0.9064564E+02  0.7561462E-02  0.1301296E+00
          1   -1    0    0  501    0  0.00000000000E+00  0.00000000000E+00  0.15078922382E+03  0.15078922382E+03  0.00000000000E+00 0. -1.
         -1   -1    0    0    0  501 -0.00000000000E+00 -0.00000000000E+00 -0.10622527226E+03  0.10622527226E+03  0.00000000000E+00 0.  1.
          5    1    1    2  502    0  0.10494186723E+02  0.34283282301E+02 -0.25988227833E+02  0.44478441814E+02  0.41800000000E+01 0.  1.
         -5    1    1    2    0  502  0.42547534522E+02 -0.69220480134E+02  0.56612238177E+02  0.99117029189E+02  0.41800000000E+01 0.  1.
        -11    1    1    2    0    0 -0.23245130754E+02  0.19140092058E+02  0.53526316213E+02  0.61414540258E+02  0.00000000000E+00 0. -1.
         11    1    1    2    0    0 -0.29796590490E+02  0.15797105776E+02 -0.39586375001E+02  0.52004484821E+02  0.00000000000E+00 0.  1.
</event>
<event>
 6    1  0.8259171E-006  0.1554133E+03  0.7561462E-02  0.1193975E+00
         -2   -1    0    0    0  501 -0.00000000000E+00  0.00000000000E+00  0.47358568727E+03  0.47358568727E+03  0.00000000000E+00 0.  1.
          2   -1    0    0  501    0  0.00000000000E+00 -0.00000000000E+00 -0.66329105205E+02  0.66329105205E+02  0.00000000000E+00 0. -1.
          5    1    1    2  502    0  0.27937862088E+00 -0.32461810714E+02  0.20668983461E+02  0.38710805785E+02  0.41800000000E+01 0.  1.
         -5    1    1    2    0  502  0.12750519393E+03  0.49784827685E+02  0.27622980446E+03  0.30831231052E+03  0.41800000000E+01 0.  1.
        -11    1    1    2    0    0 -0.79022564906E+02 -0.38604557082E+02  0.23498833179E+02  0.91033360657E+02  0.00000000000E+00 0. -1.
         11    1    1    2    0    0 -0.48762007642E+02  0.21281540111E+02  0.86858960966E+02  0.10185831551E+03  0.00000000000E+00 0.  1.
</event>
<event>
 6    1  0.8259171E-006  0.1193799E+03  0.7561462E-02  0.1244123E+00
         -1   -1    0    0    0  501 -0.00000000000E+00  0.00000000000E+00  0.73694834531E+02  0.73694834531E+02  0.00000000000E+00 0.  1.
          1   -1    0    0  501    0  0.00000000000E+00 -0.00000000000E+00 -0.21898470707E+03  0.21898470707E+03  0.00000000000E+00 0. -1.
          5    1    1    2  502    0 -0.92618237424E+02  0.31622252903E+02 -0.23767445659E+02  0.10079915007E+03  0.41800000000E+01 0.  1.
         -5    1    1    2    0  502  0.28339727848E+02 -0.20930413264E+02 -0.41547982715E+02  0.54634509622E+02  0.41800000000E+01 0.  1.
        -11    1    1    2    0    0 -0.19746363605E+02 -0.78569213280E+01 -0.59921943050E-01  0.21252145280E+02  0.00000000000E+00 0.  1.
         11    1    1    2    0    0  0.84024873181E+02 -0.28349183111E+01 -0.79914522225E+02  0.11599373663E+03  0.00000000000E+00 0. -1.
</event>
<event>
 6    1  0.8259171E-006  0.9500499E+02  0.7561462E-02  0.1291165E+00
          3   -1    0    0  501    0  0.00000000000E+00  0.00000000000E+00  0.41559652059E+02  0.41559652059E+02  0.00000000000E+00 0. -1.
         -3   -1    0    0    0  501 -0.00000000000E+00 -0.00000000000E+00 -0.59091311697E+03  0.59091311697E+03  0.00000000000E+00 0.  1.
          5    1    1    2  502    0  0.29194257207E+02  0.18274809365E+02 -0.23264992421E+02  0.41773263980E+02  0.41800000000E+01 0. -1.
         -5    1    1    2    0  502  0.45074889519E+02 -0.50825884872E+02 -0.43049622896E+03  0.43584342577E+03  0.41800000000E+01 0. -1.
        -11    1    1    2    0    0 -0.41162455801E+02  0.35033815330E+02 -0.10689578306E+03  0.11978490898E+03  0.00000000000E+00 0.  1.
         11    1    1    2    0    0 -0.33106690926E+02 -0.24827398227E+01  0.11303539518E+02  0.35071170307E+02  0.00000000000E+00 0. -1.
</event>
<event>
 6    1  0.8259171E-006  0.9929161E+02  0.7561462E-02  0.1281793E+00
         -1   -1    0    0    0  501 -0.00000000000E+00  0.00000000000E+00  0.26591763829E+03  0.26591763829E+03  0.00000000000E+00 0.  1.
          1   -1    0    0  501    0  0.00000000000E+00 -0.00000000000E+00 -0.47360560595E+02  0.47360560595E+02  0.00000000000E+00 0. -1.
          5    1    1    2  502    0  0.76333172906E+02 -0.33533247495E+01  0.86940818381E+02  0.11581958545E+03  0.41800000000E+01 0.  1.
         -5    1    1    2    0  502 -0.50132004283E+02  0.96750201743E+01  0.49460876539E+02  0.71208669253E+02  0.41800000000E+01 0.  1.
        -11    1    1    2    0    0  0.21745655295E+02  0.31150072767E+01  0.73385064374E+02  0.76602509540E+02  0.00000000000E+00 0.  1.
         11    1    1    2    0    0 -0.47946823918E+02 -0.94367027014E+01  0.87703183990E+01  0.49647434642E+02  0.00000000000E+00 0. -1.
</event>
<event>
 6    1  0.8259171E-006  0.7820083E+02  0.7561462E-02  0.1334236E+00
         -2   -1    0    0    0  501 -0.00000000000E+00  0.00000000000E+00  0.92464398606E+02  0.92464398606E+02  0.00000000000E+00 0.  1.
          2   -1    0    0  501    0  0.00000000000E+00 -0.00000000000E+00 -0.15848875429E+03  0.15848875429E+03  0.00000000000E+00 0. -1.
          5    1    1    2  502    0 -0.49547166896E+02  0.44627989876E+01  0.48537713806E+02  0.69629163313E+02  0.41800000000E+01 0.  1.
         -5    1    1    2    0  502  0.31818153926E+01 -0.15616567091E+02 -0.62886144075E+02  0.65008773512E+02  0.41800000000E+01 0.  1.
        -11    1    1    2    0    0  0.31996664459E+01  0.38676503141E+02  0.59186573765E+01  0.39257359383E+02  0.00000000000E+00 0.  1.
         11    1    1    2    0    0  0.43165685058E+02 -0.27522735038E+02 -0.57594582793E+02  0.77057856690E+02  0.00000000000E+00 0. -1.
</event>
<event>
 6    1  0.8259171E-006  0.1014911E+03  0.7561462E-02  0.1277191E+00
          1   -1    0    0  501    0  0.00000000000E+00  0.00000000000E+00  0.42756099673E+03  0.42756099673E+03  0.00000000000E+00 0. -1.
         -1   -1    0    0    0  501 -0.00000000000E+00 -0.00000000000E+00 -0.51427211579E+02  0.51427211579E+02  0.00000000000E+00 0.  1.
          5    1    1    2  502    0  0.36674714612E+02 -0.16198956887E+02 -0.18119383890E+02  0.44195309351E+02  0.41800000000E+01 0.  1.
         -5    1    1    2    0  502 -0.21257470402E+02  0.63809013861E+02  0.78469564290E+02  0.10343314371E+03  0.41800000000E+01 0.  1.
        -11    1    1    2    0    0  0.31627675421E+02 -0.33723358911E+02  0.20586718777E+03  0.21099496153E+03  0.00000000000E+00 0.  1.
         11    1    1    2    0    0 -0.47044919630E+02 -0.13886698062E+02  0.10991641697E+03  0.12036479372E+03  0.00000000000E+00 0. -1.
</event>
<event>
 6    1  0.8259171E-006  0.1045942E+03  0.7561462E-02  0.1270921E+00
         -2   -1    0    0    0  501 -0.00000000000E+00  0.00000000000E+00  0.25538532993E+02  0.25538532993E+02  0.00000000000E+00 0.  1.
          2   -1    0    0  501    0  0.00000000000E+00 -0.00000000000E+00 -0.65428852042E+03  0.65428852042E+03  0.00000000000E+00 0. -1.
          5    1    1    2  502    0  0.37540355025E+01  0.48752849650E+02 -0.30357617880E+02  0.57706069827E+02  0.41800000000E+01 0. -1.
         -5    1    1    2    0  502 -0.47516109817E+02  0.51115771814E+01 -0.27895798922E+03  0.28305289446E+03  0.41800000000E+01 0. -1.
        -11    1    1    2    0    0  0.26937076923E+02  0.21784034031E+02 -0.12631470946E+03  0.13097922002E+03  0.00000000000E+00 0. -1.
         11    1    1    2    0    0  0.16824997392E+02 -0.75648460862E+02 -0.19311967086E+03  0.20808886910E+03  0.00000000000E+00 0.  1.
</event>
<event>
 6    1  0.8259171E-006  0.1660617E+03  0.7561462E-02  0.1182018E+00
          1   -1    0    0  501    0  0.00000000000E+00  0.00000000000E+00  0.53337622382E+03  0.53337622382E+03  0.00000000000E+00 0. -1.
         -1   -1    0    0    0  501 -0.00000000000E+00 -0.00000000000E+00 -0.56081626076E+02  0.56081626076E+02  0.00000000000E+00 0.  1.
          5    1    1    2  502    0  0.94800971731E+01 -0.22255096017E+02  0.18836568032E+02  0.30942692778E+02  0.41800000000E+01 0.  1.
         -5    1    1    2    0  502 -0.64392582667E+02  0.14177446639E+03  0.19316427611E+03  0.24814575150E+03  0.41800000000E+01 0.  1.
        -11    1    1    2    0    0  0.28905799958E+02 -0.12228309939E+03  0.16903944603E+03  0.21062534506E+03  0.00000000000E+00 0.  1.
         11    1    1    2    0    0  0.26006685536E+02  0.27637290234E+01  0.96254307563E+02  0.99744060550E+02  0.00000000000E+00 0. -1.
</event>
<event>
 6    1  0.8259171E-006  0.1385610E+03  0.7561462E-02  0.1215278E+00
          2   -1    0    0  501    0  0.00000000000E+00  0.00000000000E+00  0.40204299068E+03  0.40204299068E+03  0.00000000000E+00 0. -1.
         -2   -1    0    0    0  501 -0.00000000000E+00 -0.00000000000E+00 -0.73803948106E+02  0.73803948106E+02  0.00000000000E+00 0.  1.
          5    1    1    2  502    0  0.32049729260E+02  0.92830121208E+01  0.63862119889E+02  0.72174803196E+02  0.41800000000E+01 0. -1.
         -5    1    1    2    0  502 -0.53430769053E+02  0.10989960075E+03  0.31226671459E+02  0.12619566846E+03  0.41800000000E+01 0. -1.
        -11    1    1    2    0    0  0.16746986250E+02 -0.77824454108E+02  0.21979850460E+03  0.23377016454E+03  0.00000000000E+00 0. -1.
         11    1    1    2    0    0  0.46340535428E+01 -0.41358158763E+02  0.13351746630E+02  0.43706302596E+02  0.00000000000E+00 0.  1.
</event>
<event>
 6    1  0.8259171E-006  0.1534400E+03  0.7561462E-02  0.1196309E+00
          1   -1    0    0  501    0  0.00000000000E+00  0.00000000000E+00  0.17594451440E+03  0.17594451440E+03  0.00000000000E+00 0. -1.
         -1   -1    0    0    0  501 -0.00000000000E+00 -0.00000000000E+00 -0.20878399986E+03  0.20878399986E+03  0.00000000000E+00 0.  1.
          5    1    1    2  502    0  0.85074659352E+02 -0.49276148862E+02 -0.20927580869E+02  0.10060453544E+03  0.41800000000E+01 0. -1.
         -5    1    1    2    0  502 -0.30452568863E+02 -0.56460140729E+02 -0.68132212901E+02  0.93672713617E+02  0.41800000000E+01 0. -1.
        -11    1    1    2    0    0  0.39393954878E+01  0.80212198109E+02 -0.27727865055E+02  0.84960873717E+02  0.00000000000E+00 0.  1.
         11    1    1    2    0    0 -0.58561485976E+02  0.25524091483E+02  0.83948173355E+02  0.10549039148E+03  0.00000000000E+00 0. -1.
</event>
<event>
 6    1  0.8259171E-006  0.1060064E+03  0.7561462E-02  0.1268149E+00
         -3   -1    0    0    0  501 -0.00000000000E+00  0.00000000000E+00  0.31828574737E+03  0.31828574737E+03  0.00000000000E+00 0.  1.
          3   -1    0    0  501    0  0.00000000000E+00 -0.00000000000E+00 -0.53749614784E+02  0.53749614784E+02  0.00000000000E+00 0. -1.
          5    1    1    2  502    0 -0.48620041628E+02  0.88135537220E+01  0.70105956791E+02  0.85871443185E+02  0.41800000000E+01 0. -1.
         -5    1    1    2    0  502  0.69562046034E+02 -0.35077162335E+02  0.16623619610E+03  0.18363341433E+03  0.41800000000E+01 0. -1.
        -11    1    1    2    0    0  0.28215130044E+02 -0.92660061939E+00  0.36071378586E+02  0.45804983410E+02  0.00000000000E+00 0.  1.
         11    1    1    2    0    0 -0.49157134450E+02  0.27190209232E+02 -0.78773988878E+01  0.56725521229E+02  0.00000000000E+00 0. -1.
</event>
<event>
 6    1  0.8259171E-006  0.1176218E+03  0.7561462E-02  0.1247073E+00
         -2   -1    0    0    0  501 -0.00000000000E+00  0.00000000000E+00  0.52610237073E+02  0.52610237073E+02  0.00000000000E+00 0.  1.
          2   -1    0    0  501    0  0.00000000000E+00 -0.00000000000E+00 -0.30142968143E+03  0.30142968143E+03  0.00000000000E+00 0. -1.
          5    1    1    2  502    0  0.54645112609E+02 -0.51406694711E+02 -0.39466118223E+02  0.84875105188E+02  0.41800000000E+01 0.  1.
         -5    1    1    2    0  502 -0.57813761098E+02  0.48005792262E+01 -0.38351494729E+02  0.69669118562E+02  0.41800000000E+01 0.  1.
        -11    1    1    2    0    0 -0.36739415348E+02 -0.45913964804E+01 -0.50462953631E+02  0.62588938726E+02  0.00000000000E+00 0.  1.
         11    1    1    2    0    0  0.39908063837E+02  0.51197511965E+02 -0.12053887777E+03  0.13690675603E+03  0.00000000000E+00 0. -1.
</event>
<event>
 6    1  0.8259171E-006  0.1232760E+03  0.7561462E-02  0.1237789E+00
          2   -1    0    0  501    0  0.00000000000E+00  0.00000000000E+00  0.72076710297E+02  0.72076710297E+02  0.00000000000E+00 0. -1.
         -2   -1    0    0    0  501 -0.00000000000E+00 -0.00000000000E+00 -0.36982666492E+03  0.36982666492E+03  0.00000000000E+00 0.  1.
          5    1    1    2  502    0 -0.45747664006E+02 -0.32393000795E+02 -0.19056952222E+03  0.19868661369E+03  0.41800000000E+01 0.  1.
         -5    1    1    2    0  502 -0.69114060185E+01 -0.70870765412E+02 -0.23697778497E+02  0.75163089538E+02  0.41800000000E+01 0.  1.
        -11    1    1    2    0    0  0.19011199231E+02  0.13979726231E+02 -0.67248336609E+02  0.71268486853E+02  0.00000000000E+00 0.  1.
         11    1    1    2    0    0  0.33647870794E+02  0.89284039977E+02 -0.16234317304E+02  0.96785185136E+02  0.00000000000E+00 0. -1.
</event>
<event>
 6    1  0.8259171E-006  0.9947751E+02  0.7561462E-02  0.1281399E+00
          2   -1    0    0  501    0  0.00000000000E+00  0.00000000000E+00  0.18824655954E+03  0.18824655954E+03  0.00000000000E+00 0. -1.
         -2   -1    0    0    0  501 -0.00000000000E+00 -0.00000000000E+00 -0.93005539892E+02  0.93005539892E+02  0.00000000000E+00 0.  1.
          5    1    1    2  502    0  0.41723931602E+02 -0.10175296054E+02 -0.30198656224E+02  0.52667393668E+02  0.41800000000E+01 0. -1.
         -5    1    1    2    0  502 -0.10643293740E+01  0.71872734513E+02  0.64373012563E+02  0.96582503125E+02  0.41800000000E+01 0. -1.
        -11    1    1    2    0    0  0.45232536466E+01 -0.25530486195E+02  0.68883366469E+02  0.73601519856E+02  0.00000000000E+00 0. -1.
         11    1    1    2    0    0 -0.45182855874E+02 -0.36166952264E+02 -0.78167031616E+01  0.58400682781E+02  0.00000000000E+00 0.  1.
</event>
<event>
 6    1  0.8259171E-006  0.1239077E+03  0.7561462E-02  0.1236786E+00
         -1   -1    0    0    0  501 -0.00000000000E+00  0.00000000000E+00  0.31639975840E+03  0.31639975840E+03  0.00000000000E+00 0.  1.
          1   -1    0    0  501    0  0.00000000000E+00 -0.00000000000E+00 -0.69727802427E+02  0.69727802427E+02  0.00000000000E+00 0. -1.
          5    1    1    2  502    0 -0.33423044532E+02  0.60872964910E+01  0.83319211730E+02  0.90076181800E+02  0.41800000000E+01 0. -1.
         -5    1    1    2    0  502  0.42691868687E+02 -0.10540074245E+03  0.84089669312E+02  0.14149366433E+03  0.41800000000E+01 0. -1.
        -11    1    1    2    0    0 -0.46015117272E+01  0.33841637782E+02 -0.16918281767E+02  0.38113758879E+02  0.00000000000E+00 0. -1.
         11    1    1    2    0    0 -0.46673124284E+01  0.65471808174E+02  0.96181356702E+02  0.11644395582E+03  0.00000000000E+00 0.  1.
</event>
<event>
 6    1  0.8259171E-006  0.1024890E+03  0.7561462E-02  0.1275147E+00
          2   -1    0    0  501    0  0.00000000000E+00  0.00000000000E+00  0.41705365146E+03  0.41705365146E+03  0.00000000000E+00 0. -1.
         -2   -1    0    0    0  501 -0.00000000000E+00 -0.00000000000E+00 -0.30706122456E+02  0.30706122456E+02  0.00000000000E+00 0.  1.
          5    1    1    2  502    0  0.40022815079E+02 -0.37828812053E+02  0.17090013925E+03  0.17960282499E+03  0.41800000000E+01 0. -1.
         -5    1    1    2    0  502 -0.56115797850E+02  0.14223630825E+02  0.53741319035E+02  0.79100544965E+02  0.41800000000E+01 0. -1.
        -11    1    1    2    0    0 -0.35002046516E+02 -0.95687935106E+00  0.31724070344E+02  0.47249079542E+02  0.00000000000E+00 0.  1.
         11    1    1    2    0    0  0.51095029287E+02  0.24562060580E+02  0.12998200038E+03  0.14180732442E+03  0.00000000000E+00 0. -1.
</event>
<event>
 6    1  0.8259171E-006  0.1161947E+03  0.7561462E-02  0.1249510E+00
          1   -1    0    0  501    0  0.00000000000E+00  0.00000000000E+00  0.46172406869E+02  0.46172406869E+02  0.00000000000E+00 0. -1.
         -1   -1    0    0    0  501 -0.00000000000E+00 -0.00000000000E+00 -0.38898791463E+03  0.38898791463E+03  0.00000000000E+00 0.  1.
          5    1    1    2  502    0 -0.70585661784E+02 -0.14383482349E+02 -0.21382967350E+03  0.22567636536E+03  0.41800000000E+01 0.  1.
         -5    1    1    2    0  502  0.42432980510E+02 -0.34656452192E+02 -0.64998206415E+02  0.85110908529E+02  0.41800000000E+01 0.  1.
        -11    1    1    2    0    0 -0.13816472716E+02  0.60275434536E+02 -0.27673931069E+02  0.67748574802E+02  0.00000000000E+00 0. -1.
         11    1    1    2    0    0  0.41969153990E+02 -0.11235499995E+02 -0.36313696774E+02  0.56624472802E+02  0.00000000000E+00 0.  1.
</event>
<event>
 6    1  0.8259171E-006  0.1040826E+03  0.7561462E-02  0.1271938E+00
         -2   -1    0    0    0  501 -0.00000000000E+00  0.00000000000E+00  0.27893221860E+02  0.27893221860E+02  0.00000000000E+00 0.  1.
          2   -1    0    0  501    0  0.00000000000E+00 -0.00000000000E+00 -0.46152309253E+03  0.46152309253E+03  0.00000000000E+00 0. -1.
          5    1    1    2  502    0 -0.47173198149E+02  0.63550165836E+02 -0.14533539219E+03  0.16554087962E+03  0.41800000000E+01 0. -1.
         -5    1    1    2    0  502  0.23768764029E+02 -0.42712036217E+02 -0.11312651752E+03  0.12330593476E+03  0.41800000000E+01 0. -1.
        -11    1    1    2    0    0  0.21133409710E+01  0.27212693552E+02 -0.12488593822E+03  0.12783385493E+03  0.00000000000E+00 0. -1.
         11    1    1    2    0    0  0.21291093149E+02 -0.48050823171E+02 -0.50282022735E+02  0.72735645080E+02  0.00000000000E+00 0.  1.
</event>
<event>
 6    1  0.8259171E-006  0.1207520E+03  0.7561462E-02  0.1241862E+00
         -2   -1    0    0    0  501 -0.00000000000E+00  0.00000000000E+00  0.81035381160E+02  0.81035381160E+02  0.00000000000E+00 0.  1.
          2   -1    0    0  501    0  0.00000000000E+00 -0.00000000000E+00 -0.19623399789E+03  0.19623399789E+03  0.00000000000E+00 0. -1.
          5    1    1    2  502    0  0.85449774653E+02  0.18577170618E+02 -0.43010259612E+02  0.97540402338E+02  0.41800000000E+01 0.  1.
         -5    1    1    2    0  502 -0.41193481269E+02  0.19701976147E+02  0.38106991933E+01  0.46011570191E+02  0.41800000000E+01 0.  1.
        -11    1    1    2    0    0 -0.42134743748E+02 -0.67085728464E+02 -0.44036218789E+02  0.90636748394E+02  0.00000000000E+00 0.  1.
         11    1    1    2    0    0 -0.21215496360E+01  0.28806581699E+02 -0.31962837522E+02  0.43080658125E+02  0.00000000000E+00 0. -1.
</event>
<event>
 6    1  0.8259171E-006  0.1224735E+03  0.7561462E-02  0.1239071E+00
         -2   -1    0    0    0  501 -0.00000000000E+00  0.00000000000E+00  0.33365875986E+03  0.33365875986E+03  0.00000000000E+00 0.  1.
          2   -1    0    0  501    0  0.00000000000E+00 -0.00000000000E+00 -0.56250485520E+02  0.56250485520E+02  0.00000000000E+00 0. -1.
          5    1    1    2  502    0  0.67200607516E+01  0.37453176858E+02  0.64994458362E+02  0.75429779868E+02  0.41800000000E+01 0.  1.
         -5    1    1    2    0  502 -0.93049531639E+01 -0.10191883067E+03  0.16304614013E+03  0.19255011402E+03  0.41800000000E+01 0.  1.
        -11    1    1    2    0    0 -0.33034810482E+02  0.29648278740E+01  0.37174142779E+02  0.49819733031E+02  0.00000000000E+00 0. -1.
         11    1    1    2    0    0  0.35619702895E+02  0.61500825936E+02  0.12193533065E+02  0.72109618455E+02  0.00000000000E+00 0.  1.
</event>
<event>
 6    1  0.8259171E-006  0.1171194E+03  0.7561462E-02  0.1247926E+00
         -1   -1    0    0    0  501 -0.00000000000E+00  0.00000000000E+00  0.36859274068E+02  0.36859274068E+02  0.00000000000E+00 0.  1.
          1   -1    0    0  501    0  0.00000000000E+00 -0.00000000000E+00 -0.62712710516E+03  0.62712710516E+03  0.00000000000E+00 0. -1.
          5    1    1    2  502    0 -0.20186875748E+02  0.39818409911E+02 -0.24290856002E+03  0.24701226012E+03  0.41800000000E+01 0. -1.
         -5    1    1    2    0  502 -0.49773291228E+02  0.35864425584E+02 -0.25567183703E+02  0.66594225159E+02  0.41800000000E+01 0. -1.
        -11    1    1    2    0    0  0.25598853270E+02  0.13029367687E+02 -0.14358614002E+03  0.14643102580E+03  0.00000000000E+00 0.  1.
         11    1    1    2    0    0  0.44361313707E+02 -0.88712203182E+02 -0.17820594735E+03  0.20394886815E+03  0.00000000000E+00 0. -1.
</event>
<event>
 6    1  0.8259171E-006  0.9666069E+02  0.7561462E-02  0.1287479E+00
          2   -1    0    0  501    0  0.00000000000E+00  0.00000000000E+00  0.73781633200E+02  0.73781633200E+02  0.00000000000E+00 0. -1.
         -2   -1    0    0    0  501 -0.00000000000E+00 -0.00000000000E+00 -0.21825561450E+03  0.21825561450E+03  0.00000000000E+00 0.  1.
          5    1    1    2  502    0  0.28175162928E+02  0.95504391895E+01  0.66288354923E+01  0.30764664060E+02  0.41800000000E+01 0.  1.
         -5    1    1    2    0  502 -0.83310424105E+02 -0.46442352677E+02 -0.10340842243E+03  0.14074193802E+03  0.41800000000E+01 0.  1.
        -11    1    1    2    0    0  0.26920330050E+02  0.26398299501E+02  0.22672083191E+02  0.43995428657E+02  0.00000000000E+00 0. -1.
         11    1    1    2    0    0  0.28214931127E+02  0.10493613987E+02 -0.70366477549E+02  0.76535216963E+02  0.00000000000E+00 0.  1.
</event>
<event>
 6    1  0.8259171E-006  0.1330981E+03  0.7561462E-02  0.1222930E+00
          2   -1    0    0  501    0  0.00000000000E+00  0.00000000000E+00  0.17168636560E+03  0.17168636560E+03  0.00000000000E+00 0.  1.
         -2   -1    0    0    0  501 -0.00000000000E+00 -0.00000000000E+00 -0.15572778481E+03  0.15572778481E+03  0.00000000000E+00 0. -1.
          5    1    1    2  502    0  0.26583128140E+02  0.51593207501E+02 -0.25814368257E+02  0.63658273385E+02  0.41800000000E+01 0.  1.
         -5    1    1    2    0  502 -0.97257020497E+02  0.90824220321E+01 -0.44725135655E+02  0.10751385299E+03  0.41800000000E+01 0.  1.
        -11    1    1    2    0    0  0.77018387112E+02 -0.36475125756E+02  0.96992642213E+02  0.12911173222E+03  0.00000000000E+00 0.  1.
         11    1    1    2    0    0 -0.63444947550E+01 -0.24200503777E+02 -0.10494557505E+02  0.27130291815E+02  0.00000000000E+00 0. -1.
</event>
<event>
 6    1  0.8259171E-006  0.1667767E+03  0.7561462E-02  0.1181252E+00
         -1   -1    0    0    0  501 -0.00000000000E+00  0.00000000000E+00  0.45934901333E+02  0.45934901333E+02  0.00000000000E+00 0.  1.
          1   -1    0    0  501    0  0.00000000000E+00 -0.00000000000E+00 -0.76091312365E+03  0.76091312365E+03  0.00000000000E+00 0. -1.
          5    1    1    2  502    0 -0.65703169034E+01  0.37053294763E+02 -0.62398733319E+02  0.72987601939E+02  0.41800000000E+01 0.  1.
         -5    1    1    2    0  502 -0.13103301960E+03 -0.76585601472E+02 -0.20436464638E+03  0.25459259154E+03  0.41800000000E+01 0.  1.
        -11    1    1    2    0    0  0.85134223784E+02  0.17294057728E+02 -0.13242395902E+03  0.15837621480E+03  0.00000000000E+00 0.  1.
         11    1    1    2    0    0  0.52469112715E+02  0.22238248981E+02 -0.31579088360E+03  0.32089161670E+03  0.00000000000E+00 0. -1.
</event>
<event>
 6    1  0.8259171E-006  0.1131577E+03  0.7561462E-02  0.1254832E+00
          2   -1    0    0  501    0  0.00000000000E+00  0.00000000000E+00  0.77798023165E+02  0.77798023165E+02  0.00000000000E+00 0. -1.
         -2   -1    0    0    0  501 -0.00000000000E+00 -0.00000000000E+00 -0.33106572887E+03  0.33106572887E+03  0.00000000000E+00 0.  1.
          5    1    1    2  502    0 -0.93400141622E+00 -0.42207381125E+02 -0.16280689925E+02  0.45440825747E+02  0.41800000000E+01 0. -1.
         -5    1    1    2    0  502  0.67092884093E+02  0.26549933598E+02 -0.23382235252E+03  0.24473806203E+03  0.41800000000E+01 0.  1.
        -11    1    1    2    0    0 -0.40781850720E+01 -0.32681122442E+02  0.17556062960E+02  0.37321611757E+02  0.00000000000E+00 0. -1.
         11    1    1    2    0    0 -0.62080697605E+02  0.48338569969E+02 -0.20720726218E+02  0.81363252496E+02  0.00000000000E+00 0.  1.
</event>
<event>
 6    1  0.8259171E-006  0.8595884E+02  0.7561462E-02  0.1312944E+00
          2   -1    0    0  501    0  0.00000000000E+00  0.00000000000E+00  0.23171692218E+03  0.23171692218E+03  0.00000000000E+00 0. -1.
         -2   -1    0    0    0  501 -0.00000000000E+00 -0.00000000000E+00 -0.68374139977E+02  0.68374139977E+02  0.00000000000E+00 0.  1.
          5    1    1    2  502    0  0.54812946546E+02  0.16396885442E+02  0.72586045829E+02  0.92517692418E+02  0.41800000000E+01 0. -1.
         -5    1    1    2    0  502 -0.96086604197E+01 -0.54455453615E+02 -0.14791374952E+02  0.57393204794E+02  0.41800000000E+01 0. -1.
        -11    1    1    2    0    0 -0.27623030095E+02  0.22732746782E+02 -0.59525360597E+01  0.36266268811E+02  0.00000000000E+00 0.  1.
         11    1    1    2    0    0 -0.17581256031E+02  0.15325821392E+02  0.11150064739E+03  0.11391389614E+03  0.00000000000E+00 0. -1.
</event>
<event>
 6    1  0.8259171E-006  0.1958415E+03  0.7561462E-02  0.1153296E+00
          1   -1    0    0  501    0  0.00000000000E+00  0.00000000000E+00  0.44378998637E+03  0.44378998637E+03  0.00000000000E+00 0. -1.
         -1   -1    0    0    0  501 -0.00000000000E+00 -0.00000000000E+00 -0.12246766131E+03  0.12246766131E+03  0.00000000000E+00 0.  1.
          5    1    1    2  502    0  0.15768400986E+03  0.57246876766E+02  0.49698555664E+02  0.17501105880E+03  0.41800000000E+01 0.  1.
         -5    1    1    2    0  502 -0.11068846072E+02  0.42049149419E+02 -0.11415534291E+02  0.45149054734E+02  0.41800000000E+01 0.  1.
        -11    1    1    2    0    0 -0.54984237901E+02 -0.57249133379E+02  0.20104152342E+03  0.21614445130E+03  0.00000000000E+00 0. -1.
         11    1    1    2    0    0 -0.91630925890E+02 -0.42046892807E+02  0.81997780274E+02  0.12995308286E+03  0.00000000000E+00 0.  1.
</event>
<event>
 6    1  0.8259171E-006  0.6263722E+02  0.7561462E-02  0.1387086E+00
          2   -1    0    0  501    0  0.00000000000E+00  0.00000000000E+00  0.18805790699E+03  0.18805790699E+03  0.00000000000E+00 0. -1.
         -2   -1    0    0    0  501 -0.00000000000E+00 -0.00000000000E+00 -0.84483704073E+02  0.84483704073E+02  0.00000000000E+00 0.  1.
          5    1    1    2  502    0  0.38677559517E+02 -0.45839707568E+00  0.77815264084E+02  0.86999146332E+02  0.41800000000E+01 0. -1.
         -5    1    1    2    0  502  0.18220509859E+02 -0.11178114472E+02 -0.49274111492E+02  0.53873441379E+02  0.41800000000E+01 0. -1.
        -11    1    1    2    0    0 -0.17511354090E+02 -0.94641661742E+01 -0.19026370178E+02  0.27535808061E+02  0.00000000000E+00 0.  1.
         11    1    1    2    0    0 -0.39386715286E+02  0.21100677722E+02  0.94059420504E+02  0.10413321529E+03  0.00000000000E+00 0. -1.
</event>
<event>
 6    1  0.8259171E-006  0.9169438E+02  0.7561462E-02  0.1298800E+00
         -1   -1    0    0    0  501 -0.00000000000E+00  0.00000000000E+00  0.21133338400E+03  0.21133338400E+03  0.00000000000E+00 0.  1.
          1   -1    0    0  501    0  0.00000000000E+00 -0.00000000000E+00 -0.63110111411E+02  0.63110111411E+02  0.00000000000E+00 0. -1.
          5    1    1    2  502    0  0.69483213894E+02  0.17120431110E+02  0.14197885131E+02  0.73075840855E+02  0.41800000000E+01 0.  1.
         -5    1    1    2    0  502 -0.34925516251E+02 -0.12518545408E+02  0.77097294270E+02  0.85661956832E+02  0.41800000000E+01 0.  1.
        -11    1    1    2    0    0  0.19020041947E+02  0.56036898041E+01 -0.15408523541E+02  0.25111470145E+02  0.00000000000E+00 0. -1.
         11    1    1    2    0    0 -0.53577739591E+02 -0.10205575505E+02  0.72336616731E+02  0.90594227582E+02  0.00000000000E+00 0.  1.
</event>
<event>
 6    1  0.8259171E-006  0.1073035E+03  0.7561462E-02  0.1265646E+00
         -2   -1    0    0    0  501 -0.00000000000E+00  0.00000000000E+00  0.60475510421E+02  0.60475510421E+02  0.00000000000E+00 0.  1.
          2   -1    0    0  501    0  0.00000000000E+00 -0.00000000000E+00 -0.27247678181E+03  0.27247678181E+03  0.00000000000E+00 0. -1.
          5    1    1    2  502    0  0.19451138096E+02  0.14279375621E+01  0.20312246232E+02  0.28468324958E+02  0.41800000000E+01 0.  1.
         -5    1    1    2    0  502 -0.71212923330E+02 -0.43240095025E+02 -0.11451265909E+03  0.14167430169E+03  0.41800000000E+01 0.  1.
        -11    1    1    2    0    0  0.13460719878E+02 -0.28307547695E+02 -0.23282437702E+02  0.39045872272E+02  0.00000000000E+00 0. -1.
         11    1    1    2    0    0  0.38301065357E+02  0.70119705157E+02 -0.94518420824E+02  0.12376379331E+03  0.00000000000E+00 0.  1.
</event>
<event>
 6    1  0.8259171E-006  0.2469095E+03  0.7561462E-02  0.1115274E+00
         -2   -1    0    0    0  501 -0.00000000000E+00  0.00000000000E+00  0.76769279264E+02  0.76769279264E+02  0.00000000000E+00 0.  1.
          2   -1    0    0  501    0  0.00000000000E+00 -0.00000000000E+00 -0.10373626289E+04  0.10373626289E+04  0.00000000000E+00 0. -1.
          5    1    1    2  502    0  0.32150873661E+02 -0.87035315063E+01 -0.24487588282E+02  0.41551708963E+02  0.41800000000E+01 0. -1.
         -5    1    1    2    0  502  0.60733150130E+02  0.22037436862E+03 -0.22954553360E+03  0.32397839783E+03  0.41800000000E+01 0. -1.
        -11    1    1    2    0    0 -0.57659098519E+02 -0.11317625630E+03 -0.51402652142E+03  0.52948720604E+03  0.00000000000E+00 0.  1.
         11    1    1    2    0    0 -0.35224925273E+02 -0.98494580814E+02 -0.19253370630E+03  0.21911459530E+03  0.00000000000E+00 0. -1.
</event>
<event>
 6    1  0.8259171E-006  0.7584218E+02  0.7561462E-02  0.1341283E+00
         -1   -1    0    0    0  501 -0.00000000000E+00  0.00000000000E+00  0.18693458767E+03  0.18693458767E+03  0.00000000000E+00 0.  1.
          1   -1    0    0  501    0  0.00000000000E+00 -0.00000000000E+00 -0.72659717355E+02  0.72659717355E+02  0.00000000000E+00 0. -1.
          5    1    1    2  502    0 -0.44849061380E+02 -0.67815706841E+01  0.12105971310E+03  0.12934587177E+03  0.41800000000E+01 0. -1.
         -5    1    1    2    0  502  0.27839704645E+02 -0.13241457803E+02 -0.17021599056E+02  0.35462551993E+02  0.41800000000E+01 0. -1.
        -11    1    1    2    0    0 -0.26474220434E+02 -0.14750206988E+01 -0.23717844855E+02  0.35575218877E+02  0.00000000000E+00 0. -1.
         11    1    1    2    0    0  0.43483577168E+02  0.21498049186E+02  0.33954601118E+02  0.59210662378E+02  0.00000000000E+00 0.  1.
</event>
<event>
 6    1  0.8259171E-006  0.5197439E+02  0.7561462E-02  0.1434974E+00
         -2   -1    0    0    0  501 -0.00000000000E+00  0.00000000000E+00  0.49368357144E+02  0.49368357144E+02  0.00000000000E+00 0.  1.
          2   -1    0    0  501    0  0.00000000000E+00 -0.00000000000E+00 -0.30065213958E+03  0.30065213958E+03  0.00000000000E+00 0. -1.
          5    1    1    2  502    0  0.69418072795E+01 -0.21355965533E+02 -0.11706573528E+03  0.11927331943E+03  0.41800000000E+01 0. -1.
         -5    1    1    2    0  502 -0.31895808205E+01 -0.20816417170E+02  0.31473418372E+02  0.38099148463E+02  0.41800000000E+01 0. -1.
        -11    1    1    2    0    0  0.64733401490E+01  0.47615128615E+02 -0.17259738740E+03  0.17916183394E+03  0.00000000000E+00 0. -1.
         11    1    1    2    0    0 -0.10225566608E+02 -0.54427459124E+01  0.69059218703E+01  0.13486194882E+02  0.00000000000E+00 0.  1.
</event>
<event>
 6    1  0.8259171E-006  0.9400895E+02  0.7561462E-02  0.1293424E+00
         -1   -1    0    0    0  501 -0.00000000000E+00  0.00000000000E+00  0.28915104301E+03  0.28915104301E+03  0.00000000000E+00 0.  1.
          1   -1    0    0  501    0  0.00000000000E+00 -0.00000000000E+00 -0.58494598114E+02  0.58494598114E+02  0.00000000000E+00 0. -1.
          5    1    1    2  502    0  0.35444140351E+02  0.61302919749E+02  0.12103636229E+03  0.14029115599E+03  0.41800000000E+01 0.  1.
         -5    1    1    2    0  502  0.19361466144E+02 -0.57705068962E+02  0.51918376035E+02  0.80110745380E+02  0.41800000000E+01 0.  1.
        -11    1    1    2    0    0 -0.28278157643E+02 -0.75098455939E+01 -0.26130077595E+02  0.39227961146E+02  0.00000000000E+00 0. -1.
         11    1    1    2    0    0 -0.26527448851E+02  0.39119948070E+01  0.83831784172E+02  0.88015778604E+02  0.00000000000E+00 0.  1.
</event>
<event>
 6    1  0.8259171E-006  0.1354585E+03  0.7561462E-02  0.1219574E+00
          1   -1    0    0  501    0  0.00000000000E+00  0.00000000000E+00  0.58751886751E+03  0.58751886751E+03  0.00000000000E+00 0. -1.
         -1   -1    0    0    0  501 -0.00000000000E+00 -0.00000000000E+00 -0.35263038029E+02  0.35263038029E+02  0.00000000000E+00 0.  1.
          5    1    1    2  502    0  0.38771317507E+02  0.11807386407E+03  0.20853433018E+03  0.24279351660E+03  0.41800000000E+01 0. -1.
         -5    1    1    2    0  502 -0.14749472485E+02 -0.27787642166E+02  0.56986430317E+02  0.65227491413E+02  0.41800000000E+01 0. -1.
        -11    1    1    2    0    0 -0.41705885935E+02 -0.28365635298E+02  0.56723430509E+02  0.75904794026E+02  0.00000000000E+00 0.  1.
         11    1    1    2    0    0  0.17684040913E+02 -0.61920586601E+02  0.23001163847E+03  0.23885610350E+03  0.00000000000E+00 0. -1.
</event>
<event>
 6    1  0.8259171E-006  0.1089710E+03  0.7561462E-02  0.1262487E+00
         -1   -1    0    0    0  501 -0.00000000000E+00  0.00000000000E+00  0.80562229801E+02  0.80562229801E+02  0.00000000000E+00 0. -1.
          1   -1    0    0  501    0  0.00000000000E+00 -0.00000000000E+00 -0.17908574244E+03  0.17908574244E+03  0.00000000000E+00 0.  1.
          5    1    1    2  502    0 -0.75098077150E+02  0.21005894015E+02 -0.27837509559E+02  0.82905778529E+02  0.41800000000E+01 0.  1.
         -5    1    1    2    0  502  0.38663592476E+02 -0.27647122418E+02  0.10001835861E+02  0.48751880802E+02  0.41800000000E+01 0.  1.
        -11    1    1    2    0    0  0.11802282048E+02 -0.38740755433E+02 -0.59946232590E+02  0.72344251982E+02  0.00000000000E+00 0.  1.
         11    1    1    2    0    0  0.24632202626E+02  0.45381983836E+02 -0.20741606353E+02  0.55646060932E+02  0.00000000000E+00 0. -1.
</event>
<event>
 6    1  0.8259171E-006  0.1492236E+03  0.7561462E-02  0.1201430E+00
         -2   -1    0    0    0  501 -0.00000000000E+00  0.00000000000E+00  0.21691913307E+02  0.21691913307E+02  0.00000000000E+00 0.  1.
          2   -1    0    0  501    0  0.00000000000E+00 -0.00000000000E+00 -0.14265563780E+04  0.14265563780E+04  0.00000000000E+00 0. -1.
          5    1    1    2  502    0  0.41876039912E+02 -0.62657564690E+02 -0.54631436234E+03  0.55150378786E+03  0.41800000000E+01 0.  1.
         -5    1    1    2    0  502  0.53355688493E+02 -0.32881655009E+02 -0.82629983086E+02  0.10379411946E+03  0.41800000000E+01 0.  1.
        -11    1    1    2    0    0 -0.39055670854E+02  0.96358949066E+02 -0.57492535580E+03  0.58425127919E+03  0.00000000000E+00 0. -1.
         11    1    1    2    0    0 -0.56176057551E+02 -0.81972936683E+00 -0.20099476347E+03  0.20869910479E+03  0.00000000000E+00 0.  1.
</event>
<event>
 6    1  0.8259171E-006  0.7970679E+02  0.7561462E-02  0.1329886E+00
          2   -1    0    0  501    0  0.00000000000E+00  0.00000000000E+00  0.30092021246E+03  0.30092021246E+03  0.00000000000E+00 0. -1.
         -2   -1    0    0    0  501 -0.00000000000E+00 -0.00000000000E+00 -0.53628170083E+02  0.53628170083E+02  0.00000000000E+00 0.  1.
          5    1    1    2  502    0 -0.22764276470E+02  0.47989808246E+02 -0.15188463634E+02  0.55402128175E+02  0.41800000000E+01 0.  1.
         -5    1    1    2    0  502 -0.70944447358E+01 -0.30941221157E+02  0.87380506266E+02  0.93061891170E+02  0.41800000000E+01 0.  1.
        -11    1    1    2    0    0 -0.21001080536E+02 -0.21057343390E+01 -0.20191773005E+01  0.21202749297E+02  0.00000000000E+00 0.  1.
         11    1    1    2    0    0  0.50859801742E+02 -0.14942852750E+02  0.17711917704E+03  0.18488161390E+03  0.00000000000E+00 0. -1.
</event>
<event>
 6    1  0.8259171E-006  0.9333327E+02  0.7561462E-02  0.1294975E+00
         -1   -1    0    0    0  501 -0.00000000000E+00  0.00000000000E+00  0.59595710686E+02  0.59595710686E+02  0.00000000000E+00 0.  1.
          1   -1    0    0  501    0  0.00000000000E+00 -0.00000000000E+00 -0.22864762382E+03  0.22864762382E+03  0.00000000000E+00 0. -1.
          5    1    1    2  502    0  0.12909573234E+02 -0.21459022017E+02  0.23591788588E+02  0.34658211087E+02  0.41800000000E+01 0.  1.
         -5    1    1    2    0  502 -0.38880085438E+02  0.45686797202E+02 -0.98507480445E+02  0.11541291343E+03  0.41800000000E+01 0.  1.
        -11    1    1    2    0    0 -0.16163487720E+02 -0.49456531595E+02 -0.48920954535E+02  0.71417551382E+02  0.00000000000E+00 0.  1.
         11    1    1    2    0    0  0.42133999924E+02  0.25228756410E+02 -0.45215266739E+02  0.66754658608E+02  0.00000000000E+00 0. -1.
</event>
<event>
 6    1  0.8259171E-006  0.1114984E+03  0.7561462E-02  0.1257820E+00
          2   -1    0    0  501    0  0.00000000000E+00  0.00000000000E+00  0.26012780500E+03  0.26012780500E+03  0.00000000000E+00 0.  1.
         -2   -1    0    0    0  501 -0.00000000000E+00 -0.00000000000E+00 -0.63447205480E+02  0.63447205480E+02  0.00000000000E+00 0. -1.
          5    1    1    2  502    0 -0.70997641002E+02 -0.40121710538E+02  0.17490212365E+02  0.83509260641E+02  0.41800000000E+01 0.  1.
         -5    1    1    2    0  502  0.19259015621E+02  0.46380756868E+02  0.37129297707E+02  0.62595059218E+02  0.41800000000E+01 0.  1.
        -11    1    1    2    0    0 -0.15578308115E+02 -0.16683909109E+02  0.35302064046E+01  0.23097594337E+02  0.00000000000E+00 0. -1.
         11    1    1    2    0    0  0.67316933495E+02  0.10424862780E+02  0.13853088304E+03  0.15437309628E+03  0.00000000000E+00 0.  1.
</event>
<event>
 6    1  0.8259171E-006  0.8601974E+02  0.7561462E-02  0.1312787E+00
         -2   -1    0    0    0  501 -0.00000000000E+00  0.00000000000E+00  0.38451142830E+02  0.38451142830E+02  0.00000000000E+00 0.  1.
          2   -1    0    0  501    0  0.00000000000E+00 -0.00000000000E+00 -0.35754236354E+03  0.35754236354E+03  0.00000000000E+00 0. -1.
          5    1    1    2  502    0  0.54539842945E+02 -0.63417928638E+02 -0.10253939222E+03  0.13239421248E+03  0.41800000000E+01 0. -1.
         -5    1    1    2    0  502 -0.23695240916E+02  0.33060236837E+02 -0.11731510675E+03  0.12423667081E+03  0.41800000000E+01 0. -1.
        -11    1    1    2    0    0 -0.24302553024E+02  0.10463950241E+02 -0.11183561568E+03  0.11492307546E+03  0.00000000000E+00 0. -1.
         11    1    1    2    0    0 -0.65420490046E+01  0.19893741559E+02  0.12598893956E+02  0.24439547609E+02  0.00000000000E+00 0.  1.
</event>
<event>
 6    1  0.8259171E-006  0.1475584E+03  0.7561462E-02  0.1203506E+00
         -2   -1    0    0    0  501 -0.00000000000E+00  0.00000000000E+00  0.41336423945E+02  0.41336423945E+02  0.00000000000E+00 0.  1.
          2   -1    0    0  501    0  0.00000000000E+00 -0.00000000000E+00 -0.55658245452E+03  0.55658245452E+03  0.00000000000E+00 0. -1.
          5    1    1    2  502    0  0.10066244179E+03  0.11311858690E+02 -0.19474776992E+03  0.21955648846E+03  0.41800000000E+01 0. -1.
         -5    1    1    2    0  502  0.30500223385E+01 -0.55332906200E+02 -0.60459209951E+02  0.82120774550E+02  0.41800000000E+01 0.  1.
        -11    1    1    2    0    0  0.58992851808E+01 -0.13238803445E+02 -0.54252094065E+02  0.56154761087E+02  0.00000000000E+00 0. -1.
         11    1    1    2    0    0 -0.10961174931E+03  0.57259850955E+02 -0.20578695664E+03  0.24008685437E+03  0.00000000000E+00 0.  1.
</event>
<event>
 6    1  0.8259171E-006  0.1098318E+03  0.7561462E-02  0.1260882E+00
         -2   -1    0    0    0  501 -0.00000000000E+00  0.00000000000E+00  0.10928152668E+03  0.10928152668E+03  0.00000000000E+00 0.  1.
          2   -1    0    0  501    0  0.00000000000E+00 -0.00000000000E+00 -0.13832295579E+03  0.13832295579E+03  0.00000000000E+00 0. -1.
          5    1    1    2  502    0 -0.19887904993E+02  0.71600344736E+02 -0.38285535435E+02  0.83698224323E+02  0.41800000000E+01 0. -1.
         -5    1    1    2    0  502  0.47811771751E+02 -0.24133953535E+02  0.13056110824E+02  0.55284244239E+02  0.41800000000E+01 0. -1.
        -11    1    1    2    0    0 -0.28611757607E+02  0.12728868480E+02 -0.29637959711E+02  0.43116880940E+02  0.00000000000E+00 0. -1.
         11    1    1    2    0    0  0.68789084895E+00 -0.60195259682E+02  0.25825955218E+02  0.65505132966E+02  0.00000000000E+00 0.  1.
</event>
<event>
 6    1  0.8259171E-006  0.1496680E+03  0.7561462E-02  0.1200882E+00
         -1   -1    0    0    0  501 -0.00000000000E+00  0.00000000000E+00  0.59340745849E+02  0.59340745849E+02  0.00000000000E+00 0.  1.
          1   -1    0    0  501    0  0.00000000000E+00 -0.00000000000E+00 -0.44929660393E+03  0.44929660393E+03  0.00000000000E+00 0. -1.
          5    1    1    2  502    0  0.50324189296E+01 -0.18565967527E+02  0.53690898916E+01  0.20403919152E+02  0.41800000000E+01 0. -1.
         -5    1    1    2    0  502 -0.23601100212E+02  0.13833129608E+03 -0.15598449395E+03  0.20985993939E+03  0.41800000000E+01 0. -1.
        -11    1    1    2    0    0  0.41760278998E+02 -0.46928611430E+02 -0.80614323157E+02  0.10220021806E+03  0.00000000000E+00 0.  1.
         11    1    1    2    0    0 -0.23191597716E+02 -0.72836717121E+02 -0.15872613086E+03  0.17617327318E+03  0.00000000000E+00 0. -1.
</event>
<event>
 6    1  0.8259171E-006  0.1698545E+03  0.7561462E-02  0.1178000E+00
          1   -1    0    0  501    0  0.00000000000E+00  0.00000000000E+00  0.72526710657E+03  0.72526710657E+03  0.00000000000E+00 0. -1.
         -1   -1    0    0    0  501 -0.00000000000E+00 -0.00000000000E+00 -0.50062419221E+02  0.50062419221E+02  0.00000000000E+00 0.  1.
          5    1    1    2  502    0  0.40253318461E+02  0.31588469609E+02  0.23368266392E+02  0.56406642636E+02  0.41800000000E+01 0.  1.
         -5    1    1    2    0  502  0.10917104273E+03  0.12678341989E+02  0.35281472289E+03  0.36956022244E+03  0.41800000000E+01 0.  1.
        -11    1    1    2    0    0 -0.13014416476E+03 -0.44938679232E-01  0.19177580606E+03  0.23176597125E+03  0.00000000000E+00 0. -1.
         11    1    1    2    0    0 -0.19280196428E+02 -0.44221872919E+02  0.10724589200E+03  0.11759668945E+03  0.00000000000E+00 0.  1.
</event>
<event>
 6    1  0.8259171E-006  0.1355472E+03  0.7561462E-02  0.1219449E+00
         -1   -1    0    0    0  501 -0.00000000000E+00  0.00000000000E+00  0.50108944310E+02  0.50108944310E+02  0.00000000000E+00 0.  1.
          1   -1    0    0  501    0  0.00000000000E+00 -0.00000000000E+00 -0.59355962726E+03  0.59355962726E+03  0.00000000000E+00 0. -1.
          5    1    1    2  502    0  0.12507289436E+02  0.17473700977E+02  0.31916009221E+01  0.22122866706E+02  0.41800000000E+01 0. -1.
         -5    1    1    2    0  502 -0.10528466340E+03 -0.81571831892E+02 -0.15736260281E+03  0.20620204963E+03  0.41800000000E+01 0. -1.
        -11    1    1    2    0    0  0.48544900640E+02  0.17246644366E+02 -0.30466212436E+03  0.30898715853E+03  0.00000000000E+00 0. -1.
         11    1    1    2    0    0  0.44232473329E+02  0.46851486549E+02 -0.84617556696E+02  0.10635649670E+03  0.00000000000E+00 0.  1.
</event>
<event>
 6    1  0.8259171E-006  0.1045563E+03  0.7561462E-02  0.1270996E+00
          1   -1    0    0  501    0  0.00000000000E+00  0.00000000000E+00  0.25164194024E+03  0.25164194024E+03  0.00000000000E+00 0. -1.
         -1   -1    0    0    0  501 -0.00000000000E+00 -0.00000000000E+00 -0.78095025578E+02  0.78095025578E+02  0.00000000000E+00 0.  1.
          5    1    1    2  502    0 -0.77334915089E+01 -0.15990164539E+02  0.63740436302E+02  0.66300888930E+02  0.41800000000E+01 0.  1.
         -5    1    1    2    0  502 -0.46979735184E+02  0.71595253628E+02 -0.18881454824E+02  0.87789279507E+02  0.41800000000E+01 0.  1.
        -11    1    1    2    0    0 -0.49666210192E+01 -0.44066404177E+02  0.15150961787E+02  0.46862212331E+02  0.00000000000E+00 0.  1.
         11    1    1    2    0    0  0.59679847712E+02 -0.11538684912E+02  0.11353697140E+03  0.12878458505E+03  0.00000000000E+00 0. -1.
</event>
<event>
 6    1  0.8259171E-006  0.1418497E+03  0.7561462E-02  0.1210862E+00
         -2   -1    0    0    0  501 -0.00000000000E+00  0.00000000000E+00  0.46059839961E+03  0.46059839961E+03  0.00000000000E+00 0.  1.
          2   -1    0    0  501    0  0.00000000000E+00 -0.00000000000E+00 -0.50821206235E+02  0.50821206235E+02  0.00000000000E+00 0. -1.
          5    1    1    2  502    0 -0.24400581109E+02 -0.52294736288E+02  0.16384457243E+03  0.17376030651E+03  0.41800000000E+01 0.  1.
         -5    1    1    2    0  502  0.92289533555E+02 -0.15536894785E+02  0.13827644846E+03  0.16702275804E+03  0.41800000000E+01 0.  1.
        -11    1    1    2    0    0 -0.95695432274E+01  0.72987867323E+02  0.64937843891E+02  0.98161746639E+02  0.00000000000E+00 0.  1.
         11    1    1    2    0    0 -0.58319409218E+02 -0.51562362503E+01  0.42718328592E+02  0.72474794663E+02  0.00000000000E+00 0. -1.
</event>
<event>
 6    1  0.8259171E-006  0.8977949E+02  0.7561462E-02  0.1303387E+00
          1   -1    0    0  501    0  0.00000000000E+00  0.00000000000E+00  0.15560866918E+03  0.15560866918E+03  0.00000000000E+00 0. -1.
         -1   -1    0    0    0  501 -0.00000000000E+00 -0.00000000000E+00 -0.89634118381E+02  0.89634118381E+02  0.00000000000E+00 0.  1.
          5    1    1    2  502    0  0.54005241153E+02  0.30070306818E+02 -0.18126346089E+02  0.64550958526E+02  0.41800000000E+01 0. -1.
         -5    1    1    2    0  502 -0.60501092481E+02 -0.88580686111E+01  0.12733320814E+02  0.62597583259E+02  0.41800000000E+01 0. -1.
        -11    1    1    2    0    0 -0.29508332524E+01  0.16846423991E+02  0.76642430431E+02  0.78527521039E+02  0.00000000000E+00 0. -1.
         11    1    1    2    0    0  0.94466845810E+01 -0.38058662198E+02 -0.52748543556E+01  0.39566724736E+02  0.00000000000E+00 0.  1.
</event>
<event>
 6    1  0.8259171E-006  0.1015762E+03  0.7561462E-02  0.1277016E+00
         -1   -1    0    0    0  501 -0.00000000000E+00  0.00000000000E+00  0.78968470448E+02  0.78968470448E+02  0.00000000000E+00 0.  1.
          1   -1    0    0  501    0  0.00000000000E+00 -0.00000000000E+00 -0.27125260539E+03  0.27125260539E+03  0.00000000000E+00 0. -1.
          5    1    1    2  502    0  0.21054081655E+02 -0.34129434982E+02  0.30731284746E+02  0.50694940070E+02  0.41800000000E+01 0. -1.
         -5    1    1    2    0  502 -0.78262097517E+01 -0.47726468806E+02 -0.10733307728E+03  0.11780037038E+03  0.41800000000E+01 0. -1.
        -11    1    1    2    0    0 -0.46477865974E+02  0.49333439308E+02 -0.13018867643E+02  0.69017904736E+02  0.00000000000E+00 0. -1.
         11    1    1    2    0    0  0.33249994071E+02  0.32522464480E+02 -0.10266347476E+03  0.11270786065E+03  0.00000000000E+00 0.  1.
</event>
<event>
 6    1  0.8259171E-006  0.1137227E+03  0.7561462E-02  0.1253827E+00
          1   -1    0    0  501    0  0.00000000000E+00  0.00000000000E+00  0.16017882392E+02  0.16017882392E+02  0.00000000000E+00 0. -1.
         -1   -1    0    0    0  501 -0.00000000000E+00 -0.00000000000E+00 -0.83919389255E+03  0.83919389255E+03  0.00000000000E+00 0.  1.
          5    1    1    2  502    0  0.37987906586E+02  0.71449697831E+02 -0.36830823088E+03  0.37711611700E+03  0.41800000000E+01 0.  1.
         -5    1    1    2    0  502 -0.36268715329E+02 -0.31151150980E+02 -0.14428694116E+03  0.15205922435E+03  0.41800000000E+01 0.  1.
        -11    1    1    2    0    0  0.42305372408E+02 -0.62392232916E+01 -0.15533865430E+03  0.16111725532E+03  0.00000000000E+00 0. -1.
         11    1    1    2    0    0 -0.44024563665E+02 -0.34059323560E+02 -0.15524218381E+03  0.16491917827E+03  0.00000000000E+00 0.  1.
</event>
<event>
 6    1  0.8259171E-006  0.1001411E+03  0.7561462E-02  0.1279999E+00
          3   -1    0    0  501    0  0.00000000000E+00  0.00000000000E+00  0.23840811829E+02  0.23840811829E+02  0.00000000000E+00 0. -1.
         -3   -1    0    0    0  501 -0.00000000000E+00 -0.00000000000E+00 -0.51870846614E+03  0.51870846614E+03  0.00000000000E+00 0.  1.
          5    1    1    2  502    0  0.19131673424E+02 -0.40916032599E+02 -0.22980050829E+03  0.23423468715E+03  0.41800000000E+01 0.  1.
         -5    1    1    2    0  502 -0.31572566358E+02  0.59250303016E+02 -0.11508162808E+03  0.13329920808E+03  0.41800000000E+01 0.  1.
        -11    1    1    2    0    0 -0.85282483239E+01  0.32005078011E+02 -0.77718624294E+02  0.84482191024E+02  0.00000000000E+00 0. -1.
         11    1    1    2    0    0  0.20969141258E+02 -0.50339348428E+02 -0.72266893641E+02  0.90533191714E+02  0.00000000000E+00 0.  1.
</event>
<event>
 6    1  0.8259171E-006  0.1179033E+03  0.7561462E-02  0.1246597E+00
          3   -1    0    0  501    0  0.00000000000E+00  0.00000000000E+00  0.11017253925E+03  0.11017253925E+03  0.00000000000E+00 0.  1.
         -3   -1    0    0    0  501 -0.00000000000E+00 -0.00000000000E+00 -0.18297347674E+03  0.18297347674E+03  0.00000000000E+00 0. -1.
          5    1    1    2  502    0  0.15764106745E+02 -0.18162663996E+02  0.18831826922E+02  0.30830172399E+02  0.41800000000E+01 0. -1.
         -5    1    1    2    0  502 -0.87358612476E+02  0.74502555925E+02 -0.58481868194E+02  0.12891764550E+03  0.41800000000E+01 0. -1.
        -11    1    1    2    0    0  0.11874663028E+02 -0.27979246207E+02  0.29470727262E+02  0.42336386309E+02  0.00000000000E+00 0.  1.
         11    1    1    2    0    0  0.59719842703E+02 -0.28360645722E+02 -0.62621623481E+02  0.91061811785E+02  0.00000000000E+00 0. -1.
</event>
<event>
 6    1  0.8259171E-006  0.1352210E+03  0.7561462E-02  0.1219908E+00
          1   -1    0    0  501    0  0.00000000000E+00  0.00000000000E+00  0.31037144010E+03  0.31037144010E+03  0.00000000000E+00 0. -1.
         -1   -1    0    0    0  501 -0.00000000000E+00 -0.00000000000E+00 -0.85661594107E+02  0.85661594107E+02  0.00000000000E+00 0.  1.
          5    1    1    2  502    0 -0.26798194450E+02  0.24770724780E+02 -0.20010625633E+02  0.41828573608E+02  0.41800000000E+01 0. -1.
         -5    1    1    2    0  502 -0.86534939727E+02 -0.63903836590E+02  0.10804872766E+03  0.15252539485E+03  0.41800000000E+01 0. -1.
        -11    1    1    2    0    0  0.86482865255E+02  0.46529982482E+02  0.49120887412E+02  0.10980522225E+03  0.00000000000E+00 0.  1.
         11    1    1    2    0    0  0.26850268921E+02 -0.73968706710E+01  0.87550856557E+02  0.91873843507E+02  0.00000000000E+00 0. -1.
</event>
<event>
 6    1  0.8259171E-006  0.1129507E+03  0.7561462E-02  0.1255201E+00
         -3   -1    0    0    0  501 -0.00000000000E+00  0.00000000000E+00  0.20965155429E+03  0.20965155429E+03  0.00000000000E+00 0.  1.
          3   -1    0    0  501    0  0.00000000000E+00 -0.00000000000E+00 -0.97996644307E+02  0.97996644307E+02  0.00000000000E+00 0. -1.
          5    1    1    2  502    0  0.28647123808E+02 -0.10596275111E+03  0.10345238897E+03  0.15089278150E+03  0.41800000000E+01 0.  1.
         -5    1    1    2    0  502 -0.12835686241E+02  0.16225772784E+02 -0.16345564519E+02  0.26696075052E+02  0.41800000000E+01 0.  1.
        -11    1    1    2    0    0  0.25676248427E+01  0.59556108271E+02 -0.28693994814E+02  0.66157902537E+02  0.00000000000E+00 0. -1.
         11    1    1    2    0    0 -0.18379062410E+02  0.30180870050E+02  0.53242080350E+02  0.63901439515E+02  0.00000000000E+00 0.  1.
</event>
<event>
 6    1  0.8259171E-006  0.9569848E+02  0.7561462E-02  0.1289611E+00
          1   -1    0    0  501    0  0.00000000000E+00  0.00000000000E+00  0.19347471734E+03  0.19347471734E+03  0.00000000000E+00 0. -1.
         -1   -1    0    0    0  501 -0.00000000000E+00 -0.00000000000E+00 -0.80689373260E+02  0.80689373260E+02  0.00000000000E+00 0.  1.
          5    1    1    2  502    0  0.45081193708E+02 -0.54643131438E+02 -0.12862362677E+02  0.72118642618E+02  0.41800000000E+01 0. -1.
         -5    1    1    2    0  502 -0.39527724493E+02  0.35392912882E+02  0.12028966252E+02  0.54564344722E+02  0.41800000000E+01 0. -1.
        -11    1    1    2    0    0  0.10715869633E+02 -0.21122441716E+02 -0.21668758012E+01  0.23784086208E+02  0.00000000000E+00 0.  1.
         11    1    1    2    0    0 -0.16269338848E+02  0.40372660272E+02  0.11578561630E+03  0.12369701705E+03  0.00000000000E+00 0. -1.
</event>
<event>
 6    1  0.8259171E-006  0.8642336E+02  0.7561462E-02  0.1311752E+00
         -1   -1    0    0    0  501 -0.00000000000E+00  0.00000000000E+00  0.32778525744E+02  0.32778525744E+02  0.00000000000E+00 0.  1.
          1   -1    0    0  501    0  0.00000000000E+00 -0.00000000000E+00 -0.36152478878E+03  0.36152478878E+03  0.00000000000E+00 0. -1.
          5    1    1    2  502    0  0.51667608119E+02 -0.60877557825E+01 -0.17745070689E+03  0.18496710052E+03  0.41800000000E+01 0.  1.
         -5    1    1    2    0  502 -0.39387796272E+02 -0.47517882019E+01 -0.10246407939E+02  0.41187853330E+02  0.41800000000E+01 0.  1.
        -11    1    1    2    0    0  0.33229218893E+02  0.11742792557E+02 -0.24214255494E+02  0.42759844883E+02  0.00000000000E+00 0.  1.
         11    1    1    2    0    0 -0.45509030741E+02 -0.90324857231E+00 -0.11683489271E+03  0.12538851579E+03  0.00000000000E+00 0. -1.
</event>
<event>
 6    1  0.8259171E-006  0.1106180E+03  0.7561462E-02  0.1259430E+00
         -1   -1    0    0    0  501 -0.00000000000E+00  0.00000000000E+00  0.40821252760E+02  0.40821252760E+02  0.00000000000E+00 0.  1.
          1   -1    0    0  501    0  0.00000000000E+00 -0.00000000000E+00 -0.32229903776E+03  0.32229903776E+03  0.00000000000E+00 0. -1.
          5    1    1    2  502    0  0.14440364985E+02  0.67423502687E+02 -0.56863812639E+02  0.89473003992E+02  0.41800000000E+01 0. -1.
         -5    1    1    2    0  502 -0.36445874993E+02 -0.46081003930E+02 -0.67068026036E+02  0.89260031614E+02  0.41800000000E+01 0. -1.
        -11    1    1    2    0    0 -0.31818335530E+02 -0.23236128711E+02 -0.88067701003E+02  0.96479241878E+02  0.00000000000E+00 0. -1.
         11    1    1    2    0    0  0.53823845538E+02  0.18936299545E+01 -0.69478245321E+02  0.87908013035E+02  0.00000000000E+00 0.  1.
</event>
<event>
 6    1  0.8259171E-006  0.1006919E+03  0.7561462E-02  0.1278848E+00
         -2   -1    0    0    0  501 -0.00000000000E+00  0.00000000000E+00  0.14683840604E+03  0.14683840604E+03  0.00000000000E+00 0.  1.
          2   -1    0    0  501    0  0.00000000000E+00 -0.00000000000E+00 -0.90970101756E+02  0.90970101756E+02  0.00000000000E+00 0. -1.
          5    1    1    2  502    0  0.17392035265E+02 -0.26009882882E+02  0.54093279531E+02  0.62630281722E+02  0.41800000000E+01 0. -1.
         -5    1    1    2    0  502 -0.23037965286E+02  0.66172683581E+02 -0.20437931807E+02  0.73107820056E+02  0.41800000000E+01 0. -1.
        -11    1    1    2    0    0  0.10131758644E+02 -0.69353969724E+02  0.15694446513E+02  0.71825770452E+02  0.00000000000E+00 0.  1.
         11    1    1    2    0    0 -0.44858286226E+01  0.29191169025E+02  0.65185100518E+01  0.30244635570E+02  0.00000000000E+00 0. -1.
</event>
<event>
 6    1  0.8259171E-006  0.1096529E+03  0.7561462E-02  0.1261214E+00
          2   -1    0    0  501    0  0.00000000000E+00  0.00000000000E+00  0.33463382999E+03  0.33463382999E+03  0.00000000000E+00 0. -1.
         -2   -1    0    0    0  501 -0.00000000000E+00 -0.00000000000E+00 -0.54555936018E+02  0.54555936018E+02  0.00000000000E+00 0.  1.
          5    1    1    2  502    0 -0.14681851275E+02  0.77397785710E+02  0.17177702896E+02  0.80737351123E+02  0.41800000000E+01 0. -1.
         -5    1    1    2    0  502 -0.12947432697E+02 -0.38673036504E+02  0.22314960163E+02  0.46676221065E+02  0.41800000000E+01 0.  1.
        -11    1    1    2    0    0  0.58784614781E+02 -0.33999682543E+02  0.19393014023E+03  0.20547629702E+03  0.00000000000E+00 0.  1.
         11    1    1    2    0    0 -0.31155330809E+02 -0.47250666620E+01  0.46655090679E+02  0.56299896794E+02  0.00000000000E+00 0. -1.
</event>
<event>
 6    1  0.8259171E-006  0.1464725E+03  0.7561462E-02  0.1204876E+00
         -1   -1    0    0    0  501 -0.00000000000E+00  0.00000000000E+00  0.26903508088E+03  0.26903508088E+03  0.00000000000E+00 0.  1.
          1   -1    0    0  501    0  0.00000000000E+00 -0.00000000000E+00 -0.14083159752E+03  0.14083159752E+03  0.00000000000E+00 0. -1.
          5    1    1    2  502    0 -0.23089939612E+02  0.92333262503E+02  0.79824886302E+02  0.12429023111E+03  0.41800000000E+01 0. -1.
         -5    1    1    2    0  502 -0.72909763506E+02 -0.20072075661E+02  0.10145010429E+03  0.12660299324E+03  0.41800000000E+01 0. -1.
        -11    1    1    2    0    0  0.20437499819E+02 -0.26983617326E+02 -0.61789538160E+02  0.70453914220E+02  0.00000000000E+00 0. -1.
         11    1    1    2    0    0  0.75562203299E+02 -0.45277569516E+02  0.87180309261E+01  0.88519539830E+02  0.00000000000E+00 0.  1.
</event>
<event>
 6    1  0.8259171E-006  0.1407938E+03  0.7561462E-02  0.1212265E+00
          1   -1    0    0  501    0  0.00000000000E+00  0.00000000000E+00  0.23873710076E+03  0.23873710076E+03  0.00000000000E+00 0. -1.
         -1   -1    0    0    0  501 -0.00000000000E+00 -0.00000000000E+00 -0.12438921938E+03  0.12438921938E+03  0.00000000000E+00 0.  1.
          5    1    1    2  502    0  0.53329310234E+00  0.15523337440E+02 -0.41914796485E+02  0.44895222142E+02  0.41800000000E+01 0.  1.
         -5    1    1    2    0  502 -0.12263228589E+03  0.20429894357E+00  0.44825799762E+02  0.13063515609E+03  0.41800000000E+01 0.  1.
        -11    1    1    2    0    0  0.27808748467E+00  0.16726567043E+02 -0.33921871861E+01  0.17069338347E+02  0.00000000000E+00 0.  1.
         11    1    1    2    0    0  0.12182090531E+03 -0.32454203426E+02  0.11482906529E+03  0.17052660357E+03  0.00000000000E+00 0. -1.
</event>
<event>
 6    1  0.8259171E-006  0.8492049E+02  0.7561462E-02  0.1315641E+00
          1   -1    0    0  501    0  0.00000000000E+00  0.00000000000E+00  0.28232726800E+03  0.28232726800E+03  0.00000000000E+00 0. -1.
         -1   -1    0    0    0  501 -0.00000000000E+00 -0.00000000000E+00 -0.63446567176E+02  0.63446567176E+02  0.00000000000E+00 0.  1.
          5    1    1    2  502    0 -0.80821110736E+01  0.18512265687E+02 -0.41046449937E+02  0.45938088257E+02  0.41800000000E+01 0. -1.
         -5    1    1    2    0  502  0.34371906016E+02  0.29812947293E+02  0.86943262664E+02  0.98218343868E+02  0.41800000000E+01 0. -1.
        -11    1    1    2    0    0  0.26424834744E+02 -0.43091000511E+02  0.81489008755E+02  0.95893507414E+02  0.00000000000E+00 0. -1.
         11    1    1    2    0    0 -0.52714629686E+02 -0.52342124683E+01  0.91494879342E+02  0.10572389564E+03  0.00000000000E+00 0.  1.
</event>
<event>
 6    1  0.8259171E-006  0.1568991E+03  0.7561462E-02  0.1192243E+00
          1   -1    0    0  501    0  0.00000000000E+00  0.00000000000E+00  0.54982825050E+03  0.54982825050E+03  0.00000000000E+00 0. -1.
         -1   -1    0    0    0  501 -0.00000000000E+00 -0.00000000000E+00 -0.61767402751E+02  0.61767402751E+02  0.00000000000E+00 0.  1.
          5    1    1    2  502    0 -0.95638544365E+01  0.72744916429E+01 -0.89363735969E+01  0.15547241344E+02  0.41800000000E+01 0.  1.
         -5    1    1    2    0  502  0.12360231446E+03  0.87340571180E+02  0.27158020277E+03  0.31093276837E+03  0.41800000000E+01 0.  1.
        -11    1    1    2    0    0 -0.57027308862E+02 -0.33706317501E+02  0.17622697836E+03  0.18826624152E+03  0.00000000000E+00 0. -1.
         11    1    1    2    0    0 -0.57011151158E+02 -0.60908745322E+02  0.49190040218E+02  0.96849402010E+02  0.00000000000E+00 0.  1.
</event>
<event>
 6    1  0.8259171E-006  0.1465862E+03  0.7561462E-02  0.1204732E+00
         -1   -1    0    0    0  501 -0.00000000000E+00  0.00000000000E+00  0.36435564875E+03  0.36435564875E+03  0.00000000000E+00 0.  1.
          1   -1    0    0  501    0  0.00000000000E+00 -0.00000000000E+00 -0.70737043162E+02  0.70737043162E+02  0.00000000000E+00 0. -1.
          5    1    1    2  502    0  0.92704302588E+02 -0.70362847253E+02  0.60567933153E+02  0.13126677005E+03  0.41800000000E+01 0. -1.
         -5    1    1    2    0  502  0.27950119948E+02  0.44225908283E+02  0.70941815629E+02  0.88245984460E+02  0.41800000000E+01 0. -1.
        -11    1    1    2    0    0 -0.13840861508E+02  0.76943150367E+01 -0.48137313619E+01  0.16551251940E+02  0.00000000000E+00 0. -1.
         11    1    1    2    0    0 -0.10681356103E+03  0.18442623933E+02  0.16692258817E+03  0.19902868547E+03  0.00000000000E+00 0.  1.
</event>
<event>
 6    1  0.8259171E-006  0.1461125E+03  0.7561462E-02  0.1205333E+00
         -2   -1    0    0    0  501 -0.00000000000E+00  0.00000000000E+00  0.20171452290E+04  0.20171452290E+04  0.00000000000E+00 0.  1.
          2   -1    0    0  501    0  0.00000000000E+00 -0.00000000000E+00 -0.13156538191E+02  0.13156538191E+02  0.00000000000E+00 0. -1.
          5    1    1    2  502    0 -0.10395778010E+03  0.50907473457E+02  0.68908855548E+03  0.69875553707E+03  0.41800000000E+01 0. -1.
         -5    1    1    2    0  502  0.67990343181E+02 -0.38410848964E+02  0.95402432261E+03  0.95722409112E+03  0.41800000000E+01 0.  1.
        -11    1    1    2    0    0 -0.26530786076E+02 -0.22640967072E+02  0.15761940809E+03  0.16143225763E+03  0.00000000000E+00 0. -1.
         11    1    1    2    0    0  0.62498222991E+02  0.10144342579E+02  0.20325640462E+03  0.21288988136E+03  0.00000000000E+00 0.  1.
</event>
<event>
 6    1  0.8259171E-006  0.1344878E+03  0.7561462E-02  0.1220945E+00
         -2   -1    0    0    0  501 -0.00000000000E+00  0.00000000000E+00  0.22994596059E+02  0.22994596059E+02  0.00000000000E+00 0. -1.
          2   -1    0    0  501    0  0.00000000000E+00 -0.00000000000E+00 -0.84372681244E+03  0.84372681244E+03  0.00000000000E+00 0.  1.
          5    1    1    2  502    0 -0.50827866437E+02 -0.73349466336E+02 -0.23084924741E+03  0.24753275268E+03  0.41800000000E+01 0. -1.
         -5    1    1    2    0  502 -0.29099078523E+02  0.52225147743E+02 -0.12543344664E+03  0.13901526666E+03  0.41800000000E+01 0. -1.
        -11    1    1    2    0    0  0.24097916343E+02 -0.33720775318E+02 -0.12036832562E+03  0.12730410077E+03  0.00000000000E+00 0.  1.
         11    1    1    2    0    0  0.55829028618E+02  0.54845093911E+02 -0.34408119671E+03  0.35286928840E+03  0.00000000000E+00 0. -1.
</event>
<event>
 6    1  0.8259171E-006  0.1533876E+03  0.7561462E-02  0.1196371E+00
          2   -1    0    0  501    0  0.00000000000E+00  0.00000000000E+00  0.59439405545E+03  0.59439405545E+03  0.00000000000E+00 0. -1.
         -2   -1    0    0    0  501 -0.00000000000E+00 -0.00000000000E+00 -0.42430521472E+02  0.42430521472E+02  0.00000000000E+00 0.  1.
          5    1    1    2  502    0  0.24142681416E+02  0.25440102585E+02  0.78386386031E+02  0.85976542152E+02  0.41800000000E+01 0. -1.
         -5    1    1    2    0  502  0.23890430252E+02 -0.12886843981E+03  0.17286032735E+03  0.21697002698E+03  0.41800000000E+01 0. -1.
        -11    1    1    2    0    0 -0.42934361267E+02  0.11763752529E+03  0.23322476943E+03  0.26471822720E+03  0.00000000000E+00 0.  1.
         11    1    1    2    0    0 -0.50987504010E+01 -0.14209188071E+02  0.67492051159E+02  0.69159780587E+02  0.00000000000E+00 0. -1.
</event>
<event>
 6    1  0.8259171E-006  0.1020157E+03  0.7561462E-02  0.1276113E+00
         -1   -1    0    0    0  501 -0.00000000000E+00  0.00000000000E+00  0.19075997657E+03  0.19075997657E+03  0.00000000000E+00 0.  1.
          1   -1    0    0  501    0  0.00000000000E+00 -0.00000000000E+00 -0.80308738687E+02  0.80308738687E+02  0.00000000000E+00 0. -1.
          5    1    1    2  502    0 -0.14612663802E+02 -0.15688672720E+02  0.63969126358E+02  0.67595753729E+02  0.41800000000E+01 0.  1.
         -5    1    1    2    0  502  0.71817241352E+02  0.25709886568E+02 -0.16711770491E+02  0.78201471186E+02  0.41800000000E+01 0.  1.
        -11    1    1    2    0    0 -0.80961545794E+02 -0.12446256080E+02  0.59184473523E+02  0.10105683101E+03  0.00000000000E+00 0.  1.
         11    1    1    2    0    0  0.23756968243E+02  0.24250422324E+01  0.40094084889E+01  0.24214659328E+02  0.00000000000E+00 0. -1.
</event>
<event>
 6    1  0.8259171E-006  0.1215911E+03  0.7561462E-02  0.1240495E+00
         -1   -1    0    0    0  501 -0.00000000000E+00  0.00000000000E+00  0.18673845360E+03  0.18673845360E+03  0.00000000000E+00 0.  1.
          1   -1    0    0  501    0  0.00000000000E+00 -0.00000000000E+00 -0.86695575897E+02  0.86695575897E+02  0.00000000000E+00 0. -1.
          5    1    1    2  502    0 -0.73184512552E+02 -0.59446408963E+02  0.73588820502E+02  0.11967721303E+03  0.41800000000E+01 0. -1.
         -5    1    1    2    0  502  0.30051639927E+02  0.24875080251E+02  0.95897703888E+01  0.40389438915E+02  0.41800000000E+01 0. -1.
        -11    1    1    2    0    0  0.72404045960E+02  0.13877979524E+02 -0.68854051617E-01  0.73722106101E+02  0.00000000000E+00 0.  1.
         11    1    1    2    0    0 -0.29271173334E+02  0.20693349188E+02  0.16933140869E+02  0.39645271454E+02  0.00000000000E+00 0. -1.
</event>
<event>
 6    1  0.8259171E-006  0.1816357E+03  0.7561462E-02  0.1166229E+00
         -1   -1    0    0    0  501 -0.00000000000E+00  0.00000000000E+00  0.12203794161E+03  0.12203794161E+03  0.00000000000E+00 0.  1.
          1   -1    0    0  501    0  0.00000000000E+00 -0.00000000000E+00 -0.35408075439E+03  0.35408075439E+03  0.00000000000E+00 0. -1.
          5    1    1    2  502    0  0.16636314754E+02  0.91678400225E+02  0.30487666988E+02  0.98125767639E+02  0.41800000000E+01 0. -1.
         -5    1    1    2    0  502 -0.54201921998E+02  0.66670794741E+02 -0.70147613939E+02  0.11100001514E+03  0.41800000000E+01 0. -1.
        -11    1    1    2    0    0 -0.28014709095E+02 -0.44195737369E+02 -0.68689459766E+02  0.86350037696E+02  0.00000000000E+00 0. -1.
         11    1    1    2    0    0  0.65580316339E+02 -0.11415345760E+03 -0.12369340606E+03  0.18064287552E+03  0.00000000000E+00 0.  1.
</event>
<event>
 6    1  0.8259171E-006  0.8023679E+02  0.7561462E-02  0.1328381E+00
         -1   -1    0    0    0  501 -0.00000000000E+00  0.00000000000E+00  0.61718703106E+02  0.61718703106E+02  0.00000000000E+00 0.  1.
          1   -1    0    0  501    0  0.00000000000E+00 -0.00000000000E+00 -0.21155278186E+03  0.21155278186E+03  0.00000000000E+00 0. -1.
          5    1    1    2  502    0  0.30389189069E+02 -0.31163581704E+02  0.26942177183E+02  0.51361707023E+02  0.41800000000E+01 0.  1.
         -5    1    1    2    0  502 -0.29404326928E+02  0.15509700439E+01 -0.84318438789E+02  0.89409683312E+02  0.41800000000E+01 0.  1.
        -11    1    1    2    0    0  0.27837354096E+02  0.46061181893E+02 -0.81278844448E+02  0.97482312833E+02  0.00000000000E+00 0. -1.
         11    1    1    2    0    0 -0.28822216237E+02 -0.16448570233E+02 -0.11178972703E+02  0.35017781800E+02  0.00000000000E+00 0.  1.
</event>
<event>
 6    1  0.8259171E-006  0.1584229E+03  0.7561462E-02  0.1190489E+00
          2   -1    0    0  501    0  0.00000000000E+00  0.00000000000E+00  0.63700617466E+03  0.63700617466E+03  0.00000000000E+00 0. -1.
         -2   -1    0    0    0  501 -0.00000000000E+00 -0.00000000000E+00 -0.66604721407E+02  0.66604721407E+02  0.00000000000E+00 0.  1.
          5    1    1    2  502    0 -0.56130530073E+02 -0.10620717183E+03  0.57242692293E+02  0.13313451083E+03  0.41800000000E+01 0.  1.
         -5    1    1    2    0  502 -0.46443617771E+02  0.33113592592E+02  0.32372890036E+02  0.65719069190E+02  0.41800000000E+01 0.  1.
        -11    1    1    2    0    0  0.48926700975E+02  0.17649127977E+00  0.79194917919E+02  0.93089678492E+02  0.00000000000E+00 0.  1.
         11    1    1    2    0    0  0.53647446868E+02  0.72917087956E+02  0.40159095300E+03  0.41166763755E+03  0.00000000000E+00 0. -1.
</event>
<event>
 6    1  0.8259171E-006  0.1436855E+03  0.7561462E-02  0.1208454E+00
         -2   -1    0    0    0  501 -0.00000000000E+00  0.00000000000E+00  0.12479070668E+04  0.12479070668E+04  0.00000000000E+00 0.  1.
          2   -1    0    0  501    0  0.00000000000E+00 -0.00000000000E+00 -0.19395375514E+02  0.19395375514E+02  0.00000000000E+00 0. -1.
          5    1    1    2  502    0  0.77078479232E+02 -0.18552524770E+01  0.59077117467E+03  0.59579575959E+03  0.41800000000E+01 0.  1.
         -5    1    1    2    0  502  0.25824773804E+01  0.70928883141E+02  0.21625909571E+03  0.22764675383E+03  0.41800000000E+01 0.  1.
        -11    1    1    2    0    0  0.43578223003E+01 -0.53415188960E+02  0.15430869388E+03  0.16335037812E+03  0.00000000000E+00 0.  1.
         11    1    1    2    0    0 -0.84018778912E+02 -0.15658441704E+02  0.26717272706E+03  0.28050955080E+03  0.00000000000E+00 0. -1.
</event>
<event>
 6    1  0.8259171E-006  0.1054536E+03  0.7561462E-02  0.1269228E+00
          1   -1    0    0  501    0  0.00000000000E+00  0.00000000000E+00  0.97671656505E+02  0.97671656505E+02  0.00000000000E+00 0. -1.
         -1   -1    0    0    0  501 -0.00000000000E+00 -0.00000000000E+00 -0.16148261111E+03  0.16148261111E+03  0.00000000000E+00 0.  1.
          5    1    1    2  502    0 -0.11765867201E+02  0.70116366554E+02 -0.69028303391E+02  0.99182254253E+02  0.41800000000E+01 0.  1.
         -5    1    1    2    0  502 -0.32782402502E+02 -0.21225562322E+02  0.27904572396E+02  0.48180369138E+02  0.41800000000E+01 0.  1.
        -11    1    1    2    0    0  0.52076278668E+02 -0.11592527949E+01 -0.33948253159E+02  0.62175288978E+02  0.00000000000E+00 0.  1.
         11    1    1    2    0    0 -0.75280089646E+01 -0.47731551437E+02  0.11261029546E+02  0.49616355247E+02  0.00000000000E+00 0. -1.
</event>
<event>
 6    1  0.8259171E-006  0.1219027E+03  0.7561462E-02  0.1239991E+00
         -2   -1    0    0    0  501 -0.00000000000E+00  0.00000000000E+00  0.29097266429E+03  0.29097266429E+03  0.00000000000E+00 0.  1.
          2   -1    0    0  501    0  0.00000000000E+00 -0.00000000000E+00 -0.58127168734E+02  0.58127168734E+02  0.00000000000E+00 0. -1.
          5    1    1    2  502    0  0.12988279632E+02 -0.43217684726E+02  0.85915834943E+02  0.97136330870E+02  0.41800000000E+01 0. -1.
         -5    1    1    2    0  502 -0.76726715124E+02  0.45626167875E+02  0.77224001573E+02  0.11810908021E+03  0.41800000000E+01 0. -1.
        -11    1    1    2    0    0  0.76498237732E+02  0.23678600409E+02  0.31939131508E+02  0.86213482791E+02  0.00000000000E+00 0. -1.
         11    1    1    2    0    0 -0.12759802241E+02 -0.26087083558E+02  0.37766527527E+02  0.47640939152E+02  0.00000000000E+00 0.  1.
</event>
<event>
 6    1  0.8259171E-006  0.1212033E+03  0.7561462E-02  0.1241125E+00
         -2   -1    0    0    0  501 -0.00000000000E+00  0.00000000000E+00  0.15760883483E+02  0.15760883483E+02  0.00000000000E+00 0.  1.
          2   -1    0    0  501    0  0.00000000000E+00 -0.00000000000E+00 -0.10317438463E+04  0.10317438463E+04  0.00000000000E+00 0. -1.
          5    1    1    2  502    0 -0.10063457703E+02  0.44882733719E+02 -0.10437568008E+03  0.11413802153E+03  0.41800000000E+01 0. -1.
         -5    1    1    2    0  502 -0.37868891870E+02 -0.80845602383E+02 -0.32658058465E+03  0.33858885845E+03  0.41800000000E+01 0. -1.
        -11    1    1    2    0    0 -0.20677984326E+02 -0.11270488014E+02 -0.10857411556E+03  0.11109879165E+03  0.00000000000E+00 0.  1.
         11    1    1    2    0    0  0.68610333899E+02  0.47233356678E+02 -0.47645258257E+03  0.48367905820E+03  0.00000000000E+00 0. -1.
</event>
<event>
 6    1  0.8259171E-006  0.1602591E+03  0.7561462E-02  0.1188405E+00
          2   -1    0    0  501    0  0.00000000000E+00  0.00000000000E+00  0.31546846480E+02  0.31546846480E+02  0.00000000000E+00 0. -1.
         -2   -1    0    0    0  501 -0.00000000000E+00 -0.00000000000E+00 -0.11425527930E+04  0.11425527930E+04  0.00000000000E+00 0.  1.
          5    1    1    2  502    0  0.88477930729E+02 -0.58573595161E+02 -0.45884360975E+03  0.47097148627E+03  0.41800000000E+01 0.  1.
         -5    1    1    2    0  502  0.36688335835E+02  0.57898168750E+02 -0.40972563411E+03  0.41544048862E+03  0.41800000000E+01 0.  1.
        -11    1    1    2    0    0 -0.58188776965E+02 -0.36856416526E+02 -0.66562324174E+02  0.95785553207E+02  0.00000000000E+00 0. -1.
         11    1    1    2    0    0 -0.66977489599E+02  0.37531842937E+02 -0.17587437851E+03  0.19190211141E+03  0.00000000000E+00 0.  1.
</event>
<event>
 6    1  0.8259171E-006  0.1197321E+03  0.7561462E-02  0.1243540E+00
         -2   -1    0    0    0  501 -0.00000000000E+00  0.00000000000E+00  0.39475239030E+02  0.39475239030E+02  0.00000000000E+00 0. -1.
          2   -1    0    0  501    0  0.00000000000E+00 -0.00000000000E+00 -0.52529708005E+03  0.52529708005E+03  0.00000000000E+00 0.  1.
          5    1    1    2  502    0 -0.57101294469E+01 -0.10619681087E+03 -0.14562529912E+03  0.18037341368E+03  0.41800000000E+01 0.  1.
         -5    1    1    2    0  502 -0.22394314272E+02  0.17033282192E+02 -0.16353712486E+03  0.16599247459E+03  0.41800000000E+01 0.  1.
        -11    1    1    2    0    0  0.13831621312E+02  0.89248559055E+02 -0.18199245640E+03  0.20316956767E+03  0.00000000000E+00 0.  1.
         11    1    1    2    0    0  0.14272822407E+02 -0.85030381366E-01  0.53330393589E+01  0.15236863143E+02  0.00000000000E+00 0. -1.
</event>
<event>
 6    1  0.8259171E-006  0.7749323E+02  0.7561462E-02  0.1336320E+00
         -1   -1    0    0    0  501 -0.00000000000E+00  0.00000000000E+00  0.58122446160E+03  0.58122446160E+03  0.00000000000E+00 0.  1.
          1   -1    0    0  501    0  0.00000000000E+00 -0.00000000000E+00 -0.38139972899E+02  0.38139972899E+02  0.00000000000E+00 0. -1.
          5    1    1    2  502    0  0.30971822136E+02  0.19406338648E+02  0.47940573383E+03  0.48081513056E+03  0.41800000000E+01 0. -1.
         -5    1    1    2    0  502 -0.24624153962E+02  0.10400913460E+02  0.16857154516E+02  0.31877327641E+02  0.41800000000E+01 0. -1.
        -11    1    1    2    0    0 -0.13962932783E+02  0.28819584059E+02  0.12873004771E+01  0.32049790323E+02  0.00000000000E+00 0. -1.
         11    1    1    2    0    0  0.76152646091E+01 -0.58626836167E+02  0.45534299871E+02  0.74622185969E+02  0.00000000000E+00 0.  1.
</event>
<event>
 6    1  0.8259171E-006  0.1017075E+03  0.7561462E-02  0.1276746E+00
         -1   -1    0    0    0  501 -0.00000000000E+00  0.00000000000E+00  0.67410916217E+02  0.67410916217E+02  0.00000000000E+00 0.  1.
          1   -1    0    0  501    0  0.00000000000E+00 -0.00000000000E+00 -0.19589349711E+03  0.19589349711E+03  0.00000000000E+00 0. -1.
          5    1    1    2  502    0 -0.47054631938E+02 -0.53499838802E+02 -0.22785496070E+02  0.74920106579E+02  0.41800000000E+01 0.  1.
         -5    1    1    2    0  502  0.48786199531E+02  0.16146782227E+02 -0.62520317663E+02  0.81037487385E+02  0.41800000000E+01 0.  1.
        -11    1    1    2    0    0 -0.23942199955E+02  0.49633022349E+02 -0.56295672221E+02  0.78777335300E+02  0.00000000000E+00 0. -1.
         11    1    1    2    0    0  0.22210632362E+02 -0.12279965774E+02  0.13118905064E+02  0.28569484059E+02  0.00000000000E+00 0.  1.
</event>
<event>
 6    1  0.8259171E-006  0.9486518E+02  0.7561462E-02  0.1291480E+00
          1   -1    0    0  501    0  0.00000000000E+00  0.00000000000E+00  0.41095379612E+03  0.41095379612E+03  0.00000000000E+00 0. -1.
         -1   -1    0    0    0  501 -0.00000000000E+00 -0.00000000000E+00 -0.40810346296E+02  0.40810346296E+02  0.00000000000E+00 0.  1.
          5    1    1    2  502    0 -0.52658113030E+02  0.13406618314E+02  0.82401832425E+01  0.55117939933E+02  0.41800000000E+01 0.  1.
         -5    1    1    2    0  502 -0.14313257045E+02 -0.31898620481E+02  0.16921507485E+03  0.17283982548E+03  0.41800000000E+01 0.  1.
        -11    1    1    2    0    0 -0.58100792374E+01 -0.17777007398E+02  0.94425234082E+02  0.96259564949E+02  0.00000000000E+00 0. -1.
         11    1    1    2    0    0  0.72781449313E+02  0.36269009564E+02  0.98262957644E+02  0.12754681205E+03  0.00000000000E+00 0.  1.
</event>
<event>
 6    1  0.8259171E-006  0.1704752E+03  0.7561462E-02  0.1177353E+00
         -1   -1    0    0    0  501 -0.00000000000E+00  0.00000000000E+00  0.43868030795E+02  0.43868030795E+02  0.00000000000E+00 0.  1.
          1   -1    0    0  501    0  0.00000000000E+00 -0.00000000000E+00 -0.80786886645E+03  0.80786886645E+03  0.00000000000E+00 0. -1.
          5    1    1    2  502    0 -0.14102150595E+03 -0.79484913405E+02 -0.20683071464E+03  0.26268104903E+03  0.41800000000E+01 0. -1.
         -5    1    1    2    0  502  0.22315295763E+02  0.58340118924E+01 -0.51096851326E+02  0.56217156947E+02  0.41800000000E+01 0. -1.
        -11    1    1    2    0    0  0.35005524890E+02 -0.10839993180E+02 -0.53133491594E+02  0.64545024238E+02  0.00000000000E+00 0.  1.
         11    1    1    2    0    0  0.83700685294E+02  0.84490894693E+02 -0.45293977809E+03  0.46829366703E+03  0.00000000000E+00 0. -1.
</event>
<event>
 6    1  0.8259171E-006  0.1182281E+03  0.7561462E-02  0.1246049E+00
          3   -1    0    0  501    0  0.00000000000E+00  0.00000000000E+00  0.47999007883E+02  0.47999007883E+02  0.00000000000E+00 0. -1.
         -3   -1    0    0    0  501 -0.00000000000E+00 -0.00000000000E+00 -0.30304175530E+03  0.30304175530E+03  0.00000000000E+00 0.  1.
          5    1    1    2  502    0 -0.14175859487E+02  0.43560435315E+02 -0.28330242349E+02  0.54023527732E+02  0.41800000000E+01 0.  1.
         -5    1    1    2    0  502  0.63190044457E+02 -0.57593434720E+02 -0.10919417421E+03  0.13874734420E+03  0.41800000000E+01 0.  1.
        -11    1    1    2    0    0 -0.71724047235E+02 -0.92664304799E+01 -0.91376229669E+02  0.11653248918E+03  0.00000000000E+00 0.  1.
         11    1    1    2    0    0  0.22709862265E+02  0.23299429885E+02 -0.26142101185E+02  0.41737402069E+02  0.00000000000E+00 0. -1.
</event>
<event>
 6    1  0.8259171E-006  0.1254399E+03  0.7561462E-02  0.1234383E+00
         -1   -1    0    0    0  501 -0.00000000000E+00  0.00000000000E+00  0.14019794376E+03  0.14019794376E+03  0.00000000000E+00 0.  1.
          1   -1    0    0  501    0  0.00000000000E+00 -0.00000000000E+00 -0.13651247762E+03  0.13651247762E+03  0.00000000000E+00 0. -1.
          5    1    1    2  502    0 -0.66371918886E+02 -0.10701203222E+02  0.39947122709E+02  0.78313424007E+02  0.41800000000E+01 0. -1.
         -5    1    1    2    0  502  0.22457204392E+02  0.69338629442E+02  0.37679780129E+01  0.73101584253E+02  0.41800000000E+01 0. -1.
        -11    1    1    2    0    0  0.45640811463E+02 -0.78379203135E+02 -0.12770395341E+02  0.91594029020E+02  0.00000000000E+00 0.  1.
         11    1    1    2    0    0 -0.17260969683E+01  0.19741776914E+02 -0.27259239243E+02  0.33701384105E+02  0.00000000000E+00 0. -1.
</event>
<event>
 6    1  0.8259171E-006  0.1795267E+03  0.7561462E-02  0.1168262E+00
         -2   -1    0    0    0  501 -0.00000000000E+00  0.00000000000E+00  0.11892036168E+03  0.11892036168E+03  0.00000000000E+00 0. -1.
          2   -1    0    0  501    0  0.00000000000E+00 -0.00000000000E+00 -0.34241764345E+03  0.34241764345E+03  0.00000000000E+00 0.  1.
          5    1    1    2  502    0  0.53611262071E+02 -0.14724948282E+03 -0.27495749312E+02  0.15915422156E+03  0.41800000000E+01 0. -1.
         -5    1    1    2    0  502 -0.37487308214E+02 -0.46113014959E+01  0.92055233077E+01  0.39099570816E+02  0.41800000000E+01 0. -1.
        -11    1    1    2    0    0  0.15798017719E+02  0.11254544702E+03 -0.13399239491E+03  0.17569865367E+03  0.00000000000E+00 0. -1.
         11    1    1    2    0    0 -0.31921971575E+02  0.39315337288E+02 -0.71214660861E+02  0.87385559087E+02  0.00000000000E+00 0.  1.
</event>
<event>
 6    1  0.8259171E-006  0.1631253E+03  0.7561462E-02  0.1185213E+00
          2   -1    0    0  501    0  0.00000000000E+00  0.00000000000E+00  0.42059597988E+03  0.42059597988E+03  0.00000000000E+00 0. -1.
         -2   -1    0    0    0  501 -0.00000000000E+00 -0.00000000000E+00 -0.89190343456E+02  0.89190343456E+02  0.00000000000E+00 0.  1.
          5    1    1    2  502    0 -0.12163940388E+03 -0.74501574961E+02  0.37575389350E+02  0.14756697304E+03  0.41800000000E+01 0.  1.
         -5    1    1    2    0  502 -0.60098787583E+01 -0.15172494630E+02  0.85694084405E+02  0.87334252948E+02  0.41800000000E+01 0.  1.
        -11    1    1    2    0    0 -0.30308032253E+01  0.16809021098E+02 -0.17044765773E+01  0.17164911852E+02  0.00000000000E+00 0.  1.
         11    1    1    2    0    0  0.13068008586E+03  0.72865048493E+02  0.20984063924E+03  0.25772018549E+03  0.00000000000E+00 0. -1.
</event>
<event>
 6    1  0.8259171E-006  0.1008567E+03  0.7561462E-02  0.1278505E+00
         -3   -1    0    0    0  501 -0.00000000000E+00  0.00000000000E+00  0.53718999811E+02  0.53718999811E+02  0.00000000000E+00 0.  1.
          3   -1    0    0  501    0  0.00000000000E+00 -0.00000000000E+00 -0.33209373932E+03  0.33209373932E+03  0.00000000000E+00 0. -1.
          5    1    1    2  502    0  0.83717273000E+01  0.35691164230E+02 -0.14519501734E+03  0.14980991450E+03  0.41800000000E+01 0. -1.
         -5    1    1    2    0  502  0.40366340897E+02  0.25541815643E+02  0.11493437688E+02  0.49309201308E+02  0.41800000000E+01 0. -1.
        -11    1    1    2    0    0 -0.50857558556E+02  0.45381880507E+01 -0.50564888958E+02  0.71860242195E+02  0.00000000000E+00 0. -1.
         11    1    1    2    0    0  0.21194903588E+01 -0.65771167924E+02 -0.94108270892E+02  0.11483338112E+03  0.00000000000E+00 0.  1.
</event>
<event>
 6    1  0.8259171E-006  0.9095026E+02  0.7561462E-02  0.1300567E+00
          1   -1    0    0  501    0  0.00000000000E+00  0.00000000000E+00  0.41966946822E+02  0.41966946822E+02  0.00000000000E+00 0. -1.
         -1   -1    0    0    0  501 -0.00000000000E+00 -0.00000000000E+00 -0.41267911006E+03  0.41267911006E+03  0.00000000000E+00 0.  1.
          5    1    1    2  502    0  0.40779489099E+02  0.75813411247E+02 -0.93333663501E+02  0.12704048645E+03  0.41800000000E+01 0.  1.
         -5    1    1    2    0  502 -0.12741465111E+02 -0.16819176898E+02 -0.17337771793E+03  0.17470699791E+03  0.41800000000E+01 0.  1.
        -11    1    1    2    0    0 -0.34306473242E+02 -0.33499469986E+02 -0.24533389415E+01  0.48012159581E+02  0.00000000000E+00 0. -1.
         11    1    1    2    0    0  0.62684492535E+01 -0.25494764363E+02 -0.10154744286E+03  0.10488641293E+03  0.00000000000E+00 0.  1.
</event>
<event>
 6    1  0.8259171E-006  0.1192558E+03  0.7561462E-02  0.1244330E+00
         -1   -1    0    0    0  501 -0.00000000000E+00  0.00000000000E+00  0.11583722163E+04  0.11583722163E+04  0.00000000000E+00 0.  1.
          1   -1    0    0  501    0  0.00000000000E+00 -0.00000000000E+00 -0.34341836630E+02  0.34341836630E+02  0.00000000000E+00 0. -1.
          5    1    1    2  502    0  0.27132582855E+02 -0.32757505662E+02  0.50786755298E+03  0.50966278558E+03  0.41800000000E+01 0. -1.
         -5    1    1    2    0  502 -0.51351015098E+02  0.76184985388E+02  0.54891812369E+03  0.55656954432E+03  0.41800000000E+01 0.  1.
        -11    1    1    2    0    0  0.55790946923E+02 -0.45740059035E+02  0.31463718142E+02  0.78706723464E+02  0.00000000000E+00 0. -1.
         11    1    1    2    0    0 -0.31572514680E+02  0.23125793095E+01  0.35780984844E+02  0.47774999557E+02  0.00000000000E+00 0.  1.
</event>
<event>
 6    1  0.8259171E-006  0.1111396E+03  0.7561462E-02  0.1258474E+00
         -4   -1    0    0    0  501 -0.00000000000E+00  0.00000000000E+00  0.81355751432E+03  0.81355751432E+03  0.00000000000E+00 0.  1.
          4   -1    0    0  501    0  0.00000000000E+00 -0.00000000000E+00 -0.20878655142E+02  0.20878655142E+02  0.00000000000E+00 0. -1.
          5    1    1    2  502    0  0.47755247242E+02 -0.30771577154E+02  0.40751630547E+03  0.41147838974E+03  0.41800000000E+01 0. -1.
         -5    1    1    2    0  502 -0.64709490414E+02 -0.21842418714E+01  0.21564468431E+03  0.22519367516E+03  0.41800000000E+01 0. -1.
        -11    1    1    2    0    0 -0.38040807005E+02  0.23266251881E+02  0.91884133579E+02  0.10213283252E+03  0.00000000000E+00 0.  1.
         11    1    1    2    0    0  0.54995050177E+02  0.96895671442E+01  0.77633735819E+02  0.95631272043E+02  0.00000000000E+00 0. -1.
</event>
<event>
 6    1  0.8259171E-006  0.1001400E+03  0.7561462E-02  0.1280002E+00
          2   -1    0    0  501    0  0.00000000000E+00  0.00000000000E+00  0.35892425763E+02  0.35892425763E+02  0.00000000000E+00 0. -1.
         -2   -1    0    0    0  501 -0.00000000000E+00 -0.00000000000E+00 -0.36111411891E+03  0.36111411891E+03  0.00000000000E+00 0.  1.
          5    1    1    2  502    0 -0.47833752203E+02 -0.45116143795E+02 -0.17250248027E+03  0.18465674204E+03  0.41800000000E+01 0. -1.
         -5    1    1    2    0  502  0.17814293460E+02  0.33621765150E+02 -0.11158675152E+02  0.39871801745E+02  0.41800000000E+01 0. -1.
        -11    1    1    2    0    0 -0.28242633793E+02  0.23366680087E+02 -0.36321056607E+02  0.51602977191E+02  0.00000000000E+00 0.  1.
         11    1    1    2    0    0  0.58262092536E+02 -0.11872301442E+02 -0.10523948112E+03  0.12087502370E+03  0.00000000000E+00 0. -1.
</event>
<event>
 6    1  0.8259171E-006  0.1453007E+03  0.7561462E-02  0.1206369E+00
         -1   -1    0    0    0  501 -0.00000000000E+00  0.00000000000E+00  0.70534866214E+02  0.70534866214E+02  0.00000000000E+00 0.  1.
          1   -1    0    0  501    0  0.00000000000E+00 -0.00000000000E+00 -0.32880377227E+03  0.32880377227E+03  0.00000000000E+00 0. -1.
          5    1    1    2  502    0 -0.68367065542E+02 -0.99356751937E+02 -0.10885887686E+03  0.16252245161E+03  0.41800000000E+01 0. -1.
         -5    1    1    2    0  502 -0.18630474006E+02  0.36545397051E+02 -0.15946579337E+02  0.44208895031E+02  0.41800000000E+01 0. -1.
        -11    1    1    2    0    0  0.44007096651E+02  0.72323652237E+02 -0.50215037406E+02  0.98432135049E+02  0.00000000000E+00 0.  1.
         11    1    1    2    0    0  0.42990442896E+02 -0.95122973512E+01 -0.83248412454E+02  0.94175156795E+02  0.00000000000E+00 0. -1.
</event>
<event>
 6    1  0.8259171E-006  0.9321681E+02  0.7561462E-02  0.1295244E+00
          2   -1    0    0  501    0  0.00000000000E+00  0.00000000000E+00  0.29488185997E+03  0.29488185997E+03  0.00000000000E+00 0. -1.
         -2   -1    0    0    0  501 -0.00000000000E+00 -0.00000000000E+00 -0.86328854662E+02  0.86328854662E+02  0.00000000000E+00 0.  1.
          5    1    1    2  502    0  0.49328762624E+02  0.17331441976E+02  0.46051347360E+02  0.69799030772E+02  0.41800000000E+01 0. -1.
         -5    1    1    2    0  502 -0.21984811126E+02  0.34247695575E+02 -0.54979508779E+02  0.68530689169E+02  0.41800000000E+01 0. -1.
        -11    1    1    2    0    0 -0.48770664129E+02 -0.15617938364E+02  0.17842939188E+03  0.18563282459E+03  0.00000000000E+00 0.  1.
         11    1    1    2    0    0  0.21426712631E+02 -0.35961199187E+02  0.39051774843E+02  0.57248170098E+02  0.00000000000E+00 0. -1.
</event>
<event>
 6    1  0.8398057E-006  0.1702793E+03  0.7561462E-02  0.1177557E+00
         -2   -1    0    0    0  501 -0.00000000000E+00  0.00000000000E+00  0.71256436694E+03  0.71256436694E+03  0.00000000000E+00 0.  1.
          2   -1    0    0  501    0  0.00000000000E+00 -0.00000000000E+00 -0.48577034802E+02  0.48577034802E+02  0.00000000000E+00 0. -1.
          5    1    1    2  502    0  0.10153810980E+03  0.38114329228E+02  0.32888436771E+03  0.34633089604E+03  0.41800000000E+01 0. -1.
         -5    1    1    2    0  502  0.48899379262E+02 -0.28245163477E+02  0.33984927714E+02  0.66040792423E+02  0.41800000000E+01 0. -1.
        -11    1    1    2    0    0 -0.79100511867E+02  0.39724220003E+02  0.16611016123E+03  0.18822191768E+03  0.00000000000E+00 0.  1.
         11    1    1    2    0    0 -0.71336977193E+02 -0.49593385754E+02  0.13500787549E+03  0.16054779560E+03  0.00000000000E+00 0. -1.
</event>
<event>
 6    1  0.8259171E-006  0.1838820E+03  0.7561462E-02  0.1164098E+00
         -2   -1    0    0    0  501 -0.00000000000E+00  0.00000000000E+00  0.11147333566E+03  0.11147333566E+03  0.00000000000E+00 0.  1.
          2   -1    0    0  501    0  0.00000000000E+00 -0.00000000000E+00 -0.42600788034E+03  0.42600788034E+03  0.00000000000E+00 0. -1.
          5    1    1    2  502    0  0.48189392977E+01 -0.11682031708E+03 -0.10469649609E+03  0.15700011896E+03  0.41800000000E+01 0.  1.
         -5    1    1    2    0  502 -0.31794319585E+02 -0.55558612371E+02  0.29312442653E+02  0.70528929247E+02  0.41800000000E+01 0.  1.
        -11    1    1    2    0    0  0.28452835362E+02  0.21319888733E+02 -0.93811105721E+02  0.10032260489E+03  0.00000000000E+00 0. -1.
         11    1    1    2    0    0 -0.14774550746E+01  0.15105904072E+03 -0.14533938553E+03  0.20962956291E+03  0.00000000000E+00 0.  1.
</event>
<event>
 6    1  0.8259171E-006  0.1139504E+03  0.7561462E-02  0.1253424E+00
          2   -1    0    0  501    0  0.00000000000E+00  0.00000000000E+00  0.48980988140E+03  0.48980988140E+03  0.00000000000E+00 0. -1.
         -2   -1    0    0    0  501 -0.00000000000E+00 -0.00000000000E+00 -0.29478295598E+02  0.29478295598E+02  0.00000000000E+00 0.  1.
          5    1    1    2  502    0 -0.80175377368E+02  0.44308286351E+02  0.15894133181E+03  0.18349696110E+03  0.41800000000E+01 0. -1.
         -5    1    1    2    0  502  0.31079348548E+02 -0.24443311644E+02  0.12694133604E+03  0.13302246647E+03  0.41800000000E+01 0. -1.
        -11    1    1    2    0    0  0.67356116245E+02  0.27038400564E+01  0.15130280229E+03  0.16564025817E+03  0.00000000000E+00 0. -1.
         11    1    1    2    0    0 -0.18260087426E+02 -0.22568814764E+02  0.23146115663E+02  0.37128491256E+02  0.00000000000E+00 0.  1.
</event>
<event>
 6    1  0.8259171E-006  0.1068775E+03  0.7561462E-02  0.1266464E+00
         -2   -1    0    0    0  501 -0.00000000000E+00  0.00000000000E+00  0.24100721912E+02  0.24100721912E+02  0.00000000000E+00 0.  1.
          2   -1    0    0  501    0  0.00000000000E+00 -0.00000000000E+00 -0.96803869095E+03  0.96803869095E+03  0.00000000000E+00 0. -1.
          5    1    1    2  502    0 -0.76178631823E+01  0.64915453749E+02 -0.53932000567E+03  0.54328223686E+03  0.41800000000E+01 0. -1.
         -5    1    1    2    0  502 -0.15043724850E+02  0.35590734735E+02 -0.31293747405E+02  0.49897746271E+02  0.41800000000E+01 0. -1.
        -11    1    1    2    0    0  0.30975109039E+01 -0.83253254120E+02 -0.36029515151E+03  0.36980169699E+03  0.00000000000E+00 0. -1.
         11    1    1    2    0    0  0.19564077128E+02 -0.17252934364E+02 -0.13029064460E+02  0.29157732744E+02  0.00000000000E+00 0.  1.
</event>
<event>
 6    1  0.8259171E-006  0.8873811E+02  0.7561462E-02  0.1305937E+00
          2   -1    0    0  501    0  0.00000000000E+00  0.00000000000E+00  0.38887323333E+02  0.38887323333E+02  0.00000000000E+00 0. -1.
         -2   -1    0    0    0  501 -0.00000000000E+00 -0.00000000000E+00 -0.35997274371E+03  0.35997274371E+03  0.00000000000E+00 0.  1.
          5    1    1    2  502    0  0.33529900890E+02  0.25659400172E+02 -0.26675208570E+01  0.42511729422E+02  0.41800000000E+01 0.  1.
         -5    1    1    2    0  502  0.99489418498E+01 -0.30972410166E+02 -0.18031518283E+03  0.18327386392E+03  0.41800000000E+01 0.  1.
        -11    1    1    2    0    0 -0.55023760567E+01  0.46153851340E+02 -0.80106839063E+02  0.92615116479E+02  0.00000000000E+00 0. -1.
         11    1    1    2    0    0 -0.37976466684E+02 -0.40840841347E+02 -0.57995877627E+02  0.80459357228E+02  0.00000000000E+00 0.  1.
</event>
<event>
 6    1  0.8259171E-006  0.1509659E+03  0.7561462E-02  0.1199291E+00
         -3   -1    0    0    0  501 -0.00000000000E+00  0.00000000000E+00  0.89899160988E+02  0.89899160988E+02  0.00000000000E+00 0.  1.
          3   -1    0    0  501    0  0.00000000000E+00 -0.00000000000E+00 -0.44055259284E+03  0.44055259284E+03  0.00000000000E+00 0. -1.
          5    1    1    2  502    0  0.79769468042E+02  0.64093304106E+02 -0.67603723798E+02  0.12271452862E+03  0.41800000000E+01 0.  1.
         -5    1    1    2    0  502 -0.17851358813E+02  0.43697562220E+02  0.32020167612E+02  0.57191883073E+02  0.41800000000E+01 0.  1.
        -11    1    1    2    0    0 -0.64081430081E+02 -0.24180777825E+02 -0.16675646611E+03  0.18027439831E+03  0.00000000000E+00 0.  1.
         11    1    1    2    0    0  0.21633208511E+01 -0.83610088501E+02 -0.14831340956E+03  0.17027094383E+03  0.00000000000E+00 0. -1.
</event>
<event>
 6    1  0.1618983E-005  0.2314761E+03  0.7561462E-02  0.1125605E+00
          2   -1    0    0  501    0  0.00000000000E+00  0.00000000000E+00  0.12180396297E+04  0.12180396297E+04  0.00000000000E+00 0. -1.
         -2   -1    0    0    0  501 -0.00000000000E+00 -0.00000000000E+00 -0.50648432934E+02  0.50648432934E+02  0.00000000000E+00 0.  1.
          5    1    1    2  502    0  0.57893165648E+02  0.18281208709E+03  0.27040409248E+03  0.33152333771E+03  0.41800000000E+01 0.  1.
         -5    1    1    2    0  502  0.41457111281E+02  0.36200027005E+01  0.14595678316E+03  0.15183099633E+03  0.41800000000E+01 0.  1.
        -11    1    1    2    0    0 -0.91578871984E+00 -0.94908406303E+02  0.29300758845E+03  0.30799657652E+03  0.00000000000E+00 0.  1.
         11    1    1    2    0    0 -0.98434488209E+02 -0.91523683490E+02  0.45802273264E+03  0.47733715205E+03  0.00000000000E+00 0. -1.
</event>
<event>
 6    1  0.8259171E-006  0.1189022E+03  0.7561462E-02  0.1244919E+00
          2   -1    0    0  501    0  0.00000000000E+00  0.00000000000E+00  0.55065948945E+02  0.55065948945E+02  0.00000000000E+00 0. -1.
         -2   -1    0    0    0  501 -0.00000000000E+00 -0.00000000000E+00 -0.26240630854E+03  0.26240630854E+03  0.00000000000E+00 0.  1.
          5    1    1    2  502    0 -0.54837032877E+02 -0.37029559026E+02 -0.70270481872E+02  0.96611083417E+02  0.41800000000E+01 0.  1.
         -5    1    1    2    0  502  0.67043583431E+02 -0.10165277852E+02 -0.69529086133E+02  0.97210807895E+02  0.41800000000E+01 0.  1.
        -11    1    1    2    0    0 -0.50930720677E+02  0.38582746687E+02 -0.40868448227E+02  0.75847193165E+02  0.00000000000E+00 0. -1.
         11    1    1    2    0    0  0.38724170123E+02  0.86120901907E+01 -0.26672343362E+02  0.47803173007E+02  0.00000000000E+00 0.  1.
</event>
<event>
 6    1  0.8259171E-006  0.9369337E+02  0.7561462E-02  0.1294146E+00
          3   -1    0    0  501    0  0.00000000000E+00  0.00000000000E+00  0.12205740677E+03  0.12205740677E+03  0.00000000000E+00 0. -1.
         -3   -1    0    0    0  501 -0.00000000000E+00 -0.00000000000E+00 -0.14349818290E+03  0.14349818290E+03  0.00000000000E+00 0.  1.
          5    1    1    2  502    0  0.16487865842E+02  0.18593732386E+01 -0.82417040041E+02  0.84174508481E+02  0.41800000000E+01 0.  1.
         -5    1    1    2    0  502 -0.48717873062E+02 -0.40230654216E+02  0.17085542822E+02  0.65584486488E+02  0.41800000000E+01 0.  1.
        -11    1    1    2    0    0 -0.27304745145E+02  0.38769873143E+02  0.22983316646E+02  0.52696157497E+02  0.00000000000E+00 0. -1.
         11    1    1    2    0    0  0.59534752365E+02 -0.39859216543E+00  0.20907404449E+02  0.63100437207E+02  0.00000000000E+00 0.  1.
</event>
<event>
 6    1  0.8259171E-006  0.1253465E+03  0.7561462E-02  0.1234529E+00
         -1   -1    0    0    0  501 -0.00000000000E+00  0.00000000000E+00  0.29345411955E+03  0.29345411955E+03  0.00000000000E+00 0.  1.
          1   -1    0    0  501    0  0.00000000000E+00 -0.00000000000E+00 -0.58033000811E+02  0.58033000811E+02  0.00000000000E+00 0. -1.
          5    1    1    2  502    0  0.93073837213E+01 -0.50109954536E+02  0.57989565333E+02  0.77316861180E+02  0.41800000000E+01 0. -1.
         -5    1    1    2    0  502 -0.21119260081E+02  0.72941095484E+02  0.10877248853E+03  0.13272284361E+03  0.41800000000E+01 0. -1.
        -11    1    1    2    0    0 -0.50015949962E+01  0.49241612242E+02  0.23973704604E+02  0.54995371089E+02  0.00000000000E+00 0. -1.
         11    1    1    2    0    0  0.16813471356E+02 -0.72072753191E+02  0.44685360275E+02  0.86452044478E+02  0.00000000000E+00 0.  1.
</event>
<event>
 6    1  0.8259171E-006  0.1320766E+03  0.7561462E-02  0.1224407E+00
          1   -1    0    0  501    0  0.00000000000E+00  0.00000000000E+00  0.28793080995E+03  0.28793080995E+03  0.00000000000E+00 0. -1.
         -1   -1    0    0    0  501 -0.00000000000E+00 -0.00000000000E+00 -0.93325642129E+02  0.93325642129E+02  0.00000000000E+00 0.  1.
          5    1    1    2  502    0  0.40593999357E+02  0.32730745653E+02  0.11030794493E+03  0.12208394493E+03  0.41800000000E+01 0. -1.
         -5    1    1    2    0  502  0.24701747795E+02  0.70303590001E+02 -0.16195759216E+02  0.76371107938E+02  0.41800000000E+01 0. -1.
        -11    1    1    2    0    0 -0.55515652700E+02 -0.11131552374E+03  0.11062380489E+03  0.16646549110E+03  0.00000000000E+00 0.  1.
         11    1    1    2    0    0 -0.97800944519E+01  0.82811880831E+01 -0.10130822781E+02  0.16335908110E+02  0.00000000000E+00 0. -1.
</event>
<event>
 6    1  0.1258373E-005  0.1072202E+03  0.7561462E-02  0.1265806E+00
         -2   -1    0    0    0  501 -0.00000000000E+00  0.00000000000E+00  0.16340155003E+02  0.16340155003E+02  0.00000000000E+00 0.  1.
          2   -1    0    0  501    0  0.00000000000E+00 -0.00000000000E+00 -0.91805436729E+03  0.91805436729E+03  0.00000000000E+00 0. -1.
          5    1    1    2  502    0  0.17735678874E+02  0.25539936634E+02 -0.31350335296E+02  0.44352661607E+02  0.41800000000E+01 0.  1.
         -5    1    1    2    0  502 -0.33874989223E+02 -0.73059177700E+02 -0.38194102786E+03  0.39036083245E+03  0.41800000000E+01 0.  1.
        -11    1    1    2    0    0 -0.19724130265E+02  0.61003579433E+02 -0.36000081033E+03  0.36566523140E+03  0.00000000000E+00 0. -1.
         11    1    1    2    0    0  0.35863440614E+02 -0.13484338367E+02 -0.12842203879E+03  0.13401579683E+03  0.00000000000E+00 0.  1.
</event>
<event>
 6    1  0.8259171E-006  0.1193208E+03  0.7561462E-02  0.1244222E+00
          2   -1    0    0  501    0  0.00000000000E+00  0.00000000000E+00  0.10904241813E+03  0.10904241813E+03  0.00000000000E+00 0.  1.
         -2   -1    0    0    0  501 -0.00000000000E+00 -0.00000000000E+00 -0.21346054269E+03  0.21346054269E+03  0.00000000000E+00 0. -1.
          5    1    1    2  502    0 -0.35076614488E+01  0.48830971251E+01 -0.85073507320E+02  0.85388069272E+02  0.41800000000E+01 0.  1.
         -5    1    1    2    0  502 -0.28445908168E+02  0.92732064503E+02  0.81615905916E+00  0.97090390843E+02  0.41800000000E+01 0.  1.
        -11    1    1    2    0    0  0.77298149587E+01 -0.10771146514E+03 -0.18139577987E+01  0.10800370459E+03  0.00000000000E+00 0.  1.
         11    1    1    2    0    0  0.24223754658E+02  0.10096303512E+02 -0.18346818505E+02  0.32020796112E+02  0.00000000000E+00 0. -1.
</event>
<event>
 6    1  0.8259171E-006  0.1031524E+03  0.7561462E-02  0.1273803E+00
         -2   -1    0    0    0  501 -0.00000000000E+00  0.00000000000E+00  0.28454187564E+03  0.28454187564E+03  0.00000000000E+00 0.  1.
          2   -1    0    0  501    0  0.00000000000E+00 -0.00000000000E+00 -0.59751103553E+02  0.59751103553E+02  0.00000000000E+00 0. -1.
          5    1    1    2  502    0 -0.45501132298E+02 -0.62424035320E+02  0.25049703205E+02  0.81314655854E+02  0.41800000000E+01 0. -1.
         -5    1    1    2    0  502  0.18762607503E+02 -0.27642520056E+01  0.12445675747E+03  0.12596282550E+03  0.41800000000E+01 0. -1.
        -11    1    1    2    0    0  0.21596465873E+02 -0.16808373366E+02  0.29005858183E+01  0.27519850135E+02  0.00000000000E+00 0. -1.
         11    1    1    2    0    0  0.51420589228E+01  0.81996660691E+02  0.72383725599E+02  0.10949564770E+03  0.00000000000E+00 0.  1.
</event>
<event>
 6    1  0.8259171E-006  0.1182667E+03  0.7561462E-02  0.1245984E+00
         -2   -1    0    0    0  501 -0.00000000000E+00  0.00000000000E+00  0.18625597104E+03  0.18625597104E+03  0.00000000000E+00 0.  1.
          2   -1    0    0  501    0  0.00000000000E+00 -0.00000000000E+00 -0.10905810026E+03  0.10905810026E+03  0.00000000000E+00 0. -1.
          5    1    1    2  502    0 -0.30251600760E+01 -0.32004708923E+02 -0.37894630045E+02  0.49869112415E+02  0.41800000000E+01 0.  1.
         -5    1    1    2    0  502 -0.81508749233E+02 -0.52444903605E+01  0.72834671201E+02  0.10951503372E+03  0.41800000000E+01 0.  1.
        -11    1    1    2    0    0  0.98498301417E+02  0.42680536730E+02  0.50714756634E+02  0.11872459786E+03  0.00000000000E+00 0.  1.
         11    1    1    2    0    0 -0.13964392107E+02 -0.54313374457E+01 -0.84569270037E+01  0.17205327306E+02  0.00000000000E+00 0. -1.
</event>
<event>
 6    1  0.8259171E-006  0.9820535E+02  0.7561462E-02  0.1284116E+00
         -1   -1    0    0    0  501 -0.00000000000E+00  0.00000000000E+00  0.14174784279E+03  0.14174784279E+03  0.00000000000E+00 0.  1.
          1   -1    0    0  501    0  0.00000000000E+00 -0.00000000000E+00 -0.13292432142E+03  0.13292432142E+03  0.00000000000E+00 0. -1.
          5    1    1    2  502    0 -0.90675243636E+01 -0.41946417241E+02  0.72209980561E+02  0.84103957160E+02  0.41800000000E+01 0. -1.
         -5    1    1    2    0  502 -0.38611962147E+02  0.55960082171E+02 -0.10924176425E+01  0.68125473897E+02  0.41800000000E+01 0. -1.
        -11    1    1    2    0    0  0.40291372462E+02  0.23700140581E+02  0.28238749549E+01  0.46830178605E+02  0.00000000000E+00 0.  1.
         11    1    1    2    0    0  0.73881140484E+01 -0.37713805511E+02 -0.65117916499E+02  0.75612554543E+02  0.00000000000E+00 0. -1.
</event>
<event>
 6    1  0.8259171E-006  0.1483092E+03  0.7561462E-02  0.1202566E+00
          1   -1    0    0  501    0  0.00000000000E+00  0.00000000000E+00  0.15281573333E+03  0.15281573333E+03  0.00000000000E+00 0. -1.
         -1   -1    0    0    0  501 -0.00000000000E+00 -0.00000000000E+00 -0.60781015281E+03  0.60781015281E+03  0.00000000000E+00 0.  1.
          5    1    1    2  502    0  0.75653632574E+02 -0.17115242136E+02  0.12412620604E+02  0.78663518770E+02  0.41800000000E+01 0. -1.
         -5    1    1    2    0  502 -0.10896777867E+03 -0.35459046531E+02 -0.54117254476E+03  0.55318759600E+03  0.41800000000E+01 0.  1.
        -11    1    1    2    0    0  0.52667046292E+02  0.49898870752E+01  0.27410515378E+02  0.59582321971E+02  0.00000000000E+00 0.  1.
         11    1    1    2    0    0 -0.19352900192E+02  0.47584401592E+02  0.46354989293E+02  0.69192449393E+02  0.00000000000E+00 0. -1.
</event>
<event>
 6    1  0.8259171E-006  0.1155995E+03  0.7561462E-02  0.1250538E+00
         -1   -1    0    0    0  501 -0.00000000000E+00  0.00000000000E+00  0.14114747003E+03  0.14114747003E+03  0.00000000000E+00 0.  1.
          1   -1    0    0  501    0  0.00000000000E+00 -0.00000000000E+00 -0.11830855828E+03  0.11830855828E+03  0.00000000000E+00 0. -1.
          5    1    1    2  502    0  0.94356737503E+02  0.21036137581E+01  0.50937598794E+02  0.10733000733E+03  0.41800000000E+01 0.  1.
         -5    1    1    2    0  502 -0.25699531350E+02 -0.24164379209E+01 -0.26738918753E+02  0.37399829678E+02  0.41800000000E+01 0.  1.
        -11    1    1    2    0    0 -0.74400583905E+02  0.30087243787E+02  0.12785377326E+02  0.81265952265E+02  0.00000000000E+00 0.  1.
         11    1    1    2    0    0  0.57433777524E+01 -0.29774419625E+02 -0.14145145621E+02  0.33460239040E+02  0.00000000000E+00 0. -1.
</event>
<event>
 6    1  0.8259171E-006  0.9646880E+02  0.7561462E-02  0.1287902E+00
          3   -1    0    0  501    0  0.00000000000E+00  0.00000000000E+00  0.21429305253E+03  0.21429305253E+03  0.00000000000E+00 0. -1.
         -3   -1    0    0    0  501 -0.00000000000E+00 -0.00000000000E+00 -0.56598928476E+02  0.56598928476E+02  0.00000000000E+00 0.  1.
          5    1    1    2  502    0  0.40735700931E+02  0.42665716678E+02  0.68602998925E+02  0.90573752111E+02  0.41800000000E+01 0.  1.
         -5    1    1    2    0  502 -0.38104299443E+02 -0.27350346244E+02 -0.10464549803E+02  0.48238555931E+02  0.41800000000E+01 0.  1.
        -11    1    1    2    0    0  0.13472111702E+02 -0.48225325763E+02  0.60387262538E+02  0.78446168265E+02  0.00000000000E+00 0. -1.
         11    1    1    2    0    0 -0.16103513191E+02  0.32909955329E+02  0.39168412393E+02  0.53633504698E+02  0.00000000000E+00 0.  1.
</event>
<event>
 6    1  0.8259171E-006  0.1667156E+03  0.7561462E-02  0.1181317E+00
          2   -1    0    0  501    0  0.00000000000E+00  0.00000000000E+00  0.47986751018E+03  0.47986751018E+03  0.00000000000E+00 0. -1.
         -2   -1    0    0    0  501 -0.00000000000E+00 -0.00000000000E+00 -0.62363123286E+02  0.62363123286E+02  0.00000000000E+00 0.  1.
          5    1    1    2  502    0 -0.10598621889E+02  0.22646907540E+02  0.67784995976E+02  0.72370513931E+02  0.41800000000E+01 0. -1.
         -5    1    1    2    0  502 -0.58647510385E+02 -0.13702119190E+03  0.13930904402E+03  0.20405592285E+03  0.41800000000E+01 0. -1.
        -11    1    1    2    0    0  0.53409921819E+02  0.12761079655E+03  0.16107727033E+03  0.21232762929E+03  0.00000000000E+00 0.  1.
         11    1    1    2    0    0  0.15836210454E+02 -0.13236512184E+02  0.49333076566E+02  0.53476567390E+02  0.00000000000E+00 0. -1.
</event>
<event>
 6    1  0.8259171E-006  0.1164070E+03  0.7561462E-02  0.1249145E+00
         -2   -1    0    0    0  501 -0.00000000000E+00  0.00000000000E+00  0.50570817978E+02  0.50570817978E+02  0.00000000000E+00 0.  1.
          2   -1    0    0  501    0  0.00000000000E+00 -0.00000000000E+00 -0.34512778192E+03  0.34512778192E+03  0.00000000000E+00 0. -1.
          5    1    1    2  502    0 -0.10062038425E+02 -0.59782259255E+02 -0.14039661298E+02  0.62367841299E+02  0.41800000000E+01 0. -1.
         -5    1    1    2    0  502  0.54664963777E+02 -0.18110729225E+01 -0.13892599114E+03  0.14936345492E+03  0.41800000000E+01 0. -1.
        -11    1    1    2    0    0 -0.49832702075E+02  0.82094113967E+02 -0.11108316625E+03  0.14684076943E+03  0.00000000000E+00 0.  1.
         11    1    1    2    0    0  0.52297767231E+01 -0.20500781789E+02 -0.30508145257E+02  0.37126534252E+02  0.00000000000E+00 0. -1.
</event>
<event>
 6    1  0.8259171E-006  0.8082789E+02  0.7561462E-02  0.1326718E+00
         -1   -1    0    0    0  501 -0.00000000000E+00  0.00000000000E+00  0.86137770769E+02  0.86137770769E+02  0.00000000000E+00 0.  1.
          1   -1    0    0  501    0  0.00000000000E+00 -0.00000000000E+00 -0.19514366895E+03  0.19514366895E+03  0.00000000000E+00 0. -1.
          5    1    1    2  502    0  0.10430403173E+02  0.32556752292E+01 -0.59361352782E+02  0.60503184508E+02  0.41800000000E+01 0. -1.
         -5    1    1    2    0  502  0.39645796696E+02 -0.32401786539E+02  0.51364440890E+02  0.72646012654E+02  0.41800000000E+01 0.  1.
        -11    1    1    2    0    0 -0.13771524717E+02 -0.27814865712E+02 -0.60848281902E+01  0.31628259227E+02  0.00000000000E+00 0.  1.
         11    1    1    2    0    0 -0.36304675152E+02  0.56960977022E+02 -0.94924158102E+02  0.11650398333E+03  0.00000000000E+00 0. -1.
</event>
<event>
 6    1  0.8259171E-006  0.8172136E+02  0.7561462E-02  0.1324236E+00
         -1   -1    0    0    0  501 -0.00000000000E+00  0.00000000000E+00  0.13401574456E+03  0.13401574456E+03  0.00000000000E+00 0.  1.
          1   -1    0    0  501    0  0.00000000000E+00 -0.00000000000E+00 -0.14370875601E+03  0.14370875601E+03  0.00000000000E+00 0. -1.
          5    1    1    2  502    0 -0.16866107275E+02  0.13152530213E+02 -0.32552748791E+02  0.39174079178E+02  0.41800000000E+01 0. -1.
         -5    1    1    2    0  502  0.71729665235E+02 -0.26005022084E+02  0.75664411918E+02  0.10753595529E+03  0.41800000000E+01 0.  1.
        -11    1    1    2    0    0 -0.25977236867E+02 -0.10572827265E+02 -0.80109018288E+02  0.84876712488E+02  0.00000000000E+00 0. -1.
         11    1    1    2    0    0 -0.28886321093E+02  0.23425319135E+02  0.27304343713E+02  0.46137753613E+02  0.00000000000E+00 0.  1.
</event>
<event>
 6    1  0.8259171E-006  0.7935902E+02  0.7561462E-02  0.1330880E+00
          1   -1    0    0  501    0  0.00000000000E+00  0.00000000000E+00  0.41030052737E+03  0.41030052737E+03  0.00000000000E+00 0. -1.
         -1   -1    0    0    0  501 -0.00000000000E+00 -0.00000000000E+00 -0.28931907918E+02  0.28931907918E+02  0.00000000000E+00 0.  1.
          5    1    1    2  502    0 -0.18400288448E+02  0.49855823113E+02  0.54929602725E+02  0.76543499847E+02  0.41800000000E+01 0.  1.
         -5    1    1    2    0  502  0.22970183201E+02 -0.54286310256E+02  0.18354313835E+03  0.19282165032E+03  0.41800000000E+01 0.  1.
        -11    1    1    2    0    0  0.18889813205E+02  0.11122874981E+02 -0.28392350428E+01  0.22104403326E+02  0.00000000000E+00 0.  1.
         11    1    1    2    0    0 -0.23459707959E+02 -0.66923878373E+01  0.14573511342E+03  0.14776288179E+03  0.00000000000E+00 0. -1.
</event>
<event>
 6    1  0.8259171E-006  0.9834589E+02  0.7561462E-02  0.1283813E+00
         -1   -1    0    0    0  501 -0.00000000000E+00  0.00000000000E+00  0.26894011072E+02  0.26894011072E+02  0.00000000000E+00 0.  1.
          1   -1    0    0  501    0  0.00000000000E+00 -0.00000000000E+00 -0.59016948233E+03  0.59016948233E+03  0.00000000000E+00 0. -1.
          5    1    1    2  502    0  0.39157046934E+02  0.25505598584E+02 -0.26300033225E+03  0.26715249774E+03  0.41800000000E+01 0. -1.
         -5    1    1    2    0  502 -0.29875447677E+02  0.36999552887E+02 -0.26782786891E+02  0.54738463272E+02  0.41800000000E+01 0. -1.
        -11    1    1    2    0    0  0.34074718876E+02 -0.13626071355E+02 -0.16057010714E+03  0.16471039917E+03  0.00000000000E+00 0. -1.
         11    1    1    2    0    0 -0.43356318133E+02 -0.48879080116E+02 -0.11292224497E+03  0.13046213322E+03  0.00000000000E+00 0.  1.
</event>
<event>
 6    1  0.1320459E-005  0.9067768E+02  0.7561462E-02  0.1301219E+00
          1   -1    0    0  501    0  0.00000000000E+00  0.00000000000E+00  0.80574429033E+02  0.80574429033E+02  0.00000000000E+00 0. -1.
         -1   -1    0    0    0  501 -0.00000000000E+00 -0.00000000000E+00 -0.13071866481E+03  0.13071866481E+03  0.00000000000E+00 0.  1.
          5    1    1    2  502    0  0.23672808288E+02 -0.42580840008E+02 -0.33149192750E+02  0.59075131552E+02  0.41800000000E+01 0.  1.
         -5    1    1    2    0  502 -0.43580313266E+02  0.59087390526E+02 -0.26672191065E+01  0.73587701970E+02  0.41800000000E+01 0.  1.
        -11    1    1    2    0    0  0.37934800426E+02 -0.15121941152E+02  0.15557920932E+02  0.43700927808E+02  0.00000000000E+00 0. -1.
         11    1    1    2    0    0 -0.18027295448E+02 -0.13846093661E+01 -0.29885744850E+02  0.34929332508E+02  0.00000000000E+00 0.  1.
</event>
<event>
 6    1  0.8259171E-006  0.8607261E+02  0.7561462E-02  0.1312651E+00
         -1   -1    0    0    0  501 -0.00000000000E+00  0.00000000000E+00  0.16029197969E+02  0.16029197969E+02  0.00000000000E+00 0.  1.
          1   -1    0    0  501    0  0.00000000000E+00 -0.00000000000E+00 -0.74910864537E+03  0.74910864537E+03  0.00000000000E+00 0. -1.
          5    1    1    2  502    0 -0.44487392187E+02 -0.12634152630E+02 -0.49187465190E+02  0.67643395894E+02  0.41800000000E+01 0. -1.
         -5    1    1    2    0  502  0.34174153963E+02  0.63042679603E+01 -0.32948495232E+03  0.33133883382E+03  0.41800000000E+01 0. -1.
        -11    1    1    2    0    0  0.22924488790E+02 -0.38132273952E+02 -0.20459070048E+03  0.20937277098E+03  0.00000000000E+00 0. -1.
         11    1    1    2    0    0 -0.12611250565E+02  0.44462158621E+02 -0.14981632940E+03  0.15678284264E+03  0.00000000000E+00 0.  1.
</event>
<event>
 6    1  0.8259171E-006  0.7441644E+02  0.7561462E-02  0.1345688E+00
          1   -1    0    0  501    0  0.00000000000E+00  0.00000000000E+00  0.80491772227E+02  0.80491772227E+02  0.00000000000E+00 0. -1.
         -1   -1    0    0    0  501 -0.00000000000E+00 -0.00000000000E+00 -0.21449814388E+03  0.21449814388E+03  0.00000000000E+00 0.  1.
          5    1    1    2  502    0 -0.27780461259E+02 -0.39955405132E+02  0.47085653701E+01  0.49069658802E+02  0.41800000000E+01 0.  1.
         -5    1    1    2    0  502  0.39266070494E+02 -0.16192203090E+02 -0.13070403478E+03  0.13749555935E+03  0.41800000000E+01 0.  1.
        -11    1    1    2    0    0 -0.56709905816E+01  0.28309873861E+02 -0.49984670949E+02  0.57724140721E+02  0.00000000000E+00 0.  1.
         11    1    1    2    0    0 -0.58146186533E+01  0.27837734361E+02  0.41973768706E+02  0.50700557234E+02  0.00000000000E+00 0. -1.
</event>
<event>
 6    1  0.8259171E-006  0.9080716E+02  0.7561462E-02  0.1300909E+00
         -2   -1    0    0    0  501 -0.00000000000E+00  0.00000000000E+00  0.29602643819E+02  0.29602643819E+02  0.00000000000E+00 0.  1.
          2   -1    0    0  501    0  0.00000000000E+00 -0.00000000000E+00 -0.45836923455E+03  0.45836923455E+03  0.00000000000E+00 0. -1.
          5    1    1    2  502    0  0.51513701967E+02  0.39174064417E+02 -0.41539714375E+02  0.77014862745E+02  0.41800000000E+01 0.  1.
         -5    1    1    2    0  502 -0.41832318839E+02 -0.22078349494E+02 -0.11436927211E+03  0.12383537144E+03  0.41800000000E+01 0.  1.
        -11    1    1    2    0    0 -0.24025851115E+01  0.25727661463E+02 -0.26682048641E+02  0.37143191829E+02  0.00000000000E+00 0.  1.
         11    1    1    2    0    0 -0.72787980171E+01 -0.42823376385E+02 -0.24617555560E+03  0.24997845235E+03  0.00000000000E+00 0. -1.
</event>
<event>
 6    1  0.8259171E-006  0.1938126E+03  0.7561462E-02  0.1155067E+00
         -2   -1    0    0    0  501 -0.00000000000E+00  0.00000000000E+00  0.16270238022E+03  0.16270238022E+03  0.00000000000E+00 0. -1.
          2   -1    0    0  501    0  0.00000000000E+00 -0.00000000000E+00 -0.25681498733E+03  0.25681498733E+03  0.00000000000E+00 0.  1.
          5    1    1    2  502    0 -0.29423971124E-01 -0.10483198463E+02 -0.32974714955E+02  0.34852583006E+02  0.41800000000E+01 0. -1.
         -5    1    1    2    0  502  0.96359153873E+02  0.15342821803E+03 -0.37022099519E+01  0.18126357434E+03  0.41800000000E+01 0. -1.
        -11    1    1    2    0    0  0.11468029597E+02 -0.54448798428E+02 -0.17307882898E+02  0.58273065506E+02  0.00000000000E+00 0. -1.
         11    1    1    2    0    0 -0.10779775950E+03 -0.88496221139E+02 -0.40127799303E+02  0.14512814471E+03  0.00000000000E+00 0.  1.
</event>
<event>
 6    1  0.8259171E-006  0.9000100E+02  0.7561462E-02  0.1302849E+00
         -2   -1    0    0    0  501 -0.00000000000E+00  0.00000000000E+00  0.24991981300E+02  0.24991981300E+02  0.00000000000E+00 0. -1.
          2   -1    0    0  501    0  0.00000000000E+00 -0.00000000000E+00 -0.49225400321E+03  0.49225400321E+03  0.00000000000E+00 0.  1.
          5    1    1    2  502    0  0.21889202474E+02  0.23815551074E+02 -0.21568705478E+03  0.21813916581E+03  0.41800000000E+01 0. -1.
         -5    1    1    2    0  502 -0.46630080840E+02 -0.32911550890E+02 -0.47197688607E+02  0.74179706329E+02  0.41800000000E+01 0. -1.
        -11    1    1    2    0    0  0.45604465583E+02 -0.23618358547E+02 -0.14655211332E+03  0.15529042488E+03  0.00000000000E+00 0.  1.
         11    1    1    2    0    0 -0.20863587216E+02  0.32714358363E+02 -0.57825165201E+02  0.69636687494E+02  0.00000000000E+00 0. -1.
</event>
<event>
 6    1  0.8259171E-006  0.1140302E+03  0.7561462E-02  0.1253283E+00
         -2   -1    0    0    0  501 -0.00000000000E+00  0.00000000000E+00  0.96401608523E+02  0.96401608523E+02  0.00000000000E+00 0.  1.
          2   -1    0    0  501    0  0.00000000000E+00 -0.00000000000E+00 -0.22227278280E+03  0.22227278280E+03  0.00000000000E+00 0. -1.
          5    1    1    2  502    0 -0.50332393646E+02  0.67619393843E+02  0.28172778701E+02  0.88977020255E+02  0.41800000000E+01 0. -1.
         -5    1    1    2    0  502  0.46249259606E+02  0.15018879878E+02 -0.37043301530E+02  0.61271847982E+02  0.41800000000E+01 0. -1.
        -11    1    1    2    0    0 -0.17469331852E+02 -0.12501623916E+02 -0.86222486452E+02  0.88858231616E+02  0.00000000000E+00 0. -1.
         11    1    1    2    0    0  0.21552465892E+02 -0.70136649805E+02 -0.30778165000E+02  0.79567291475E+02  0.00000000000E+00 0.  1.
</event>
<event>
 6    1  0.8259171E-006  0.1074960E+03  0.7561462E-02  0.1265278E+00
         -1   -1    0    0    0  501 -0.00000000000E+00  0.00000000000E+00  0.91515224426E+02  0.91515224426E+02  0.00000000000E+00 0.  1.
          1   -1    0    0  501    0  0.00000000000E+00 -0.00000000000E+00 -0.17842674188E+03  0.17842674188E+03  0.00000000000E+00 0. -1.
          5    1    1    2  502    0  0.43148833340E+02 -0.31716717886E+02  0.18953268576E+02  0.56960256336E+02  0.41800000000E+01 0.  1.
         -5    1    1    2    0  502 -0.44849770998E+02  0.55749994444E+02 -0.10728157809E+01  0.71681149354E+02  0.41800000000E+01 0.  1.
        -11    1    1    2    0    0 -0.28011172724E+02  0.21447000162E+02 -0.19872514316E+02  0.40490942673E+02  0.00000000000E+00 0.  1.
         11    1    1    2    0    0  0.29712110382E+02 -0.45480276720E+02 -0.84919455938E+02  0.10080961795E+03  0.00000000000E+00 0. -1.
</event>
<event>
 6    1  0.8259171E-006  0.1278621E+03  0.7561462E-02  0.1230663E+00
          2   -1    0    0  501    0  0.00000000000E+00  0.00000000000E+00  0.16762110890E+03  0.16762110890E+03  0.00000000000E+00 0. -1.
         -2   -1    0    0    0  501 -0.00000000000E+00 -0.00000000000E+00 -0.13105135413E+03  0.13105135413E+03  0.00000000000E+00 0.  1.
          5    1    1    2  502    0 -0.82185298328E+02  0.71597247324E+02 -0.22316068778E+02  0.11133763250E+03  0.41800000000E+01 0.  1.
         -5    1    1    2    0  502  0.43165503346E+02  0.13667298022E+02  0.59113234736E+01  0.45852719216E+02  0.41800000000E+01 0.  1.
        -11    1    1    2    0    0  0.42001802417E+02 -0.47958355438E+02  0.74702347904E+02  0.98206904263E+02  0.00000000000E+00 0. -1.
         11    1    1    2    0    0 -0.29820074347E+01 -0.37306189907E+02 -0.21727847835E+02  0.43275207051E+02  0.00000000000E+00 0.  1.
</event>
<event>
 6    1  0.8259171E-006  0.9692614E+02  0.7561462E-02  0.1286896E+00
          1   -1    0    0  501    0  0.00000000000E+00  0.00000000000E+00  0.65169466186E+03  0.65169466186E+03  0.00000000000E+00 0. -1.
         -1   -1    0    0    0  501 -0.00000000000E+00 -0.00000000000E+00 -0.32478713928E+02  0.32478713928E+02  0.00000000000E+00 0.  1.
          5    1    1    2  502    0 -0.54650422817E+02  0.73305992697E+02  0.93479793416E+02  0.13082958938E+03  0.41800000000E+01 0. -1.
         -5    1    1    2    0  502 -0.36328222384E+01  0.29970498232E+01  0.21989001270E+03  0.21998015772E+03  0.41800000000E+01 0. -1.
        -11    1    1    2    0    0  0.37908104296E+02 -0.50613103322E+02  0.29024247523E+03  0.29705118251E+03  0.00000000000E+00 0. -1.
         11    1    1    2    0    0  0.20375140760E+02 -0.25689939199E+02  0.15603666579E+02  0.36312446182E+02  0.00000000000E+00 0.  1.
</event>
<event>
 6    1  0.8259171E-006  0.2328604E+03  0.7561462E-02  0.1124642E+00
         -2   -1    0    0    0  501 -0.00000000000E+00  0.00000000000E+00  0.29654909070E+02  0.29654909070E+02  0.00000000000E+00 0.  1.
          2   -1    0    0  501    0  0.00000000000E+00 -0.00000000000E+00 -0.22336536410E+04  0.22336536410E+04  0.00000000000E+00 0. -1.
          5    1    1    2  502    0 -0.17615102687E+03  0.12117577652E+03 -0.81766540965E+03  0.84516681644E+03  0.41800000000E+01 0.  1.
         -5    1    1    2    0  502 -0.19143189270E+02  0.30920818894E+01 -0.40516821359E+03  0.40565351764E+03  0.41800000000E+01 0.  1.
        -11    1    1    2    0    0  0.58021159864E+02 -0.28370971493E+02 -0.13180061575E+03  0.14677455273E+03  0.00000000000E+00 0.  1.
         11    1    1    2    0    0  0.13727305628E+03 -0.95896886914E+02 -0.84936449295E+03  0.86571366328E+03  0.00000000000E+00 0. -1.
</event>
<event>
 6    1  0.8259171E-006  0.1085921E+03  0.7561462E-02  0.1263200E+00
          4   -1    0    0  501    0  0.00000000000E+00  0.00000000000E+00  0.21602618276E+02  0.21602618276E+02  0.00000000000E+00 0. -1.
         -4   -1    0    0    0  501 -0.00000000000E+00 -0.00000000000E+00 -0.57739867135E+03  0.57739867135E+03  0.00000000000E+00 0.  1.
          5    1    1    2  502    0 -0.18455384394E+02  0.64083119956E+02 -0.17639162363E+03  0.18862323495E+03  0.41800000000E+01 0. -1.
         -5    1    1    2    0  502  0.33740590730E+02 -0.49444064412E+02 -0.16745246598E+03  0.17787901431E+03  0.41800000000E+01 0. -1.
        -11    1    1    2    0    0  0.35637308042E+02 -0.16785986663E+02 -0.13139114141E+03  0.13716930820E+03  0.00000000000E+00 0.  1.
         11    1    1    2    0    0 -0.50922514379E+02  0.21469311190E+01 -0.80560822050E+02  0.95329732157E+02  0.00000000000E+00 0. -1.
</event>
<event>
 6    1  0.8259171E-006  0.1036474E+03  0.7561462E-02  0.1272808E+00
         -1   -1    0    0    0  501 -0.00000000000E+00  0.00000000000E+00  0.39352873141E+02  0.39352873141E+02  0.00000000000E+00 0.  1.
          1   -1    0    0  501    0  0.00000000000E+00 -0.00000000000E+00 -0.31766262253E+03  0.31766262253E+03  0.00000000000E+00 0. -1.
          5    1    1    2  502    0  0.29945852854E+02  0.55074341772E+02 -0.58538643578E+02  0.85873059900E+02  0.41800000000E+01 0.  1.
         -5    1    1    2    0  502 -0.42716757490E+02 -0.46156220013E+02 -0.68812109605E+02  0.93315040827E+02  0.41800000000E+01 0.  1.
        -11    1    1    2    0    0  0.36344919872E+02  0.22055519099E+02 -0.33619419078E+02  0.54200225668E+02  0.00000000000E+00 0.  1.
         11    1    1    2    0    0 -0.23574015237E+02 -0.30973640858E+02 -0.11733957713E+03  0.12362716928E+03  0.00000000000E+00 0. -1.
</event>
<event>
 6    1  0.8259171E-006  0.1263866E+03  0.7561462E-02  0.1232918E+00
         -1   -1    0    0    0  501 -0.00000000000E+00  0.00000000000E+00  0.83679987335E+02  0.83679987335E+02  0.00000000000E+00 0.  1.
          1   -1    0    0  501    0  0.00000000000E+00 -0.00000000000E+00 -0.23810250389E+03  0.23810250389E+03  0.00000000000E+00 0. -1.
          5    1    1    2  502    0  0.40582896814E+02  0.21763926000E+02  0.66569597427E+01  0.46716458575E+02  0.41800000000E+01 0.  1.
         -5    1    1    2    0  502 -0.90366727796E+02  0.24756616103E+02 -0.23767693450E+02  0.96754385871E+02  0.41800000000E+01 0.  1.
        -11    1    1    2    0    0  0.60410421669E+02 -0.66667164443E+02 -0.11842398948E+03  0.14872179109E+03  0.00000000000E+00 0.  1.
         11    1    1    2    0    0 -0.10626590687E+02  0.20146622340E+02 -0.18887793370E+02  0.29589855690E+02  0.00000000000E+00 0. -1.
</event>
<event>
 6    1  0.8259171E-006  0.1331683E+03  0.7561462E-02  0.1222829E+00
          2   -1    0    0  501    0  0.00000000000E+00  0.00000000000E+00  0.42925594135E+03  0.42925594135E+03  0.00000000000E+00 0. -1.
         -2   -1    0    0    0  501 -0.00000000000E+00 -0.00000000000E+00 -0.52043861692E+02  0.52043861692E+02  0.00000000000E+00 0.  1.
          5    1    1    2  502    0  0.77593584267E+02 -0.24346246376E+02  0.93385140139E+02  0.12390222286E+03  0.41800000000E+01 0. -1.
         -5    1    1    2    0  502  0.13577548176E+00  0.64748330166E+02  0.25830795349E+02  0.69836001336E+02  0.41800000000E+01 0. -1.
        -11    1    1    2    0    0 -0.10150398342E+01 -0.43243627817E+02  0.51486982910E+02  0.67245453837E+02  0.00000000000E+00 0.  1.
         11    1    1    2    0    0 -0.76714319915E+02  0.28415440263E+01  0.20650916126E+03  0.22031612501E+03  0.00000000000E+00 0. -1.
</event>
<event>
 6    1  0.8259171E-006  0.1244559E+03  0.7561462E-02  0.1235922E+00
          1   -1    0    0  501    0  0.00000000000E+00  0.00000000000E+00  0.10226133332E+04  0.10226133332E+04  0.00000000000E+00 0. -1.
         -1   -1    0    0    0  501 -0.00000000000E+00 -0.00000000000E+00 -0.16869077348E+02  0.16869077348E+02  0.00000000000E+00 0.  1.
          5    1    1    2  502    0 -0.25152315818E+02  0.31409097461E+02  0.12017270404E+03  0.12679953309E+03  0.41800000000E+01 0. -1.
         -5    1    1    2    0  502  0.98854703800E+02 -0.32586268883E+02  0.38053941880E+03  0.39454003478E+03  0.41800000000E+01 0. -1.
        -11    1    1    2    0    0 -0.70577324184E+02 -0.27273424133E+02  0.44785966119E+03  0.45420620259E+03  0.00000000000E+00 0. -1.
         11    1    1    2    0    0 -0.31250637972E+01  0.28450595555E+02  0.57172471780E+02  0.63936640048E+02  0.00000000000E+00 0.  1.
</event>
<event>
 6    1  0.8259171E-006  0.1161658E+03  0.7561462E-02  0.1249560E+00
          1   -1    0    0  501    0  0.00000000000E+00  0.00000000000E+00  0.39746637245E+03  0.39746637245E+03  0.00000000000E+00 0. -1.
         -1   -1    0    0    0  501 -0.00000000000E+00 -0.00000000000E+00 -0.34771614187E+02  0.34771614187E+02  0.00000000000E+00 0.  1.
          5    1    1    2  502    0 -0.60511385884E+02 -0.42162827220E+02  0.10139129599E+03  0.12544719655E+03  0.41800000000E+01 0.  1.
         -5    1    1    2    0  502  0.15811900201E+02  0.57519968714E+02  0.87613999518E+02  0.10607661524E+03  0.41800000000E+01 0.  1.
        -11    1    1    2    0    0  0.16989136796E+02 -0.50861178193E+02  0.11359694057E+03  0.12561749529E+03  0.00000000000E+00 0.  1.
         11    1    1    2    0    0  0.27710348887E+02  0.35504036699E+02  0.60092522180E+02  0.75096679549E+02  0.00000000000E+00 0. -1.
</event>
<event>
 6    1  0.8259171E-006  0.2135774E+03  0.7561462E-02  0.1138764E+00
          2   -1    0    0  501    0  0.00000000000E+00  0.00000000000E+00  0.29276894006E+03  0.29276894006E+03  0.00000000000E+00 0. -1.
         -2   -1    0    0    0  501 -0.00000000000E+00 -0.00000000000E+00 -0.22343295316E+03  0.22343295316E+03  0.00000000000E+00 0.  1.
          5    1    1    2  502    0  0.12228641611E+03  0.88135034944E+02 -0.30764138129E+02  0.15390145076E+03  0.41800000000E+01 0. -1.
         -5    1    1    2    0  502 -0.10040609646E+02  0.65463773474E+02 -0.65642946673E+02  0.93342317989E+02  0.41800000000E+01 0. -1.
        -11    1    1    2    0    0 -0.73627225445E+01 -0.83551130678E+02  0.83729322282E+02  0.11851413642E+03  0.00000000000E+00 0. -1.
         11    1    1    2    0    0 -0.10488308392E+03 -0.70047677741E+02  0.82013749423E+02  0.15044398806E+03  0.00000000000E+00 0.  1.
</event>
<event>
 6    1  0.8259171E-006  0.2881705E+03  0.7561462E-02  0.1091308E+00
         -1   -1    0    0    0  501 -0.00000000000E+00  0.00000000000E+00  0.30382604280E+03  0.30382604280E+03  0.00000000000E+00 0.  1.
          1   -1    0    0  501    0  0.00000000000E+00 -0.00000000000E+00 -0.30446518507E+03  0.30446518507E+03  0.00000000000E+00 0. -1.
          5    1    1    2  502    0 -0.33620851454E+01  0.30319079813E+01  0.24405621382E+02  0.25171468721E+02  0.41800000000E+01 0. -1.
         -5    1    1    2    0  502  0.27973688297E+03 -0.51371147179E+02  0.19118280208E+02  0.28508717876E+03  0.41800000000E+01 0. -1.
        -11    1    1    2    0    0 -0.16575114293E+03  0.19108034829E+01  0.10709271841E+02  0.16610773930E+03  0.00000000000E+00 0.  1.
         11    1    1    2    0    0 -0.11062365490E+03  0.46428435714E+02 -0.54872315703E+02  0.13192484109E+03  0.00000000000E+00 0. -1.
</event>
<event>
 6    1  0.8259171E-006  0.9852160E+02  0.7561462E-02  0.1283436E+00
         -2   -1    0    0    0  501 -0.00000000000E+00  0.00000000000E+00  0.48973241350E+02  0.48973241350E+02  0.00000000000E+00 0.  1.
          2   -1    0    0  501    0  0.00000000000E+00 -0.00000000000E+00 -0.21623140806E+03  0.21623140806E+03  0.00000000000E+00 0. -1.
          5    1    1    2  502    0  0.44378020017E+02  0.13765360860E+02 -0.31506141341E+02  0.56293899869E+02  0.41800000000E+01 0. -1.
         -5    1    1    2    0  502 -0.79290147977E+02  0.29870154696E+02 -0.42666860703E+02  0.94958344078E+02  0.41800000000E+01 0.  1.
        -11    1    1    2    0    0  0.31899581570E+02 -0.12473737239E+02 -0.44527882923E+02  0.56177484659E+02  0.00000000000E+00 0. -1.
         11    1    1    2    0    0  0.30125463896E+01 -0.31161778317E+02 -0.48557281743E+02  0.57774920804E+02  0.00000000000E+00 0.  1.
</event>
<event>
 6    1  0.8259171E-006  0.1382088E+03  0.7561462E-02  0.1215760E+00
         -1   -1    0    0    0  501 -0.00000000000E+00  0.00000000000E+00  0.97903174044E+03  0.97903174044E+03  0.00000000000E+00 0.  1.
          1   -1    0    0  501    0  0.00000000000E+00 -0.00000000000E+00 -0.25850647389E+02  0.25850647389E+02  0.00000000000E+00 0. -1.
          5    1    1    2  502    0  0.11004403149E+03  0.78676287161E+02  0.54046574703E+03  0.55715378770E+03  0.41800000000E+01 0.  1.
         -5    1    1    2    0  502 -0.28404567551E+02 -0.19898809007E+01  0.63497232034E+02  0.69714775764E+02  0.41800000000E+01 0.  1.
        -11    1    1    2    0    0 -0.72542803365E+02 -0.64358151211E+02  0.34948521746E+03  0.36269042884E+03  0.00000000000E+00 0.  1.
         11    1    1    2    0    0 -0.90966605777E+01 -0.12328255049E+02 -0.26710347958E+00  0.15323395528E+02  0.00000000000E+00 0. -1.
</event>
<event>
 6    1  0.8259171E-006  0.9330974E+02  0.7561462E-02  0.1295029E+00
         -2   -1    0    0    0  501 -0.00000000000E+00  0.00000000000E+00  0.30382733733E+03  0.30382733733E+03  0.00000000000E+00 0.  1.
          2   -1    0    0  501    0  0.00000000000E+00 -0.00000000000E+00 -0.44020149765E+02  0.44020149765E+02  0.00000000000E+00 0. -1.
          5    1    1    2  502    0 -0.34509483755E+02  0.38558965300E+02  0.13625815537E+03  0.14581308438E+03  0.41800000000E+01 0.  1.
         -5    1    1    2    0  502  0.38881978009E+02 -0.53516856678E+02  0.74030847243E+02  0.99367504277E+02  0.41800000000E+01 0.  1.
        -11    1    1    2    0    0  0.28971471980E+02 -0.52348274444E+01  0.55888105835E+02  0.63168267198E+02  0.00000000000E+00 0. -1.
         11    1    1    2    0    0 -0.33343966233E+02  0.20192718823E+02 -0.63699208767E+01  0.39498631237E+02  0.00000000000E+00 0.  1.
</event>
<event>
 6    1  0.8259171E-006  0.2000599E+03  0.7561462E-02  0.1149688E+00
          3   -1    0    0  501    0  0.00000000000E+00  0.00000000000E+00  0.56404548601E+03  0.56404548601E+03  0.00000000000E+00 0. -1.
         -3   -1    0    0    0  501 -0.00000000000E+00 -0.00000000000E+00 -0.74104897280E+02  0.74104897280E+02  0.00000000000E+00 0.  1.
          5    1    1    2  502    0  0.15042570213E+03  0.54832223889E+00  0.21674027370E+03  0.26385983242E+03  0.41800000000E+01 0.  1.
         -5    1    1    2    0  502  0.11782423632E+02  0.61727489455E+02  0.73321390280E+02  0.96657162867E+02  0.41800000000E+01 0.  1.
        -11    1    1    2    0    0 -0.42921476383E+02 -0.51264792236E+02  0.40204285077E+02  0.78017412136E+02  0.00000000000E+00 0.  1.
         11    1    1    2    0    0 -0.11928664938E+03 -0.11011019458E+02  0.15967463967E+03  0.19961597587E+03  0.00000000000E+00 0. -1.
</event>
<event>
 6    1  0.8259171E-006  0.1230302E+03  0.7561462E-02  0.1238180E+00
         -1   -1    0    0    0  501 -0.00000000000E+00  0.00000000000E+00  0.38007951816E+02  0.38007951816E+02  0.00000000000E+00 0.  1.
          1   -1    0    0  501    0  0.00000000000E+00 -0.00000000000E+00 -0.46835533736E+03  0.46835533736E+03  0.00000000000E+00 0. -1.
          5    1    1    2  502    0  0.88848673528E+02 -0.24674687892E+02 -0.13635211509E+03  0.16465812674E+03  0.41800000000E+01 0.  1.
         -5    1    1    2    0  502 -0.39536299553E+02 -0.20782984697E+02 -0.29766812113E+02  0.53838526527E+02  0.41800000000E+01 0.  1.
        -11    1    1    2    0    0  0.13441837178E+02 -0.16109340779E+02 -0.23068287196E+02  0.31182362342E+02  0.00000000000E+00 0.  1.
         11    1    1    2    0    0 -0.62754211153E+02  0.61567013368E+02 -0.24116017115E+03  0.25668427357E+03  0.00000000000E+00 0. -1.
</event>
<event>
 6    1  0.8259171E-006  0.7967728E+02  0.7561462E-02  0.1329970E+00
         -1   -1    0    0    0  501 -0.00000000000E+00  0.00000000000E+00  0.14082083501E+03  0.14082083501E+03  0.00000000000E+00 0.  1.
          1   -1    0    0  501    0  0.00000000000E+00 -0.00000000000E+00 -0.89083068818E+02  0.89083068818E+02  0.00000000000E+00 0. -1.
          5    1    1    2  502    0 -0.38291544346E+02  0.53015744658E+02  0.17217626097E+02  0.67755668386E+02  0.41800000000E+01 0. -1.
         -5    1    1    2    0  502  0.54137291814E+02 -0.30879606381E+02  0.14438461226E+02  0.64111917907E+02  0.41800000000E+01 0. -1.
        -11    1    1    2    0    0 -0.21890676691E+01 -0.16400299208E+02 -0.36219220908E+02  0.39819515247E+02  0.00000000000E+00 0. -1.
         11    1    1    2    0    0 -0.13656679799E+02 -0.57358390692E+01  0.56300899774E+02  0.58216802285E+02  0.00000000000E+00 0.  1.
</event>
<event>
 6    1  0.8259171E-006  0.8391237E+02  0.7561462E-02  0.1318302E+00
          2   -1    0    0  501    0  0.00000000000E+00  0.00000000000E+00  0.75918404791E+02  0.75918404791E+02  0.00000000000E+00 0. -1.
         -2   -1    0    0    0  501 -0.00000000000E+00 -0.00000000000E+00 -0.24399844663E+03  0.24399844663E+03  0.00000000000E+00 0.  1.
          5    1    1    2  502    0  0.14675751689E+02  0.30275059627E+02  0.15194183030E+02  0.37152288234E+02  0.41800000000E+01 0. -1.
         -5    1    1    2    0  502 -0.32307084109E+02  0.38822051891E+02 -0.15686318245E+03  0.16484668576E+03  0.41800000000E+01 0. -1.
        -11    1    1    2    0    0  0.30840516749E+02 -0.34852658975E+02  0.26475736359E+02  0.53542599178E+02  0.00000000000E+00 0. -1.
         11    1    1    2    0    0 -0.13209184329E+02 -0.34244452543E+02 -0.52886778776E+02  0.64375278251E+02  0.00000000000E+00 0.  1.
</event>
<event>
 6    1  0.8259171E-006  0.1201623E+03  0.7561462E-02  0.1242830E+00
          1   -1    0    0  501    0  0.00000000000E+00  0.00000000000E+00  0.37174512423E+02  0.37174512423E+02  0.00000000000E+00 0. -1.
         -1   -1    0    0    0  501 -0.00000000000E+00 -0.00000000000E+00 -0.61454235490E+03  0.61454235490E+03  0.00000000000E+00 0.  1.
          5    1    1    2  502    0 -0.63009122732E+02  0.32729270987E+02 -0.17611387247E+03  0.18993399697E+03  0.41800000000E+01 0. -1.
         -5    1    1    2    0  502  0.55576701333E+02  0.39419699650E+02 -0.29917313327E+03  0.30686270305E+03  0.41800000000E+01 0. -1.
        -11    1    1    2    0    0  0.38981100434E+02 -0.41845120286E+02 -0.94595892360E+02  0.11053923798E+03  0.00000000000E+00 0. -1.
         11    1    1    2    0    0 -0.31548679035E+02 -0.30303850352E+02 -0.74849443714E+01  0.44380929319E+02  0.00000000000E+00 0.  1.
</event>
<event>
 6    1  0.8259171E-006  0.6301984E+02  0.7561462E-02  0.1385579E+00
         -2   -1    0    0    0  501 -0.00000000000E+00  0.00000000000E+00  0.40232952967E+02  0.40232952967E+02  0.00000000000E+00 0.  1.
          2   -1    0    0  501    0  0.00000000000E+00 -0.00000000000E+00 -0.29387563723E+03  0.29387563723E+03  0.00000000000E+00 0. -1.
          5    1    1    2  502    0 -0.23779751792E+02 -0.18968041136E+01  0.18426106228E+02  0.30431369536E+02  0.41800000000E+01 0.  1.
         -5    1    1    2    0  502  0.16128808452E+02 -0.67312035041E+01 -0.15153063715E+03  0.15259244398E+03  0.41800000000E+01 0.  1.
        -11    1    1    2    0    0  0.40710222762E+02  0.24144331867E+02 -0.37552808196E+02  0.60419238675E+02  0.00000000000E+00 0.  1.
         11    1    1    2    0    0 -0.33059279422E+02 -0.15516324249E+02 -0.82985345145E+02  0.90665538012E+02  0.00000000000E+00 0. -1.
</event>
<event>
 6    1  0.8259171E-006  0.1928523E+03  0.7561462E-02  0.1155914E+00
         -2   -1    0    0    0  501 -0.00000000000E+00  0.00000000000E+00  0.84730431183E+02  0.84730431183E+02  0.00000000000E+00 0.  1.
          2   -1    0    0  501    0  0.00000000000E+00 -0.00000000000E+00 -0.54703087195E+03  0.54703087195E+03  0.00000000000E+00 0. -1.
          5    1    1    2  502    0 -0.20760055047E+02 -0.51336345463E+02 -0.76391514644E+02  0.94443296008E+02  0.41800000000E+01 0.  1.
         -5    1    1    2    0  502 -0.15227896545E+03  0.16513372651E+02 -0.82928786179E+02  0.17423039566E+03  0.41800000000E+01 0.  1.
        -11    1    1    2    0    0  0.12659920807E+03  0.31044065207E+02 -0.13059223722E+03  0.18451402627E+03  0.00000000000E+00 0.  1.
         11    1    1    2    0    0  0.46439812429E+02  0.37789076060E+01 -0.17238790272E+03  0.17857358519E+03  0.00000000000E+00 0. -1.
</event>
<event>
 6    1  0.8259171E-006  0.2767065E+03  0.7561462E-02  0.1097501E+00
          1   -1    0    0  501    0  0.00000000000E+00  0.00000000000E+00  0.45945081767E+03  0.45945081767E+03  0.00000000000E+00 0. -1.
         -1   -1    0    0    0  501 -0.00000000000E+00 -0.00000000000E+00 -0.19373879330E+03  0.19373879330E+03  0.00000000000E+00 0.  1.
          5    1    1    2  502    0  0.75909766311E+02 -0.17992057531E+03  0.16118386647E+02  0.19598719558E+03  0.41800000000E+01 0. -1.
         -5    1    1    2    0  502  0.35781747808E+02 -0.72873354479E+02  0.99912370802E+02  0.12880533183E+03  0.41800000000E+01 0. -1.
        -11    1    1    2    0    0 -0.97779488537E+02  0.20689289414E+03  0.16014476224E+03  0.27930600226E+03  0.00000000000E+00 0. -1.
         11    1    1    2    0    0 -0.13912025582E+02  0.45901035653E+02 -0.10463495320E+02  0.49091081309E+02  0.00000000000E+00 0.  1.
</event>
<event>
 6    1  0.8259171E-006  0.4054437E+03  0.7561462E-02  0.1041911E+00
          1   -1    0    0  501    0  0.00000000000E+00  0.00000000000E+00  0.67938543310E+03  0.67938543310E+03  0.00000000000E+00 0. -1.
         -1   -1    0    0    0  501 -0.00000000000E+00 -0.00000000000E+00 -0.32749234395E+03  0.32749234395E+03  0.00000000000E+00 0.  1.
          5    1    1    2  502    0 -0.31601774172E+03 -0.12833969466E+03 -0.88808956512E+02  0.35248091220E+03  0.41800000000E+01 0. -1.
         -5    1    1    2    0  502 -0.63063487312E+02  0.44574489084E+02  0.10953680055E+03  0.13408829771E+03  0.41800000000E+01 0.  1.
        -11    1    1    2    0    0  0.23551055493E+03  0.80307259053E+02  0.15553530884E+03  0.29343774405E+03  0.00000000000E+00 0.  1.
         11    1    1    2    0    0  0.14357067410E+03  0.34579465220E+01  0.17562993627E+03  0.22687082309E+03  0.00000000000E+00 0. -1.
</event>
<event>
 6    1  0.8259171E-006  0.7743134E+02  0.7561462E-02  0.1336503E+00
         -4   -1    0    0    0  501 -0.00000000000E+00  0.00000000000E+00  0.15658502632E+03  0.15658502632E+03  0.00000000000E+00 0. -1.
          4   -1    0    0  501    0  0.00000000000E+00 -0.00000000000E+00 -0.91136301742E+02  0.91136301742E+02  0.00000000000E+00 0.  1.
          5    1    1    2  502    0 -0.58175422869E+02 -0.28146068936E+02  0.27841682283E+01  0.64821331483E+02  0.41800000000E+01 0. -1.
         -5    1    1    2    0  502  0.35777190878E+02  0.11680002861E+02  0.77875383666E+02  0.86593750555E+02  0.41800000000E+01 0. -1.
        -11    1    1    2    0    0  0.13992154144E+02 -0.14498410465E+02 -0.47001744974E+02  0.51138520845E+02  0.00000000000E+00 0.  1.
         11    1    1    2    0    0  0.84060778466E+01  0.30964476541E+02  0.31790917655E+02  0.45167725176E+02  0.00000000000E+00 0. -1.
</event>
<event>
 6    1  0.8259171E-006  0.1657788E+03  0.7561462E-02  0.1182323E+00
          4   -1    0    0  501    0  0.00000000000E+00  0.00000000000E+00  0.52000616965E+02  0.52000616965E+02  0.00000000000E+00 0. -1.
         -4   -1    0    0    0  501 -0.00000000000E+00 -0.00000000000E+00 -0.89667103092E+03  0.89667103092E+03  0.00000000000E+00 0.  1.
          5    1    1    2  502    0  0.98494027996E+02 -0.20634646534E+01 -0.60294885923E+03  0.61095837067E+03  0.41800000000E+01 0. -1.
         -5    1    1    2    0  502  0.55107275666E+02  0.13826044699E+02 -0.67943582055E+02  0.88666645847E+02  0.41800000000E+01 0. -1.
        -11    1    1    2    0    0 -0.10725025344E+03  0.32323917112E+02 -0.12962871721E+03  0.17132150129E+03  0.00000000000E+00 0.  1.
         11    1    1    2    0    0 -0.46351050224E+02 -0.44086497157E+02 -0.44149255465E+02  0.77725130084E+02  0.00000000000E+00 0. -1.
</event>
<event>
 6    1  0.8259171E-006  0.1008386E+03  0.7561462E-02  0.1278542E+00
         -2   -1    0    0    0  501 -0.00000000000E+00  0.00000000000E+00  0.18809012252E+02  0.18809012252E+02  0.00000000000E+00 0.  1.
          2   -1    0    0  501    0  0.00000000000E+00 -0.00000000000E+00 -0.68704240025E+03  0.68704240025E+03  0.00000000000E+00 0. -1.
          5    1    1    2  502    0 -0.15151726212E+02 -0.41420719513E+02 -0.25995248170E+03  0.26370061804E+03  0.41800000000E+01 0. -1.
         -5    1    1    2    0  502 -0.10954858934E+02  0.59279479242E+02 -0.82617399529E+02  0.10235806123E+03  0.41800000000E+01 0. -1.
        -11    1    1    2    0    0  0.21649199646E+02  0.36482694984E+02 -0.13914714446E+03  0.14547028112E+03  0.00000000000E+00 0.  1.
         11    1    1    2    0    0  0.44573854999E+01 -0.54341454713E+02 -0.18651636231E+03  0.19432245211E+03  0.00000000000E+00 0. -1.
</event>
<event>
 6    1  0.8259171E-006  0.1069260E+03  0.7561462E-02  0.1266371E+00
         -1   -1    0    0    0  501 -0.00000000000E+00  0.00000000000E+00  0.67973786885E+02  0.67973786885E+02  0.00000000000E+00 0.  1.
          1   -1    0    0  501    0  0.00000000000E+00 -0.00000000000E+00 -0.25147987955E+03  0.25147987955E+03  0.00000000000E+00 0. -1.
          5    1    1    2  502    0  0.66420927128E+02  0.51770618581E+02 -0.83398421958E+02  0.11859471191E+03  0.41800000000E+01 0.  1.
         -5    1    1    2    0  502 -0.13425179503E+02 -0.22005214079E+02  0.21317984860E+02  0.33710440072E+02  0.41800000000E+01 0.  1.
        -11    1    1    2    0    0  0.21685352461E+02 -0.17225116362E+02 -0.70891293830E+02  0.76108703089E+02  0.00000000000E+00 0. -1.
         11    1    1    2    0    0 -0.74681100086E+02 -0.12540288140E+02 -0.50534361738E+02  0.91039811363E+02  0.00000000000E+00 0.  1.
</event>
<event>
 6    1  0.8259171E-006  0.8422662E+02  0.7561462E-02  0.1317467E+00
         -4   -1    0    0    0  501 -0.00000000000E+00  0.00000000000E+00  0.22830014332E+03  0.22830014332E+03  0.00000000000E+00 0.  1.
          4   -1    0    0  501    0  0.00000000000E+00 -0.00000000000E+00 -0.61444906492E+02  0.61444906492E+02  0.00000000000E+00 0. -1.
          5    1    1    2  502    0 -0.54715938169E+01  0.46276479571E+02  0.29615142108E+02  0.55371291681E+02  0.41800000000E+01 0.  1.
         -5    1    1    2    0  502  0.73299977647E+01 -0.73646272333E+02  0.12571345936E+03  0.14594125037E+03  0.41800000000E+01 0.  1.
        -11    1    1    2    0    0  0.10326746060E+01  0.37239996045E+02  0.42075882288E+02  0.56198430517E+02  0.00000000000E+00 0.  1.
         11    1    1    2    0    0 -0.28910785537E+01 -0.98702032824E+01 -0.30549246926E+02  0.32234077244E+02  0.00000000000E+00 0. -1.
</event>
<event>
 6    1  0.8259171E-006  0.1183094E+03  0.7561462E-02  0.1245912E+00
          2   -1    0    0  501    0  0.00000000000E+00  0.00000000000E+00  0.49006542868E+02  0.49006542868E+02  0.00000000000E+00 0. -1.
         -2   -1    0    0    0  501 -0.00000000000E+00 -0.00000000000E+00 -0.47448960622E+03  0.47448960622E+03  0.00000000000E+00 0.  1.
          5    1    1    2  502    0 -0.37789827060E+02  0.38110682336E+01 -0.17591321080E+02  0.42065689673E+02  0.41800000000E+01 0.  1.
         -5    1    1    2    0  502 -0.16755420299E+02 -0.71772271588E+02 -0.31911317741E+03  0.32754037228E+03  0.41800000000E+01 0.  1.
        -11    1    1    2    0    0 -0.22834515632E+02  0.20231733984E+01 -0.88666636022E+01  0.24578975939E+02  0.00000000000E+00 0. -1.
         11    1    1    2    0    0  0.77379762991E+02  0.65938029956E+02 -0.79911901257E+02  0.12931111119E+03  0.00000000000E+00 0.  1.
</event>
<event>
 6    1  0.8259171E-006  0.1170668E+03  0.7561462E-02  0.1248016E+00
         -1   -1    0    0    0  501 -0.00000000000E+00  0.00000000000E+00  0.11831054768E+04  0.11831054768E+04  0.00000000000E+00 0.  1.
          1   -1    0    0  501    0  0.00000000000E+00 -0.00000000000E+00 -0.18755046930E+02  0.18755046930E+02  0.00000000000E+00 0. -1.
          5    1    1    2  502    0 -0.27342048815E+02  0.85772530834E+02  0.35361464470E+03  0.36491821553E+03  0.41800000000E+01 0.  1.
         -5    1    1    2    0  502 -0.32209049765E+02 -0.26483057408E+02  0.51235099215E+03  0.51406204564E+03  0.41800000000E+01 0.  1.
        -11    1    1    2    0    0  0.52352100563E+02 -0.71086483838E+02  0.29596286374E+03  0.30884955453E+03  0.00000000000E+00 0.  1.
         11    1    1    2    0    0  0.71989980168E+01  0.11797010412E+02  0.24219293116E+01  0.14030708061E+02  0.00000000000E+00 0. -1.
</event>
<event>
 6    1  0.8259171E-006  0.9217503E+02  0.7561462E-02  0.1297668E+00
          1   -1    0    0  501    0  0.00000000000E+00  0.00000000000E+00  0.26119655962E+03  0.26119655962E+03  0.00000000000E+00 0. -1.
         -1   -1    0    0    0  501 -0.00000000000E+00 -0.00000000000E+00 -0.57017414471E+02  0.57017414471E+02  0.00000000000E+00 0.  1.
          5    1    1    2  502    0 -0.29420757152E+02 -0.23451624664E+02 -0.12060901930E+02  0.39730308407E+02  0.41800000000E+01 0.  1.
         -5    1    1    2    0  502  0.59821091078E+02  0.39657973259E+02  0.77054672477E+02  0.10538601772E+03  0.41800000000E+01 0.  1.
        -11    1    1    2    0    0 -0.11725239833E+02  0.25959131784E+02  0.22127179961E+01  0.28570157386E+02  0.00000000000E+00 0.  1.
         11    1    1    2    0    0 -0.18675094094E+02 -0.42165480379E+02  0.13697265661E+03  0.14452749058E+03  0.00000000000E+00 0. -1.
</event>
<event>
 6    1  0.8259171E-006  0.7502085E+02  0.7561462E-02  0.1343806E+00
         -3   -1    0    0    0  501 -0.00000000000E+00  0.00000000000E+00  0.46698513044E+02  0.46698513044E+02  0.00000000000E+00 0.  1.
          3   -1    0    0  501    0  0.00000000000E+00 -0.00000000000E+00 -0.27187312569E+03  0.27187312569E+03  0.00000000000E+00 0. -1.
          5    1    1    2  502    0  0.94842119246E+01  0.33877666588E+02 -0.12040635644E+03  0.12551019735E+03  0.41800000000E+01 0. -1.
         -5    1    1    2    0  502 -0.21903377504E+02 -0.15093686828E+02  0.22370060806E+02  0.35006704338E+02  0.41800000000E+01 0. -1.
        -11    1    1    2    0    0 -0.36429996806E+02 -0.12077998045E+02 -0.28585613424E+02  0.47855616169E+02  0.00000000000E+00 0.  1.
         11    1    1    2    0    0  0.48849162386E+02 -0.67059817145E+01 -0.98552703597E+02  0.11019912088E+03  0.00000000000E+00 0. -1.
</event>
<event>
 6    1  0.8259171E-006  0.1430696E+03  0.7561462E-02  0.1209257E+00
         -2   -1    0    0    0  501 -0.00000000000E+00  0.00000000000E+00  0.78712272474E+02  0.78712272474E+02  0.00000000000E+00 0.  1.
          2   -1    0    0  501    0  0.00000000000E+00 -0.00000000000E+00 -0.59830409710E+03  0.59830409710E+03  0.00000000000E+00 0. -1.
          5    1    1    2  502    0 -0.16351349275E+02 -0.95127125814E+02 -0.82606302318E+02  0.12711337566E+03  0.41800000000E+01 0. -1.
         -5    1    1    2    0  502 -0.48878195153E+02 -0.13083615523E+02  0.29152613802E+02  0.58545761999E+02  0.41800000000E+01 0. -1.
        -11    1    1    2    0    0  0.15449446827E+02  0.80120625718E+02 -0.37502625216E+03  0.38380032554E+03  0.00000000000E+00 0.  1.
         11    1    1    2    0    0  0.49780097601E+02  0.28090115619E+02 -0.91111883941E+02  0.10755690637E+03  0.00000000000E+00 0. -1.
</event>
<event>
 6    1  0.8259171E-006  0.2774811E+03  0.7561462E-02  0.1097073E+00
         -2   -1    0    0    0  501 -0.00000000000E+00  0.00000000000E+00  0.55766488744E+02  0.55766488744E+02  0.00000000000E+00 0. -1.
          2   -1    0    0  501    0  0.00000000000E+00 -0.00000000000E+00 -0.15263261416E+04  0.15263261416E+04  0.00000000000E+00 0.  1.
          5    1    1    2  502    0 -0.18739178502E+02  0.60434367215E+02 -0.84677624497E+02  0.10578866689E+03  0.41800000000E+01 0.  1.
         -5    1    1    2    0  502  0.13662802547E+03  0.17822607123E+03 -0.53008985888E+03  0.57571215091E+03  0.41800000000E+01 0.  1.
        -11    1    1    2    0    0 -0.78959256704E+02 -0.17978810582E+03 -0.73414597685E+03  0.75995305285E+03  0.00000000000E+00 0.  1.
         11    1    1    2    0    0 -0.38929590268E+02 -0.58872332624E+02 -0.12164619258E+03  0.14063875965E+03  0.00000000000E+00 0. -1.
</event>
<event>
 6    1  0.8259171E-006  0.1339116E+03  0.7561462E-02  0.1221764E+00
         -2   -1    0    0    0  501 -0.00000000000E+00  0.00000000000E+00  0.62703713754E+02  0.62703713754E+02  0.00000000000E+00 0.  1.
          2   -1    0    0  501    0  0.00000000000E+00 -0.00000000000E+00 -0.47750031827E+03  0.47750031827E+03  0.00000000000E+00 0. -1.
          5    1    1    2  502    0 -0.29299614488E+02  0.46008459539E+02 -0.34495234302E+01  0.54814390174E+02  0.41800000000E+01 0. -1.
         -5    1    1    2    0  502  0.90781578678E+02  0.39928679031E+02 -0.88470997086E+02  0.13296685362E+03  0.41800000000E+01 0. -1.
        -11    1    1    2    0    0 -0.54501045844E+02 -0.40543137777E+02 -0.28472730606E+03  0.29271786559E+03  0.00000000000E+00 0. -1.
         11    1    1    2    0    0 -0.69809183466E+01 -0.45394000793E+02 -0.38148777934E+02  0.59704922635E+02  0.00000000000E+00 0.  1.
</event>
<event>
 6    1  0.8259171E-006  0.1286155E+03  0.7561462E-02  0.1229525E+00
          1   -1    0    0  501    0  0.00000000000E+00  0.00000000000E+00  0.13581405759E+03  0.13581405759E+03  0.00000000000E+00 0. -1.
         -1   -1    0    0    0  501 -0.00000000000E+00 -0.00000000000E+00 -0.15306717832E+03  0.15306717832E+03  0.00000000000E+00 0.  1.
          5    1    1    2  502    0  0.30525605682E+02  0.79406581105E+01 -0.12502149555E+01  0.31841829265E+02  0.41800000000E+01 0. -1.
         -5    1    1    2    0  502 -0.11801023226E+03 -0.24642412978E+02 -0.41112980032E+02  0.12744180226E+03  0.41800000000E+01 0. -1.
        -11    1    1    2    0    0  0.45782060226E+01 -0.15259753003E+02  0.36682944613E+02  0.39993230147E+02  0.00000000000E+00 0. -1.
         11    1    1    2    0    0  0.82906420556E+02  0.31961507871E+02 -0.11572870357E+02  0.89604374240E+02  0.00000000000E+00 0.  1.
</event>
<event>
 6    1  0.8259171E-006  0.1033870E+03  0.7561462E-02  0.1273331E+00
         -2   -1    0    0    0  501 -0.00000000000E+00  0.00000000000E+00  0.49386258056E+02  0.49386258056E+02  0.00000000000E+00 0. -1.
          2   -1    0    0  501    0  0.00000000000E+00 -0.00000000000E+00 -0.41222038786E+03  0.41222038786E+03  0.00000000000E+00 0.  1.
          5    1    1    2  502    0 -0.59307947592E+02  0.41764026561E+02 -0.13856507301E+03  0.15645899917E+03  0.41800000000E+01 0. -1.
         -5    1    1    2    0  502 -0.86004286408E+01 -0.10544090876E+02  0.24675393793E+02  0.28486710657E+02  0.41800000000E+01 0. -1.
        -11    1    1    2    0    0  0.64728145391E+02  0.20628719914E+02 -0.12493624339E+03  0.14221231242E+03  0.00000000000E+00 0. -1.
         11    1    1    2    0    0  0.31802308422E+01 -0.51848655598E+02 -0.12400820720E+03  0.13444862368E+03  0.00000000000E+00 0.  1.
</event>
<event>
 6    1  0.8259171E-006  0.1176879E+03  0.7561462E-02  0.1246961E+00
          4   -1    0    0  501    0  0.00000000000E+00  0.00000000000E+00  0.14597182153E+03  0.14597182153E+03  0.00000000000E+00 0. -1.
         -4   -1    0    0    0  501 -0.00000000000E+00 -0.00000000000E+00 -0.11975829951E+03  0.11975829951E+03  0.00000000000E+00 0.  1.
          5    1    1    2  502    0 -0.69251096341E+02 -0.72184303074E+02  0.31042568365E+02  0.10482080617E+03  0.41800000000E+01 0.  1.
         -5    1    1    2    0  502  0.25521156317E+02  0.12951213465E+02 -0.28145386267E+02  0.40357137140E+02  0.41800000000E+01 0.  1.
        -11    1    1    2    0    0  0.57213977938E+02  0.69036392352E+02 -0.26415544663E+01  0.89701953995E+02  0.00000000000E+00 0.  1.
         11    1    1    2    0    0 -0.13484037914E+02 -0.98033027426E+01  0.25957894393E+02  0.30850223735E+02  0.00000000000E+00 0. -1.
</event>
<event>
 6    1  0.8259171E-006  0.1672439E+03  0.7561462E-02  0.1180753E+00
          2   -1    0    0  501    0  0.00000000000E+00  0.00000000000E+00  0.12857344043E+04  0.12857344043E+04  0.00000000000E+00 0. -1.
         -2   -1    0    0    0  501 -0.00000000000E+00 -0.00000000000E+00 -0.21820819354E+02  0.21820819354E+02  0.00000000000E+00 0.  1.
          5    1    1    2  502    0  0.11851177935E+03 -0.82564925293E+02  0.53252158697E+03  0.55177778292E+03  0.41800000000E+01 0. -1.
         -5    1    1    2    0  502 -0.31577495896E+02 -0.10329952488E+02  0.14875624589E+03  0.15247865181E+03  0.41800000000E+01 0. -1.
        -11    1    1    2    0    0 -0.89139250661E+02  0.10868329745E+03  0.51924144428E+03  0.53793079723E+03  0.00000000000E+00 0. -1.
         11    1    1    2    0    0  0.22049672042E+01 -0.15788419673E+02  0.63394307824E+02  0.65367991714E+02  0.00000000000E+00 0.  1.
</event>
<event>
 6    1  0.8259171E-006  0.3609524E+03  0.7561462E-02  0.1058207E+00
         -2   -1    0    0    0  501 -0.00000000000E+00  0.00000000000E+00  0.52851374471E+03  0.52851374471E+03  0.00000000000E+00 0. -1.
          2   -1    0    0  501    0  0.00000000000E+00 -0.00000000000E+00 -0.46185524195E+03  0.46185524195E+03  0.00000000000E+00 0.  1.
          5    1    1    2  502    0  0.55607781396E+02  0.28165510605E+03  0.20553707457E+03  0.35310732864E+03  0.41800000000E+01 0. -1.
         -5    1    1    2    0  502 -0.74207061454E+01  0.74316713582E+02  0.14971887117E+03  0.16736562844E+03  0.41800000000E+01 0. -1.
        -11    1    1    2    0    0  0.26841615550E+01 -0.19296335414E+02 -0.51281029350E+02  0.54857062033E+02  0.00000000000E+00 0.  1.
         11    1    1    2    0    0 -0.50871236805E+02 -0.33667548422E+03 -0.23731641363E+03  0.41503896755E+03  0.00000000000E+00 0. -1.
</event>
<event>
 6    1  0.8259171E-006  0.9205539E+02  0.7561462E-02  0.1297949E+00
          4   -1    0    0  501    0  0.00000000000E+00  0.00000000000E+00  0.64538795911E+03  0.64538795911E+03  0.00000000000E+00 0. -1.
         -4   -1    0    0    0  501 -0.00000000000E+00 -0.00000000000E+00 -0.26165403420E+02  0.26165403420E+02  0.00000000000E+00 0.  1.
          5    1    1    2  502    0 -0.33825198916E+02 -0.26820478962E+02  0.35126845298E+03  0.35393570127E+03  0.41800000000E+01 0.  1.
         -5    1    1    2    0  502 -0.35898283031E+02  0.24972243080E+02  0.29598513054E+02  0.52970218274E+02  0.41800000000E+01 0.  1.
        -11    1    1    2    0    0  0.31273938655E+02  0.34358250166E+02  0.44405955962E+02  0.64268479976E+02  0.00000000000E+00 0.  1.
         11    1    1    2    0    0  0.38449543293E+02 -0.32510014284E+02  0.19394963370E+03  0.20037896302E+03  0.00000000000E+00 0. -1.
</event>
<event>
 6    1  0.8259171E-006  0.1222566E+03  0.7561462E-02  0.1239420E+00
         -3   -1    0    0    0  501 -0.00000000000E+00  0.00000000000E+00  0.96311003460E+03  0.96311003460E+03  0.00000000000E+00 0.  1.
          3   -1    0    0  501    0  0.00000000000E+00 -0.00000000000E+00 -0.16747025041E+02  0.16747025041E+02  0.00000000000E+00 0. -1.
          5    1    1    2  502    0 -0.46273101006E+02 -0.30270000363E+02  0.13566328448E+03  0.14655876621E+03  0.41800000000E+01 0.  1.
         -5    1    1    2    0  502  0.70371600856E+02 -0.31553833259E+02  0.40786114499E+03  0.41510961516E+03  0.41800000000E+01 0.  1.
        -11    1    1    2    0    0  0.34053196166E+02  0.15201159250E+02  0.11748198037E+03  0.12325871621E+03  0.00000000000E+00 0.  1.
         11    1    1    2    0    0 -0.58151696016E+02  0.46622674371E+02  0.28535659972E+03  0.29492996206E+03  0.00000000000E+00 0. -1.
</event>
<event>
 6    1  0.8259171E-006  0.1409363E+03  0.7561462E-02  0.1212075E+00
         -1   -1    0    0    0  501 -0.00000000000E+00  0.00000000000E+00  0.10981592452E+03  0.10981592452E+03  0.00000000000E+00 0.  1.
          1   -1    0    0  501    0  0.00000000000E+00 -0.00000000000E+00 -0.28760681724E+03  0.28760681724E+03  0.00000000000E+00 0. -1.
          5    1    1    2  502    0  0.13950942949E+02  0.59481979149E+02 -0.43149401768E+02  0.74913803305E+02  0.41800000000E+01 0. -1.
         -5    1    1    2    0  502 -0.40892824478E+02 -0.13218479851E+03  0.66915648652E+01  0.13859038023E+03  0.41800000000E+01 0.  1.
        -11    1    1    2    0    0 -0.39763191310E+01  0.25297794770E+02 -0.12115614978E+03  0.12383296074E+03  0.00000000000E+00 0. -1.
         11    1    1    2    0    0  0.30918200659E+02  0.47405024595E+02 -0.20176906027E+02  0.60085597490E+02  0.00000000000E+00 0.  1.
</event>
<event>
 6    1  0.8259171E-006  0.1388654E+03  0.7561462E-02  0.1214864E+00
          1   -1    0    0  501    0  0.00000000000E+00  0.00000000000E+00  0.14889227610E+03  0.14889227610E+03  0.00000000000E+00 0. -1.
         -1   -1    0    0    0  501 -0.00000000000E+00 -0.00000000000E+00 -0.29725974037E+03  0.29725974037E+03  0.00000000000E+00 0.  1.
          5    1    1    2  502    0 -0.20121140143E+02  0.19144821651E+00 -0.99572744131E+02  0.10167153341E+03  0.41800000000E+01 0. -1.
         -5    1    1    2    0  502  0.88871603278E+02  0.90752639505E+02 -0.12727250872E+03  0.17986096664E+03  0.41800000000E+01 0.  1.
        -11    1    1    2    0    0 -0.59097777904E+01 -0.59551990384E+02  0.74481046914E+00  0.59849141806E+02  0.00000000000E+00 0.  1.
         11    1    1    2    0    0 -0.62840685345E+02 -0.31392097337E+02  0.77732978113E+02  0.10477037461E+03  0.00000000000E+00 0. -1.
</event>
<event>
 6    1  0.8259171E-006  0.2422179E+03  0.7561462E-02  0.1118324E+00
          2   -1    0    0  501    0  0.00000000000E+00  0.00000000000E+00  0.15917603624E+04  0.15917603624E+04  0.00000000000E+00 0. -1.
         -2   -1    0    0    0  501 -0.00000000000E+00 -0.00000000000E+00 -0.71911529606E+02  0.71911529606E+02  0.00000000000E+00 0.  1.
          5    1    1    2  502    0 -0.15413066159E+03 -0.28636075809E+02  0.13180512763E+03  0.20485690066E+03  0.41800000000E+01 0.  1.
         -5    1    1    2    0  502 -0.61211276150E+02  0.73531341462E+02  0.65459598710E+02  0.11600047400E+03  0.41800000000E+01 0.  1.
        -11    1    1    2    0    0  0.10085316866E+03 -0.58434979776E+02  0.62724424675E+03  0.63798225176E+03  0.00000000000E+00 0.  1.
         11    1    1    2    0    0  0.11448876908E+03  0.13539714124E+02  0.69533985970E+03  0.70483226557E+03  0.00000000000E+00 0. -1.
</event>
<event>
 6    1  0.8259171E-006  0.7194862E+02  0.7561462E-02  0.1353589E+00
          3   -1    0    0  501    0  0.00000000000E+00  0.00000000000E+00  0.31111963264E+03  0.31111963264E+03  0.00000000000E+00 0. -1.
         -3   -1    0    0    0  501 -0.00000000000E+00 -0.00000000000E+00 -0.39594484637E+02  0.39594484637E+02  0.00000000000E+00 0.  1.
          5    1    1    2  502    0  0.24777083808E+02  0.20667177389E+02  0.16205342292E+03  0.16528708474E+03  0.41800000000E+01 0.  1.
         -5    1    1    2    0  502 -0.10275177914E+02 -0.14185310362E+02 -0.18475117350E+02  0.25799315346E+02  0.41800000000E+01 0.  1.
        -11    1    1    2    0    0 -0.44414689433E+02  0.24137039877E+02  0.85624231414E+02  0.99432239926E+02  0.00000000000E+00 0. -1.
         11    1    1    2    0    0  0.29912783539E+02 -0.30618906904E+02  0.42322611017E+02  0.60195477259E+02  0.00000000000E+00 0.  1.
</event>
<event>
 6    1  0.8259171E-006  0.9900383E+02  0.7561462E-02  0.1282405E+00
         -1   -1    0    0    0  501 -0.00000000000E+00  0.00000000000E+00  0.32628655482E+02  0.32628655482E+02  0.00000000000E+00 0.  1.
          1   -1    0    0  501    0  0.00000000000E+00 -0.00000000000E+00 -0.41270971085E+03  0.41270971085E+03  0.00000000000E+00 0. -1.
          5    1    1    2  502    0 -0.13199050587E+01 -0.43197359965E+02 -0.37738696191E+02  0.57527694613E+02  0.41800000000E+01 0.  1.
         -5    1    1    2    0  502  0.15657976757E+02  0.83805229382E+02 -0.14141574605E+03  0.16517982425E+03  0.41800000000E+01 0.  1.
        -11    1    1    2    0    0  0.44536816762E+01  0.12301669962E+02  0.92492501137E+00  0.13115710068E+02  0.00000000000E+00 0.  1.
         11    1    1    2    0    0 -0.18791753374E+02 -0.52909539379E+02 -0.20185153814E+03  0.20951513740E+03  0.00000000000E+00 0. -1.
</event>
<event>
 6    1  0.8259171E-006  0.1138669E+03  0.7561462E-02  0.1253572E+00
          3   -1    0    0  501    0  0.00000000000E+00  0.00000000000E+00  0.12124267191E+03  0.12124267191E+03  0.00000000000E+00 0. -1.
         -3   -1    0    0    0  501 -0.00000000000E+00 -0.00000000000E+00 -0.15967987211E+03  0.15967987211E+03  0.00000000000E+00 0.  1.
          5    1    1    2  502    0 -0.13840782161E+02 -0.25925237009E+02  0.40231624592E+02  0.49997411754E+02  0.41800000000E+01 0. -1.
         -5    1    1    2    0  502 -0.67991047668E+02  0.20361704869E+02 -0.75497120500E+02  0.10370472117E+03  0.41800000000E+01 0. -1.
        -11    1    1    2    0    0  0.20026835644E+02  0.47980096064E+02  0.24509428962E+01  0.52049696304E+02  0.00000000000E+00 0. -1.
         11    1    1    2    0    0  0.61804994185E+02 -0.42416563924E+02 -0.56226471897E+01  0.75170714794E+02  0.00000000000E+00 0.  1.
</event>
<event>
 6    1  0.8259171E-006  0.1272992E+03  0.7561462E-02  0.1231519E+00
          1   -1    0    0  501    0  0.00000000000E+00  0.00000000000E+00  0.57479331841E+02  0.57479331841E+02  0.00000000000E+00 0. -1.
         -1   -1    0    0    0  501 -0.00000000000E+00 -0.00000000000E+00 -0.34670797935E+03  0.34670797935E+03  0.00000000000E+00 0.  1.
          5    1    1    2  502    0  0.23831630790E+02  0.56001881870E+01 -0.11853294002E+01  0.24863349324E+02  0.41800000000E+01 0. -1.
         -5    1    1    2    0  502 -0.10391585962E+03  0.19244242672E+02 -0.20243072479E+03  0.22839552862E+03  0.41800000000E+01 0. -1.
        -11    1    1    2    0    0  0.10036824472E+03 -0.15110828941E+02 -0.65904628222E+02  0.12101876599E+03  0.00000000000E+00 0. -1.
         11    1    1    2    0    0 -0.20284015890E+02 -0.97336019182E+01 -0.19707965100E+02  0.29909667256E+02  0.00000000000E+00 0.  1.
</event>
<event>
 6    1  0.8259171E-006  0.1634946E+03  0.7561462E-02  0.1184807E+00
          1   -1    0    0  501    0  0.00000000000E+00  0.00000000000E+00  0.88479030666E+02  0.88479030666E+02  0.00000000000E+00 0. -1.
         -1   -1    0    0    0  501 -0.00000000000E+00 -0.00000000000E+00 -0.36067320530E+03  0.36067320530E+03  0.00000000000E+00 0.  1.
          5    1    1    2  502    0  0.29295418931E+02  0.25301004032E+02 -0.93544482556E+01  0.40041734197E+02  0.41800000000E+01 0. -1.
         -5    1    1    2    0  502 -0.12363597800E+03  0.76554834641E+02 -0.99100119700E+02  0.17602500926E+03  0.41800000000E+01 0. -1.
        -11    1    1    2    0    0  0.28731216652E+02 -0.54676162434E+02 -0.13296845835E+03  0.14661369808E+03  0.00000000000E+00 0.  1.
         11    1    1    2    0    0  0.65609342413E+02 -0.47179676238E+02 -0.30771148334E+02  0.86471794428E+02  0.00000000000E+00 0. -1.
</event>
<event>
 6    1  0.8259171E-006  0.9085271E+02  0.7561462E-02  0.1300800E+00
         -1   -1    0    0    0  501 -0.00000000000E+00  0.00000000000E+00  0.41993420735E+03  0.41993420735E+03  0.00000000000E+00 0.  1.
          1   -1    0    0  501    0  0.00000000000E+00 -0.00000000000E+00 -0.34047763497E+02  0.34047763497E+02  0.00000000000E+00 0. -1.
          5    1    1    2  502    0 -0.51139158341E+02  0.29152749806E+02  0.11385915249E+03  0.12824381210E+03  0.41800000000E+01 0.  1.
         -5    1    1    2    0  502  0.56872307123E+02 -0.18968188766E+02  0.23447533486E+03  0.24205455286E+03  0.41800000000E+01 0.  1.
        -11    1    1    2    0    0  0.27358707772E+02 -0.11013432777E+02  0.40887098669E+02  0.50413782144E+02  0.00000000000E+00 0.  1.
         11    1    1    2    0    0 -0.33091856554E+02  0.82887173617E+00 -0.33351421647E+01  0.33269823742E+02  0.00000000000E+00 0. -1.
</event>
<event>
 6    1  0.8259171E-006  0.1004100E+03  0.7561462E-02  0.1279436E+00
          2   -1    0    0  501    0  0.00000000000E+00  0.00000000000E+00  0.32307190928E+03  0.32307190928E+03  0.00000000000E+00 0. -1.
         -2   -1    0    0    0  501 -0.00000000000E+00 -0.00000000000E+00 -0.60789952994E+02  0.60789952994E+02  0.00000000000E+00 0.  1.
          5    1    1    2  502    0 -0.73644986191E+02 -0.59053676541E+02  0.15205097334E+03  0.17901924924E+03  0.41800000000E+01 0. -1.
         -5    1    1    2    0  502  0.93663768000E+01 -0.69335484120E+01 -0.20898927474E+02  0.24290752922E+02  0.41800000000E+01 0. -1.
        -11    1    1    2    0    0  0.46274787966E+02  0.34654737475E+02  0.16148646825E+02  0.60025708034E+02  0.00000000000E+00 0.  1.
         11    1    1    2    0    0  0.18003821425E+02  0.31332487478E+02  0.11498126359E+03  0.12052615208E+03  0.00000000000E+00 0. -1.
</event>
<event>
 6    1  0.8259171E-006  0.1121465E+03  0.7561462E-02  0.1256646E+00
         -1   -1    0    0    0  501 -0.00000000000E+00  0.00000000000E+00  0.18890766554E+03  0.18890766554E+03  0.00000000000E+00 0.  1.
          1   -1    0    0  501    0  0.00000000000E+00 -0.00000000000E+00 -0.72391676201E+02  0.72391676201E+02  0.00000000000E+00 0. -1.
          5    1    1    2  502    0  0.61751822010E+02 -0.46626919365E+01  0.45516467691E+02  0.76969146083E+02  0.41800000000E+01 0. -1.
         -5    1    1    2    0  502 -0.46713280171E+02  0.51602855941E+02  0.19662685271E+02  0.72450527104E+02  0.41800000000E+01 0. -1.
        -11    1    1    2    0    0  0.32195857529E+02 -0.22768944002E+02  0.42697464811E+02  0.58121179911E+02  0.00000000000E+00 0.  1.
         11    1    1    2    0    0 -0.47234399368E+02 -0.24171220002E+02  0.86393715645E+01  0.53758488642E+02  0.00000000000E+00 0. -1.
</event>
<event>
 6    1  0.8259171E-006  0.2101061E+03  0.7561462E-02  0.1141482E+00
          2   -1    0    0  501    0  0.00000000000E+00  0.00000000000E+00  0.42006870993E+03  0.42006870993E+03  0.00000000000E+00 0. -1.
         -2   -1    0    0    0  501 -0.00000000000E+00 -0.00000000000E+00 -0.18855626894E+03  0.18855626894E+03  0.00000000000E+00 0.  1.
          5    1    1    2  502    0  0.11993113032E+03  0.52360343930E+02 -0.29097045247E+02  0.13412379386E+03  0.41800000000E+01 0.  1.
         -5    1    1    2    0  502  0.68347420826E+02 -0.64206086167E+02 -0.44600904186E+02  0.10392547565E+03  0.41800000000E+01 0.  1.
        -11    1    1    2    0    0 -0.77800585615E+02  0.30134685448E+02  0.20090916445E+03  0.21754430066E+03  0.00000000000E+00 0. -1.
         11    1    1    2    0    0 -0.11047796553E+03 -0.18288943211E+02  0.10430122598E+03  0.15303140871E+03  0.00000000000E+00 0.  1.
</event>
<event>
 6    1  0.8259171E-006  0.1505978E+03  0.7561462E-02  0.1199740E+00
          1   -1    0    0  501    0  0.00000000000E+00  0.00000000000E+00  0.18949985521E+03  0.18949985521E+03  0.00000000000E+00 0. -1.
         -1   -1    0    0    0  501 -0.00000000000E+00 -0.00000000000E+00 -0.45750125219E+03  0.45750125219E+03  0.00000000000E+00 0.  1.
          5    1    1    2  502    0  0.73916685734E+01 -0.20728109072E+02 -0.13125788201E+03  0.13315553034E+03  0.41800000000E+01 0.  1.
         -5    1    1    2    0  502  0.61660743198E+02  0.13310239016E+03 -0.26842283515E+03  0.30591924481E+03  0.41800000000E+01 0.  1.
        -11    1    1    2    0    0 -0.30085473258E+02 -0.54962855952E+02  0.12294653213E+03  0.13799239472E+03  0.00000000000E+00 0. -1.
         11    1    1    2    0    0 -0.38966938514E+02 -0.57411425132E+02  0.87327880416E+01  0.69933937539E+02  0.00000000000E+00 0.  1.
</event>
<event>
 6    1  0.8259171E-006  0.1065254E+03  0.7561462E-02  0.1267143E+00
         -1   -1    0    0    0  501 -0.00000000000E+00  0.00000000000E+00  0.26575393324E+02  0.26575393324E+02  0.00000000000E+00 0.  1.
          1   -1    0    0  501    0  0.00000000000E+00 -0.00000000000E+00 -0.56828594838E+03  0.56828594838E+03  0.00000000000E+00 0. -1.
          5    1    1    2  502    0  0.47551014623E+02 -0.29904926731E+02 -0.15182103948E+03  0.16193364093E+03  0.41800000000E+01 0. -1.
         -5    1    1    2    0  502 -0.10996478865E+02  0.58720639374E+02 -0.50108035465E+02  0.78085361330E+02  0.41800000000E+01 0.  1.
        -11    1    1    2    0    0 -0.39172403129E+01  0.29633337878E+02 -0.16487056496E+03  0.16755829635E+03  0.00000000000E+00 0.  1.
         11    1    1    2    0    0 -0.32637295445E+02 -0.58449050522E+02 -0.17491091515E+03  0.18728404310E+03  0.00000000000E+00 0. -1.
</event>
<event>
 6    1  0.8259171E-006  0.1169895E+03  0.7561462E-02  0.1248148E+00
          1   -1    0    0  501    0  0.00000000000E+00  0.00000000000E+00  0.33981256283E+03  0.33981256283E+03  0.00000000000E+00 0. -1.
         -1   -1    0    0    0  501 -0.00000000000E+00 -0.00000000000E+00 -0.52557758693E+02  0.52557758693E+02  0.00000000000E+00 0.  1.
          5    1    1    2  502    0  0.22641987085E+02 -0.52949300160E+02  0.18266364634E+02  0.60559230870E+02  0.41800000000E+01 0.  1.
         -5    1    1    2    0  502  0.49990067333E+02  0.59501174684E+02  0.97969738437E+02  0.12511969737E+03  0.41800000000E+01 0.  1.
        -11    1    1    2    0    0 -0.52956471762E+01 -0.27413658914E+02  0.10990044401E+03  0.11339162301E+03  0.00000000000E+00 0. -1.
         11    1    1    2    0    0 -0.67336407242E+02  0.20861784390E+02  0.61118257055E+02  0.93299770276E+02  0.00000000000E+00 0.  1.
</event>
<event>
 6    1  0.8259171E-006  0.6113160E+02  0.7561462E-02  0.1393143E+00
          1   -1    0    0  501    0  0.00000000000E+00  0.00000000000E+00  0.42358681182E+03  0.42358681182E+03  0.00000000000E+00 0. -1.
         -1   -1    0    0    0  501 -0.00000000000E+00 -0.00000000000E+00 -0.31067118604E+02  0.31067118604E+02  0.00000000000E+00 0.  1.
          5    1    1    2  502    0 -0.65993344197E+01 -0.29658757685E+02  0.25774723688E+03  0.25956560566E+03  0.41800000000E+01 0. -1.
         -5    1    1    2    0  502  0.29980809416E+00 -0.37856082017E+01 -0.14780294055E+02  0.15822458934E+02  0.41800000000E+01 0. -1.
        -11    1    1    2    0    0  0.25795881106E+02 -0.17651106809E+02  0.10237350334E+03  0.10703888657E+03  0.00000000000E+00 0.  1.
         11    1    1    2    0    0 -0.19496354781E+02  0.51095472696E+02  0.47179247052E+02  0.72226979254E+02  0.00000000000E+00 0. -1.
</event>
<event>
 6    1  0.8259171E-006  0.1035300E+03  0.7561462E-02  0.1273043E+00
         -2   -1    0    0    0  501 -0.00000000000E+00  0.00000000000E+00  0.79921795995E+03  0.79921795995E+03  0.00000000000E+00 0.  1.
          2   -1    0    0  501    0  0.00000000000E+00 -0.00000000000E+00 -0.27028796321E+02  0.27028796321E+02  0.00000000000E+00 0. -1.
          5    1    1    2  502    0 -0.25553547953E+02  0.10774578224E+02  0.49736210466E+03  0.49815219652E+03  0.41800000000E+01 0.  1.
         -5    1    1    2    0  502 -0.26658059083E+01  0.60102416012E+02  0.98805821886E+02  0.11575607876E+03  0.41800000000E+01 0.  1.
        -11    1    1    2    0    0 -0.29273961600E+02 -0.49226944934E+02  0.81764178978E+02  0.99828041648E+02  0.00000000000E+00 0.  1.
         11    1    1    2    0    0  0.57493315461E+02 -0.21650049302E+02  0.94257058107E+02  0.11251043934E+03  0.00000000000E+00 0. -1.
</event>
<event>
 6    1  0.8259171E-006  0.9959695E+02  0.7561462E-02  0.1281146E+00
          2   -1    0    0  501    0  0.00000000000E+00  0.00000000000E+00  0.40901366239E+03  0.40901366239E+03  0.00000000000E+00 0. -1.
         -2   -1    0    0    0  501 -0.00000000000E+00 -0.00000000000E+00 -0.37240622713E+02  0.37240622713E+02  0.00000000000E+00 0.  1.
          5    1    1    2  502    0  0.46443148468E+02  0.29150324482E+02  0.22195953412E+03  0.22867053733E+03  0.41800000000E+01 0. -1.
         -5    1    1    2    0  502  0.44963549564E+02  0.19595808628E+01  0.10172216209E+02  0.46330412573E+02  0.41800000000E+01 0.  1.
        -11    1    1    2    0    0 -0.72044622274E+02 -0.33573261162E+02  0.11555215278E+03  0.14024939029E+03  0.00000000000E+00 0. -1.
         11    1    1    2    0    0 -0.19362075758E+02  0.24633558167E+01  0.24089136573E+02  0.31003944916E+02  0.00000000000E+00 0.  1.
</event>
<event>
 6    1  0.8259171E-006  0.1296932E+03  0.7561462E-02  0.1227912E+00
          2   -1    0    0  501    0  0.00000000000E+00  0.00000000000E+00  0.62316704792E+03  0.62316704792E+03  0.00000000000E+00 0. -1.
         -2   -1    0    0    0  501 -0.00000000000E+00 -0.00000000000E+00 -0.42130505382E+02  0.42130505382E+02  0.00000000000E+00 0.  1.
          5    1    1    2  502    0 -0.58899627847E+02 -0.31687744083E+02  0.23197176749E+02  0.70914460407E+02  0.41800000000E+01 0.  1.
         -5    1    1    2    0  502 -0.19267992158E+02  0.66338470944E+02  0.11470780530E+03  0.13396791125E+03  0.41800000000E+01 0.  1.
        -11    1    1    2    0    0 -0.24652815850E+01  0.23578444247E+02  0.12014551768E+03  0.12246210053E+03  0.00000000000E+00 0. -1.
         11    1    1    2    0    0  0.80632901591E+02 -0.58229171108E+02  0.32298604280E+03  0.33795308111E+03  0.00000000000E+00 0.  1.
</event>
<event>
 6    1  0.8259171E-006  0.1051452E+03  0.7561462E-02  0.1269834E+00
          2   -1    0    0  501    0  0.00000000000E+00  0.00000000000E+00  0.43301058617E+03  0.43301058617E+03  0.00000000000E+00 0. -1.
         -2   -1    0    0    0  501 -0.00000000000E+00 -0.00000000000E+00 -0.29801866292E+02  0.29801866292E+02  0.00000000000E+00 0.  1.
          5    1    1    2  502    0  0.15920903313E+02 -0.61078511072E+02  0.14321197988E+03  0.15656054183E+03  0.41800000000E+01 0.  1.
         -5    1    1    2    0  502 -0.51820841261E+02  0.41084977473E+02  0.99094132670E+02  0.11920777866E+03  0.41800000000E+01 0.  1.
        -11    1    1    2    0    0 -0.20873671915E+02  0.99115024723E+01  0.10211985649E+03  0.10470154321E+03  0.00000000000E+00 0. -1.
         11    1    1    2    0    0  0.56773609864E+02  0.10082031126E+02  0.58782750834E+02  0.82342588763E+02  0.00000000000E+00 0.  1.
</event>
<event>
 6    1  0.8259171E-006  0.2395433E+03  0.7561462E-02  0.1120097E+00
          2   -1    0    0  501    0  0.00000000000E+00  0.00000000000E+00  0.79026505340E+03  0.79026505340E+03  0.00000000000E+00 0. -1.
         -2   -1    0    0    0  501 -0.00000000000E+00 -0.00000000000E+00 -0.79651291286E+02  0.79651291286E+02  0.00000000000E+00 0.  1.
          5    1    1    2  502    0 -0.16073475049E+03 -0.10290396182E+03  0.19543862159E+03  0.27320068189E+03  0.41800000000E+01 0.  1.
         -5    1    1    2    0  502  0.85706381382E+00 -0.54925301206E+02  0.13273046144E+03  0.14370932839E+03  0.41800000000E+01 0.  1.
        -11    1    1    2    0    0  0.16532015673E+02 -0.38992262047E+01  0.43932978809E+01  0.17544588153E+02  0.00000000000E+00 0.  1.
         11    1    1    2    0    0  0.14334567101E+03  0.16172848923E+03  0.37805138120E+03  0.43546174626E+03  0.00000000000E+00 0. -1.
</event>
<event>
 6    1  0.8259171E-006  0.1525429E+03  0.7561462E-02  0.1197383E+00
         -1   -1    0    0    0  501 -0.00000000000E+00  0.00000000000E+00  0.34347027365E+03  0.34347027365E+03  0.00000000000E+00 0.  1.
          1   -1    0    0  501    0  0.00000000000E+00 -0.00000000000E+00 -0.77968982629E+02  0.77968982629E+02  0.00000000000E+00 0. -1.
          5    1    1    2  502    0  0.64593372282E+02 -0.48952582163E+01  0.11105602367E+03  0.12863584294E+03  0.41800000000E+01 0. -1.
         -5    1    1    2    0  502  0.15901019103E+02 -0.85973809348E+02  0.20909351772E+02  0.89994509242E+02  0.41800000000E+01 0. -1.
        -11    1    1    2    0    0  0.20680647803E+02  0.22332587887E+02  0.26983460778E+02  0.40676047385E+02  0.00000000000E+00 0.  1.
         11    1    1    2    0    0 -0.10117503919E+03  0.68536479677E+02  0.10655245480E+03  0.16213285671E+03  0.00000000000E+00 0. -1.
</event>
<event>
 6    1  0.8259171E-006  0.1139327E+03  0.7561462E-02  0.1253456E+00
          1   -1    0    0  501    0  0.00000000000E+00  0.00000000000E+00  0.74469792607E+02  0.74469792607E+02  0.00000000000E+00 0. -1.
         -1   -1    0    0    0  501 -0.00000000000E+00 -0.00000000000E+00 -0.18091059920E+03  0.18091059920E+03  0.00000000000E+00 0.  1.
          5    1    1    2  502    0 -0.55621542240E+02  0.53556791867E+02 -0.44022589321E+02  0.88980597249E+02  0.41800000000E+01 0.  1.
         -5    1    1    2    0  502  0.50918336485E+02 -0.14415113471E+02 -0.17558442263E+02  0.55912823051E+02  0.41800000000E+01 0.  1.
        -11    1    1    2    0    0 -0.39559504327E+02 -0.18954741151E+01 -0.32733043673E+02  0.51380924017E+02  0.00000000000E+00 0.  1.
         11    1    1    2    0    0  0.44262710082E+02 -0.37246204281E+02 -0.12126731336E+02  0.59106047491E+02  0.00000000000E+00 0. -1.
</event>
<event>
 6    1  0.8259171E-006  0.8490034E+02  0.7561462E-02  0.1315693E+00
         -1   -1    0    0    0  501 -0.00000000000E+00  0.00000000000E+00  0.45331701862E+03  0.45331701862E+03  0.00000000000E+00 0.  1.
          1   -1    0    0  501    0  0.00000000000E+00 -0.00000000000E+00 -0.31062583932E+02  0.31062583932E+02  0.00000000000E+00 0. -1.
          5    1    1    2  502    0  0.34226799381E+02  0.47597069776E+02  0.96782430140E+02  0.11323102945E+03  0.41800000000E+01 0.  1.
         -5    1    1    2    0  502 -0.43078497214E+02 -0.36857136649E+02  0.23078861316E+03  0.23768689869E+03  0.41800000000E+01 0.  1.
        -11    1    1    2    0    0 -0.34924827978E+01 -0.30597841349E+02  0.10387037564E+03  0.10833965233E+03  0.00000000000E+00 0.  1.
         11    1    1    2    0    0  0.12344180631E+02  0.19857908222E+02 -0.91869842420E+01  0.25122022089E+02  0.00000000000E+00 0. -1.
</event>
<event>
 6    1  0.8259171E-006  0.3797160E+03  0.7561462E-02  0.1051039E+00
          2   -1    0    0  501    0  0.00000000000E+00  0.00000000000E+00  0.86541645009E+03  0.86541645009E+03  0.00000000000E+00 0. -1.
         -2   -1    0    0    0  501 -0.00000000000E+00 -0.00000000000E+00 -0.18079781359E+03  0.18079781359E+03  0.00000000000E+00 0.  1.
          5    1    1    2  502    0  0.19787423687E+03  0.22309469497E+03  0.14768183911E+03  0.33279551461E+03  0.41800000000E+01 0. -1.
         -5    1    1    2    0  502  0.85222046535E+02  0.44968130493E+01  0.54260855204E+02  0.10121626031E+03  0.41800000000E+01 0. -1.
        -11    1    1    2    0    0 -0.17044350629E+03 -0.75322269967E+02  0.25966854648E+03  0.31961255798E+03  0.00000000000E+00 0. -1.
         11    1    1    2    0    0 -0.11265277712E+03 -0.15226923806E+03  0.22300739571E+03  0.29258993078E+03  0.00000000000E+00 0.  1.
</event>
<event>
 6    1  0.8259171E-006  0.1109004E+03  0.7561462E-02  0.1258912E+00
         -1   -1    0    0    0  501 -0.00000000000E+00  0.00000000000E+00  0.73958661086E+02  0.73958661086E+02  0.00000000000E+00 0.  1.
          1   -1    0    0  501    0  0.00000000000E+00 -0.00000000000E+00 -0.19798154375E+03  0.19798154375E+03  0.00000000000E+00 0. -1.
          5    1    1    2  502    0  0.47257170064E+02  0.77483365801E+02 -0.18819835077E+02  0.92782383515E+02  0.41800000000E+01 0.  1.
         -5    1    1    2    0  502 -0.19422377376E+02 -0.36717138486E+02 -0.24997436680E+02  0.48659235938E+02  0.41800000000E+01 0.  1.
        -11    1    1    2    0    0  0.23334768310E+02 -0.28024474051E+02 -0.24516076343E+01  0.36549869191E+02  0.00000000000E+00 0.  1.
         11    1    1    2    0    0 -0.51169560999E+02 -0.12741753265E+02 -0.77754003275E+02  0.93948716193E+02  0.00000000000E+00 0. -1.
</event>
<event>
 6    1  0.8259171E-006  0.1421683E+03  0.7561462E-02  0.1210441E+00
          1   -1    0    0  501    0  0.00000000000E+00  0.00000000000E+00  0.20025613124E+02  0.20025613124E+02  0.00000000000E+00 0. -1.
         -1   -1    0    0    0  501 -0.00000000000E+00 -0.00000000000E+00 -0.11136622174E+04  0.11136622174E+04  0.00000000000E+00 0.  1.
          5    1    1    2  502    0  0.98345892638E+02  0.62616371576E+02 -0.48550461964E+03  0.49932447635E+03  0.41800000000E+01 0.  1.
         -5    1    1    2    0  502 -0.76241826098E+01 -0.35484914919E+02 -0.25615783539E+03  0.25875010411E+03  0.41800000000E+01 0.  1.
        -11    1    1    2    0    0  0.13197287010E+02 -0.23743854826E+02 -0.74569544883E+02  0.79363442784E+02  0.00000000000E+00 0. -1.
         11    1    1    2    0    0 -0.10391899704E+03 -0.33876018315E+01 -0.27740460439E+03  0.29624980731E+03  0.00000000000E+00 0.  1.
</event>
<event>
 6    1  0.8259171E-006  0.1170722E+03  0.7561462E-02  0.1248007E+00
         -1   -1    0    0    0  501 -0.00000000000E+00  0.00000000000E+00  0.57963550153E+03  0.57963550153E+03  0.00000000000E+00 0.  1.
          1   -1    0    0  501    0  0.00000000000E+00 -0.00000000000E+00 -0.40820497996E+02  0.40820497996E+02  0.00000000000E+00 0. -1.
          5    1    1    2  502    0 -0.73204244291E+02 -0.41853910041E+02  0.12324035200E+03  0.14938630435E+03  0.41800000000E+01 0.  1.
         -5    1    1    2    0  502  0.13729567702E+02 -0.24428099876E+02  0.29137384859E+03  0.29274805744E+03  0.41800000000E+01 0.  1.
        -11    1    1    2    0    0 -0.12346231766E+02  0.44725355034E+02  0.21444882890E+02  0.51114281995E+02  0.00000000000E+00 0. -1.
         11    1    1    2    0    0  0.71820908355E+02  0.21556654883E+02  0.10275592006E+03  0.12720735574E+03  0.00000000000E+00 0.  1.
</event>
<event>
 6    1  0.8259171E-006  0.1698863E+03  0.7561462E-02  0.1177967E+00
          2   -1    0    0  501    0  0.00000000000E+00  0.00000000000E+00  0.10846627588E+04  0.10846627588E+04  0.00000000000E+00 0. -1.
         -2   -1    0    0    0  501 -0.00000000000E+00 -0.00000000000E+00 -0.43306664943E+02  0.43306664943E+02  0.00000000000E+00 0.  1.
          5    1    1    2  502    0 -0.11863779288E+03  0.59968169670E+02  0.10642428111E+03  0.17033704025E+03  0.41800000000E+01 0. -1.
         -5    1    1    2    0  502 -0.24327049890E+02 -0.22225279026E+02  0.13577737793E+03  0.13978103284E+03  0.41800000000E+01 0. -1.
        -11    1    1    2    0    0  0.26408921579E+02 -0.49812236156E+02  0.28325167134E+03  0.28880823971E+03  0.00000000000E+00 0. -1.
         11    1    1    2    0    0  0.11655592119E+03  0.12069345512E+02  0.51590276345E+03  0.52904311091E+03  0.00000000000E+00 0.  1.
</event>
<event>
 6    1  0.8259171E-006  0.1421601E+03  0.7561462E-02  0.1210452E+00
          1   -1    0    0  501    0  0.00000000000E+00  0.00000000000E+00  0.94905001193E+03  0.94905001193E+03  0.00000000000E+00 0. -1.
         -1   -1    0    0    0  501 -0.00000000000E+00 -0.00000000000E+00 -0.22132200438E+02  0.22132200438E+02  0.00000000000E+00 0.  1.
          5    1    1    2  502    0  0.52891638748E+02 -0.38302971904E+02  0.30187602703E+03  0.30888711724E+03  0.41800000000E+01 0. -1.
         -5    1    1    2    0  502 -0.81642491376E+02  0.82406938837E+02  0.32536018489E+03  0.34544626539E+03  0.41800000000E+01 0.  1.
        -11    1    1    2    0    0 -0.16409504423E+02  0.19064492779E+02  0.68272772107E+02  0.72759179019E+02  0.00000000000E+00 0.  1.
         11    1    1    2    0    0  0.45160357051E+02 -0.63168459712E+02  0.23140882747E+03  0.24408965071E+03  0.00000000000E+00 0. -1.
</event>
<event>
 6    1  0.8259171E-006  0.1155091E+03  0.7561462E-02  0.1250695E+00
          4   -1    0    0  501    0  0.00000000000E+00  0.00000000000E+00  0.15026413497E+03  0.15026413497E+03  0.00000000000E+00 0. -1.
         -4   -1    0    0    0  501 -0.00000000000E+00 -0.00000000000E+00 -0.13243811804E+03  0.13243811804E+03  0.00000000000E+00 0.  1.
          5    1    1    2  502    0  0.21724747927E+02 -0.81511081811E+02 -0.14933538216E+02  0.85770065257E+02  0.41800000000E+01 0. -1.
         -5    1    1    2    0  502 -0.57656477963E+02  0.16240533276E+02 -0.26280410028E+02  0.65545073982E+02  0.41800000000E+01 0. -1.
        -11    1    1    2    0    0  0.45469180491E+02  0.44332566227E+02  0.78698177830E+02  0.10112480406E+03  0.00000000000E+00 0. -1.
         11    1    1    2    0    0 -0.95374504548E+01  0.20937982309E+02 -0.19658212656E+02  0.30262309713E+02  0.00000000000E+00 0.  1.
</event>
<event>
 6    1  0.8259171E-006  0.1019763E+03  0.7561462E-02  0.1276194E+00
          1   -1    0    0  501    0  0.00000000000E+00  0.00000000000E+00  0.31049360638E+03  0.31049360638E+03  0.00000000000E+00 0. -1.
         -1   -1    0    0    0  501 -0.00000000000E+00 -0.00000000000E+00 -0.50991460794E+02  0.50991460794E+02  0.00000000000E+00 0.  1.
          5    1    1    2  502    0 -0.91525020486E+02 -0.15841135557E+02  0.66996950918E+02  0.11460294404E+03  0.41800000000E+01 0.  1.
         -5    1    1    2    0  502  0.27480746072E+02  0.21719742007E+02  0.87480748243E+02  0.94325459504E+02  0.41800000000E+01 0.  1.
        -11    1    1    2    0    0  0.14799360561E+02  0.16013400115E+02 -0.11150520686E+02  0.24490491376E+02  0.00000000000E+00 0.  1.
         11    1    1    2    0    0  0.49244913853E+02 -0.21892006565E+02  0.11617496711E+03  0.12806617225E+03  0.00000000000E+00 0. -1.
</event>
<event>
 6    1  0.8259171E-006  0.1390631E+03  0.7561462E-02  0.1214595E+00
         -1   -1    0    0    0  501 -0.00000000000E+00  0.00000000000E+00  0.68849658384E+02  0.68849658384E+02  0.00000000000E+00 0.  1.
          1   -1    0    0  501    0  0.00000000000E+00 -0.00000000000E+00 -0.32550914156E+03  0.32550914156E+03  0.00000000000E+00 0. -1.
          5    1    1    2  502    0 -0.12385750842E+01  0.42919418528E+02 -0.53976204925E+02  0.69097855633E+02  0.41800000000E+01 0. -1.
         -5    1    1    2    0  502 -0.98374689453E+02 -0.44112918778E+02 -0.32406804060E+02  0.11265523724E+03  0.41800000000E+01 0. -1.
        -11    1    1    2    0    0  0.10622922897E+03  0.19162927756E+02 -0.14884286077E+03  0.18386425452E+03  0.00000000000E+00 0.  1.
         11    1    1    2    0    0 -0.66159644365E+01 -0.17969427506E+02 -0.21433613414E+02  0.28741452543E+02  0.00000000000E+00 0. -1.
</event>
<event>
 6    1  0.8259171E-006  0.1104395E+03  0.7561462E-02  0.1259758E+00
         -3   -1    0    0    0  501 -0.00000000000E+00  0.00000000000E+00  0.97624345459E+01  0.97624345459E+01  0.00000000000E+00 0.  1.
          3   -1    0    0  501    0  0.00000000000E+00 -0.00000000000E+00 -0.12554170526E+04  0.12554170526E+04  0.00000000000E+00 0. -1.
          5    1    1    2  502    0  0.65057167747E+02 -0.26712463675E+00 -0.37399029804E+03  0.37962971677E+03  0.41800000000E+01 0. -1.
         -5    1    1    2    0  502 -0.59726952584E+02  0.32274481300E+01 -0.37139838879E+03  0.37620733763E+03  0.41800000000E+01 0. -1.
        -11    1    1    2    0    0 -0.78614887159E+01  0.46017401630E+02 -0.24360799142E+03  0.24804083886E+03  0.00000000000E+00 0.  1.
         11    1    1    2    0    0  0.25312735529E+01 -0.48977725123E+02 -0.25665793979E+03  0.26130159387E+03  0.00000000000E+00 0. -1.
</event>
<event>
 6    1  0.8259171E-006  0.1029713E+03  0.7561462E-02  0.1274169E+00
          2   -1    0    0  501    0  0.00000000000E+00  0.00000000000E+00  0.19063067446E+03  0.19063067446E+03  0.00000000000E+00 0. -1.
         -2   -1    0    0    0  501 -0.00000000000E+00 -0.00000000000E+00 -0.82702134038E+02  0.82702134038E+02  0.00000000000E+00 0.  1.
          5    1    1    2  502    0 -0.54729151921E+02 -0.49614509946E+02 -0.27899274884E+02  0.79074152580E+02  0.41800000000E+01 0. -1.
         -5    1    1    2    0  502  0.74567680426E+01  0.27162789920E+02  0.51087035343E+02  0.58487418528E+02  0.41800000000E+01 0. -1.
        -11    1    1    2    0    0 -0.18719494519E+01  0.48036015435E+02  0.24606249500E+02  0.54003985853E+02  0.00000000000E+00 0. -1.
         11    1    1    2    0    0  0.49144333331E+02 -0.25584295409E+02  0.60134530467E+02  0.81767251541E+02  0.00000000000E+00 0.  1.
</event>
<event>
 6    1  0.8259171E-006  0.1620958E+03  0.7561462E-02  0.1186351E+00
         -1   -1    0    0    0  501 -0.00000000000E+00  0.00000000000E+00  0.48552988921E+03  0.48552988921E+03  0.00000000000E+00 0.  1.
          1   -1    0    0  501    0  0.00000000000E+00 -0.00000000000E+00 -0.74778727791E+02  0.74778727791E+02  0.00000000000E+00 0. -1.
          5    1    1    2  502    0  0.11083191632E+03  0.79243320427E+02  0.29021462719E+03  0.32063253070E+03  0.41800000000E+01 0. -1.
         -5    1    1    2    0  502 -0.23287563740E+02  0.32198617295E+02  0.25672296270E+02  0.47493165576E+02  0.41800000000E+01 0. -1.
        -11    1    1    2    0    0 -0.89345584412E+02 -0.91447955920E+02  0.10869127055E+03  0.16780689613E+03  0.00000000000E+00 0.  1.
         11    1    1    2    0    0  0.18012318294E+01 -0.19993981803E+02 -0.13827032593E+02  0.24376024589E+02  0.00000000000E+00 0. -1.
</event>
<event>
 6    1  0.8259171E-006  0.1340630E+03  0.7561462E-02  0.1221549E+00
          1   -1    0    0  501    0  0.00000000000E+00  0.00000000000E+00  0.22091406428E+03  0.22091406428E+03  0.00000000000E+00 0. -1.
         -1   -1    0    0    0  501 -0.00000000000E+00 -0.00000000000E+00 -0.11676190828E+03  0.11676190828E+03  0.00000000000E+00 0.  1.
          5    1    1    2  502    0  0.56946280920E+02 -0.11320155912E+02  0.33759012846E+02  0.67291665077E+02  0.41800000000E+01 0. -1.
         -5    1    1    2    0  502  0.13733374523E+02  0.96749676812E+02 -0.22082290398E+02  0.10027066115E+03  0.41800000000E+01 0. -1.
        -11    1    1    2    0    0 -0.10100882735E+02 -0.22980357627E+02  0.77966956838E+02  0.81908308658E+02  0.00000000000E+00 0. -1.
         11    1    1    2    0    0 -0.60578772707E+02 -0.62449163273E+02  0.14508476717E+02  0.88205337667E+02  0.00000000000E+00 0.  1.
</event>
<event>
 6    1  0.8259171E-006  0.9984765E+02  0.7561462E-02  0.1280617E+00
          3   -1    0    0  501    0  0.00000000000E+00  0.00000000000E+00  0.28191885759E+03  0.28191885759E+03  0.00000000000E+00 0.  1.
         -3   -1    0    0    0  501 -0.00000000000E+00 -0.00000000000E+00 -0.48369857297E+02  0.48369857297E+02  0.00000000000E+00 0. -1.
          5    1    1    2  502    0  0.48094569084E+02 -0.18879019461E+02  0.12745291658E+03  0.13759078201E+03  0.41800000000E+01 0. -1.
         -5    1    1    2    0  502 -0.41688161401E+02 -0.23727429182E+02  0.30643814101E+01  0.48246829223E+02  0.41800000000E+01 0. -1.
        -11    1    1    2    0    0  0.26545412177E+02 -0.17055880969E+02  0.21489960143E+02  0.38175651537E+02  0.00000000000E+00 0.  1.
         11    1    1    2    0    0 -0.32951819860E+02  0.59662329612E+02  0.81541742160E+02  0.10627545211E+03  0.00000000000E+00 0. -1.
</event>
<event>
 6    1  0.8259171E-006  0.2220909E+03  0.7561462E-02  0.1132334E+00
         -1   -1    0    0    0  501 -0.00000000000E+00  0.00000000000E+00  0.97053631162E+02  0.97053631162E+02  0.00000000000E+00 0.  1.
          1   -1    0    0  501    0  0.00000000000E+00 -0.00000000000E+00 -0.60371599244E+03  0.60371599244E+03  0.00000000000E+00 0. -1.
          5    1    1    2  502    0 -0.19721339974E+03 -0.79420518749E+02 -0.32124985994E+03  0.38525275956E+03  0.41800000000E+01 0.  1.
         -5    1    1    2    0  502  0.18295814675E+02 -0.19296128588E+02 -0.41959436160E+02  0.49851219604E+02  0.41800000000E+01 0.  1.
        -11    1    1    2    0    0  0.56918836042E+02  0.37102240752E+02 -0.10252404430E+03  0.12299394223E+03  0.00000000000E+00 0. -1.
         11    1    1    2    0    0  0.12199874902E+03  0.61614406586E+02 -0.40929020881E+02  0.14267170221E+03  0.00000000000E+00 0.  1.
</event>
<event>
 6    1  0.8259171E-006  0.6726945E+02  0.7561462E-02  0.1369633E+00
          1   -1    0    0  501    0  0.00000000000E+00  0.00000000000E+00  0.20385202771E+03  0.20385202771E+03  0.00000000000E+00 0. -1.
         -1   -1    0    0    0  501 -0.00000000000E+00 -0.00000000000E+00 -0.65931536379E+02  0.65931536379E+02  0.00000000000E+00 0.  1.
          5    1    1    2  502    0  0.32963114394E+02 -0.92388813795E+01 -0.14574728542E+02  0.37440872743E+02  0.41800000000E+01 0.  1.
         -5    1    1    2    0  502 -0.38052927116E+02 -0.20049200750E+02  0.12427237578E+03  0.13157162116E+03  0.41800000000E+01 0.  1.
        -11    1    1    2    0    0  0.10627928440E+02 -0.11509141104E+02 -0.27403807882E+02  0.31565517235E+02  0.00000000000E+00 0.  1.
         11    1    1    2    0    0 -0.55381157181E+01  0.40797223233E+02  0.55626651979E+02  0.69205552954E+02  0.00000000000E+00 0. -1.
</event>
<event>
 6    1  0.8259171E-006  0.1186685E+03  0.7561462E-02  0.1245310E+00
          2   -1    0    0  501    0  0.00000000000E+00  0.00000000000E+00  0.26900521537E+02  0.26900521537E+02  0.00000000000E+00 0.  1.
         -2   -1    0    0    0  501 -0.00000000000E+00 -0.00000000000E+00 -0.63658913171E+03  0.63658913171E+03  0.00000000000E+00 0. -1.
          5    1    1    2  502    0  0.25737230491E+01  0.35484140703E+02 -0.21631376168E+03  0.21925980978E+03  0.41800000000E+01 0. -1.
         -5    1    1    2    0  502  0.20575394477E+02 -0.87700177644E+02 -0.20589437611E+03  0.22477685497E+03  0.41800000000E+01 0. -1.
        -11    1    1    2    0    0 -0.88426554641E+00  0.77580969698E+02 -0.15092477518E+03  0.16969937109E+03  0.00000000000E+00 0.  1.
         11    1    1    2    0    0 -0.22264851980E+02 -0.25364932757E+02 -0.36555697206E+02  0.49753617413E+02  0.00000000000E+00 0. -1.
</event>
<event>
 6    1  0.8259171E-006  0.1001255E+03  0.7561462E-02  0.1280032E+00
          3   -1    0    0  501    0  0.00000000000E+00  0.00000000000E+00  0.22982861753E+03  0.22982861753E+03  0.00000000000E+00 0. -1.
         -3   -1    0    0    0  501 -0.00000000000E+00 -0.00000000000E+00 -0.68715621181E+02  0.68715621181E+02  0.00000000000E+00 0.  1.
          5    1    1    2  502    0  0.34690663255E+02 -0.17769812357E+02  0.82817847468E+02  0.91626833447E+02  0.41800000000E+01 0. -1.
         -5    1    1    2    0  502 -0.71777346580E+02 -0.32534276818E+02  0.18508725170E+02  0.81058694522E+02  0.41800000000E+01 0. -1.
        -11    1    1    2    0    0  0.50818919253E+02  0.35821138278E+02 -0.68520957212E+00  0.62178662045E+02  0.00000000000E+00 0.  1.
         11    1    1    2    0    0 -0.13732235928E+02  0.14482950896E+02  0.60471633281E+02  0.63680048696E+02  0.00000000000E+00 0. -1.
</event>
<event>
 6    1  0.8259171E-006  0.1166341E+03  0.7561462E-02  0.1248755E+00
          3   -1    0    0  501    0  0.00000000000E+00  0.00000000000E+00  0.79852691141E+02  0.79852691141E+02  0.00000000000E+00 0. -1.
         -3   -1    0    0    0  501 -0.00000000000E+00 -0.00000000000E+00 -0.25518958576E+03  0.25518958576E+03  0.00000000000E+00 0.  1.
          5    1    1    2  502    0 -0.50815615260E+01  0.30834321889E+02  0.35958126331E+01  0.31732947270E+02  0.41800000000E+01 0. -1.
         -5    1    1    2    0  502  0.82310886393E+02 -0.27327597645E+02 -0.16611548870E+03  0.18743987729E+03  0.41800000000E+01 0. -1.
        -11    1    1    2    0    0 -0.54245822512E+02 -0.42996296186E+02 -0.39935816517E+01  0.69334258777E+02  0.00000000000E+00 0. -1.
         11    1    1    2    0    0 -0.22983502355E+02  0.39489571941E+02 -0.88236369078E+01  0.46535193573E+02  0.00000000000E+00 0.  1.
</event>
<event>
 6    1  0.8259171E-006  0.1139410E+03  0.7561462E-02  0.1253441E+00
         -1   -1    0    0    0  501 -0.00000000000E+00  0.00000000000E+00  0.28289034213E+03  0.28289034213E+03  0.00000000000E+00 0.  1.
          1   -1    0    0  501    0  0.00000000000E+00 -0.00000000000E+00 -0.56348401476E+02  0.56348401476E+02  0.00000000000E+00 0. -1.
          5    1    1    2  502    0 -0.58046693584E+02  0.18367867011E+02  0.10713800993E+03  0.12329972728E+03  0.41800000000E+01 0.  1.
         -5    1    1    2    0  502  0.65423889881E+02  0.23456180212E+02  0.85148878802E+02  0.10999218935E+03  0.41800000000E+01 0.  1.
        -11    1    1    2    0    0 -0.25626170765E+02  0.20164863174E+02 -0.42120791419E+00  0.32611343900E+02  0.00000000000E+00 0. -1.
         11    1    1    2    0    0  0.18248974468E+02 -0.61988910397E+02  0.34676259828E+02  0.73335483069E+02  0.00000000000E+00 0.  1.
</event>
<event>
 6    1  0.8259171E-006  0.1272962E+03  0.7561462E-02  0.1231524E+00
          2   -1    0    0  501    0  0.00000000000E+00  0.00000000000E+00  0.51840823822E+03  0.51840823822E+03  0.00000000000E+00 0. -1.
         -2   -1    0    0    0  501 -0.00000000000E+00 -0.00000000000E+00 -0.45617887430E+02  0.45617887430E+02  0.00000000000E+00 0.  1.
          5    1    1    2  502    0 -0.15115427197E+02 -0.55162683068E+02  0.17729658152E+03  0.18634094547E+03  0.41800000000E+01 0. -1.
         -5    1    1    2    0  502 -0.66762373429E+02  0.61586545049E+02  0.20873310628E+03  0.22767762098E+03  0.41800000000E+01 0. -1.
        -11    1    1    2    0    0 -0.95800392270E+01 -0.11195986098E+02  0.48614323441E+02  0.50798422218E+02  0.00000000000E+00 0. -1.
         11    1    1    2    0    0  0.91457839853E+02  0.47721241161E+01  0.38146339553E+02  0.99209136980E+02  0.00000000000E+00 0.  1.
</event>
<event>
 6    1  0.8259171E-006  0.1059975E+03  0.7561462E-02  0.1268167E+00
         -4   -1    0    0    0  501 -0.00000000000E+00  0.00000000000E+00  0.40550211549E+02  0.40550211549E+02  0.00000000000E+00 0.  1.
          4   -1    0    0  501    0  0.00000000000E+00 -0.00000000000E+00 -0.31930930733E+03  0.31930930733E+03  0.00000000000E+00 0. -1.
          5    1    1    2  502    0  0.38028403320E+01 -0.76973019797E+02 -0.11266248128E+03  0.13656359127E+03  0.41800000000E+01 0. -1.
         -5    1    1    2    0  502 -0.11938795968E+02  0.43295438679E+02 -0.21012028344E+02  0.49759497533E+02  0.41800000000E+01 0. -1.
        -11    1    1    2    0    0  0.42304461937E+02  0.35878454715E+02 -0.59444642431E+02  0.81305575001E+02  0.00000000000E+00 0.  1.
         11    1    1    2    0    0 -0.34168506301E+02 -0.22008735978E+01 -0.85639943722E+02  0.92230855076E+02  0.00000000000E+00 0. -1.
</event>
<event>
 6    1  0.8259171E-006  0.1639365E+03  0.7561462E-02  0.1184323E+00
          2   -1    0    0  501    0  0.00000000000E+00  0.00000000000E+00  0.34282917541E+03  0.34282917541E+03  0.00000000000E+00 0. -1.
         -2   -1    0    0    0  501 -0.00000000000E+00 -0.00000000000E+00 -0.10248367564E+03  0.10248367564E+03  0.00000000000E+00 0.  1.
          5    1    1    2  502    0  0.72631554953E+02 -0.83289298841E+02  0.33759594445E+00  0.11058949519E+03  0.41800000000E+01 0. -1.
         -5    1    1    2    0  502 -0.50101760623E+02 -0.39174595323E+02  0.21212280473E+02  0.67173421672E+02  0.41800000000E+01 0. -1.
        -11    1    1    2    0    0 -0.29454526969E+02 -0.14025155784E+01  0.50353053846E+02  0.58352088570E+02  0.00000000000E+00 0.  1.
         11    1    1    2    0    0  0.69247326388E+01  0.12386640974E+03  0.16844256951E+03  0.20919784561E+03  0.00000000000E+00 0. -1.
</event>
<event>
 6    1  0.8259171E-006  0.9657384E+02  0.7561462E-02  0.1287670E+00
         -2   -1    0    0    0  501 -0.00000000000E+00  0.00000000000E+00  0.72453330160E+02  0.72453330160E+02  0.00000000000E+00 0.  1.
          2   -1    0    0  501    0  0.00000000000E+00 -0.00000000000E+00 -0.38971577915E+03  0.38971577915E+03  0.00000000000E+00 0. -1.
          5    1    1    2  502    0  0.67046407749E+02  0.12449336964E+02 -0.24949072947E+03  0.25867605856E+03  0.41800000000E+01 0. -1.
         -5    1    1    2    0  502 -0.30188222959E+02  0.12120123847E+02  0.41639569154E+02  0.53005210374E+02  0.41800000000E+01 0.  1.
        -11    1    1    2    0    0  0.37065160065E+01 -0.46001807119E+02 -0.89040462428E+02  0.10029012149E+03  0.00000000000E+00 0. -1.
         11    1    1    2    0    0 -0.40564700797E+02  0.21432346308E+02 -0.20370826247E+02  0.50197718883E+02  0.00000000000E+00 0.  1.
</event>
<event>
 6    1  0.8259171E-006  0.1287888E+03  0.7561462E-02  0.1229264E+00
         -1   -1    0    0    0  501 -0.00000000000E+00  0.00000000000E+00  0.26072962546E+02  0.26072962546E+02  0.00000000000E+00 0.  1.
          1   -1    0    0  501    0  0.00000000000E+00 -0.00000000000E+00 -0.83077932723E+03  0.83077932723E+03  0.00000000000E+00 0. -1.
          5    1    1    2  502    0 -0.51999074316E+02  0.22907089886E+02 -0.22547801497E+03  0.23256492885E+03  0.41800000000E+01 0.  1.
         -5    1    1    2    0  502  0.64867075305E+02  0.71202633547E+02 -0.22277213751E+03  0.24273946967E+03  0.41800000000E+01 0.  1.
        -11    1    1    2    0    0 -0.17895302288E+02 -0.11159363087E+02 -0.68104414572E+01  0.22162024757E+02  0.00000000000E+00 0.  1.
         11    1    1    2    0    0  0.50273012998E+01 -0.82950360346E+02 -0.34964577074E+03  0.35938586649E+03  0.00000000000E+00 0. -1.
</event>
<event>
 6    1  0.8259171E-006  0.1108913E+03  0.7561462E-02  0.1258928E+00
          2   -1    0    0  501    0  0.00000000000E+00  0.00000000000E+00  0.78281596319E+03  0.78281596319E+03  0.00000000000E+00 0. -1.
         -2   -1    0    0    0  501 -0.00000000000E+00 -0.00000000000E+00 -0.21674800536E+02  0.21674800536E+02  0.00000000000E+00 0.  1.
          5    1    1    2  502    0 -0.47512653656E+01  0.52900547567E+02  0.22031475449E+03  0.22666518459E+03  0.41800000000E+01 0.  1.
         -5    1    1    2    0  502  0.49387853478E+02 -0.35572556022E+02  0.68643434057E+02  0.91836595387E+02  0.41800000000E+01 0.  1.
        -11    1    1    2    0    0  0.26920327733E+02 -0.23418273368E+02  0.84726146516E+02  0.91932798697E+02  0.00000000000E+00 0.  1.
         11    1    1    2    0    0 -0.71556915846E+02  0.60902818230E+01  0.38745682758E+03  0.39405618505E+03  0.00000000000E+00 0. -1.
</event>
<event>
 6    1  0.8259171E-006  0.1100144E+03  0.7561462E-02  0.1260543E+00
          3   -1    0    0  501    0  0.00000000000E+00  0.00000000000E+00  0.41884521252E+02  0.41884521252E+02  0.00000000000E+00 0. -1.
         -3   -1    0    0    0  501 -0.00000000000E+00 -0.00000000000E+00 -0.73058874318E+03  0.73058874318E+03  0.00000000000E+00 0.  1.
          5    1    1    2  502    0  0.48545407312E+02  0.69440713709E+02 -0.56963291318E+03  0.57591474844E+03  0.41800000000E+01 0.  1.
         -5    1    1    2    0  502 -0.31612156960E+02 -0.11591765459E+02 -0.60777437803E+02  0.69606514350E+02  0.41800000000E+01 0.  1.
        -11    1    1    2    0    0 -0.13519697662E+02  0.19564358570E+02  0.78800100238E+01  0.25052762504E+02  0.00000000000E+00 0. -1.
         11    1    1    2    0    0 -0.34135526906E+01 -0.77413306820E+02 -0.66173880970E+02  0.10189923914E+03  0.00000000000E+00 0.  1.
</event>
<event>
 6    1  0.8259171E-006  0.1575820E+03  0.7561462E-02  0.1191454E+00
         -1   -1    0    0    0  501 -0.00000000000E+00  0.00000000000E+00  0.27449631432E+03  0.27449631432E+03  0.00000000000E+00 0.  1.
          1   -1    0    0  501    0  0.00000000000E+00 -0.00000000000E+00 -0.11700691324E+03  0.11700691324E+03  0.00000000000E+00 0. -1.
          5    1    1    2  502    0  0.69654065360E+02 -0.84753834730E+02  0.14211518595E+03  0.17958034358E+03  0.41800000000E+01 0.  1.
         -5    1    1    2    0  502  0.45115642943E+02  0.17469222622E+02 -0.49462644355E+01  0.48811196554E+02  0.41800000000E+01 0.  1.
        -11    1    1    2    0    0 -0.43485527225E+02 -0.16771756085E+02  0.24824634000E+02  0.52806678872E+02  0.00000000000E+00 0.  1.
         11    1    1    2    0    0 -0.71284181078E+02  0.84056368193E+02 -0.45041544403E+01  0.11030500856E+03  0.00000000000E+00 0. -1.
</event>
<event>
 6    1  0.8259171E-006  0.8313092E+02  0.7561462E-02  0.1320394E+00
         -2   -1    0    0    0  501 -0.00000000000E+00  0.00000000000E+00  0.34127728612E+02  0.34127728612E+02  0.00000000000E+00 0.  1.
          2   -1    0    0  501    0  0.00000000000E+00 -0.00000000000E+00 -0.36864361608E+03  0.36864361608E+03  0.00000000000E+00 0. -1.
          5    1    1    2  502    0  0.43670829177E+02 -0.16522001884E+02 -0.11908453806E+02  0.48367360268E+02  0.41800000000E+01 0.  1.
         -5    1    1    2    0  502 -0.41651330924E+02 -0.11090545020E+02 -0.16169249743E+03  0.16739106810E+03  0.41800000000E+01 0.  1.
        -11    1    1    2    0    0 -0.65060217959E+01 -0.23696671550E+02 -0.82939313837E+01  0.25935494210E+02  0.00000000000E+00 0.  1.
         11    1    1    2    0    0  0.44865235434E+01  0.51309218453E+02 -0.15262100485E+03  0.16107742211E+03  0.00000000000E+00 0. -1.
</event>
<event>
 6    1  0.8259171E-006  0.1439529E+03  0.7561462E-02  0.1208107E+00
          1   -1    0    0  501    0  0.00000000000E+00  0.00000000000E+00  0.42581050488E+02  0.42581050488E+02  0.00000000000E+00 0. -1.
         -1   -1    0    0    0  501 -0.00000000000E+00 -0.00000000000E+00 -0.66902541462E+03  0.66902541462E+03  0.00000000000E+00 0.  1.
          5    1    1    2  502    0 -0.14225894667E+02  0.10392736470E+03 -0.34142167099E+03  0.35719672876E+03  0.41800000000E+01 0. -1.
         -5    1    1    2    0  502 -0.56696366103E+02 -0.34506827430E+01 -0.71271544957E+02  0.91233166454E+02  0.41800000000E+01 0. -1.
        -11    1    1    2    0    0  0.92052679932E+01 -0.34162882615E+02 -0.14553707422E+03  0.14977609782E+03  0.00000000000E+00 0.  1.
         11    1    1    2    0    0  0.61716992777E+02 -0.66313799337E+02 -0.68214073967E+02  0.11340047208E+03  0.00000000000E+00 0. -1.
</event>
<event>
 6    1  0.8259171E-006  0.1210141E+03  0.7561462E-02  0.1241433E+00
          1   -1    0    0  501    0  0.00000000000E+00  0.00000000000E+00  0.33369909171E+02  0.33369909171E+02  0.00000000000E+00 0. -1.
         -1   -1    0    0    0  501 -0.00000000000E+00 -0.00000000000E+00 -0.81591087165E+03  0.81591087165E+03  0.00000000000E+00 0.  1.
          5    1    1    2  502    0  0.79628959515E+02  0.82176216947E+02 -0.59284622805E+03  0.60380280253E+03  0.41800000000E+01 0. -1.
         -5    1    1    2    0  502 -0.13598798655E+02 -0.20704540340E+02 -0.37487953859E+02  0.45126759246E+02  0.41800000000E+01 0. -1.
        -11    1    1    2    0    0 -0.36849129402E+01 -0.34125640288E+02 -0.78919528207E+00  0.34333085175E+02  0.00000000000E+00 0. -1.
         11    1    1    2    0    0 -0.62345247919E+02 -0.27346036319E+02 -0.15141758528E+03  0.16601813387E+03  0.00000000000E+00 0.  1.
</event>
<event>
 6    1  0.8259171E-006  0.1214889E+03  0.7561462E-02  0.1240661E+00
          1   -1    0    0  501    0  0.00000000000E+00  0.00000000000E+00  0.21376772147E+03  0.21376772147E+03  0.00000000000E+00 0. -1.
         -1   -1    0    0    0  501 -0.00000000000E+00 -0.00000000000E+00 -0.85548629329E+02  0.85548629329E+02  0.00000000000E+00 0.  1.
          5    1    1    2  502    0 -0.36665050123E+02  0.19048462891E+02  0.34020465894E+02  0.53684581946E+02  0.41800000000E+01 0. -1.
         -5    1    1    2    0  502  0.25533337645E+02 -0.84779535055E+02 -0.13090893872E+02  0.89601142838E+02  0.41800000000E+01 0. -1.
        -11    1    1    2    0    0  0.20791034302E+02  0.86999920087E+02  0.78978578332E+02  0.11932673229E+03  0.00000000000E+00 0.  1.
         11    1    1    2    0    0 -0.96593218237E+01 -0.21268847923E+02  0.28310941786E+02  0.36703893729E+02  0.00000000000E+00 0. -1.
</event>
<event>
 6    1  0.8259171E-006  0.1326821E+03  0.7561462E-02  0.1223529E+00
         -1   -1    0    0    0  501 -0.00000000000E+00  0.00000000000E+00  0.33520812605E+03  0.33520812605E+03  0.00000000000E+00 0. -1.
          1   -1    0    0  501    0  0.00000000000E+00 -0.00000000000E+00 -0.88215478390E+02  0.88215478390E+02  0.00000000000E+00 0.  1.
          5    1    1    2  502    0  0.67155017132E+02 -0.59853472863E+02  0.20566703490E+03  0.22451867669E+03  0.41800000000E+01 0. -1.
         -5    1    1    2    0  502  0.16607089148E+02  0.50297636778E+02  0.53856641027E+02  0.75654860110E+02  0.41800000000E+01 0. -1.
        -11    1    1    2    0    0 -0.62777160031E+02 -0.35753188095E+02 -0.23064098075E+01  0.72281268712E+02  0.00000000000E+00 0.  1.
         11    1    1    2    0    0 -0.20984946249E+02  0.45309024179E+02 -0.10224618461E+02  0.50968798924E+02  0.00000000000E+00 0. -1.
</event>
<event>
 6    1  0.8259171E-006  0.8993413E+02  0.7561462E-02  0.1303011E+00
         -2   -1    0    0    0  501 -0.00000000000E+00  0.00000000000E+00  0.33255348804E+03  0.33255348804E+03  0.00000000000E+00 0.  1.
          2   -1    0    0  501    0  0.00000000000E+00 -0.00000000000E+00 -0.39319968778E+02  0.39319968778E+02  0.00000000000E+00 0. -1.
          5    1    1    2  502    0 -0.43021172777E+02 -0.52619648465E+02  0.70268038097E+02  0.97850489471E+02  0.41800000000E+01 0. -1.
         -5    1    1    2    0  502  0.30096556557E+02  0.33338116148E+02  0.14873675641E+03  0.15542627774E+03  0.41800000000E+01 0. -1.
        -11    1    1    2    0    0 -0.25204063290E+02  0.36983955223E+01  0.73077746860E+02  0.77390438827E+02  0.00000000000E+00 0.  1.
         11    1    1    2    0    0  0.38128679510E+02  0.15583136795E+02  0.11509778996E+01  0.41206250784E+02  0.00000000000E+00 0. -1.
</event>
<event>
 6    1  0.8259171E-006  0.1096590E+03  0.7561462E-02  0.1261203E+00
         -3   -1    0    0    0  501 -0.00000000000E+00  0.00000000000E+00  0.25654743200E+02  0.25654743200E+02  0.00000000000E+00 0.  1.
          3   -1    0    0  501    0  0.00000000000E+00 -0.00000000000E+00 -0.49287512662E+03  0.49287512662E+03  0.00000000000E+00 0. -1.
          5    1    1    2  502    0  0.25903763971E+02 -0.69998226430E+02 -0.15539778992E+03  0.17244333041E+03  0.41800000000E+01 0. -1.
         -5    1    1    2    0  502 -0.18339949637E+02  0.48835975980E+02 -0.11070050782E+03  0.12244746275E+03  0.41800000000E+01 0. -1.
        -11    1    1    2    0    0 -0.13464420503E+02  0.55642667286E+02 -0.85941173571E+02  0.10326317038E+03  0.00000000000E+00 0.  1.
         11    1    1    2    0    0  0.59006061693E+01 -0.34480416835E+02 -0.11518091210E+03  0.12037590627E+03  0.00000000000E+00 0. -1.
</event>
<event>
 6    1  0.8259171E-006  0.1154079E+03  0.7561462E-02  0.1250871E+00
          1   -1    0    0  501    0  0.00000000000E+00  0.00000000000E+00  0.58359289538E+03  0.58359289538E+03  0.00000000000E+00 0. -1.
         -1   -1    0    0    0  501 -0.00000000000E+00 -0.00000000000E+00 -0.22951171004E+02  0.22951171004E+02  0.00000000000E+00 0.  1.
          5    1    1    2  502    0  0.74641673253E+02  0.24734281629E+02  0.20943994450E+03  0.22375371913E+03  0.41800000000E+01 0.  1.
         -5    1    1    2    0  502 -0.37923397981E+02 -0.35294159649E+02  0.12833038037E+03  0.13845584403E+03  0.41800000000E+01 0.  1.
        -11    1    1    2    0    0 -0.65012662986E+02 -0.90954786399E+01  0.14945796613E+03  0.16323926525E+03  0.00000000000E+00 0.  1.
         11    1    1    2    0    0  0.28294387714E+02  0.19655356660E+02  0.73413433375E+02  0.81095237970E+02  0.00000000000E+00 0. -1.
</event>
<event>
 6    1  0.8259171E-006  0.1313029E+03  0.7561462E-02  0.1225535E+00
          2   -1    0    0  501    0  0.00000000000E+00  0.00000000000E+00  0.43984748716E+03  0.43984748716E+03  0.00000000000E+00 0. -1.
         -2   -1    0    0    0  501 -0.00000000000E+00 -0.00000000000E+00 -0.49584776075E+02  0.49584776075E+02  0.00000000000E+00 0.  1.
          5    1    1    2  502    0  0.43081817788E+02  0.82203206951E+02  0.90721741329E+02  0.12985113402E+03  0.41800000000E+01 0.  1.
         -5    1    1    2    0  502 -0.61848140259E+02  0.16709968914E+02  0.10798047564E+03  0.12562512103E+03  0.41800000000E+01 0.  1.
        -11    1    1    2    0    0 -0.79062851772E+01 -0.40805026958E+02  0.15463149033E+03  0.16012013418E+03  0.00000000000E+00 0. -1.
         11    1    1    2    0    0  0.26672607648E+02 -0.58108148907E+02  0.36929003785E+02  0.73835873995E+02  0.00000000000E+00 0.  1.
</event>
<event>
 6    1  0.8259171E-006  0.1136887E+03  0.7561462E-02  0.1253888E+00
          2   -1    0    0  501    0  0.00000000000E+00  0.00000000000E+00  0.91226689938E+02  0.91226689938E+02  0.00000000000E+00 0. -1.
         -2   -1    0    0    0  501 -0.00000000000E+00 -0.00000000000E+00 -0.31899993452E+03  0.31899993452E+03  0.00000000000E+00 0.  1.
          5    1    1    2  502    0 -0.27056182652E+02  0.18774268040E+01 -0.14577980223E+03  0.14834009872E+03  0.41800000000E+01 0.  1.
         -5    1    1    2    0  502  0.63778121542E+02 -0.71884335903E+02 -0.10157814116E+03  0.13989495236E+03  0.41800000000E+01 0.  1.
        -11    1    1    2    0    0 -0.50680590874E+02  0.24780381476E+02  0.41300038421E+02  0.69916255413E+02  0.00000000000E+00 0. -1.
         11    1    1    2    0    0  0.13958651985E+02  0.45226527624E+02 -0.21715339621E+02  0.52075317963E+02  0.00000000000E+00 0.  1.
</event>
<event>
 6    1  0.8259171E-006  0.1595806E+03  0.7561462E-02  0.1189171E+00
         -3   -1    0    0    0  501 -0.00000000000E+00  0.00000000000E+00  0.31332041335E+03  0.31332041335E+03  0.00000000000E+00 0.  1.
          3   -1    0    0  501    0  0.00000000000E+00 -0.00000000000E+00 -0.96435822891E+02  0.96435822891E+02  0.00000000000E+00 0. -1.
          5    1    1    2  502    0  0.41557771233E+02 -0.99694896148E+01  0.10676143563E+02  0.44248067917E+02  0.41800000000E+01 0.  1.
         -5    1    1    2    0  502 -0.36241640747E+02 -0.12003641342E+03  0.16851429236E+03  0.21008744893E+03  0.41800000000E+01 0.  1.
        -11    1    1    2    0    0  0.34931169293E+02  0.47476471385E+02  0.13569555727E+02  0.60484169548E+02  0.00000000000E+00 0.  1.
         11    1    1    2    0    0 -0.40247299779E+02  0.82529431648E+02  0.24124598807E+02  0.94936549839E+02  0.00000000000E+00 0. -1.
</event>
<event>
 6    1  0.8259171E-006  0.9617505E+02  0.7561462E-02  0.1288551E+00
          1   -1    0    0  501    0  0.00000000000E+00  0.00000000000E+00  0.30426659923E+02  0.30426659923E+02  0.00000000000E+00 0. -1.
         -1   -1    0    0    0  501 -0.00000000000E+00 -0.00000000000E+00 -0.38901385618E+03  0.38901385618E+03  0.00000000000E+00 0.  1.
          5    1    1    2  502    0 -0.47638141179E+02  0.41376772192E+02 -0.11049328306E+03  0.12730933891E+03  0.41800000000E+01 0. -1.
         -5    1    1    2    0  502  0.48665678216E+02 -0.37845688877E+02 -0.97607769588E+02  0.11552226403E+03  0.41800000000E+01 0. -1.
        -11    1    1    2    0    0 -0.33476405293E+02  0.48057747704E+01 -0.13594160639E+03  0.14008527950E+03  0.00000000000E+00 0. -1.
         11    1    1    2    0    0  0.32448868256E+02 -0.83368580850E+01 -0.14544537222E+02  0.36523633675E+02  0.00000000000E+00 0.  1.
</event>
<event>
 6    1  0.8259171E-006  0.1242654E+03  0.7561462E-02  0.1236222E+00
          1   -1    0    0  501    0  0.00000000000E+00  0.00000000000E+00  0.20182939035E+02  0.20182939035E+02  0.00000000000E+00 0. -1.
         -1   -1    0    0    0  501 -0.00000000000E+00 -0.00000000000E+00 -0.10341720399E+04  0.10341720399E+04  0.00000000000E+00 0.  1.
          5    1    1    2  502    0 -0.92242724609E+02 -0.18028661193E+02 -0.23225788596E+03  0.25058920739E+03  0.41800000000E+01 0. -1.
         -5    1    1    2    0  502  0.30305865360E+02 -0.26310084140E+02 -0.43564319456E+03  0.43750786435E+03  0.41800000000E+01 0.  1.
        -11    1    1    2    0    0  0.83034499838E+02  0.28762120190E+02 -0.30588896488E+03  0.31826097241E+03  0.00000000000E+00 0.  1.
         11    1    1    2    0    0 -0.21097640589E+02  0.15576625143E+02 -0.40199055469E+02  0.47996934796E+02  0.00000000000E+00 0. -1.
</event>
<event>
 6    1  0.8259171E-006  0.1033534E+03  0.7561462E-02  0.1273398E+00
         -1   -1    0    0    0  501 -0.00000000000E+00  0.00000000000E+00  0.45317659356E+02  0.45317659356E+02  0.00000000000E+00 0.  1.
          1   -1    0    0  501    0  0.00000000000E+00 -0.00000000000E+00 -0.42313988694E+03  0.42313988694E+03  0.00000000000E+00 0. -1.
          5    1    1    2  502    0  0.15873119093E+02  0.85441179739E+02 -0.35985785363E+02  0.94152006102E+02  0.41800000000E+01 0. -1.
         -5    1    1    2    0  502 -0.46575753491E+01 -0.49822261267E+01 -0.12519656797E+03  0.12545185776E+03  0.41800000000E+01 0. -1.
        -11    1    1    2    0    0  0.13602874272E+02 -0.85333945823E+02 -0.11345821246E+03  0.14261727270E+03  0.00000000000E+00 0.  1.
         11    1    1    2    0    0 -0.24818418016E+02  0.48749922106E+01 -0.10318166180E+03  0.10623640973E+03  0.00000000000E+00 0. -1.
</event>
<event>
 6    1  0.8259171E-006  0.6702204E+02  0.7561462E-02  0.1370523E+00
          2   -1    0    0  501    0  0.00000000000E+00  0.00000000000E+00  0.40282377919E+03  0.40282377919E+03  0.00000000000E+00 0. -1.
         -2   -1    0    0    0  501 -0.00000000000E+00 -0.00000000000E+00 -0.31094731608E+02  0.31094731608E+02  0.00000000000E+00 0.  1.
          5    1    1    2  502    0  0.20641723685E+02 -0.15605224053E+01  0.17222160779E+03  0.17351158629E+03  0.41800000000E+01 0.  1.
         -5    1    1    2    0  502 -0.21800322367E+02 -0.84757904106E+01 -0.14657136670E+02  0.27917684964E+02  0.41800000000E+01 0.  1.
        -11    1    1    2    0    0 -0.18270620004E+02  0.45331827707E+02  0.13667982964E+03  0.14515566123E+03  0.00000000000E+00 0. -1.
         11    1    1    2    0    0  0.19429218686E+02 -0.35295514891E+02  0.77484746824E+02  0.87333578311E+02  0.00000000000E+00 0.  1.
</event>
<event>
 6    1  0.8259171E-006  0.1160487E+03  0.7561462E-02  0.1249762E+00
          2   -1    0    0  501    0  0.00000000000E+00  0.00000000000E+00  0.88671186434E+02  0.88671186434E+02  0.00000000000E+00 0.  1.
         -2   -1    0    0    0  501 -0.00000000000E+00 -0.00000000000E+00 -0.18605680621E+03  0.18605680621E+03  0.00000000000E+00 0. -1.
          5    1    1    2  502    0 -0.14793675129E+02 -0.90442982387E+02 -0.81660996673E+02  0.12282009878E+03  0.41800000000E+01 0.  1.
         -5    1    1    2    0  502 -0.15936117143E+02  0.42097385399E+02 -0.28596139759E+02  0.53491693712E+02  0.41800000000E+01 0.  1.
        -11    1    1    2    0    0  0.54984720143E+02  0.44192437566E+02  0.18999699688E+02  0.73056687411E+02  0.00000000000E+00 0.  1.
         11    1    1    2    0    0 -0.24254927871E+02  0.41531594224E+01 -0.61281830338E+01  0.25359512742E+02  0.00000000000E+00 0. -1.
</event>
<event>
 6    1  0.8259171E-006  0.8656382E+02  0.7561462E-02  0.1311393E+00
          3   -1    0    0  501    0  0.00000000000E+00  0.00000000000E+00  0.17513050177E+03  0.17513050177E+03  0.00000000000E+00 0. -1.
         -3   -1    0    0    0  501 -0.00000000000E+00 -0.00000000000E+00 -0.97720339939E+02  0.97720339939E+02  0.00000000000E+00 0.  1.
          5    1    1    2  502    0  0.78978677929E+01  0.77912133961E+01 -0.55869001411E+02  0.57113019886E+02  0.41800000000E+01 0.  1.
         -5    1    1    2    0  502 -0.63389450333E+02 -0.11199592970E+01  0.48742892771E+02  0.80080076911E+02  0.41800000000E+01 0.  1.
        -11    1    1    2    0    0 -0.54408261501E+01 -0.31479387432E+02  0.48328502723E+01  0.32309609469E+02  0.00000000000E+00 0.  1.
         11    1    1    2    0    0  0.60932408690E+02  0.24808133332E+02  0.79703420194E+02  0.10334813544E+03  0.00000000000E+00 0. -1.
</event>
<event>
 6    1  0.8259171E-006  0.1022397E+03  0.7561462E-02  0.1275655E+00
         -2   -1    0    0    0  501 -0.00000000000E+00  0.00000000000E+00  0.32399382381E+02  0.32399382381E+02  0.00000000000E+00 0. -1.
          2   -1    0    0  501    0  0.00000000000E+00 -0.00000000000E+00 -0.45282155205E+03  0.45282155205E+03  0.00000000000E+00 0.  1.
          5    1    1    2  502    0  0.24799060674E+02  0.57427844641E+02 -0.58679936922E+02  0.85870589538E+02  0.41800000000E+01 0. -1.
         -5    1    1    2    0  502  0.27910011145E+02 -0.48729482805E+02 -0.18286824292E+03  0.19134209648E+03  0.41800000000E+01 0. -1.
        -11    1    1    2    0    0 -0.11714595223E+02 -0.34905678696E+02 -0.14271448583E+03  0.14738745745E+03  0.00000000000E+00 0.  1.
         11    1    1    2    0    0 -0.40994476597E+02  0.26207316859E+02 -0.36159503998E+02  0.60620790970E+02  0.00000000000E+00 0. -1.
</event>
<event>
 6    1  0.8259171E-006  0.1083474E+03  0.7561462E-02  0.1263661E+00
          2   -1    0    0  501    0  0.00000000000E+00  0.00000000000E+00  0.85324212100E+03  0.85324212100E+03  0.00000000000E+00 0. -1.
         -2   -1    0    0    0  501 -0.00000000000E+00 -0.00000000000E+00 -0.27628398788E+02  0.27628398788E+02  0.00000000000E+00 0.  1.
          5    1    1    2  502    0  0.15077456102E+02 -0.85363561790E+02  0.24452728950E+03  0.25947126059E+03  0.41800000000E+01 0. -1.
         -5    1    1    2    0  502  0.92679622257E+00  0.82432800626E+01 -0.12542551156E+02  0.15607645784E+02  0.41800000000E+01 0. -1.
        -11    1    1    2    0    0 -0.54373510736E+02  0.44754470681E+02  0.36186068902E+03  0.36864969764E+03  0.00000000000E+00 0. -1.
         11    1    1    2    0    0  0.38369258411E+02  0.32365811046E+02  0.23176829486E+03  0.23714191577E+03  0.00000000000E+00 0.  1.
</event>
<event>
 6    1  0.8259171E-006  0.1227072E+03  0.7561462E-02  0.1238697E+00
         -1   -1    0    0    0  501 -0.00000000000E+00  0.00000000000E+00  0.63353287829E+02  0.63353287829E+02  0.00000000000E+00 0.  1.
          1   -1    0    0  501    0  0.00000000000E+00 -0.00000000000E+00 -0.33402017954E+03  0.33402017954E+03  0.00000000000E+00 0. -1.
          5    1    1    2  502    0  0.10225932963E+02  0.82720007923E+02 -0.19459574445E+03  0.21173602805E+03  0.41800000000E+01 0.  1.
         -5    1    1    2    0  502 -0.37953910927E+02  0.22719166326E+01 -0.26300869522E+01  0.38341240424E+02  0.41800000000E+01 0.  1.
        -11    1    1    2    0    0  0.55551999906E+02 -0.32663365980E+02 -0.56376056822E+02  0.85622309905E+02  0.00000000000E+00 0. -1.
         11    1    1    2    0    0 -0.27824021942E+02 -0.52328558576E+02 -0.17065003489E+02  0.61673888994E+02  0.00000000000E+00 0.  1.
</event>
<event>
 6    1  0.8259171E-006  0.8330388E+02  0.7561462E-02  0.1319929E+00
         -2   -1    0    0    0  501 -0.00000000000E+00  0.00000000000E+00  0.50440847616E+03  0.50440847616E+03  0.00000000000E+00 0.  1.
          2   -1    0    0  501    0  0.00000000000E+00 -0.00000000000E+00 -0.43127459889E+02  0.43127459889E+02  0.00000000000E+00 0. -1.
          5    1    1    2  502    0  0.23654832683E+02 -0.60329098882E+02  0.10810712549E+03  0.12611016716E+03  0.41800000000E+01 0. -1.
         -5    1    1    2    0  502  0.22391843883E+02  0.40590119453E+02  0.30203948533E+03  0.30560477019E+03  0.41800000000E+01 0. -1.
        -11    1    1    2    0    0 -0.22536960832E+02  0.22018227897E+02 -0.22352816520E+02  0.38631145072E+02  0.00000000000E+00 0. -1.
         11    1    1    2    0    0 -0.23509715735E+02 -0.22792484678E+01  0.73487221974E+02  0.77189853614E+02  0.00000000000E+00 0.  1.
</event>
<event>
 6    1  0.8259171E-006  0.4714805E+02  0.7561462E-02  0.1461361E+00
          2   -1    0    0  501    0  0.00000000000E+00  0.00000000000E+00  0.29397866552E+03  0.29397866552E+03  0.00000000000E+00 0.  1.
         -2   -1    0    0    0  501 -0.00000000000E+00 -0.00000000000E+00 -0.33423132844E+02  0.33423132844E+02  0.00000000000E+00 0. -1.
          5    1    1    2  502    0  0.94261572484E+01  0.16236412169E+01 -0.25182172446E+02  0.27259913066E+02  0.41800000000E+01 0. -1.
         -5    1    1    2    0  502  0.20254864741E+01  0.27234022860E+02  0.14873273419E+03  0.15127687601E+03  0.41800000000E+01 0. -1.
        -11    1    1    2    0    0 -0.20555650984E+02 -0.38078512981E+02  0.11944388348E+03  0.12704073850E+03  0.00000000000E+00 0.  1.
         11    1    1    2    0    0  0.91040072617E+01  0.92208489039E+01  0.17561087443E+02  0.21824270776E+02  0.00000000000E+00 0. -1.
</event>
<event>
 6    1  0.8259171E-006  0.1316490E+03  0.7561462E-02  0.1225029E+00
         -2   -1    0    0    0  501 -0.00000000000E+00  0.00000000000E+00  0.47420359760E+02  0.47420359760E+02  0.00000000000E+00 0.  1.
          2   -1    0    0  501    0  0.00000000000E+00 -0.00000000000E+00 -0.47683418975E+03  0.47683418975E+03  0.00000000000E+00 0. -1.
          5    1    1    2  502    0  0.76958263471E+02  0.22411916452E+02 -0.60770318726E+02  0.10067458643E+03  0.41800000000E+01 0.  1.
         -5    1    1    2    0  502 -0.46201375306E+02  0.47075367693E+02 -0.49106321789E+02  0.82338086954E+02  0.41800000000E+01 0.  1.
        -11    1    1    2    0    0  0.20074259996E+02 -0.62485516122E+02 -0.21494260199E+03  0.22473926624E+03  0.00000000000E+00 0. -1.
         11    1    1    2    0    0 -0.50831148160E+02 -0.70017680229E+01 -0.10459458749E+03  0.11650260989E+03  0.00000000000E+00 0.  1.
</event>
<event>
 6    1  0.8259171E-006  0.7965748E+02  0.7561462E-02  0.1330026E+00
          1   -1    0    0  501    0  0.00000000000E+00  0.00000000000E+00  0.32990336820E+03  0.32990336820E+03  0.00000000000E+00 0. -1.
         -1   -1    0    0    0  501 -0.00000000000E+00 -0.00000000000E+00 -0.34943979761E+02  0.34943979761E+02  0.00000000000E+00 0.  1.
          5    1    1    2  502    0  0.89564763606E+01  0.58145961073E+02  0.12289319120E+03  0.13631353601E+03  0.41800000000E+01 0. -1.
         -5    1    1    2    0  502 -0.14396757779E+02 -0.46829787254E+02  0.25345441563E+02  0.55318707657E+02  0.41800000000E+01 0.  1.
        -11    1    1    2    0    0 -0.21363121274E+02 -0.11701600861E+02  0.29899866970E+00  0.24359799127E+02  0.00000000000E+00 0.  1.
         11    1    1    2    0    0  0.26803402692E+02  0.38542704275E+00  0.14642175700E+03  0.14885530516E+03  0.00000000000E+00 0. -1.
</event>
<event>
 6    1  0.8259171E-006  0.1433184E+03  0.7561462E-02  0.1208932E+00
          2   -1    0    0  501    0  0.00000000000E+00  0.00000000000E+00  0.58276284713E+02  0.58276284713E+02  0.00000000000E+00 0.  1.
         -2   -1    0    0    0  501 -0.00000000000E+00 -0.00000000000E+00 -0.42430264198E+03  0.42430264198E+03  0.00000000000E+00 0. -1.
          5    1    1    2  502    0  0.94542949220E+02 -0.48002594071E+02 -0.13434724223E+03  0.17119950987E+03  0.41800000000E+01 0.  1.
         -5    1    1    2    0  502 -0.37571623302E+02 -0.48157887364E+02 -0.92852457905E+02  0.11121987382E+03  0.41800000000E+01 0.  1.
        -11    1    1    2    0    0 -0.62671540481E+02  0.76844508868E+02 -0.53870110402E+02  0.11284852380E+03  0.00000000000E+00 0.  1.
         11    1    1    2    0    0  0.57002145630E+01  0.19315972568E+02 -0.84956546730E+02  0.87311019205E+02  0.00000000000E+00 0. -1.
</event>
<event>
 6    1  0.2313960E-005  0.2932436E+03  0.7561462E-02  0.1088668E+00
         -2   -1    0    0    0  501 -0.00000000000E+00  0.00000000000E+00  0.75758789410E+02  0.75758789410E+02  0.00000000000E+00 0.  1.
          2   -1    0    0  501    0  0.00000000000E+00 -0.00000000000E+00 -0.12995888104E+04  0.12995888104E+04  0.00000000000E+00 0. -1.
          5    1    1    2  502    0 -0.80969962109E+02 -0.11661488055E+03 -0.12705888866E+03  0.19056914419E+03  0.41800000000E+01 0. -1.
         -5    1    1    2    0  502 -0.62442833591E+02 -0.13271329114E+03 -0.35991163289E+03  0.38867181657E+03  0.41800000000E+01 0. -1.
        -11    1    1    2    0    0  0.12955595516E+03  0.15333415744E+03 -0.43580710743E+03  0.47981657354E+03  0.00000000000E+00 0.  1.
         11    1    1    2    0    0  0.13856840536E+02  0.95994014249E+02 -0.30105239202E+03  0.31629006552E+03  0.00000000000E+00 0. -1.
</event>
<event>
 6    1  0.8259171E-006  0.1023311E+03  0.7561462E-02  0.1275469E+00
         -1   -1    0    0    0  501 -0.00000000000E+00  0.00000000000E+00  0.14864189557E+02  0.14864189557E+02  0.00000000000E+00 0.  1.
          1   -1    0    0  501    0  0.00000000000E+00 -0.00000000000E+00 -0.73218674029E+03  0.73218674029E+03  0.00000000000E+00 0. -1.
          5    1    1    2  502    0 -0.48341953516E+02 -0.31061651298E+02 -0.17799637980E+03  0.18708809228E+03  0.41800000000E+01 0. -1.
         -5    1    1    2    0  502  0.49307888606E+02  0.47431453292E+02 -0.21635710124E+03  0.22695567474E+03  0.41800000000E+01 0. -1.
        -11    1    1    2    0    0 -0.27546716449E+02 -0.36093653560E+02 -0.14351679045E+03  0.15052787966E+03  0.00000000000E+00 0.  1.
         11    1    1    2    0    0  0.26580781359E+02  0.19723851566E+02 -0.17945227925E+03  0.18247928317E+03  0.00000000000E+00 0. -1.
</event>
<event>
 6    1  0.8259171E-006  0.1319734E+03  0.7561462E-02  0.1224557E+00
          2   -1    0    0  501    0  0.00000000000E+00  0.00000000000E+00  0.22560168071E+03  0.22560168071E+03  0.00000000000E+00 0. -1.
         -2   -1    0    0    0  501 -0.00000000000E+00 -0.00000000000E+00 -0.15031485882E+03  0.15031485882E+03  0.00000000000E+00 0.  1.
          5    1    1    2  502    0  0.60618386713E+02  0.30617029773E+02 -0.40202457141E+02  0.79029749336E+02  0.41800000000E+01 0.  1.
         -5    1    1    2    0  502 -0.33546926904E+01 -0.76701057999E+02 -0.50919147088E+02  0.92220053141E+02  0.41800000000E+01 0.  1.
        -11    1    1    2    0    0 -0.27862643464E+02 -0.27885655052E+02  0.50655462841E+02  0.64186545118E+02  0.00000000000E+00 0.  1.
         11    1    1    2    0    0 -0.29401050559E+02  0.73969683277E+02  0.11575296328E+03  0.14048019194E+03  0.00000000000E+00 0. -1.
</event>
<event>
 6    1  0.8259171E-006  0.1088774E+03  0.7561462E-02  0.1262663E+00
          1   -1    0    0  501    0  0.00000000000E+00  0.00000000000E+00  0.46156026694E+02  0.46156026694E+02  0.00000000000E+00 0. -1.
         -1   -1    0    0    0  501 -0.00000000000E+00 -0.00000000000E+00 -0.41970711709E+03  0.41970711709E+03  0.00000000000E+00 0.  1.
          5    1    1    2  502    0  0.24400531914E+02  0.52661066971E+02 -0.23030499195E+03  0.23754249230E+03  0.41800000000E+01 0.  1.
         -5    1    1    2    0  502 -0.53849704079E+02 -0.30997275481E+02 -0.10332943582E+03  0.12064437999E+03  0.41800000000E+01 0.  1.
        -11    1    1    2    0    0 -0.32007875186E+02  0.35030800737E+00 -0.25245420619E+02  0.40767119740E+02  0.00000000000E+00 0. -1.
         11    1    1    2    0    0  0.61457047352E+02 -0.22014099497E+02 -0.14671242008E+02  0.66909151750E+02  0.00000000000E+00 0.  1.
</event>
<event>
 6    1  0.8259171E-006  0.1202875E+03  0.7561462E-02  0.1242623E+00
         -1   -1    0    0    0  501 -0.00000000000E+00  0.00000000000E+00  0.20823768074E+03  0.20823768074E+03  0.00000000000E+00 0.  1.
          1   -1    0    0  501    0  0.00000000000E+00 -0.00000000000E+00 -0.83791122224E+02  0.83791122224E+02  0.00000000000E+00 0. -1.
          5    1    1    2  502    0 -0.42517004692E+02 -0.79495945006E+01 -0.63805521607E+01  0.43921242999E+02  0.41800000000E+01 0. -1.
         -5    1    1    2    0  502  0.28734755695E+02  0.82131341044E+02  0.86167775199E+02  0.12253000143E+03  0.41800000000E+01 0. -1.
        -11    1    1    2    0    0  0.27681289325E+02 -0.86878113987E+02  0.52465377061E+02  0.10519827118E+03  0.00000000000E+00 0. -1.
         11    1    1    2    0    0 -0.13899040328E+02  0.12696367444E+02 -0.78060415809E+01  0.20379287364E+02  0.00000000000E+00 0.  1.
</event>
<event>
 6    1  0.8259171E-006  0.1348591E+03  0.7561462E-02  0.1220419E+00
          2   -1    0    0  501    0  0.00000000000E+00  0.00000000000E+00  0.58729082370E+02  0.58729082370E+02  0.00000000000E+00 0.  1.
         -2   -1    0    0    0  501 -0.00000000000E+00 -0.00000000000E+00 -0.38499783752E+03  0.38499783752E+03  0.00000000000E+00 0. -1.
          5    1    1    2  502    0  0.14699722016E+02  0.11338306750E+03 -0.15672293156E+03  0.19403956168E+03  0.41800000000E+01 0.  1.
         -5    1    1    2    0  502 -0.40320105728E+02 -0.18205845096E+02 -0.73741216339E+02  0.86095314093E+02  0.41800000000E+01 0.  1.
        -11    1    1    2    0    0  0.33555722923E+02 -0.29383669742E+02  0.29081643860E+01  0.44697248332E+02  0.00000000000E+00 0.  1.
         11    1    1    2    0    0 -0.79353392106E+01 -0.65793552658E+02 -0.98712771641E+02  0.11889479579E+03  0.00000000000E+00 0. -1.
</event>
<event>
 6    1  0.8259171E-006  0.1103245E+03  0.7561462E-02  0.1259970E+00
          1   -1    0    0  501    0  0.00000000000E+00  0.00000000000E+00  0.66008700170E+03  0.66008700170E+03  0.00000000000E+00 0. -1.
         -1   -1    0    0    0  501 -0.00000000000E+00 -0.00000000000E+00 -0.27107117336E+02  0.27107117336E+02  0.00000000000E+00 0.  1.
          5    1    1    2  502    0  0.68385081471E+02 -0.71266859469E+02  0.14802476101E+03  0.17800080589E+03  0.41800000000E+01 0. -1.
         -5    1    1    2    0  502 -0.40315610690E+02  0.11179997042E+01  0.12874282128E+03  0.13497697885E+03  0.41800000000E+01 0. -1.
        -11    1    1    2    0    0 -0.19422447946E+02  0.12833093362E+02  0.14074478403E+02  0.27203137904E+02  0.00000000000E+00 0.  1.
         11    1    1    2    0    0 -0.86470228346E+01  0.57315766402E+02  0.34213782367E+03  0.34701319639E+03  0.00000000000E+00 0. -1.
</event>
<event>
 6    1  0.8259171E-006  0.7899300E+02  0.7561462E-02  0.1331934E+00
         -1   -1    0    0    0  501 -0.00000000000E+00  0.00000000000E+00  0.34384649407E+03  0.34384649407E+03  0.00000000000E+00 0.  1.
          1   -1    0    0  501    0  0.00000000000E+00 -0.00000000000E+00 -0.41363969229E+02  0.41363969229E+02  0.00000000000E+00 0. -1.
          5    1    1    2  502    0 -0.29585545830E+02 -0.43933146533E+02  0.20507837031E+03  0.21184908839E+03  0.41800000000E+01 0. -1.
         -5    1    1    2    0  502  0.35353580356E+02  0.35789574751E+02  0.43620847890E+02  0.66715965671E+02  0.41800000000E+01 0. -1.
        -11    1    1    2    0    0 -0.16982306234E+02  0.27315425026E+02 -0.14175339546E+02  0.35149273401E+02  0.00000000000E+00 0. -1.
         11    1    1    2    0    0  0.11214271709E+02 -0.19171853243E+02  0.67958646197E+02  0.71496135837E+02  0.00000000000E+00 0.  1.
</event>
<event>
 6    1  0.8259171E-006  0.2656451E+03  0.7561462E-02  0.1103798E+00
          2   -1    0    0  501    0  0.00000000000E+00  0.00000000000E+00  0.76760344063E+03  0.76760344063E+03  0.00000000000E+00 0. -1.
         -2   -1    0    0    0  501 -0.00000000000E+00 -0.00000000000E+00 -0.98454968004E+02  0.98454968004E+02  0.00000000000E+00 0.  1.
          5    1    1    2  502    0  0.33078551359E+02 -0.14395308873E+02  0.12464730013E+03  0.12983003238E+03  0.41800000000E+01 0.  1.
         -5    1    1    2    0  502  0.58890916263E+02 -0.22025155797E+03  0.24398880519E+03  0.33395643169E+03  0.41800000000E+01 0.  1.
        -11    1    1    2    0    0 -0.59549839300E+02  0.45240240442E+02  0.73641697572E+02  0.10495695469E+03  0.00000000000E+00 0.  1.
         11    1    1    2    0    0 -0.32419628322E+02  0.18940662640E+03  0.22687066973E+03  0.29731498988E+03  0.00000000000E+00 0. -1.
</event>
<event>
 6    1  0.8259171E-006  0.9940789E+02  0.7561462E-02  0.1281546E+00
          1   -1    0    0  501    0  0.00000000000E+00  0.00000000000E+00  0.26586345789E+03  0.26586345789E+03  0.00000000000E+00 0. -1.
         -1   -1    0    0    0  501 -0.00000000000E+00 -0.00000000000E+00 -0.63753746845E+02  0.63753746845E+02  0.00000000000E+00 0.  1.
          5    1    1    2  502    0  0.99859025943E+01  0.44937823103E+02  0.77388765903E+01  0.46866713206E+02  0.41800000000E+01 0.  1.
         -5    1    1    2    0  502 -0.75284614893E+02 -0.42425661216E+02  0.89755482328E+02  0.12466446558E+03  0.41800000000E+01 0.  1.
        -11    1    1    2    0    0  0.30229122717E+02 -0.60476060329E+01 -0.14353302104E+02  0.34005744813E+02  0.00000000000E+00 0.  1.
         11    1    1    2    0    0  0.35069589582E+02  0.35354441461E+01  0.11896865423E+03  0.12408028114E+03  0.00000000000E+00 0. -1.
</event>
<event>
 6    1  0.8259171E-006  0.1944393E+03  0.7561462E-02  0.1154517E+00
          2   -1    0    0  501    0  0.00000000000E+00  0.00000000000E+00  0.71835492911E+03  0.71835492911E+03  0.00000000000E+00 0. -1.
         -2   -1    0    0    0  501 -0.00000000000E+00 -0.00000000000E+00 -0.61132468964E+02  0.61132468964E+02  0.00000000000E+00 0.  1.
          5    1    1    2  502    0  0.79153147557E+02  0.16539357751E+03  0.22923123665E+03  0.29357228838E+03  0.41800000000E+01 0.  1.
         -5    1    1    2    0  502 -0.30743566355E+02  0.20978906682E+01  0.35167584277E+02  0.46944641881E+02  0.41800000000E+01 0.  1.
        -11    1    1    2    0    0 -0.28874998583E+02 -0.94292077018E+02  0.11742356533E+03  0.15333967206E+03  0.00000000000E+00 0.  1.
         11    1    1    2    0    0 -0.19534582619E+02 -0.73199391163E+02  0.27540007389E+03  0.28563079576E+03  0.00000000000E+00 0. -1.
</event>
<event>
 6    1  0.8259171E-006  0.9652271E+02  0.7561462E-02  0.1287783E+00
          3   -1    0    0  501    0  0.00000000000E+00  0.00000000000E+00  0.90006952919E+02  0.90006952919E+02  0.00000000000E+00 0. -1.
         -3   -1    0    0    0  501 -0.00000000000E+00 -0.00000000000E+00 -0.13157039985E+03  0.13157039985E+03  0.00000000000E+00 0.  1.
          5    1    1    2  502    0  0.54943411294E+02  0.21457735578E+02 -0.15996414952E+01  0.59154409080E+02  0.41800000000E+01 0. -1.
         -5    1    1    2    0  502 -0.63048394606E+02 -0.12297699397E+02 -0.26546435971E+02  0.69631308587E+02  0.41800000000E+01 0. -1.
        -11    1    1    2    0    0 -0.14131561481E+02  0.25036690511E+02 -0.36075800496E+02  0.46130253447E+02  0.00000000000E+00 0.  1.
         11    1    1    2    0    0  0.22236544793E+02 -0.34196726692E+02  0.22658431034E+02  0.46661381652E+02  0.00000000000E+00 0. -1.
</event>
<event>
 6    1  0.8259171E-006  0.1277281E+03  0.7561462E-02  0.1230866E+00
          3   -1    0    0  501    0  0.00000000000E+00  0.00000000000E+00  0.58457947557E+02  0.58457947557E+02  0.00000000000E+00 0. -1.
         -3   -1    0    0    0  501 -0.00000000000E+00 -0.00000000000E+00 -0.28124547927E+03  0.28124547927E+03  0.00000000000E+00 0.  1.
          5    1    1    2  502    0 -0.36212850309E+02 -0.72450332161E+02 -0.75207985195E+02  0.11060802229E+03  0.41800000000E+01 0. -1.
         -5    1    1    2    0  502 -0.23958194275E+02  0.53132137001E+02 -0.39998652021E+02  0.70812312620E+02  0.41800000000E+01 0. -1.
        -11    1    1    2    0    0 -0.13909660130E+02  0.37195298608E+02 -0.41143923296E+02  0.57182089046E+02  0.00000000000E+00 0. -1.
         11    1    1    2    0    0  0.74080704714E+02 -0.17877103448E+02 -0.66436971197E+02  0.10110100287E+03  0.00000000000E+00 0.  1.
</event>
<event>
 6    1  0.8259171E-006  0.2097964E+03  0.7561462E-02  0.1141727E+00
          2   -1    0    0  501    0  0.00000000000E+00  0.00000000000E+00  0.85961175627E+03  0.85961175627E+03  0.00000000000E+00 0. -1.
         -2   -1    0    0    0  501 -0.00000000000E+00 -0.00000000000E+00 -0.69121743180E+02  0.69121743180E+02  0.00000000000E+00 0.  1.
          5    1    1    2  502    0  0.43771922785E+02 -0.11906661373E+02  0.92041852326E+01  0.46475146424E+02  0.41800000000E+01 0.  1.
         -5    1    1    2    0  502  0.84263746393E+02  0.14515315512E+03  0.17934202337E+03  0.24566410227E+03  0.41800000000E+01 0.  1.
        -11    1    1    2    0    0 -0.77402398142E+02 -0.13485397071E+03  0.47965796388E+03  0.50423058909E+03  0.00000000000E+00 0. -1.
         11    1    1    2    0    0 -0.50633271036E+02  0.16074769652E+01  0.12228584060E+03  0.13236366167E+03  0.00000000000E+00 0.  1.
</event>
<event>
 6    1  0.8259171E-006  0.1828882E+03  0.7561462E-02  0.1165037E+00
          1   -1    0    0  501    0  0.00000000000E+00  0.00000000000E+00  0.12423144297E+04  0.12423144297E+04  0.00000000000E+00 0. -1.
         -1   -1    0    0    0  501 -0.00000000000E+00 -0.00000000000E+00 -0.37944629174E+02  0.37944629174E+02  0.00000000000E+00 0.  1.
          5    1    1    2  502    0 -0.41642521827E+01 -0.82565303270E+02  0.64137245895E+02  0.10471594440E+03  0.41800000000E+01 0.  1.
         -5    1    1    2    0  502  0.37893447120E+02 -0.84369938808E+02  0.32697409812E+03  0.33982897633E+03  0.41800000000E+01 0.  1.
        -11    1    1    2    0    0  0.13003978395E+02  0.13053398476E+03  0.50117686715E+03  0.51806030228E+03  0.00000000000E+00 0. -1.
         11    1    1    2    0    0 -0.46733173333E+02  0.36401257317E+02  0.31208158934E+03  0.31765383584E+03  0.00000000000E+00 0.  1.
</event>
<event>
 6    1  0.8259171E-006  0.1138340E+03  0.7561462E-02  0.1253630E+00
         -1   -1    0    0    0  501 -0.00000000000E+00  0.00000000000E+00  0.37033135025E+03  0.37033135025E+03  0.00000000000E+00 0.  1.
          1   -1    0    0  501    0  0.00000000000E+00 -0.00000000000E+00 -0.32330069487E+03  0.32330069487E+03  0.00000000000E+00 0. -1.
          5    1    1    2  502    0 -0.26824668399E+02  0.18184961296E+02  0.56400764550E+02  0.65182622637E+02  0.41800000000E+01 0. -1.
         -5    1    1    2    0  502  0.98651537716E+02  0.26240302284E+01  0.29006340164E+03  0.30642007245E+03  0.41800000000E+01 0.  1.
        -11    1    1    2    0    0 -0.20503805118E+02 -0.37084301774E+02 -0.44406448907E+02  0.61380649776E+02  0.00000000000E+00 0.  1.
         11    1    1    2    0    0 -0.51323064199E+02  0.16275310249E+02 -0.25502706190E+03  0.26064870025E+03  0.00000000000E+00 0. -1.
</event>
<event>
 6    1  0.8259171E-006  0.9589679E+02  0.7561462E-02  0.1289169E+00
          2   -1    0    0  501    0  0.00000000000E+00  0.00000000000E+00  0.43134105443E+03  0.43134105443E+03  0.00000000000E+00 0. -1.
         -2   -1    0    0    0  501 -0.00000000000E+00 -0.00000000000E+00 -0.35925411343E+02  0.35925411343E+02  0.00000000000E+00 0.  1.
          5    1    1    2  502    0 -0.93955043898E+01  0.58862694837E+02  0.98552637369E+02  0.11525270964E+03  0.41800000000E+01 0. -1.
         -5    1    1    2    0  502  0.14068485934E+02 -0.54484559352E+02  0.21273604468E+02  0.60303632986E+02  0.41800000000E+01 0.  1.
        -11    1    1    2    0    0 -0.33700810270E+02  0.18688750957E+02  0.22874467792E+03  0.23196797560E+03  0.00000000000E+00 0. -1.
         11    1    1    2    0    0  0.29027828726E+02 -0.23066886442E+02  0.46844723330E+02  0.59742147555E+02  0.00000000000E+00 0.  1.
</event>
<event>
 6    1  0.8259171E-006  0.1376743E+03  0.7561462E-02  0.1216493E+00
         -3   -1    0    0    0  501 -0.00000000000E+00  0.00000000000E+00  0.30437554129E+03  0.30437554129E+03  0.00000000000E+00 0.  1.
          3   -1    0    0  501    0  0.00000000000E+00 -0.00000000000E+00 -0.77026665514E+02  0.77026665514E+02  0.00000000000E+00 0. -1.
          5    1    1    2  502    0  0.49099001030E+02  0.53195899637E+02  0.56716728888E+02  0.92058543200E+02  0.41800000000E+01 0. -1.
         -5    1    1    2    0  502  0.59128820445E+02 -0.68361265458E+02  0.91653774427E+02  0.12879195157E+03  0.41800000000E+01 0.  1.
        -11    1    1    2    0    0 -0.87877424326E+02  0.22518372985E+02  0.13655992407E+02  0.91738786545E+02  0.00000000000E+00 0. -1.
         11    1    1    2    0    0 -0.20350397149E+02 -0.73530071643E+01  0.65322380056E+02  0.68812925492E+02  0.00000000000E+00 0.  1.
</event>
<event>
 6    1  0.8259171E-006  0.1891499E+03  0.7561462E-02  0.1159230E+00
          1   -1    0    0  501    0  0.00000000000E+00  0.00000000000E+00  0.85414124530E+03  0.85414124530E+03  0.00000000000E+00 0. -1.
         -1   -1    0    0    0  501 -0.00000000000E+00 -0.00000000000E+00 -0.94856745170E+02  0.94856745170E+02  0.00000000000E+00 0.  1.
          5    1    1    2  502    0 -0.16322534132E+03  0.70367800569E+02  0.26639529813E+02  0.17978119021E+03  0.41800000000E+01 0.  1.
         -5    1    1    2    0  502  0.11663891711E+02 -0.19866952547E+02  0.13582911360E+02  0.27068617518E+02  0.41800000000E+01 0.  1.
        -11    1    1    2    0    0  0.10458963029E+03 -0.70400301373E+02  0.59103067349E+03  0.60432809814E+03  0.00000000000E+00 0.  1.
         11    1    1    2    0    0  0.46971819321E+02  0.19899453352E+02  0.12803138547E+03  0.13782008460E+03  0.00000000000E+00 0. -1.
</event>
<event>
 6    1  0.8259171E-006  0.9818747E+02  0.7561462E-02  0.1284154E+00
         -1   -1    0    0    0  501 -0.00000000000E+00  0.00000000000E+00  0.36497547455E+02  0.36497547455E+02  0.00000000000E+00 0.  1.
          1   -1    0    0  501    0  0.00000000000E+00 -0.00000000000E+00 -0.48925440897E+03  0.48925440897E+03  0.00000000000E+00 0. -1.
          5    1    1    2  502    0  0.43333305037E+02  0.44575641133E+01  0.25067576568E+01  0.43833793325E+02  0.41800000000E+01 0.  1.
         -5    1    1    2    0  502  0.16441794207E+02 -0.34848567705E+02 -0.17650774095E+03  0.18071306063E+03  0.41800000000E+01 0.  1.
        -11    1    1    2    0    0 -0.46134639479E+02  0.63243550924E+02 -0.18220499809E+03  0.19830989139E+03  0.00000000000E+00 0.  1.
         11    1    1    2    0    0 -0.13640459765E+02 -0.32852547333E+02 -0.96550880136E+02  0.10289521108E+03  0.00000000000E+00 0. -1.
</event>
<event>
 6    1  0.8259171E-006  0.2438877E+03  0.7561462E-02  0.1117230E+00
          2   -1    0    0  501    0  0.00000000000E+00  0.00000000000E+00  0.19325059762E+03  0.19325059762E+03  0.00000000000E+00 0. -1.
         -2   -1    0    0    0  501 -0.00000000000E+00 -0.00000000000E+00 -0.42817050723E+03  0.42817050723E+03  0.00000000000E+00 0.  1.
          5    1    1    2  502    0  0.17547044044E+02  0.35598911046E+01 -0.69736418539E+02  0.72119429074E+02  0.41800000000E+01 0.  1.
         -5    1    1    2    0  502 -0.68225735493E+01  0.23233342222E+03 -0.18545993936E+03  0.29738565550E+03  0.41800000000E+01 0.  1.
        -11    1    1    2    0    0 -0.91947292920E+01 -0.40978468586E+02  0.37410669610E+02  0.56243543052E+02  0.00000000000E+00 0. -1.
         11    1    1    2    0    0 -0.15297412030E+01 -0.19491484473E+03 -0.17134221329E+02  0.19567247723E+03  0.00000000000E+00 0.  1.
</event>
<event>
 6    1  0.8259171E-006  0.2915818E+03  0.7561462E-02  0.1089526E+00
          2   -1    0    0  501    0  0.00000000000E+00  0.00000000000E+00  0.17016056171E+04  0.17016056171E+04  0.00000000000E+00 0. -1.
         -2   -1    0    0    0  501 -0.00000000000E+00 -0.00000000000E+00 -0.52101414527E+02  0.52101414527E+02  0.00000000000E+00 0.  1.
          5    1    1    2  502    0 -0.16466674251E+03  0.19194326997E+03  0.59833833621E+03  0.64960264159E+03  0.41800000000E+01 0.  1.
         -5    1    1    2    0  502 -0.41262257092E+02 -0.15611552316E+02  0.78029992910E+02  0.89735425667E+02  0.41800000000E+01 0.  1.
        -11    1    1    2    0    0  0.45001715608E+02  0.28319354568E+01  0.13589310997E+03  0.14317860037E+03  0.00000000000E+00 0.  1.
         11    1    1    2    0    0  0.16092728400E+03 -0.17916365311E+03  0.83724276349E+03  0.87119036401E+03  0.00000000000E+00 0. -1.
</event>
<event>
 6    1  0.8259171E-006  0.7843317E+02  0.7561462E-02  0.1333558E+00
         -2   -1    0    0    0  501 -0.00000000000E+00  0.00000000000E+00  0.91079316689E+02  0.91079316689E+02  0.00000000000E+00 0.  1.
          2   -1    0    0  501    0  0.00000000000E+00 -0.00000000000E+00 -0.14250809183E+03  0.14250809183E+03  0.00000000000E+00 0. -1.
          5    1    1    2  502    0 -0.16133920306E+02 -0.43056460241E+02  0.44352057171E+02  0.64021398987E+02  0.41800000000E+01 0.  1.
         -5    1    1    2    0  502 -0.43842897056E+01  0.16565028668E+02 -0.64705839970E+02  0.67066685450E+02  0.41800000000E+01 0.  1.
        -11    1    1    2    0    0 -0.58292183419E+01  0.54380685952E+02 -0.26612836243E+01  0.54756928526E+02  0.00000000000E+00 0.  1.
         11    1    1    2    0    0  0.26347428354E+02 -0.27889254378E+02 -0.28413708722E+02  0.47742395562E+02  0.00000000000E+00 0. -1.
</event>
<event>
 6    1  0.8259171E-006  0.1368632E+03  0.7561462E-02  0.1217613E+00
          1   -1    0    0  501    0  0.00000000000E+00  0.00000000000E+00  0.10080550314E+04  0.10080550314E+04  0.00000000000E+00 0. -1.
         -1   -1    0    0    0  501 -0.00000000000E+00 -0.00000000000E+00 -0.25429649313E+02  0.25429649313E+02  0.00000000000E+00 0.  1.
          5    1    1    2  502    0 -0.57152245545E+02  0.91593689086E+02  0.21510848948E+03  0.24071750600E+03  0.41800000000E+01 0. -1.
         -5    1    1    2    0  502  0.46503661497E+02  0.21239184246E+02  0.14749746120E+03  0.15616230960E+03  0.41800000000E+01 0.  1.
        -11    1    1    2    0    0  0.56433935515E+01 -0.10390347594E+02  0.45838964384E+01  0.12681455770E+02  0.00000000000E+00 0.  1.
         11    1    1    2    0    0  0.50051904964E+01 -0.10244252574E+03  0.61543553498E+03  0.62392340935E+03  0.00000000000E+00 0. -1.
</event>
<event>
 6    1  0.8259171E-006  0.1878676E+03  0.7561462E-02  0.1160399E+00
         -2   -1    0    0    0  501 -0.00000000000E+00  0.00000000000E+00  0.40854940071E+02  0.40854940071E+02  0.00000000000E+00 0.  1.
          2   -1    0    0  501    0  0.00000000000E+00 -0.00000000000E+00 -0.88041893810E+03  0.88041893810E+03  0.00000000000E+00 0. -1.
          5    1    1    2  502    0 -0.61304085180E+02  0.15267100545E+02 -0.10870909783E+03  0.12580308251E+03  0.41800000000E+01 0. -1.
         -5    1    1    2    0  502 -0.51544647517E+02 -0.12286945767E+03 -0.35211632098E+03  0.37650648097E+03  0.41800000000E+01 0. -1.
        -11    1    1    2    0    0  0.12561571581E+03  0.80619092831E+02 -0.31326052542E+03  0.34700274202E+03  0.00000000000E+00 0.  1.
         11    1    1    2    0    0 -0.12766983111E+02  0.26983264295E+02 -0.65478053807E+02  0.71961572663E+02  0.00000000000E+00 0. -1.
</event>
<event>
 6    1  0.8259171E-006  0.1158278E+03  0.7561462E-02  0.1250143E+00
          1   -1    0    0  501    0  0.00000000000E+00  0.00000000000E+00  0.29136583527E+03  0.29136583527E+03  0.00000000000E+00 0. -1.
         -1   -1    0    0    0  501 -0.00000000000E+00 -0.00000000000E+00 -0.81172660409E+02  0.81172660409E+02  0.00000000000E+00 0.  1.
          5    1    1    2  502    0  0.19970943768E+02 -0.14781214229E+02 -0.37971675055E+02  0.45570202935E+02  0.41800000000E+01 0. -1.
         -5    1    1    2    0  502 -0.21205846005E+02 -0.78497960172E+02  0.84313085567E+02  0.11720830369E+03  0.41800000000E+01 0. -1.
        -11    1    1    2    0    0  0.14309730342E+02 -0.12169745789E+02  0.52892996443E+02  0.56129672792E+02  0.00000000000E+00 0. -1.
         11    1    1    2    0    0 -0.13074828105E+02  0.10544892019E+03  0.11095876790E+03  0.15363031626E+03  0.00000000000E+00 0.  1.
</event>
<event>
 6    1  0.8259171E-006  0.1064199E+03  0.7561462E-02  0.1267347E+00
         -1   -1    0    0    0  501 -0.00000000000E+00  0.00000000000E+00  0.60373080590E+02  0.60373080590E+02  0.00000000000E+00 0.  1.
          1   -1    0    0  501    0  0.00000000000E+00 -0.00000000000E+00 -0.20344790398E+03  0.20344790398E+03  0.00000000000E+00 0. -1.
          5    1    1    2  502    0  0.54553414356E+02  0.14045234139E+02 -0.44422446168E+02  0.71862157938E+02  0.41800000000E+01 0.  1.
         -5    1    1    2    0  502 -0.58281383082E+02 -0.33717514590E+02 -0.20592215667E+02  0.70534404018E+02  0.41800000000E+01 0.  1.
        -11    1    1    2    0    0 -0.28169313567E+02 -0.22473341699E+02 -0.14715173144E+02  0.38924255093E+02  0.00000000000E+00 0.  1.
         11    1    1    2    0    0  0.31897282292E+02  0.42145622150E+02 -0.63344988412E+02  0.82500167521E+02  0.00000000000E+00 0. -1.
</event>
<event>
 6    1  0.8259171E-006  0.1193116E+03  0.7561462E-02  0.1244237E+00
          3   -1    0    0  501    0  0.00000000000E+00  0.00000000000E+00  0.29879338124E+03  0.29879338124E+03  0.00000000000E+00 0. -1.
         -3   -1    0    0    0  501 -0.00000000000E+00 -0.00000000000E+00 -0.78869235247E+02  0.78869235247E+02  0.00000000000E+00 0.  1.
          5    1    1    2  502    0  0.70666796121E-02  0.29027552741E+02  0.14886815528E+03  0.15172936079E+03  0.41800000000E+01 0. -1.
         -5    1    1    2    0  502 -0.14488678992E+02  0.72742683799E+02  0.97312310542E+01  0.74923888868E+02  0.41800000000E+01 0. -1.
        -11    1    1    2    0    0  0.51381193070E+02 -0.52597980572E+02  0.48854312685E+02  0.88279773615E+02  0.00000000000E+00 0.  1.
         11    1    1    2    0    0 -0.36899580758E+02 -0.49172255968E+02  0.12470446968E+02  0.62729593213E+02  0.00000000000E+00 0. -1.
</event>
<event>
 6    1  0.8259171E-006  0.1177859E+03  0.7561462E-02  0.1246795E+00
          1   -1    0    0  501    0  0.00000000000E+00  0.00000000000E+00  0.25957738611E+03  0.25957738611E+03  0.00000000000E+00 0. -1.
         -1   -1    0    0    0  501 -0.00000000000E+00 -0.00000000000E+00 -0.85860532501E+02  0.85860532501E+02  0.00000000000E+00 0.  1.
          5    1    1    2  502    0 -0.54599992300E+02 -0.57203921318E+02  0.63659602577E+02  0.10160445450E+03  0.41800000000E+01 0.  1.
         -5    1    1    2    0  502  0.46025378341E+02 -0.36419415271E+02 -0.17796020090E+02  0.61472595449E+02  0.41800000000E+01 0.  1.
        -11    1    1    2    0    0 -0.86656963531E+01  0.47883968063E+02  0.12414298794E+03  0.13333960456E+03  0.00000000000E+00 0. -1.
         11    1    1    2    0    0  0.17240310312E+02  0.45739368527E+02  0.37102831824E+01  0.49021264102E+02  0.00000000000E+00 0.  1.
</event>
<event>
 6    1  0.8259171E-006  0.9192882E+02  0.7561462E-02  0.1298247E+00
          2   -1    0    0  501    0  0.00000000000E+00  0.00000000000E+00  0.75066951297E+03  0.75066951297E+03  0.00000000000E+00 0. -1.
         -2   -1    0    0    0  501 -0.00000000000E+00 -0.00000000000E+00 -0.36773641704E+02  0.36773641704E+02  0.00000000000E+00 0.  1.
          5    1    1    2  502    0  0.32969069287E+02  0.33520835862E+02  0.39733311766E+03  0.40012708576E+03  0.41800000000E+01 0. -1.
         -5    1    1    2    0  502 -0.41230572935E+02  0.97428235197E+01 -0.11250568554E+02  0.44033287948E+02  0.41800000000E+01 0.  1.
        -11    1    1    2    0    0  0.45876937460E+02 -0.22092683051E+02  0.10972892564E+03  0.12096783522E+03  0.00000000000E+00 0. -1.
         11    1    1    2    0    0 -0.37615433811E+02 -0.21170976330E+02  0.21808439652E+03  0.22231494575E+03  0.00000000000E+00 0.  1.
</event>
<event>
 6    1  0.8259171E-006  0.8635215E+02  0.7561462E-02  0.1311934E+00
          1   -1    0    0  501    0  0.00000000000E+00  0.00000000000E+00  0.60351471487E+03  0.60351471487E+03  0.00000000000E+00 0. -1.
         -1   -1    0    0    0  501 -0.00000000000E+00 -0.00000000000E+00 -0.24404593545E+02  0.24404593545E+02  0.00000000000E+00 0.  1.
          5    1    1    2  502    0  0.36340191572E+02 -0.13827781625E+02  0.25043623298E+03  0.25347109551E+03  0.41800000000E+01 0.  1.
         -5    1    1    2    0  502 -0.16814961750E+02 -0.27982834790E+02  0.31922873684E+01  0.33067281112E+02  0.41800000000E+01 0.  1.
        -11    1    1    2    0    0  0.34947456999E+02  0.27206215866E+02  0.17953253905E+03  0.18491467089E+03  0.00000000000E+00 0.  1.
         11    1    1    2    0    0 -0.54472686821E+02  0.14604400548E+02  0.14594906192E+03  0.15646626090E+03  0.00000000000E+00 0. -1.
</event>
<event>
 6    1  0.8259171E-006  0.1586557E+03  0.7561462E-02  0.1190223E+00
         -1   -1    0    0    0  501 -0.00000000000E+00  0.00000000000E+00  0.94148544623E+03  0.94148544623E+03  0.00000000000E+00 0.  1.
          1   -1    0    0  501    0  0.00000000000E+00 -0.00000000000E+00 -0.36286186302E+03  0.36286186302E+03  0.00000000000E+00 0. -1.
          5    1    1    2  502    0 -0.54366230575E+02  0.76667115754E+01  0.38949275128E+03  0.39336565838E+03  0.41800000000E+01 0. -1.
         -5    1    1    2    0  502  0.13805940607E+03  0.48126681764E+01  0.52958684305E+03  0.54732372332E+03  0.41800000000E+01 0.  1.
        -11    1    1    2    0    0 -0.70865421116E+02 -0.48455084946E+02 -0.27251483739E+03  0.28571688744E+03  0.00000000000E+00 0. -1.
         11    1    1    2    0    0 -0.12827754379E+02  0.35975705195E+02 -0.67941173721E+02  0.77941040108E+02  0.00000000000E+00 0.  1.
</event>
<event>
 6    1  0.8259171E-006  0.1352437E+03  0.7561462E-02  0.1219876E+00
         -1   -1    0    0    0  501 -0.00000000000E+00  0.00000000000E+00  0.33795934757E+03  0.33795934757E+03  0.00000000000E+00 0.  1.
          1   -1    0    0  501    0  0.00000000000E+00 -0.00000000000E+00 -0.13740618617E+03  0.13740618617E+03  0.00000000000E+00 0. -1.
          5    1    1    2  502    0 -0.29360641016E+02  0.72865033262E+01  0.14529328986E+03  0.14846801962E+03  0.41800000000E+01 0. -1.
         -5    1    1    2    0  502  0.60480817161E+02  0.81969005972E+02  0.12519056555E+03  0.16145277107E+03  0.41800000000E+01 0.  1.
        -11    1    1    2    0    0  0.33857267527E+02 -0.95843423795E+01  0.84232284799E+01  0.36181831922E+02  0.00000000000E+00 0.  1.
         11    1    1    2    0    0 -0.64977443672E+02 -0.79671166919E+02 -0.78353922490E+02  0.12926291113E+03  0.00000000000E+00 0. -1.
</event>
<event>
 6    1  0.8259171E-006  0.1220723E+03  0.7561462E-02  0.1239717E+00
         -1   -1    0    0    0  501 -0.00000000000E+00  0.00000000000E+00  0.12133545860E+03  0.12133545860E+03  0.00000000000E+00 0.  1.
          1   -1    0    0  501    0  0.00000000000E+00 -0.00000000000E+00 -0.34607988712E+03  0.34607988712E+03  0.00000000000E+00 0. -1.
          5    1    1    2  502    0  0.86614160806E+01 -0.26029031187E+02 -0.13125806254E+02  0.30696738962E+02  0.41800000000E+01 0.  1.
         -5    1    1    2    0  502 -0.25492738605E+02  0.10416725599E+03  0.70737795285E+02  0.12853795169E+03  0.41800000000E+01 0.  1.
        -11    1    1    2    0    0 -0.71427019484E+01  0.13000688067E+02 -0.56611563323E+01  0.15877177720E+02  0.00000000000E+00 0.  1.
         11    1    1    2    0    0  0.23974024473E+02 -0.91138912875E+02 -0.27669526122E+03  0.29230347735E+03  0.00000000000E+00 0. -1.
</event>
<event>
 6    1  0.8259171E-006  0.1038922E+03  0.7561462E-02  0.1272318E+00
         -2   -1    0    0    0  501 -0.00000000000E+00  0.00000000000E+00  0.42350654707E+03  0.42350654707E+03  0.00000000000E+00 0.  1.
          2   -1    0    0  501    0  0.00000000000E+00 -0.00000000000E+00 -0.37597918077E+02  0.37597918077E+02  0.00000000000E+00 0. -1.
          5    1    1    2  502    0 -0.54189487136E+02 -0.51873726786E+01  0.51508292101E+02  0.75059882138E+02  0.41800000000E+01 0.  1.
         -5    1    1    2    0  502  0.35805104831E+02 -0.34114673457E+02  0.24046735433E+03  0.24553581689E+03  0.41800000000E+01 0.  1.
        -11    1    1    2    0    0  0.48077066534E+01 -0.31296317415E+02  0.20370243149E+02  0.37649971221E+02  0.00000000000E+00 0. -1.
         11    1    1    2    0    0  0.13576675652E+02  0.70598363550E+02  0.73562739411E+02  0.10285879490E+03  0.00000000000E+00 0.  1.
</event>
<event>
 6    1  0.8259171E-006  0.1512792E+03  0.7561462E-02  0.1198910E+00
          1   -1    0    0  501    0  0.00000000000E+00  0.00000000000E+00  0.54669464787E+02  0.54669464787E+02  0.00000000000E+00 0. -1.
         -1   -1    0    0    0  501 -0.00000000000E+00 -0.00000000000E+00 -0.51161152394E+03  0.51161152394E+03  0.00000000000E+00 0.  1.
          5    1    1    2  502    0  0.12139145480E+02 -0.45778817565E+02 -0.14653291508E+03  0.15405332386E+03  0.41800000000E+01 0. -1.
         -5    1    1    2    0  502 -0.11464776805E+03 -0.22134639731E+02 -0.14547107726E+03  0.18658338542E+03  0.41800000000E+01 0. -1.
        -11    1    1    2    0    0  0.48222724433E+02  0.68636078437E+02 -0.47823606659E+02  0.96557960671E+02  0.00000000000E+00 0. -1.
         11    1    1    2    0    0  0.54285898141E+02 -0.72262114199E+00 -0.11711446016E+03  0.12908631878E+03  0.00000000000E+00 0.  1.
</event>
<event>
 6    1  0.8259171E-006  0.2192075E+03  0.7561462E-02  0.1134475E+00
         -1   -1    0    0    0  501 -0.00000000000E+00  0.00000000000E+00  0.29867000427E+03  0.29867000427E+03  0.00000000000E+00 0.  1.
          1   -1    0    0  501    0  0.00000000000E+00 -0.00000000000E+00 -0.18676737897E+03  0.18676737897E+03  0.00000000000E+00 0. -1.
          5    1    1    2  502    0 -0.17229214698E+01  0.60812509091E+02  0.79712450337E+01  0.61499129000E+02  0.41800000000E+01 0. -1.
         -5    1    1    2    0  502 -0.30818661538E+02 -0.20937882924E+03  0.12553958792E+03  0.24610352409E+03  0.41800000000E+01 0.  1.
        -11    1    1    2    0    0 -0.20229991200E+02  0.50366044890E+02  0.21401966947E+02  0.58344110337E+02  0.00000000000E+00 0.  1.
         11    1    1    2    0    0  0.52771574208E+02  0.98200275256E+02 -0.43010174601E+02  0.11949061982E+03  0.00000000000E+00 0. -1.
</event>
<event>
 6    1  0.8259171E-006  0.8362376E+02  0.7561462E-02  0.1319071E+00
          2   -1    0    0  501    0  0.00000000000E+00  0.00000000000E+00  0.47482020679E+03  0.47482020679E+03  0.00000000000E+00 0.  1.
         -2   -1    0    0    0  501 -0.00000000000E+00 -0.00000000000E+00 -0.30739989519E+02  0.30739989519E+02  0.00000000000E+00 0. -1.
          5    1    1    2  502    0  0.49725342447E+01 -0.50165960621E+02  0.17390616461E+03  0.18111371066E+03  0.41800000000E+01 0. -1.
         -5    1    1    2    0  502  0.24450291953E+02  0.23181767748E+02 -0.33686793281E+01  0.34117906339E+02  0.41800000000E+01 0. -1.
        -11    1    1    2    0    0 -0.48226995895E+02 -0.18786574110E+01  0.77627425847E+02  0.91407820947E+02  0.00000000000E+00 0. -1.
         11    1    1    2    0    0  0.18804169697E+02  0.28862850284E+02  0.19591530614E+03  0.19892075836E+03  0.00000000000E+00 0.  1.
</event>
<event>
 6    1  0.8259171E-006  0.1025508E+03  0.7561462E-02  0.1275022E+00
         -2   -1    0    0    0  501 -0.00000000000E+00  0.00000000000E+00  0.12583591784E+03  0.12583591784E+03  0.00000000000E+00 0.  1.
          2   -1    0    0  501    0  0.00000000000E+00 -0.00000000000E+00 -0.12685482378E+03  0.12685482378E+03  0.00000000000E+00 0. -1.
          5    1    1    2  502    0 -0.46686311801E+02  0.11116475217E+02  0.43959676853E+02  0.65215897754E+02  0.41800000000E+01 0.  1.
         -5    1    1    2    0  502  0.55068119922E+02  0.46736445702E+02 -0.19689030424E+02  0.74979487246E+02  0.41800000000E+01 0.  1.
        -11    1    1    2    0    0 -0.32650903572E+02 -0.48720620175E+02  0.18591170366E+02  0.61525701539E+02  0.00000000000E+00 0.  1.
         11    1    1    2    0    0  0.24269095451E+02 -0.91323007433E+01 -0.43880722732E+02  0.50969655074E+02  0.00000000000E+00 0. -1.
</event>
<event>
 6    1  0.8259171E-006  0.1766754E+03  0.7561462E-02  0.1171060E+00
         -1   -1    0    0    0  501 -0.00000000000E+00  0.00000000000E+00  0.92759476846E+02  0.92759476846E+02  0.00000000000E+00 0.  1.
          1   -1    0    0  501    0  0.00000000000E+00 -0.00000000000E+00 -0.88166826624E+03  0.88166826624E+03  0.00000000000E+00 0. -1.
          5    1    1    2  502    0 -0.25485473141E+02 -0.47962317242E+02 -0.55919952281E+02  0.78066680982E+02  0.41800000000E+01 0. -1.
         -5    1    1    2    0  502  0.82414490753E+02 -0.10619898116E+03  0.52071235729E+01  0.13459182152E+03  0.41800000000E+01 0. -1.
        -11    1    1    2    0    0 -0.13665299359E+02  0.32244306718E+02 -0.47228994363E+02  0.58796374300E+02  0.00000000000E+00 0.  1.
         11    1    1    2    0    0 -0.43263718254E+02  0.12191699168E+03 -0.69096696633E+03  0.70297286628E+03  0.00000000000E+00 0. -1.
</event>
<event>
 6    1  0.8259171E-006  0.1639092E+03  0.7561462E-02  0.1184353E+00
          2   -1    0    0  501    0  0.00000000000E+00  0.00000000000E+00  0.11723167310E+04  0.11723167310E+04  0.00000000000E+00 0. -1.
         -2   -1    0    0    0  501 -0.00000000000E+00 -0.00000000000E+00 -0.30638236899E+02  0.30638236899E+02  0.00000000000E+00 0.  1.
          5    1    1    2  502    0 -0.58494894124E+02 -0.68636979602E+01  0.36026999409E+03  0.36507629891E+03  0.41800000000E+01 0.  1.
         -5    1    1    2    0  502 -0.65851501682E+02 -0.82017126006E+02  0.16100319590E+03  0.19236093866E+03  0.41800000000E+01 0.  1.
        -11    1    1    2    0    0  0.11222711966E+03  0.50142859766E+02  0.55572181739E+03  0.56915373239E+03  0.00000000000E+00 0. -1.
         11    1    1    2    0    0  0.12119276144E+02  0.38737964200E+02  0.64683486685E+02  0.76363997894E+02  0.00000000000E+00 0.  1.
</event>
<event>
 6    1  0.8259171E-006  0.1188443E+03  0.7561462E-02  0.1245016E+00
          1   -1    0    0  501    0  0.00000000000E+00  0.00000000000E+00  0.99005716309E+02  0.99005716309E+02  0.00000000000E+00 0. -1.
         -1   -1    0    0    0  501 -0.00000000000E+00 -0.00000000000E+00 -0.17467584344E+03  0.17467584344E+03  0.00000000000E+00 0.  1.
          5    1    1    2  502    0 -0.39331479114E+02 -0.56337897835E+02 -0.33695239103E+02  0.76640495301E+02  0.41800000000E+01 0. -1.
         -5    1    1    2    0  502  0.74432819212E+02 -0.50400425549E+01 -0.29541429964E+02  0.80348087028E+02  0.41800000000E+01 0. -1.
        -11    1    1    2    0    0 -0.39946050011E+02  0.82566018364E+01 -0.39583383471E+02  0.56839270160E+02  0.00000000000E+00 0.  1.
         11    1    1    2    0    0  0.48447099132E+01  0.53121338553E+02  0.27149925402E+02  0.59853707264E+02  0.00000000000E+00 0. -1.
</event>
<event>
 6    1  0.8259171E-006  0.1239479E+03  0.7561462E-02  0.1236723E+00
          2   -1    0    0  501    0  0.00000000000E+00  0.00000000000E+00  0.51425454151E+03  0.51425454151E+03  0.00000000000E+00 0. -1.
         -2   -1    0    0    0  501 -0.00000000000E+00 -0.00000000000E+00 -0.34102318250E+02  0.34102318250E+02  0.00000000000E+00 0.  1.
          5    1    1    2  502    0 -0.10039930401E+03  0.38389354112E+01  0.21514982903E+03  0.23749037665E+03  0.41800000000E+01 0. -1.
         -5    1    1    2    0  502  0.29645735896E+02  0.14373834343E+02  0.20207096246E+02  0.38875132273E+02  0.41800000000E+01 0. -1.
        -11    1    1    2    0    0  0.28375712070E+02  0.35666605405E+02  0.63450366292E+02  0.78123215239E+02  0.00000000000E+00 0.  1.
         11    1    1    2    0    0  0.42377856040E+02 -0.53879375159E+02  0.18134493169E+03  0.19386813560E+03  0.00000000000E+00 0. -1.
</event>
<event>
 6    1  0.8259171E-006  0.2066604E+03  0.7561462E-02  0.1144238E+00
          2   -1    0    0  501    0  0.00000000000E+00  0.00000000000E+00  0.13897974570E+04  0.13897974570E+04  0.00000000000E+00 0. -1.
         -2   -1    0    0    0  501 -0.00000000000E+00 -0.00000000000E+00 -0.33507900759E+02  0.33507900759E+02  0.00000000000E+00 0.  1.
          5    1    1    2  502    0  0.11176446060E+03  0.42400405576E+02  0.24646833694E+03  0.27395839567E+03  0.41800000000E+01 0.  1.
         -5    1    1    2    0  502 -0.36747978997E+00  0.94507038953E+02  0.26499539335E+03  0.28137474362E+03  0.41800000000E+01 0.  1.
        -11    1    1    2    0    0 -0.44102968234E+02  0.26430907729E+01  0.18698215509E+03  0.19213116369E+03  0.00000000000E+00 0.  1.
         11    1    1    2    0    0 -0.67294012577E+02 -0.13955053530E+03  0.65784367086E+03  0.67584105478E+03  0.00000000000E+00 0. -1.
</event>
<event>
 6    1  0.8259171E-006  0.1124557E+03  0.7561462E-02  0.1256089E+00
         -1   -1    0    0    0  501 -0.00000000000E+00  0.00000000000E+00  0.36539130283E+02  0.36539130283E+02  0.00000000000E+00 0.  1.
          1   -1    0    0  501    0  0.00000000000E+00 -0.00000000000E+00 -0.65328275566E+03  0.65328275566E+03  0.00000000000E+00 0. -1.
          5    1    1    2  502    0  0.51426151346E+02  0.43296279826E+02 -0.22150193362E+02  0.70903599027E+02  0.41800000000E+01 0. -1.
         -5    1    1    2    0  502  0.43020839737E+01 -0.52763462869E+02 -0.98263429554E+02  0.11169451611E+03  0.41800000000E+01 0. -1.
        -11    1    1    2    0    0 -0.66345745295E+02  0.36278021573E+02 -0.34890268638E+03  0.35700271333E+03  0.00000000000E+00 0.  1.
         11    1    1    2    0    0  0.10617509975E+02 -0.26810838530E+02 -0.14742731608E+03  0.15022105747E+03  0.00000000000E+00 0. -1.
</event>
<event>
 6    1  0.8259171E-006  0.1025765E+03  0.7561462E-02  0.1274969E+00
          1   -1    0    0  501    0  0.00000000000E+00  0.00000000000E+00  0.38016582186E+02  0.38016582186E+02  0.00000000000E+00 0. -1.
         -1   -1    0    0    0  501 -0.00000000000E+00 -0.00000000000E+00 -0.42079576469E+03  0.42079576469E+03  0.00000000000E+00 0.  1.
          5    1    1    2  502    0  0.38611409898E+02  0.13239063202E+02 -0.13060307120E+03  0.13689685305E+03  0.41800000000E+01 0. -1.
         -5    1    1    2    0  502 -0.79559560817E+02 -0.43757900994E+02 -0.14523299975E+03  0.17133176656E+03  0.41800000000E+01 0.  1.
        -11    1    1    2    0    0  0.38891691710E+02 -0.35884966940E+01 -0.10956085697E+03  0.11631432574E+03  0.00000000000E+00 0.  1.
         11    1    1    2    0    0  0.20564592099E+01  0.34107334487E+02  0.26177454060E+01  0.34269401531E+02  0.00000000000E+00 0. -1.
</event>
<event>
 6    1  0.8259171E-006  0.9875227E+02  0.7561462E-02  0.1282942E+00
         -1   -1    0    0    0  501 -0.00000000000E+00  0.00000000000E+00  0.45642597910E+02  0.45642597910E+02  0.00000000000E+00 0.  1.
          1   -1    0    0  501    0  0.00000000000E+00 -0.00000000000E+00 -0.32876742155E+03  0.32876742155E+03  0.00000000000E+00 0. -1.
          5    1    1    2  502    0 -0.62082380142E+02 -0.22992829079E+02 -0.92440724380E+02  0.11377896131E+03  0.41800000000E+01 0.  1.
         -5    1    1    2    0  502  0.26731545503E+02  0.39767722732E+02 -0.26836153695E+01  0.48173867269E+02  0.41800000000E+01 0.  1.
        -11    1    1    2    0    0  0.27860393738E+02 -0.45517807451E+02 -0.56805765546E+02  0.77942076786E+02  0.00000000000E+00 0.  1.
         11    1    1    2    0    0  0.74904409013E+01  0.28742913798E+02 -0.13119471835E+03  0.13451511410E+03  0.00000000000E+00 0. -1.
</event>
<event>
 6    1  0.8259171E-006  0.1106866E+03  0.7561462E-02  0.1259304E+00
          1   -1    0    0  501    0  0.00000000000E+00  0.00000000000E+00  0.66320635346E+03  0.66320635346E+03  0.00000000000E+00 0. -1.
         -1   -1    0    0    0  501 -0.00000000000E+00 -0.00000000000E+00 -0.19209336818E+02  0.19209336818E+02  0.00000000000E+00 0.  1.
          5    1    1    2  502    0 -0.24240742744E+02  0.51867638107E+02  0.20412788815E+03  0.21204606247E+03  0.41800000000E+01 0. -1.
         -5    1    1    2    0  502 -0.60295914249E+00 -0.70203338413E+02  0.20305059175E+03  0.21488575452E+03  0.41800000000E+01 0. -1.
        -11    1    1    2    0    0  0.56451122286E+02  0.24323467312E+02  0.17979353350E+03  0.19001072327E+03  0.00000000000E+00 0.  1.
         11    1    1    2    0    0 -0.31607420400E+02 -0.59877670056E+01  0.57025003242E+02  0.65473150014E+02  0.00000000000E+00 0. -1.
</event>
<event>
 6    1  0.8259171E-006  0.1022322E+03  0.7561462E-02  0.1275671E+00
          1   -1    0    0  501    0  0.00000000000E+00  0.00000000000E+00  0.19779650393E+03  0.19779650393E+03  0.00000000000E+00 0. -1.
         -1   -1    0    0    0  501 -0.00000000000E+00 -0.00000000000E+00 -0.67756421711E+02  0.67756421711E+02  0.00000000000E+00 0.  1.
          5    1    1    2  502    0 -0.40079846477E+02  0.21945187585E+02  0.50557172386E+02  0.68275071816E+02  0.41800000000E+01 0.  1.
         -5    1    1    2    0  502  0.69876901761E+02 -0.53302326529E+01 -0.18482712761E+01  0.70228778194E+02  0.41800000000E+01 0.  1.
        -11    1    1    2    0    0  0.27373053415E+02 -0.14929603920E+02  0.48618050497E+01  0.31556525076E+02  0.00000000000E+00 0.  1.
         11    1    1    2    0    0 -0.57170108699E+02 -0.16853510113E+01  0.76469376060E+02  0.95492550556E+02  0.00000000000E+00 0. -1.
</event>
<event>
 6    1  0.8259171E-006  0.2356165E+03  0.7561462E-02  0.1122748E+00
          1   -1    0    0  501    0  0.00000000000E+00  0.00000000000E+00  0.87371490267E+03  0.87371490267E+03  0.00000000000E+00 0. -1.
         -1   -1    0    0    0  501 -0.00000000000E+00 -0.00000000000E+00 -0.70042162657E+02  0.70042162657E+02  0.00000000000E+00 0.  1.
          5    1    1    2  502    0  0.53717470114E+02  0.82647483164E+01  0.25926107840E+02  0.60361478842E+02  0.41800000000E+01 0.  1.
         -5    1    1    2    0  502  0.14418055984E+03 -0.10677346104E+03  0.35003694126E+03  0.39335980789E+03  0.41800000000E+01 0.  1.
        -11    1    1    2    0    0 -0.28498485880E+02  0.55654152095E+02  0.87085709787E+02  0.10720759857E+03  0.00000000000E+00 0.  1.
         11    1    1    2    0    0 -0.16939954407E+03  0.42854560631E+02  0.34062398112E+03  0.38282818001E+03  0.00000000000E+00 0. -1.
</event>
<event>
 6    1  0.8259171E-006  0.8755870E+02  0.7561462E-02  0.1308874E+00
          1   -1    0    0  501    0  0.00000000000E+00  0.00000000000E+00  0.27320871699E+03  0.27320871699E+03  0.00000000000E+00 0. -1.
         -1   -1    0    0    0  501 -0.00000000000E+00 -0.00000000000E+00 -0.48618905385E+02  0.48618905385E+02  0.00000000000E+00 0.  1.
          5    1    1    2  502    0  0.61525204995E+02 -0.35204112079E+02  0.40088851647E+02  0.81543048651E+02  0.41800000000E+01 0.  1.
         -5    1    1    2    0  502 -0.53285251174E+02 -0.26838718132E+01  0.79309078732E+02  0.95676138770E+02  0.41800000000E+01 0.  1.
        -11    1    1    2    0    0  0.12644130233E+02  0.14211434470E+02 -0.12496090268E+02  0.22759419391E+02  0.00000000000E+00 0.  1.
         11    1    1    2    0    0 -0.20884084053E+02  0.23676549422E+02  0.11768797150E+03  0.12184901557E+03  0.00000000000E+00 0. -1.
</event>
<event>
 6    1  0.8259171E-006  0.1655519E+03  0.7561462E-02  0.1182568E+00
         -1   -1    0    0    0  501 -0.00000000000E+00  0.00000000000E+00  0.20855546020E+02  0.20855546020E+02  0.00000000000E+00 0.  1.
          1   -1    0    0  501    0  0.00000000000E+00 -0.00000000000E+00 -0.13912791968E+04  0.13912791968E+04  0.00000000000E+00 0. -1.
          5    1    1    2  502    0 -0.99061276345E+01 -0.26342159019E+02 -0.81099351916E+02  0.85945436108E+02  0.41800000000E+01 0. -1.
         -5    1    1    2    0  502 -0.81953920768E+02  0.11549286632E+03 -0.66735436050E+03  0.68222750031E+03  0.41800000000E+01 0.  1.
        -11    1    1    2    0    0 -0.67461833955E+01 -0.56796442642E+02 -0.14587022218E+03  0.15668270040E+03  0.00000000000E+00 0.  1.
         11    1    1    2    0    0  0.98606231798E+02 -0.32354264661E+02 -0.47609971618E+03  0.48727910599E+03  0.00000000000E+00 0. -1.
</event>
<event>
 6    1  0.8259171E-006  0.7042611E+02  0.7561462E-02  0.1358650E+00
          1   -1    0    0  501    0  0.00000000000E+00  0.00000000000E+00  0.18934897747E+03  0.18934897747E+03  0.00000000000E+00 0. -1.
         -1   -1    0    0    0  501 -0.00000000000E+00 -0.00000000000E+00 -0.12411810725E+03  0.12411810725E+03  0.00000000000E+00 0.  1.
          5    1    1    2  502    0 -0.12049385305E+02  0.11136619503E+02 -0.97690759348E+02  0.99147207940E+02  0.41800000000E+01 0. -1.
         -5    1    1    2    0  502 -0.30541165443E+02 -0.15561226798E+02  0.33231671786E+02  0.47924221181E+02  0.41800000000E+01 0. -1.
        -11    1    1    2    0    0  0.25664939748E+02 -0.36777022255E+02  0.10781724281E+03  0.11677241260E+03  0.00000000000E+00 0. -1.
         11    1    1    2    0    0  0.16925611001E+02  0.41201629551E+02  0.21872714972E+02  0.49623242998E+02  0.00000000000E+00 0.  1.
</event>
<event>
 6    1  0.8259171E-006  0.6114232E+02  0.7561462E-02  0.1393100E+00
         -2   -1    0    0    0  501 -0.00000000000E+00  0.00000000000E+00  0.11210627037E+03  0.11210627037E+03  0.00000000000E+00 0.  1.
          2   -1    0    0  501    0  0.00000000000E+00 -0.00000000000E+00 -0.12170162104E+03  0.12170162104E+03  0.00000000000E+00 0. -1.
          5    1    1    2  502    0  0.65678478754E+01  0.17503789040E+02  0.65207039068E+02  0.67962854564E+02  0.41800000000E+01 0. -1.
         -5    1    1    2    0  502  0.86468794184E+00  0.24470180623E+02 -0.59338230093E+02  0.64327563109E+02  0.41800000000E+01 0. -1.
        -11    1    1    2    0    0  0.28313280865E+02 -0.28255156380E+02  0.23906219618E+02  0.46599389178E+02  0.00000000000E+00 0.  1.
         11    1    1    2    0    0 -0.35745816682E+02 -0.13718813284E+02 -0.39370379263E+02  0.54918084558E+02  0.00000000000E+00 0. -1.
</event>
<event>
 6    1  0.8259171E-006  0.8555510E+02  0.7561462E-02  0.1313987E+00
         -1   -1    0    0    0  501 -0.00000000000E+00  0.00000000000E+00  0.23529604726E+03  0.23529604726E+03  0.00000000000E+00 0.  1.
          1   -1    0    0  501    0  0.00000000000E+00 -0.00000000000E+00 -0.61104936792E+02  0.61104936792E+02  0.00000000000E+00 0. -1.
          5    1    1    2  502    0 -0.30591853695E+02 -0.64281910324E+02  0.13619748980E+03  0.15373761458E+03  0.41800000000E+01 0.  1.
         -5    1    1    2    0  502  0.23455945522E+02  0.20143394548E+02 -0.65523605840E+01  0.31880143561E+02  0.41800000000E+01 0.  1.
        -11    1    1    2    0    0  0.29801570595E+02  0.23667687721E+02 -0.17302250730E+02  0.41805034772E+02  0.00000000000E+00 0. -1.
         11    1    1    2    0    0 -0.22665662423E+02  0.20470828055E+02  0.61848231983E+02  0.68978191146E+02  0.00000000000E+00 0.  1.
</event>
<event>
 6    1  0.8259171E-006  0.9992451E+02  0.7561462E-02  0.1280455E+00
         -3   -1    0    0    0  501 -0.00000000000E+00  0.00000000000E+00  0.25401349042E+03  0.25401349042E+03  0.00000000000E+00 0.  1.
          3   -1    0    0  501    0  0.00000000000E+00 -0.00000000000E+00 -0.57744924048E+02  0.57744924048E+02  0.00000000000E+00 0. -1.
          5    1    1    2  502    0  0.42932805729E+02 -0.28499180000E+01  0.86809226001E+02  0.96977636387E+02  0.41800000000E+01 0.  1.
         -5    1    1    2    0  502 -0.49296133641E+02  0.56247753556E+02  0.24244712602E+02  0.78734979908E+02  0.41800000000E+01 0.  1.
        -11    1    1    2    0    0  0.30834420139E+02 -0.10964143609E+02 -0.52754756937E+01  0.33148220981E+02  0.00000000000E+00 0. -1.
         11    1    1    2    0    0 -0.24471092227E+02 -0.42433691947E+02  0.90490103463E+02  0.10289757719E+03  0.00000000000E+00 0.  1.
</event>
<event>
 6    1  0.8259171E-006  0.2763886E+03  0.7561462E-02  0.1097678E+00
         -2   -1    0    0    0  501 -0.00000000000E+00  0.00000000000E+00  0.51099854254E+03  0.51099854254E+03  0.00000000000E+00 0.  1.
          2   -1    0    0  501    0  0.00000000000E+00 -0.00000000000E+00 -0.23577167352E+03  0.23577167352E+03  0.00000000000E+00 0. -1.
          5    1    1    2  502    0 -0.38508266624E+01  0.13559131397E+03  0.10080207071E+03  0.16905136246E+03  0.41800000000E+01 0.  1.
         -5    1    1    2    0  502  0.86181869493E+02  0.11905523299E+03  0.24522747829E+03  0.28592910247E+03  0.41800000000E+01 0.  1.
        -11    1    1    2    0    0 -0.49694814464E+02 -0.96390694210E+02  0.13925357616E+02  0.10933734998E+03  0.00000000000E+00 0.  1.
         11    1    1    2    0    0 -0.32636228367E+02 -0.15825585276E+03 -0.84728037583E+02  0.18245240115E+03  0.00000000000E+00 0. -1.
</event>
<event>
 6    1  0.8259171E-006  0.1219225E+03  0.7561462E-02  0.1239959E+00
          3   -1    0    0  501    0  0.00000000000E+00  0.00000000000E+00  0.60161094212E+03  0.60161094212E+03  0.00000000000E+00 0. -1.
         -3   -1    0    0    0  501 -0.00000000000E+00 -0.00000000000E+00 -0.32250981781E+02  0.32250981781E+02  0.00000000000E+00 0.  1.
          5    1    1    2  502    0 -0.21466278099E+02 -0.20476032028E+02  0.15594957585E+03  0.15880116999E+03  0.41800000000E+01 0.  1.
         -5    1    1    2    0  502  0.87204916548E+02 -0.22734452017E+02  0.85602433813E+02  0.12436559755E+03  0.41800000000E+01 0.  1.
        -11    1    1    2    0    0 -0.83620690124E+02  0.56904546771E+02  0.28326245414E+03  0.30077926323E+03  0.00000000000E+00 0. -1.
         11    1    1    2    0    0  0.17882051676E+02 -0.13694062726E+02  0.44545496533E+02  0.49915893135E+02  0.00000000000E+00 0.  1.
</event>
<event>
 6    1  0.8259171E-006  0.1224081E+03  0.7561462E-02  0.1239176E+00
          2   -1    0    0  501    0  0.00000000000E+00  0.00000000000E+00  0.48031907317E+03  0.48031907317E+03  0.00000000000E+00 0. -1.
         -2   -1    0    0    0  501 -0.00000000000E+00 -0.00000000000E+00 -0.65697516134E+02  0.65697516134E+02  0.00000000000E+00 0.  1.
          5    1    1    2  502    0 -0.84280136423E+02  0.57991125721E+02  0.72137164150E+02  0.12524917129E+03  0.41800000000E+01 0.  1.
         -5    1    1    2    0  502  0.14467333497E+02 -0.12353351652E+02 -0.25573528718E+02  0.32146334265E+02  0.41800000000E+01 0.  1.
        -11    1    1    2    0    0 -0.12836927506E+02  0.15513909050E+02  0.88360543444E+02  0.90625899827E+02  0.00000000000E+00 0. -1.
         11    1    1    2    0    0  0.82649730432E+02 -0.61151683119E+02  0.27969737816E+03  0.29799518392E+03  0.00000000000E+00 0.  1.
</event>
<event>
 6    1  0.8259171E-006  0.1246084E+03  0.7561462E-02  0.1235683E+00
          2   -1    0    0  501    0  0.00000000000E+00  0.00000000000E+00  0.41539802598E+03  0.41539802598E+03  0.00000000000E+00 0. -1.
         -2   -1    0    0    0  501 -0.00000000000E+00 -0.00000000000E+00 -0.50873915868E+02  0.50873915868E+02  0.00000000000E+00 0.  1.
          5    1    1    2  502    0 -0.19362581068E+02 -0.13438435725E+02 -0.23880454513E+01  0.24055690833E+02  0.41800000000E+01 0.  1.
         -5    1    1    2    0  502  0.24523605598E+02  0.10965660051E+03  0.19418330953E+03  0.22438941010E+03  0.41800000000E+01 0.  1.
        -11    1    1    2    0    0  0.24378810405E+02 -0.21551412530E+02  0.64462789029E+01  0.33171437872E+02  0.00000000000E+00 0.  1.
         11    1    1    2    0    0 -0.29539834935E+02 -0.74666752254E+02  0.16628256713E+03  0.18465540304E+03  0.00000000000E+00 0. -1.
</event>
<event>
 6    1  0.8259171E-006  0.1268882E+03  0.7561462E-02  0.1232148E+00
         -1   -1    0    0    0  501 -0.00000000000E+00  0.00000000000E+00  0.10518852201E+03  0.10518852201E+03  0.00000000000E+00 0.  1.
          1   -1    0    0  501    0  0.00000000000E+00 -0.00000000000E+00 -0.19604179811E+03  0.19604179811E+03  0.00000000000E+00 0. -1.
          5    1    1    2  502    0  0.54659156397E+02 -0.67415211223E+02  0.25563311274E+02  0.90572564089E+02  0.41800000000E+01 0. -1.
         -5    1    1    2    0  502 -0.53004442432E+02 -0.17158999134E+02 -0.23835178232E+02  0.60741174587E+02  0.41800000000E+01 0. -1.
        -11    1    1    2    0    0 -0.31225739328E+02  0.13466980408E+02 -0.68751868585E+01  0.34694013204E+02  0.00000000000E+00 0. -1.
         11    1    1    2    0    0  0.29571025363E+02  0.71107229950E+02 -0.85706222285E+02  0.11522256823E+03  0.00000000000E+00 0.  1.
</event>
<event>
 6    1  0.8259171E-006  0.1095210E+03  0.7561462E-02  0.1261459E+00
         -1   -1    0    0    0  501 -0.00000000000E+00  0.00000000000E+00  0.22729096367E+03  0.22729096367E+03  0.00000000000E+00 0.  1.
          1   -1    0    0  501    0  0.00000000000E+00 -0.00000000000E+00 -0.60447338158E+02  0.60447338158E+02  0.00000000000E+00 0. -1.
          5    1    1    2  502    0 -0.89092590409E+01 -0.37137930309E+02  0.72548550706E+02  0.82093637840E+02  0.41800000000E+01 0.  1.
         -5    1    1    2    0  502 -0.85657862693E+01  0.78889140777E+02  0.26547190316E+02  0.83780039035E+02  0.41800000000E+01 0.  1.
        -11    1    1    2    0    0 -0.27966493567E+02  0.12293791853E+02  0.17574225719E+02  0.35243658865E+02  0.00000000000E+00 0.  1.
         11    1    1    2    0    0  0.45441538878E+02 -0.54045002322E+02  0.50173658774E+02  0.86620966089E+02  0.00000000000E+00 0. -1.
</event>
<event>
 6    1  0.8259171E-006  0.8780988E+02  0.7561462E-02  0.1308244E+00
         -2   -1    0    0    0  501 -0.00000000000E+00  0.00000000000E+00  0.15380347000E+04  0.15380347000E+04  0.00000000000E+00 0.  1.
          2   -1    0    0  501    0  0.00000000000E+00 -0.00000000000E+00 -0.10635643827E+02  0.10635643827E+02  0.00000000000E+00 0. -1.
          5    1    1    2  502    0 -0.11693940511E+02 -0.32709006199E+02  0.10312577173E+04  0.10318510451E+04  0.41800000000E+01 0. -1.
         -5    1    1    2    0  502  0.36707554979E+02 -0.18901372957E+02  0.10818584253E+03  0.11587215116E+03  0.41800000000E+01 0. -1.
        -11    1    1    2    0    0  0.44134991264E+01  0.66159242478E+02  0.29516860934E+03  0.30252443254E+03  0.00000000000E+00 0.  1.
         11    1    1    2    0    0 -0.29427113594E+02 -0.14548863322E+02  0.92786886987E+02  0.98422715036E+02  0.00000000000E+00 0. -1.
</event>
<event>
 6    1  0.8259171E-006  0.1516381E+03  0.7561462E-02  0.1198474E+00
          2   -1    0    0  501    0  0.00000000000E+00  0.00000000000E+00  0.51641427726E+03  0.51641427726E+03  0.00000000000E+00 0. -1.
         -2   -1    0    0    0  501 -0.00000000000E+00 -0.00000000000E+00 -0.59350023613E+02  0.59350023613E+02  0.00000000000E+00 0.  1.
          5    1    1    2  502    0  0.29081162893E+01  0.22691602418E+02 -0.12402098503E+02  0.26356221427E+02  0.41800000000E+01 0. -1.
         -5    1    1    2    0  502 -0.76052703660E+02  0.92396139579E+02  0.22983817882E+03  0.25916041593E+03  0.41800000000E+01 0. -1.
        -11    1    1    2    0    0  0.80570862758E+01 -0.90253253962E+02  0.16439949713E+03  0.18771723722E+03  0.00000000000E+00 0. -1.
         11    1    1    2    0    0  0.65087501095E+02 -0.24834488035E+02  0.75228676199E+02  0.10253042630E+03  0.00000000000E+00 0.  1.
</event>
<event>
 6    1  0.8259171E-006  0.8610045E+02  0.7561462E-02  0.1312580E+00
         -3   -1    0    0    0  501 -0.00000000000E+00  0.00000000000E+00  0.38782636649E+02  0.38782636649E+02  0.00000000000E+00 0.  1.
          3   -1    0    0  501    0  0.00000000000E+00 -0.00000000000E+00 -0.38469896299E+03  0.38469896299E+03  0.00000000000E+00 0. -1.
          5    1    1    2  502    0  0.69896038221E+01 -0.45405662848E+02 -0.11960245828E+03  0.12819028515E+03  0.41800000000E+01 0. -1.
         -5    1    1    2    0  502  0.64261254051E+01  0.31181833872E+02  0.15561156113E+02  0.35682262133E+02  0.41800000000E+01 0. -1.
        -11    1    1    2    0    0 -0.93183490736E+01  0.53583610916E+02 -0.15080974374E+03  0.16031722863E+03  0.00000000000E+00 0.  1.
         11    1    1    2    0    0 -0.40973801536E+01 -0.39359781941E+02 -0.91065280436E+02  0.99291823729E+02  0.00000000000E+00 0. -1.
</event>
<event>
 6    1  0.8259171E-006  0.1220462E+03  0.7561462E-02  0.1239759E+00
         -1   -1    0    0    0  501 -0.00000000000E+00  0.00000000000E+00  0.12003392138E+03  0.12003392138E+03  0.00000000000E+00 0.  1.
          1   -1    0    0  501    0  0.00000000000E+00 -0.00000000000E+00 -0.16379179137E+03  0.16379179137E+03  0.00000000000E+00 0. -1.
          5    1    1    2  502    0  0.10832699110E+03 -0.12073739263E+02 -0.22143988717E+02  0.11130292366E+03  0.41800000000E+01 0.  1.
         -5    1    1    2    0  502 -0.27707367691E+02 -0.89360120628E+01  0.25664150114E+02  0.39034235448E+02  0.41800000000E+01 0.  1.
        -11    1    1    2    0    0 -0.17131917913E+02 -0.22761909515E+02  0.16932586430E+02  0.33140905530E+02  0.00000000000E+00 0.  1.
         11    1    1    2    0    0 -0.63487705493E+02  0.43771660841E+02 -0.64210617810E+02  0.10034764811E+03  0.00000000000E+00 0. -1.
</event>
<event>
 6    1  0.8259171E-006  0.1338772E+03  0.7561462E-02  0.1221813E+00
         -2   -1    0    0    0  501 -0.00000000000E+00  0.00000000000E+00  0.98855827118E+02  0.98855827118E+02  0.00000000000E+00 0.  1.
          2   -1    0    0  501    0  0.00000000000E+00 -0.00000000000E+00 -0.23322576391E+03  0.23322576391E+03  0.00000000000E+00 0. -1.
          5    1    1    2  502    0  0.35632662714E+02  0.10749579003E+03 -0.34010639279E+02  0.11831833125E+03  0.41800000000E+01 0. -1.
         -5    1    1    2    0  502 -0.48485472356E+02 -0.28864424751E+01 -0.30566531235E+02  0.57540922929E+02  0.41800000000E+01 0. -1.
        -11    1    1    2    0    0  0.38250556785E+01 -0.62283719349E+02  0.12131630078E+02  0.63569404553E+02  0.00000000000E+00 0.  1.
         11    1    1    2    0    0  0.90277539640E+01 -0.42325628205E+02 -0.81924396355E+02  0.92652932294E+02  0.00000000000E+00 0. -1.
</event>
<event>
 6    1  0.8259171E-006  0.1141042E+03  0.7561462E-02  0.1253153E+00
          1   -1    0    0  501    0  0.00000000000E+00  0.00000000000E+00  0.14111341705E+03  0.14111341705E+03  0.00000000000E+00 0. -1.
         -1   -1    0    0    0  501 -0.00000000000E+00 -0.00000000000E+00 -0.17726844221E+03  0.17726844221E+03  0.00000000000E+00 0.  1.
          5    1    1    2  502    0 -0.10397975310E+03  0.68338815406E+01 -0.26831502853E+02  0.10768422789E+03  0.41800000000E+01 0. -1.
         -5    1    1    2    0  502  0.17127722608E+02 -0.22350498096E+02 -0.64657880139E+02  0.70647133777E+02  0.41800000000E+01 0. -1.
        -11    1    1    2    0    0  0.27210883558E+02 -0.12037905761E+02 -0.23148504811E+02  0.37698761705E+02  0.00000000000E+00 0.  1.
         11    1    1    2    0    0  0.59641146935E+02  0.27554522316E+02  0.78482862646E+02  0.10235173588E+03  0.00000000000E+00 0. -1.
</event>
<event>
 6    1  0.8259171E-006  0.1339462E+03  0.7561462E-02  0.1221715E+00
          1   -1    0    0  501    0  0.00000000000E+00  0.00000000000E+00  0.36006535993E+02  0.36006535993E+02  0.00000000000E+00 0. -1.
         -1   -1    0    0    0  501 -0.00000000000E+00 -0.00000000000E+00 -0.51779708871E+03  0.51779708871E+03  0.00000000000E+00 0.  1.
          5    1    1    2  502    0  0.27238882864E+02 -0.20640541689E+02 -0.81492596600E+02  0.88467533036E+02  0.41800000000E+01 0.  1.
         -5    1    1    2    0  502 -0.66612078323E+02  0.92710899346E+02 -0.19990143266E+03  0.23024016812E+03  0.41800000000E+01 0.  1.
        -11    1    1    2    0    0  0.35719022885E+02 -0.92142474963E+02 -0.18424354464E+03  0.20907359477E+03  0.00000000000E+00 0.  1.
         11    1    1    2    0    0  0.36541725738E+01  0.20072117307E+02 -0.16152978813E+02  0.26022328776E+02  0.00000000000E+00 0. -1.
</event>
<event>
 6    1  0.8259171E-006  0.2058506E+03  0.7561462E-02  0.1144895E+00
          2   -1    0    0  501    0  0.00000000000E+00  0.00000000000E+00  0.13323256719E+03  0.13323256719E+03  0.00000000000E+00 0. -1.
         -2   -1    0    0    0  501 -0.00000000000E+00 -0.00000000000E+00 -0.37736389988E+03  0.37736389988E+03  0.00000000000E+00 0.  1.
          5    1    1    2  502    0  0.29560030471E+02  0.36570496130E+02  0.22015259383E+02  0.52089736363E+02  0.41800000000E+01 0. -1.
         -5    1    1    2    0  502 -0.54998946504E+02 -0.18539302447E+03 -0.10842619212E+03  0.22174122119E+03  0.41800000000E+01 0.  1.
        -11    1    1    2    0    0 -0.29117589470E+02  0.41793014110E+02 -0.75934624306E+02  0.91436082667E+02  0.00000000000E+00 0.  1.
         11    1    1    2    0    0  0.54556505503E+02  0.10702951423E+03 -0.81785775652E+02  0.14532942685E+03  0.00000000000E+00 0. -1.
</event>
<event>
 6    1  0.8259171E-006  0.1172133E+03  0.7561462E-02  0.1247766E+00
         -3   -1    0    0    0  501 -0.00000000000E+00  0.00000000000E+00  0.33593602047E+03  0.33593602047E+03  0.00000000000E+00 0.  1.
          3   -1    0    0  501    0  0.00000000000E+00 -0.00000000000E+00 -0.46932917827E+02  0.46932917827E+02  0.00000000000E+00 0. -1.
          5    1    1    2  502    0  0.39891379646E+02  0.30618119508E+02  0.87963655421E+02  0.10140941025E+03  0.41800000000E+01 0. -1.
         -5    1    1    2    0  502 -0.76209723340E+02  0.19267750389E+02  0.12636036397E+03  0.14887438369E+03  0.41800000000E+01 0.  1.
        -11    1    1    2    0    0 -0.17830463437E+02  0.13144288873E+02  0.20919431241E+01  0.22250258030E+02  0.00000000000E+00 0.  1.
         11    1    1    2    0    0  0.54148807131E+02 -0.63030158771E+02  0.72587140126E+02  0.11033488632E+03  0.00000000000E+00 0. -1.
</event>
<event>
 6    1  0.8259171E-006  0.4104239E+03  0.7561462E-02  0.1040229E+00
          2   -1    0    0  501    0  0.00000000000E+00  0.00000000000E+00  0.39661893672E+03  0.39661893672E+03  0.00000000000E+00 0. -1.
         -2   -1    0    0    0  501 -0.00000000000E+00 -0.00000000000E+00 -0.49138355326E+03  0.49138355326E+03  0.00000000000E+00 0.  1.
          5    1    1    2  502    0  0.27517618180E+03 -0.29769820749E+03 -0.13996406541E+03  0.42889808320E+03  0.41800000000E+01 0. -1.
         -5    1    1    2    0  502  0.34472242644E+01 -0.23677768660E+01 -0.31931909901E+02  0.32474743915E+02  0.41800000000E+01 0. -1.
        -11    1    1    2    0    0 -0.12803290548E+03  0.13364141081E+03  0.81309839713E+02  0.20214782117E+03  0.00000000000E+00 0. -1.
         11    1    1    2    0    0 -0.15059050058E+03  0.16642457354E+03 -0.41784809385E+01  0.22448184168E+03  0.00000000000E+00 0.  1.
</event>
<event>
 6    1  0.8259171E-006  0.1002820E+03  0.7561462E-02  0.1279704E+00
          1   -1    0    0  501    0  0.00000000000E+00  0.00000000000E+00  0.15774044556E+03  0.15774044556E+03  0.00000000000E+00 0. -1.
         -1   -1    0    0    0  501 -0.00000000000E+00 -0.00000000000E+00 -0.76002591742E+02  0.76002591742E+02  0.00000000000E+00 0.  1.
          5    1    1    2  502    0 -0.40333518420E+02  0.21430656545E+02  0.51433518112E+02  0.68912589079E+02  0.41800000000E+01 0.  1.
         -5    1    1    2    0  502  0.53008158650E+02 -0.34919678612E+02 -0.94620213440E+01  0.64313692832E+02  0.41800000000E+01 0.  1.
        -11    1    1    2    0    0 -0.49736374317E+02  0.19721633143E+02  0.15211795011E+02  0.55624171468E+02  0.00000000000E+00 0.  1.
         11    1    1    2    0    0  0.37061734087E+02 -0.62326110764E+01  0.24554562037E+02  0.44892583922E+02  0.00000000000E+00 0. -1.
</event>
<event>
 6    1  0.8259171E-006  0.1462766E+03  0.7561462E-02  0.1205124E+00
          2   -1    0    0  501    0  0.00000000000E+00  0.00000000000E+00  0.65131039041E+03  0.65131039041E+03  0.00000000000E+00 0.  1.
         -2   -1    0    0    0  501 -0.00000000000E+00 -0.00000000000E+00 -0.75621395543E+02  0.75621395543E+02  0.00000000000E+00 0. -1.
          5    1    1    2  502    0  0.12396205423E+03 -0.17772177648E+02 -0.11532676005E+01  0.12530460332E+03  0.41800000000E+01 0.  1.
         -5    1    1    2    0  502  0.20692517863E+01 -0.70797287745E+01  0.64201894462E+02  0.64759246560E+02  0.41800000000E+01 0.  1.
        -11    1    1    2    0    0 -0.13578736899E+03  0.41047377798E+01  0.41954159358E+03  0.44098776309E+03  0.00000000000E+00 0.  1.
         11    1    1    2    0    0  0.97560629769E+01  0.20747168643E+02  0.93098774426E+02  0.95880172982E+02  0.00000000000E+00 0. -1.
</event>
<event>
 6    1  0.8259171E-006  0.9190214E+02  0.7561462E-02  0.1298310E+00
         -1   -1    0    0    0  501 -0.00000000000E+00  0.00000000000E+00  0.62783270311E+03  0.62783270311E+03  0.00000000000E+00 0.  1.
          1   -1    0    0  501    0  0.00000000000E+00 -0.00000000000E+00 -0.24831897678E+02  0.24831897678E+02  0.00000000000E+00 0. -1.
          5    1    1    2  502    0  0.20524590131E+02 -0.71110237459E+02  0.34615257830E+03  0.35400141883E+03  0.41800000000E+01 0.  1.
         -5    1    1    2    0  502 -0.18266632683E+01  0.11892515338E+02 -0.57207100081E+01  0.13963077840E+02  0.41800000000E+01 0.  1.
        -11    1    1    2    0    0 -0.45892178857E+02  0.22137403433E+02  0.69175888566E+02  0.85915425099E+02  0.00000000000E+00 0. -1.
         11    1    1    2    0    0  0.27194251994E+02  0.37080318688E+02  0.19339304858E+03  0.19878467902E+03  0.00000000000E+00 0.  1.
</event>
<event>
 6    1  0.9158491E-006  0.1497068E+03  0.7561462E-02  0.1200834E+00
          1   -1    0    0  501    0  0.00000000000E+00  0.00000000000E+00  0.16563896571E+03  0.16563896571E+03  0.00000000000E+00 0. -1.
         -1   -1    0    0    0  501 -0.00000000000E+00 -0.00000000000E+00 -0.14272574732E+03  0.14272574732E+03  0.00000000000E+00 0.  1.
          5    1    1    2  502    0 -0.66647121441E+02 -0.19884886212E+02 -0.39350400178E+01  0.69786850022E+02  0.41800000000E+01 0.  1.
         -5    1    1    2    0  502 -0.80332383003E+01  0.92272188033E+02 -0.16486532261E+02  0.94169887692E+02  0.41800000000E+01 0.  1.
        -11    1    1    2    0    0  0.78505395848E+02 -0.15517957823E+02  0.17949507920E+02  0.82012736979E+02  0.00000000000E+00 0.  1.
         11    1    1    2    0    0 -0.38250361064E+01 -0.56869343998E+02  0.25385282747E+02  0.62395238345E+02  0.00000000000E+00 0. -1.
</event>
<event>
 6    1  0.8259171E-006  0.9416587E+02  0.7561462E-02  0.1293066E+00
         -2   -1    0    0    0  501 -0.00000000000E+00  0.00000000000E+00  0.67210192077E+02  0.67210192077E+02  0.00000000000E+00 0.  1.
          2   -1    0    0  501    0  0.00000000000E+00 -0.00000000000E+00 -0.23751578194E+03  0.23751578194E+03  0.00000000000E+00 0. -1.
          5    1    1    2  502    0  0.67037006723E+02  0.17101658237E+02  0.14892110254E+02  0.70891990610E+02  0.41800000000E+01 0. -1.
         -5    1    1    2    0  502 -0.23142569350E+02  0.13096611090E+02 -0.71480385692E+02  0.76380741531E+02  0.41800000000E+01 0. -1.
        -11    1    1    2    0    0  0.47176025658E+01  0.20988287804E+02  0.23134256440E+01  0.21635987085E+02  0.00000000000E+00 0.  1.
         11    1    1    2    0    0 -0.48612039938E+02 -0.51186557131E+02 -0.11603074007E+03  0.13581725479E+03  0.00000000000E+00 0. -1.
</event>
<event>
 6    1  0.8488145E-006  0.2665360E+03  0.7561462E-02  0.1103279E+00
         -2   -1    0    0    0  501 -0.00000000000E+00  0.00000000000E+00  0.99595424475E+02  0.99595424475E+02  0.00000000000E+00 0.  1.
          2   -1    0    0  501    0  0.00000000000E+00 -0.00000000000E+00 -0.85902490083E+03  0.85902490083E+03  0.00000000000E+00 0. -1.
          5    1    1    2  502    0 -0.11723019383E+02  0.12510571593E+03 -0.43571683332E+02  0.13305951048E+03  0.41800000000E+01 0.  1.
         -5    1    1    2    0  502 -0.75432749203E+02  0.11456286246E+03 -0.19179598866E+03  0.23583452414E+03  0.41800000000E+01 0.  1.
        -11    1    1    2    0    0  0.22025799703E+02 -0.18138509564E+03 -0.36767680230E+03  0.41057510851E+03  0.00000000000E+00 0. -1.
         11    1    1    2    0    0  0.65129968883E+02 -0.58283482745E+02 -0.15638500205E+03  0.17915118218E+03  0.00000000000E+00 0.  1.
</event>
<event>
 6    1  0.8259171E-006  0.9820228E+02  0.7561462E-02  0.1284122E+00
         -1   -1    0    0    0  501 -0.00000000000E+00  0.00000000000E+00  0.33111448592E+03  0.33111448592E+03  0.00000000000E+00 0. -1.
          1   -1    0    0  501    0  0.00000000000E+00 -0.00000000000E+00 -0.50058838673E+02  0.50058838673E+02  0.00000000000E+00 0.  1.
          5    1    1    2  502    0  0.72356367296E+02  0.21789165877E+01  0.19650595042E+02  0.75125294351E+02  0.41800000000E+01 0.  1.
         -5    1    1    2    0  502 -0.51637039936E+01  0.28462724194E+02  0.13073283946E+03  0.13396021133E+03  0.41800000000E+01 0.  1.
        -11    1    1    2    0    0 -0.43217844843E+02 -0.48358587941E+02  0.12627199659E+03  0.14195404983E+03  0.00000000000E+00 0. -1.
         11    1    1    2    0    0 -0.23974818460E+02  0.17716947159E+02  0.44002161596E+01  0.30133769082E+02  0.00000000000E+00 0.  1.
</event>
<event>
 6    1  0.8259171E-006  0.1088548E+03  0.7561462E-02  0.1262705E+00
          2   -1    0    0  501    0  0.00000000000E+00  0.00000000000E+00  0.16921784190E+03  0.16921784190E+03  0.00000000000E+00 0. -1.
         -2   -1    0    0    0  501 -0.00000000000E+00 -0.00000000000E+00 -0.10174304409E+03  0.10174304409E+03  0.00000000000E+00 0.  1.
          5    1    1    2  502    0 -0.39957762940E+02  0.39167329841E+02  0.29395239367E+02  0.63342363735E+02  0.41800000000E+01 0. -1.
         -5    1    1    2    0  502 -0.19475789785E+02 -0.77463816357E+02 -0.13867439586E+02  0.81177136639E+02  0.41800000000E+01 0. -1.
        -11    1    1    2    0    0  0.27568563616E+02 -0.48372821903E+01 -0.21645053876E+02  0.35382670280E+02  0.00000000000E+00 0.  1.
         11    1    1    2    0    0  0.31864989108E+02  0.43133768706E+02  0.73592051908E+02  0.91058715331E+02  0.00000000000E+00 0. -1.
</event>
<event>
 6    1  0.8259171E-006  0.1311705E+03  0.7561462E-02  0.1225729E+00
          2   -1    0    0  501    0  0.00000000000E+00  0.00000000000E+00  0.71734915695E+03  0.71734915695E+03  0.00000000000E+00 0. -1.
         -2   -1    0    0    0  501 -0.00000000000E+00 -0.00000000000E+00 -0.39853989683E+02  0.39853989683E+02  0.00000000000E+00 0.  1.
          5    1    1    2  502    0 -0.39893245267E+02  0.13310373216E+02  0.23785175990E+03  0.24157725294E+03  0.41800000000E+01 0. -1.
         -5    1    1    2    0  502 -0.25677487664E+02  0.75690815793E+02  0.36843969924E+02  0.88110064623E+02  0.41800000000E+01 0.  1.
        -11    1    1    2    0    0  0.33321359302E+02  0.10904307084E+02  0.66003767172E+02  0.74737635630E+02  0.00000000000E+00 0.  1.
         11    1    1    2    0    0  0.32249373629E+02 -0.99905496093E+02  0.33679567028E+03  0.35277819344E+03  0.00000000000E+00 0. -1.
</event>
<event>
 6    1  0.8424062E-006  0.1170938E+03  0.7561462E-02  0.1247970E+00
         -1   -1    0    0    0  501 -0.00000000000E+00  0.00000000000E+00  0.21606066226E+03  0.21606066226E+03  0.00000000000E+00 0.  1.
          1   -1    0    0  501    0  0.00000000000E+00 -0.00000000000E+00 -0.11041084339E+03  0.11041084339E+03  0.00000000000E+00 0. -1.
          5    1    1    2  502    0 -0.37016163161E+02  0.94785597521E+02  0.13828654999E+03  0.17174151548E+03  0.41800000000E+01 0.  1.
         -5    1    1    2    0  502  0.21345535717E+02 -0.90417034900E+01 -0.11813154445E+02  0.26351609343E+02  0.41800000000E+01 0.  1.
        -11    1    1    2    0    0  0.41056667454E+02 -0.59364460845E+02  0.18641228514E+02  0.74547196825E+02  0.00000000000E+00 0. -1.
         11    1    1    2    0    0 -0.25386040009E+02 -0.26379433186E+02 -0.39464805187E+02  0.53831184001E+02  0.00000000000E+00 0.  1.
</event>
<event>
 6    1  0.8259171E-006  0.1387295E+03  0.7561462E-02  0.1215049E+00
         -1   -1    0    0    0  501 -0.00000000000E+00  0.00000000000E+00  0.38017308578E+02  0.38017308578E+02  0.00000000000E+00 0.  1.
          1   -1    0    0  501    0  0.00000000000E+00 -0.00000000000E+00 -0.60124351163E+03  0.60124351163E+03  0.00000000000E+00 0. -1.
          5    1    1    2  502    0 -0.90660988214E+02 -0.37801192271E+02 -0.11859001012E+03  0.15404352573E+03  0.41800000000E+01 0.  1.
         -5    1    1    2    0  502  0.39661662460E+02 -0.42358966649E+02 -0.87641687334E+02  0.10519442610E+03  0.41800000000E+01 0.  1.
        -11    1    1    2    0    0  0.30450863770E+02  0.92234911353E+02 -0.21342195631E+03  0.23448553348E+03  0.00000000000E+00 0.  1.
         11    1    1    2    0    0  0.20548461984E+02 -0.12074752432E+02 -0.14357254929E+03  0.14553733489E+03  0.00000000000E+00 0. -1.
</event>
<event>
 6    1  0.8259171E-006  0.8871554E+02  0.7561462E-02  0.1305992E+00
          1   -1    0    0  501    0  0.00000000000E+00  0.00000000000E+00  0.76998610821E+02  0.76998610821E+02  0.00000000000E+00 0. -1.
         -1   -1    0    0    0  501 -0.00000000000E+00 -0.00000000000E+00 -0.21652930942E+03  0.21652930942E+03  0.00000000000E+00 0.  1.
          5    1    1    2  502    0  0.11612519575E+02  0.20279060962E+02  0.16138040254E+02  0.28705394400E+02  0.41800000000E+01 0. -1.
         -5    1    1    2    0  502 -0.57489185963E+02 -0.31279580105E+01 -0.15095838048E+03  0.16161898299E+03  0.41800000000E+01 0. -1.
        -11    1    1    2    0    0  0.47308993581E+02  0.25192149606E+02 -0.21338501068E+02  0.57689833621E+02  0.00000000000E+00 0. -1.
         11    1    1    2    0    0 -0.14323271928E+01 -0.42343252558E+02  0.16628142699E+02  0.45513709231E+02  0.00000000000E+00 0.  1.
</event>
<event>
 6    1  0.8259171E-006  0.1082247E+03  0.7561462E-02  0.1263893E+00
          1   -1    0    0  501    0  0.00000000000E+00  0.00000000000E+00  0.76528849050E+03  0.76528849050E+03  0.00000000000E+00 0. -1.
         -1   -1    0    0    0  501 -0.00000000000E+00 -0.00000000000E+00 -0.61332121039E+02  0.61332121039E+02  0.00000000000E+00 0.  1.
          5    1    1    2  502    0 -0.66331427158E+00  0.11275384972E+02  0.76579038387E+02  0.77520292907E+02  0.41800000000E+01 0. -1.
         -5    1    1    2    0  502  0.39682948348E+01  0.80283540534E+02 -0.23272521444E+02  0.83787092675E+02  0.41800000000E+01 0.  1.
        -11    1    1    2    0    0 -0.56923989779E+01  0.15663936485E+02  0.22104168697E+02  0.27683146246E+02  0.00000000000E+00 0.  1.
         11    1    1    2    0    0  0.23874184146E+01 -0.10722286199E+03  0.62854568382E+03  0.63763007971E+03  0.00000000000E+00 0. -1.
</event>
<event>
 6    1  0.8259171E-006  0.7564742E+02  0.7561462E-02  0.1341878E+00
          3   -1    0    0  501    0  0.00000000000E+00  0.00000000000E+00  0.26728915000E+03  0.26728915000E+03  0.00000000000E+00 0. -1.
         -3   -1    0    0    0  501 -0.00000000000E+00 -0.00000000000E+00 -0.48115528596E+02  0.48115528596E+02  0.00000000000E+00 0.  1.
          5    1    1    2  502    0 -0.14492246762E+02 -0.13731481211E+02  0.10536938850E+03  0.10732548265E+03  0.41800000000E+01 0.  1.
         -5    1    1    2    0  502  0.27214425098E+02  0.28345880912E+02 -0.21037957578E+02  0.44768090836E+02  0.41800000000E+01 0.  1.
        -11    1    1    2    0    0  0.34608817643E+02  0.12543257214E+02  0.64737136325E+02  0.74471473597E+02  0.00000000000E+00 0. -1.
         11    1    1    2    0    0 -0.47330995979E+02 -0.27157656915E+02  0.70105054153E+02  0.88839631513E+02  0.00000000000E+00 0.  1.
</event>
<event>
 6    1  0.8259171E-006  0.8538473E+02  0.7561462E-02  0.1314429E+00
          2   -1    0    0  501    0  0.00000000000E+00  0.00000000000E+00  0.30184365902E+03  0.30184365902E+03  0.00000000000E+00 0. -1.
         -2   -1    0    0    0  501 -0.00000000000E+00 -0.00000000000E+00 -0.39070466754E+02  0.39070466754E+02  0.00000000000E+00 0.  1.
          5    1    1    2  502    0 -0.48382683478E+02  0.48791823693E+01  0.94209607699E+01  0.49708323075E+02  0.41800000000E+01 0.  1.
         -5    1    1    2    0  502  0.39006846257E+02 -0.17265662323E+01  0.14006954502E+03  0.14546980761E+03  0.41800000000E+01 0.  1.
        -11    1    1    2    0    0  0.20880049840E+02 -0.39440254304E+02  0.28907950547E+02  0.53171230433E+02  0.00000000000E+00 0. -1.
         11    1    1    2    0    0 -0.11504212619E+02  0.36287638167E+02  0.84374735933E+02  0.92564764654E+02  0.00000000000E+00 0.  1.
</event>
<event>
 6    1  0.8259171E-006  0.7968477E+02  0.7561462E-02  0.1329948E+00
          1   -1    0    0  501    0  0.00000000000E+00  0.00000000000E+00  0.27192576877E+03  0.27192576877E+03  0.00000000000E+00 0. -1.
         -1   -1    0    0    0  501 -0.00000000000E+00 -0.00000000000E+00 -0.52569449859E+02  0.52569449859E+02  0.00000000000E+00 0.  1.
          5    1    1    2  502    0 -0.27193746150E+02 -0.12025090521E+02 -0.12950893789E+02  0.32700163328E+02  0.41800000000E+01 0. -1.
         -5    1    1    2    0  502  0.67097148011E+02 -0.20639161754E+02  0.93842306642E+02  0.11726829574E+03  0.41800000000E+01 0.  1.
        -11    1    1    2    0    0 -0.35796943561E+01  0.20353750513E+02 -0.87173641603E+01  0.22429485271E+02  0.00000000000E+00 0.  1.
         11    1    1    2    0    0 -0.36323707505E+02  0.12310501762E+02  0.14718227022E+03  0.15209727430E+03  0.00000000000E+00 0. -1.
</event>
<event>
 6    1  0.8259171E-006  0.1547016E+03  0.7561462E-02  0.1194812E+00
          2   -1    0    0  501    0  0.00000000000E+00  0.00000000000E+00  0.11051557501E+04  0.11051557501E+04  0.00000000000E+00 0. -1.
         -2   -1    0    0    0  501 -0.00000000000E+00 -0.00000000000E+00 -0.29668845414E+02  0.29668845414E+02  0.00000000000E+00 0.  1.
          5    1    1    2  502    0  0.65127340253E+02 -0.34852054426E+01  0.70037903659E+02  0.95794036633E+02  0.41800000000E+01 0. -1.
         -5    1    1    2    0  502  0.52754479160E+01  0.96845415555E+02  0.23032614117E+03  0.24994893192E+03  0.41800000000E+01 0. -1.
        -11    1    1    2    0    0 -0.66846917132E+02 -0.14974525944E+02  0.40234084504E+03  0.40813098675E+03  0.00000000000E+00 0.  1.
         11    1    1    2    0    0 -0.35558710368E+01 -0.78385684169E+02  0.37278201480E+03  0.38095064019E+03  0.00000000000E+00 0. -1.
</event>
<event>
 6    1  0.8259171E-006  0.9788398E+02  0.7561462E-02  0.1284810E+00
         -1   -1    0    0    0  501 -0.00000000000E+00  0.00000000000E+00  0.21291228027E+03  0.21291228027E+03  0.00000000000E+00 0.  1.
          1   -1    0    0  501    0  0.00000000000E+00 -0.00000000000E+00 -0.65975843455E+02  0.65975843455E+02  0.00000000000E+00 0. -1.
          5    1    1    2  502    0  0.13112009646E+02  0.29981251714E+02  0.88485132542E+02  0.94434587585E+02  0.41800000000E+01 0.  1.
         -5    1    1    2    0  502  0.19067006667E+02 -0.68002324984E+02  0.30074613485E+02  0.76875364863E+02  0.41800000000E+01 0. -1.
        -11    1    1    2    0    0 -0.57535362183E+02  0.19959298897E+02  0.41603569063E+02  0.73753294657E+02  0.00000000000E+00 0. -1.
         11    1    1    2    0    0  0.25356345870E+02  0.18061774372E+02 -0.13226878277E+02  0.33824876619E+02  0.00000000000E+00 0.  1.
</event>
<event>
 6    1  0.9478918E-006  0.2019525E+03  0.7561462E-02  0.1148102E+00
          2   -1    0    0  501    0  0.00000000000E+00  0.00000000000E+00  0.93757969067E+03  0.93757969067E+03  0.00000000000E+00 0.  1.
         -2   -1    0    0    0  501 -0.00000000000E+00 -0.00000000000E+00 -0.55819865632E+02  0.55819865632E+02  0.00000000000E+00 0. -1.
          5    1    1    2  502    0  0.45687611985E+02 -0.14843513614E+03  0.14870508231E+03  0.21506050645E+03  0.41800000000E+01 0. -1.
         -5    1    1    2    0  502 -0.47445125659E+02 -0.31605874238E+02  0.11064861648E+03  0.12454139860E+03  0.41800000000E+01 0. -1.
        -11    1    1    2    0    0 -0.31281679060E+02  0.10031359592E+03  0.43442531261E+03  0.44695269684E+03  0.00000000000E+00 0.  1.
         11    1    1    2    0    0  0.33039192734E+02  0.79727414458E+02  0.18798081364E+03  0.20684495442E+03  0.00000000000E+00 0. -1.
</event>
<event>
 6    1  0.8259171E-006  0.8641634E+02  0.7561462E-02  0.1311770E+00
         -2   -1    0    0    0  501 -0.00000000000E+00  0.00000000000E+00  0.28103639960E+02  0.28103639960E+02  0.00000000000E+00 0.  1.
          2   -1    0    0  501    0  0.00000000000E+00 -0.00000000000E+00 -0.52977663711E+03  0.52977663711E+03  0.00000000000E+00 0. -1.
          5    1    1    2  502    0  0.39187079243E+02 -0.34735222645E+01 -0.87674390332E+01  0.40522005426E+02  0.41800000000E+01 0. -1.
         -5    1    1    2    0  502  0.48020225723E+01 -0.26570193528E+02 -0.25284013720E+03  0.25431209563E+03  0.41800000000E+01 0. -1.
        -11    1    1    2    0    0 -0.72083339223E+02  0.29395086304E+02 -0.19465124859E+03  0.20964061503E+03  0.00000000000E+00 0.  1.
         11    1    1    2    0    0  0.28094237408E+02  0.64862948898E+00 -0.45414172316E+02  0.53405560974E+02  0.00000000000E+00 0. -1.
</event>
<event>
 6    1  0.8259171E-006  0.1291691E+03  0.7561462E-02  0.1228694E+00
         -1   -1    0    0    0  501 -0.00000000000E+00  0.00000000000E+00  0.22397034450E+03  0.22397034450E+03  0.00000000000E+00 0.  1.
          1   -1    0    0  501    0  0.00000000000E+00 -0.00000000000E+00 -0.10556405242E+03  0.10556405242E+03  0.00000000000E+00 0. -1.
          5    1    1    2  502    0  0.55625307047E+01 -0.64638521618E+02 -0.64787815575E+01  0.65333966933E+02  0.41800000000E+01 0.  1.
         -5    1    1    2    0  502 -0.83547610534E+02 -0.11152122747E+02  0.78964831839E+02  0.11557460852E+03  0.41800000000E+01 0.  1.
        -11    1    1    2    0    0  0.49377810724E+02  0.43637085628E+02 -0.20911911842E+02  0.69135168264E+02  0.00000000000E+00 0. -1.
         11    1    1    2    0    0  0.28607269105E+02  0.32153558737E+02  0.66832153645E+02  0.79490653199E+02  0.00000000000E+00 0.  1.
</event>
<event>
 6    1  0.8259171E-006  0.1076886E+03  0.7561462E-02  0.1264911E+00
         -2   -1    0    0    0  501 -0.00000000000E+00  0.00000000000E+00  0.22821841700E+03  0.22821841700E+03  0.00000000000E+00 0. -1.
          2   -1    0    0  501    0  0.00000000000E+00 -0.00000000000E+00 -0.65972887937E+02  0.65972887937E+02  0.00000000000E+00 0.  1.
          5    1    1    2  502    0  0.62961649621E+02  0.10177374557E+01  0.10454509051E+03  0.12211614743E+03  0.41800000000E+01 0. -1.
         -5    1    1    2    0  502 -0.51546104810E+02  0.31893967650E+02  0.43014951635E+02  0.74444506565E+02  0.41800000000E+01 0. -1.
        -11    1    1    2    0    0  0.34548733470E+02  0.71780681051E+00  0.20827280154E+02  0.40347315024E+02  0.00000000000E+00 0. -1.
         11    1    1    2    0    0 -0.45964278281E+02 -0.33629511916E+02 -0.61417932409E+01  0.57283335917E+02  0.00000000000E+00 0.  1.
</event>
<event>
 6    1  0.8259171E-006  0.1020136E+03  0.7561462E-02  0.1276118E+00
         -1   -1    0    0    0  501 -0.00000000000E+00  0.00000000000E+00  0.44880082745E+03  0.44880082745E+03  0.00000000000E+00 0.  1.
          1   -1    0    0  501    0  0.00000000000E+00 -0.00000000000E+00 -0.72138412053E+02  0.72138412053E+02  0.00000000000E+00 0. -1.
          5    1    1    2  502    0  0.40342935181E+02  0.45879771690E+02  0.73885462245E+02  0.95963742115E+02  0.41800000000E+01 0. -1.
         -5    1    1    2    0  502 -0.64908708782E+02 -0.51710864375E+02  0.31662124220E+03  0.32734330202E+03  0.41800000000E+01 0.  1.
        -11    1    1    2    0    0 -0.82723678129E+00  0.26770408193E+02  0.31662159029E+02  0.41470849882E+02  0.00000000000E+00 0.  1.
         11    1    1    2    0    0  0.25393010382E+02 -0.20939315508E+02 -0.45506448074E+02  0.56161345483E+02  0.00000000000E+00 0. -1.
</event>
<event>
 6    1  0.8259171E-006  0.1056778E+03  0.7561462E-02  0.1268790E+00
         -1   -1    0    0    0  501 -0.00000000000E+00  0.00000000000E+00  0.20242668481E+03  0.20242668481E+03  0.00000000000E+00 0.  1.
          1   -1    0    0  501    0  0.00000000000E+00 -0.00000000000E+00 -0.64964971689E+02  0.64964971689E+02  0.00000000000E+00 0. -1.
          5    1    1    2  502    0 -0.25870978348E+02  0.46397419144E+02  0.29924433050E+02  0.61114418244E+02  0.41800000000E+01 0. -1.
         -5    1    1    2    0  502  0.81301794729E+01 -0.75712250325E+02  0.34453627182E+02  0.83683746890E+02  0.41800000000E+01 0. -1.
        -11    1    1    2    0    0  0.14405912936E+02 -0.24213264619E+02 -0.42387841882E+01  0.28491749725E+02  0.00000000000E+00 0. -1.
         11    1    1    2    0    0  0.33348859390E+01  0.53528095799E+02  0.77322437075E+02  0.94101741638E+02  0.00000000000E+00 0.  1.
</event>
<event>
 6    1  0.8259171E-006  0.9233632E+02  0.7561462E-02  0.1297291E+00
          2   -1    0    0  501    0  0.00000000000E+00  0.00000000000E+00  0.32115482277E+03  0.32115482277E+03  0.00000000000E+00 0. -1.
         -2   -1    0    0    0  501 -0.00000000000E+00 -0.00000000000E+00 -0.35459909335E+02  0.35459909335E+02  0.00000000000E+00 0.  1.
          5    1    1    2  502    0  0.20760553109E+02 -0.42035897670E+02  0.11158888505E+03  0.12110973918E+03  0.41800000000E+01 0. -1.
         -5    1    1    2    0  502 -0.57925504064E+01  0.50199754595E+02  0.19026495520E+02  0.54157630426E+02  0.41800000000E+01 0.  1.
        -11    1    1    2    0    0 -0.42047436942E+02  0.21085565729E+02  0.48525584995E+02  0.67581953468E+02  0.00000000000E+00 0.  1.
         11    1    1    2    0    0  0.27079434239E+02 -0.29249422654E+02  0.10655394787E+03  0.11376540903E+03  0.00000000000E+00 0. -1.
</event>
<event>
 6    1  0.8259171E-006  0.2749731E+03  0.7561462E-02  0.1098467E+00
          3   -1    0    0  501    0  0.00000000000E+00  0.00000000000E+00  0.10510032580E+03  0.10510032580E+03  0.00000000000E+00 0. -1.
         -3   -1    0    0    0  501 -0.00000000000E+00 -0.00000000000E+00 -0.90600590854E+03  0.90600590854E+03  0.00000000000E+00 0.  1.
          5    1    1    2  502    0  0.78895037308E+02 -0.70278496352E+02 -0.36365101800E+03  0.37871233048E+03  0.41800000000E+01 0.  1.
         -5    1    1    2    0  502  0.66455468313E+02 -0.15192892768E+03 -0.23049031942E+03  0.28397533006E+03  0.41800000000E+01 0.  1.
        -11    1    1    2    0    0 -0.15085654450E+02  0.95216256303E+02 -0.92404089246E+02  0.13353736610E+03  0.00000000000E+00 0.  1.
         11    1    1    2    0    0 -0.13026485117E+03  0.12699116773E+03 -0.11436015607E+03  0.21488120771E+03  0.00000000000E+00 0. -1.
</event>
<event>
 6    1  0.8259171E-006  0.1092047E+03  0.7561462E-02  0.1262050E+00
          1   -1    0    0  501    0  0.00000000000E+00  0.00000000000E+00  0.80011263316E+02  0.80011263316E+02  0.00000000000E+00 0. -1.
         -1   -1    0    0    0  501 -0.00000000000E+00 -0.00000000000E+00 -0.21172006131E+03  0.21172006131E+03  0.00000000000E+00 0.  1.
          5    1    1    2  502    0 -0.65480794531E+02 -0.16404346537E+02 -0.46950587243E+02  0.82332661078E+02  0.41800000000E+01 0.  1.
         -5    1    1    2    0  502  0.37784102642E+02  0.42336193603E+02 -0.94196120677E+02  0.11004714104E+03  0.41800000000E+01 0.  1.
        -11    1    1    2    0    0  0.25748483234E+02  0.29074034314E+02 -0.11436802194E+02  0.40485606141E+02  0.00000000000E+00 0. -1.
         11    1    1    2    0    0  0.19482086548E+01 -0.55005881381E+02  0.20874712118E+02  0.58865916365E+02  0.00000000000E+00 0.  1.
</event>
<event>
 6    1  0.8259171E-006  0.1916446E+03  0.7561462E-02  0.1156986E+00
         -2   -1    0    0    0  501 -0.00000000000E+00  0.00000000000E+00  0.32693319936E+02  0.32693319936E+02  0.00000000000E+00 0.  1.
          2   -1    0    0  501    0  0.00000000000E+00 -0.00000000000E+00 -0.12952152572E+04  0.12952152572E+04  0.00000000000E+00 0. -1.
          5    1    1    2  502    0 -0.48195059291E+02  0.13681624640E+03 -0.33493156988E+03  0.36501791452E+03  0.41800000000E+01 0. -1.
         -5    1    1    2    0  502  0.51816316881E+02  0.22507062368E+02 -0.10452513442E+03  0.11888849682E+03  0.41800000000E+01 0. -1.
        -11    1    1    2    0    0 -0.36161682112E+02 -0.13790609790E+03 -0.71633965460E+03  0.73038911537E+03  0.00000000000E+00 0. -1.
         11    1    1    2    0    0  0.32540424522E+02 -0.21417210872E+02 -0.10672557835E+03  0.11361305041E+03  0.00000000000E+00 0.  1.
</event>
<event>
 6    1  0.8259171E-006  0.1208958E+03  0.7561462E-02  0.1241627E+00
          2   -1    0    0  501    0  0.00000000000E+00  0.00000000000E+00  0.30664428925E+02  0.30664428925E+02  0.00000000000E+00 0. -1.
         -2   -1    0    0    0  501 -0.00000000000E+00 -0.00000000000E+00 -0.73373000384E+03  0.73373000384E+03  0.00000000000E+00 0.  1.
          5    1    1    2  502    0  0.61542983679E+02  0.30009055758E+02 -0.32614443842E+03  0.33328028651E+03  0.41800000000E+01 0. -1.
         -5    1    1    2    0  502 -0.75221245439E+02 -0.65172666023E+02 -0.26566332508E+03  0.28372554847E+03  0.41800000000E+01 0.  1.
        -11    1    1    2    0    0  0.37922934979E+02  0.30997089025E+02 -0.11255933009E+03  0.12275410916E+03  0.00000000000E+00 0. -1.
         11    1    1    2    0    0 -0.24244673219E+02  0.41665212403E+01  0.13015186748E+01  0.24634488621E+02  0.00000000000E+00 0.  1.
</event>
<event>
 6    1  0.8259171E-006  0.1377033E+03  0.7561462E-02  0.1216453E+00
          2   -1    0    0  501    0  0.00000000000E+00  0.00000000000E+00  0.11769939914E+04  0.11769939914E+04  0.00000000000E+00 0. -1.
         -2   -1    0    0    0  501 -0.00000000000E+00 -0.00000000000E+00 -0.17691079934E+02  0.17691079934E+02  0.00000000000E+00 0.  1.
          5    1    1    2  502    0 -0.15388873925E+02  0.40935949323E+02  0.20246560195E+03  0.20717712654E+03  0.41800000000E+01 0. -1.
         -5    1    1    2    0  502  0.74123803657E+02 -0.50621212265E+02  0.22979519961E+03  0.24673903535E+03  0.41800000000E+01 0. -1.
        -11    1    1    2    0    0 -0.15771891243E+02  0.67651269227E+02  0.38180412302E+03  0.38807194583E+03  0.00000000000E+00 0.  1.
         11    1    1    2    0    0 -0.42963038489E+02 -0.57966006285E+02  0.34523798687E+03  0.35269696361E+03  0.00000000000E+00 0. -1.
</event>
<event>
 6    1  0.8259171E-006  0.1141164E+03  0.7561462E-02  0.1253131E+00
          2   -1    0    0  501    0  0.00000000000E+00  0.00000000000E+00  0.19833385907E+03  0.19833385907E+03  0.00000000000E+00 0. -1.
         -2   -1    0    0    0  501 -0.00000000000E+00 -0.00000000000E+00 -0.68403726429E+02  0.68403726429E+02  0.00000000000E+00 0.  1.
          5    1    1    2  502    0  0.21100207391E+02  0.44252609470E+02  0.10250013617E+02  0.50259798806E+02  0.41800000000E+01 0.  1.
         -5    1    1    2    0  502 -0.60805184293E+02 -0.53062566192E+02  0.44118580446E+02  0.92069690497E+02  0.41800000000E+01 0.  1.
        -11    1    1    2    0    0  0.15475078687E+02  0.48947003714E+02  0.32557657899E+02  0.60788883201E+02  0.00000000000E+00 0.  1.
         11    1    1    2    0    0  0.24229898214E+02 -0.40137046992E+02  0.43003880682E+02  0.63619212997E+02  0.00000000000E+00 0. -1.
</event>
<event>
 6    1  0.8259171E-006  0.7205132E+02  0.7561462E-02  0.1353253E+00
         -1   -1    0    0    0  501 -0.00000000000E+00  0.00000000000E+00  0.83657260034E+02  0.83657260034E+02  0.00000000000E+00 0.  1.
          1   -1    0    0  501    0  0.00000000000E+00 -0.00000000000E+00 -0.18049732012E+03  0.18049732012E+03  0.00000000000E+00 0. -1.
          5    1    1    2  502    0  0.54138168231E+01  0.14757885244E+02 -0.61510355070E+02  0.63624686799E+02  0.41800000000E+01 0.  1.
         -5    1    1    2    0  502  0.31277603920E+02 -0.50944349087E+02  0.41838352640E+02  0.73085808216E+02  0.41800000000E+01 0.  1.
        -11    1    1    2    0    0 -0.14706888968E+02 -0.92929002499E+01  0.14586966465E+02  0.22703087209E+02  0.00000000000E+00 0.  1.
         11    1    1    2    0    0 -0.21984531775E+02  0.45479364093E+02 -0.91755024122E+02  0.10474099793E+03  0.00000000000E+00 0. -1.
</event>
<event>
 6    1  0.8259171E-006  0.9279356E+02  0.7561462E-02  0.1296224E+00
         -2   -1    0    0    0  501 -0.00000000000E+00  0.00000000000E+00  0.43851186329E+02  0.43851186329E+02  0.00000000000E+00 0.  1.
          2   -1    0    0  501    0  0.00000000000E+00 -0.00000000000E+00 -0.49425039796E+03  0.49425039796E+03  0.00000000000E+00 0. -1.
          5    1    1    2  502    0  0.95569045281E+01  0.17721126216E+01 -0.13831666672E+03  0.13872075367E+03  0.41800000000E+01 0. -1.
         -5    1    1    2    0  502  0.50850973895E+02 -0.66478473582E+02 -0.30257298639E+02  0.89096495536E+02  0.41800000000E+01 0. -1.
        -11    1    1    2    0    0 -0.20635616249E+02  0.38175943480E+02 -0.27213984451E+02  0.51223356667E+02  0.00000000000E+00 0.  1.
         11    1    1    2    0    0 -0.39772262174E+02  0.26530417481E+02 -0.25461126182E+03  0.25906097842E+03  0.00000000000E+00 0. -1.
</event>
<event>
 6    1  0.8259171E-006  0.1089788E+03  0.7561462E-02  0.1262473E+00
          2   -1    0    0  501    0  0.00000000000E+00  0.00000000000E+00  0.61638434189E+03  0.61638434189E+03  0.00000000000E+00 0. -1.
         -2   -1    0    0    0  501 -0.00000000000E+00 -0.00000000000E+00 -0.21797947865E+02  0.21797947865E+02  0.00000000000E+00 0.  1.
          5    1    1    2  502    0 -0.42869145927E+02  0.38904502391E+02  0.13310113054E+03  0.14520574138E+03  0.41800000000E+01 0.  1.
         -5    1    1    2    0  502  0.29356324217E+02 -0.62766570583E+02  0.12824778237E+03  0.14583004573E+03  0.41800000000E+01 0.  1.
        -11    1    1    2    0    0  0.50347423547E+02  0.11499131494E+02  0.12387432517E+03  0.13420857469E+03  0.00000000000E+00 0.  1.
         11    1    1    2    0    0 -0.36834601838E+02  0.12362936699E+02  0.20936315594E+03  0.21293792796E+03  0.00000000000E+00 0. -1.
</event>
<event>
 6    1  0.8259171E-006  0.1664611E+03  0.7561462E-02  0.1181589E+00
          2   -1    0    0  501    0  0.00000000000E+00  0.00000000000E+00  0.20222780751E+03  0.20222780751E+03  0.00000000000E+00 0. -1.
         -2   -1    0    0    0  501 -0.00000000000E+00 -0.00000000000E+00 -0.26776067589E+03  0.26776067589E+03  0.00000000000E+00 0.  1.
          5    1    1    2  502    0 -0.10380806543E+02  0.43679051613E+02 -0.79233737804E+02  0.91165115591E+02  0.41800000000E+01 0. -1.
         -5    1    1    2    0  502 -0.11800881144E+03 -0.53877467742E+02 -0.11604640423E+03  0.17410658070E+03  0.41800000000E+01 0. -1.
        -11    1    1    2    0    0  0.83702661550E+02  0.50589560444E+02  0.74008847584E+02  0.12264888380E+03  0.00000000000E+00 0.  1.
         11    1    1    2    0    0  0.44686956430E+02 -0.40391144315E+02  0.55738426074E+02  0.82067903319E+02  0.00000000000E+00 0. -1.
</event>
<event>
 6    1  0.8259171E-006  0.5999124E+02  0.7561462E-02  0.1397869E+00
          2   -1    0    0  501    0  0.00000000000E+00  0.00000000000E+00  0.18016254584E+03  0.18016254584E+03  0.00000000000E+00 0.  1.
         -2   -1    0    0    0  501 -0.00000000000E+00 -0.00000000000E+00 -0.71816625190E+02  0.71816625190E+02  0.00000000000E+00 0. -1.
          5    1    1    2  502    0  0.74335794140E+00  0.31088493301E+02  0.86508913059E+02  0.92023428731E+02  0.41800000000E+01 0.  1.
         -5    1    1    2    0  502 -0.25842387125E+02 -0.12443679637E+02 -0.36206257029E+02  0.46379301237E+02  0.41800000000E+01 0.  1.
        -11    1    1    2    0    0  0.22903830109E+02  0.14038090107E+02  0.72837881976E+02  0.77633822901E+02  0.00000000000E+00 0.  1.
         11    1    1    2    0    0  0.21951990746E+01 -0.32682903771E+02 -0.14794617353E+02  0.35942618164E+02  0.00000000000E+00 0. -1.
</event>
<event>
 6    1  0.8259171E-006  0.1966570E+03  0.7561462E-02  0.1152591E+00
         -1   -1    0    0    0  501 -0.00000000000E+00  0.00000000000E+00  0.92255618665E+03  0.92255618665E+03  0.00000000000E+00 0.  1.
          1   -1    0    0  501    0  0.00000000000E+00 -0.00000000000E+00 -0.43234109190E+02  0.43234109190E+02  0.00000000000E+00 0. -1.
          5    1    1    2  502    0  0.18224110485E+02 -0.33306959302E+02  0.12660321648E+03  0.13223962554E+03  0.41800000000E+01 0. -1.
         -5    1    1    2    0  502  0.13538623106E+03  0.98435560376E+02  0.35011259811E+03  0.38809186395E+03  0.41800000000E+01 0. -1.
        -11    1    1    2    0    0 -0.27643147600E+01 -0.33420247276E+02  0.45653570220E+02  0.56646295889E+02  0.00000000000E+00 0.  1.
         11    1    1    2    0    0 -0.15084602679E+03 -0.31708353799E+02  0.35695269264E+03  0.38881251045E+03  0.00000000000E+00 0. -1.
</event>
<event>
 6    1  0.8259171E-006  0.1607386E+03  0.7561462E-02  0.1187865E+00
          2   -1    0    0  501    0  0.00000000000E+00  0.00000000000E+00  0.26852307263E+03  0.26852307263E+03  0.00000000000E+00 0. -1.
         -2   -1    0    0    0  501 -0.00000000000E+00 -0.00000000000E+00 -0.13292721879E+03  0.13292721879E+03  0.00000000000E+00 0.  1.
          5    1    1    2  502    0 -0.71160705898E+02  0.69675213107E+02 -0.27004597404E+02  0.10327246519E+03  0.41800000000E+01 0.  1.
         -5    1    1    2    0  502 -0.68272746007E+02 -0.39029500033E+02  0.36390101125E+02  0.86753568111E+02  0.41800000000E+01 0.  1.
        -11    1    1    2    0    0  0.64303729325E+02 -0.95394437956E+01  0.11565878793E+03  0.13267601825E+03  0.00000000000E+00 0. -1.
         11    1    1    2    0    0  0.75129722580E+02 -0.21106269278E+02  0.10551562191E+02  0.78748239869E+02  0.00000000000E+00 0.  1.
</event>
<event>
 6    1  0.8259171E-006  0.8225005E+02  0.7561462E-02  0.1322785E+00
         -1   -1    0    0    0  501 -0.00000000000E+00  0.00000000000E+00  0.31673923534E+02  0.31673923534E+02  0.00000000000E+00 0.  1.
          1   -1    0    0  501    0  0.00000000000E+00 -0.00000000000E+00 -0.43774763436E+03  0.43774763436E+03  0.00000000000E+00 0. -1.
          5    1    1    2  502    0  0.24495914945E+02  0.26656232086E+01 -0.20305577865E+03  0.20458806671E+03  0.41800000000E+01 0. -1.
         -5    1    1    2    0  502 -0.20788702604E+02 -0.52291259299E+02 -0.28395595400E+02  0.63169044580E+02  0.41800000000E+01 0. -1.
        -11    1    1    2    0    0  0.31397673371E+02  0.20863565436E+02 -0.24810318007E+02  0.45129304619E+02  0.00000000000E+00 0.  1.
         11    1    1    2    0    0 -0.35104885712E+02  0.28762070655E+02 -0.14981201877E+03  0.15653514199E+03  0.00000000000E+00 0. -1.
</event>
<event>
 6    1  0.8259171E-006  0.9500709E+02  0.7561462E-02  0.1291160E+00
         -2   -1    0    0    0  501 -0.00000000000E+00  0.00000000000E+00  0.13462210374E+02  0.13462210374E+02  0.00000000000E+00 0.  1.
          2   -1    0    0  501    0  0.00000000000E+00 -0.00000000000E+00 -0.85486922140E+03  0.85486922140E+03  0.00000000000E+00 0. -1.
          5    1    1    2  502    0  0.40005780524E+02  0.12012720584E+02 -0.37760264883E+03  0.37992894169E+03  0.41800000000E+01 0. -1.
         -5    1    1    2    0  502 -0.60095197326E+02 -0.14273202307E+02 -0.14212577783E+03  0.15502376002E+03  0.41800000000E+01 0. -1.
        -11    1    1    2    0    0  0.88562886923E+01  0.42981756618E+02 -0.13392408398E+03  0.14093092464E+03  0.00000000000E+00 0.  1.
         11    1    1    2    0    0  0.11233128110E+02 -0.40721274895E+02 -0.18775450039E+03  0.19244780543E+03  0.00000000000E+00 0. -1.
</event>
<event>
 6    1  0.8259171E-006  0.6103859E+02  0.7561462E-02  0.1393524E+00
          2   -1    0    0  501    0  0.00000000000E+00  0.00000000000E+00  0.33434951631E+03  0.33434951631E+03  0.00000000000E+00 0. -1.
         -2   -1    0    0    0  501 -0.00000000000E+00 -0.00000000000E+00 -0.43484896950E+02  0.43484896950E+02  0.00000000000E+00 0.  1.
          5    1    1    2  502    0  0.48099028501E+01 -0.11933602748E+02 -0.23748067860E+02  0.27331102558E+02  0.41800000000E+01 0. -1.
         -5    1    1    2    0  502  0.43203089565E+02 -0.11763797093E+01  0.15396244182E+03  0.15996811154E+03  0.41800000000E+01 0. -1.
        -11    1    1    2    0    0 -0.24533543068E+02 -0.14802657205E+02  0.31030257763E+01  0.28820863359E+02  0.00000000000E+00 0.  1.
         11    1    1    2    0    0 -0.23479449347E+02  0.27912639662E+02  0.15754721962E+03  0.16171433581E+03  0.00000000000E+00 0. -1.
</event>
<event>
 6    1  0.8259171E-006  0.1031097E+03  0.7561462E-02  0.1273889E+00
          1   -1    0    0  501    0  0.00000000000E+00  0.00000000000E+00  0.30983893555E+03  0.30983893555E+03  0.00000000000E+00 0. -1.
         -1   -1    0    0    0  501 -0.00000000000E+00 -0.00000000000E+00 -0.58239948092E+02  0.58239948092E+02  0.00000000000E+00 0.  1.
          5    1    1    2  502    0 -0.72017270196E+02 -0.31436870576E+02  0.91837406484E+02  0.12093942975E+03  0.41800000000E+01 0. -1.
         -5    1    1    2    0  502  0.21563939623E+02 -0.17967229610E+00 -0.24672543799E+02  0.33033961187E+02  0.41800000000E+01 0. -1.
        -11    1    1    2    0    0  0.19842619562E+02 -0.30457734988E+02  0.40663296173E+02  0.54542706454E+02  0.00000000000E+00 0.  1.
         11    1    1    2    0    0  0.30610711011E+02  0.62074277860E+02  0.14377082860E+03  0.15956278625E+03  0.00000000000E+00 0. -1.
</event>
<event>
 6    1  0.8259171E-006  0.3864467E+03  0.7561462E-02  0.1048576E+00
         -1   -1    0    0    0  501 -0.00000000000E+00  0.00000000000E+00  0.62433392597E+03  0.62433392597E+03  0.00000000000E+00 0.  1.
          1   -1    0    0  501    0  0.00000000000E+00 -0.00000000000E+00 -0.25638124173E+03  0.25638124173E+03  0.00000000000E+00 0. -1.
          5    1    1    2  502    0 -0.12106303500E+02 -0.37653840131E+01 -0.14466301289E+02  0.19684688826E+02  0.41800000000E+01 0. -1.
         -5    1    1    2    0  502 -0.24284217436E+03 -0.28452195775E+03  0.22375181702E+03  0.43589839883E+03  0.41800000000E+01 0. -1.
        -11    1    1    2    0    0  0.60606569917E+02  0.82949219074E+02  0.84035508367E+02  0.13272413469E+03  0.00000000000E+00 0.  1.
         11    1    1    2    0    0  0.19434190794E+03  0.20533812269E+03  0.74631660145E+02  0.29240794535E+03  0.00000000000E+00 0. -1.
</event>
<event>
 6    1  0.8259171E-006  0.8766598E+02  0.7561462E-02  0.1308604E+00
          1   -1    0    0  501    0  0.00000000000E+00  0.00000000000E+00  0.25414733245E+02  0.25414733245E+02  0.00000000000E+00 0. -1.
         -1   -1    0    0    0  501 -0.00000000000E+00 -0.00000000000E+00 -0.54031677685E+03  0.54031677685E+03  0.00000000000E+00 0.  1.
          5    1    1    2  502    0 -0.43129725567E+02  0.26454016568E+02 -0.30556418429E+03  0.30975301668E+03  0.41800000000E+01 0.  1.
         -5    1    1    2    0  502  0.33608079706E+02 -0.41129874369E+02 -0.81256708164E+02  0.97166324459E+02  0.41800000000E+01 0.  1.
        -11    1    1    2    0    0  0.38314259323E+02 -0.13388640161E+01 -0.15233427944E+02  0.41253270794E+02  0.00000000000E+00 0. -1.
         11    1    1    2    0    0 -0.28792613462E+02  0.16014721817E+02 -0.11284772321E+03  0.11755889817E+03  0.00000000000E+00 0.  1.
</event>
<event>
 6    1  0.8259171E-006  0.1409699E+03  0.7561462E-02  0.1212030E+00
         -3   -1    0    0    0  501 -0.00000000000E+00  0.00000000000E+00  0.34891640360E+03  0.34891640360E+03  0.00000000000E+00 0.  1.
          3   -1    0    0  501    0  0.00000000000E+00 -0.00000000000E+00 -0.11591204781E+03  0.11591204781E+03  0.00000000000E+00 0. -1.
          5    1    1    2  502    0  0.56927122686E+02 -0.37053817071E+02  0.11718493047E+03  0.13551185552E+03  0.41800000000E+01 0. -1.
         -5    1    1    2    0  502 -0.65592853992E+02 -0.75509510820E+02  0.14785086189E+03  0.17855379716E+03  0.41800000000E+01 0. -1.
        -11    1    1    2    0    0  0.59755846943E+00  0.86361320362E+02 -0.64849110891E+02  0.10800019405E+03  0.00000000000E+00 0. -1.
         11    1    1    2    0    0  0.80681728362E+01  0.26202007529E+02  0.32817674313E+02  0.42762604677E+02  0.00000000000E+00 0.  1.
</event>
<event>
 6    1  0.8259171E-006  0.1410288E+03  0.7561462E-02  0.1211951E+00
          2   -1    0    0  501    0  0.00000000000E+00  0.00000000000E+00  0.17096295683E+03  0.17096295683E+03  0.00000000000E+00 0. -1.
         -2   -1    0    0    0  501 -0.00000000000E+00 -0.00000000000E+00 -0.20108485333E+03  0.20108485333E+03  0.00000000000E+00 0.  1.
          5    1    1    2  502    0 -0.35300732403E+02 -0.92959347318E+02 -0.58839649515E+02  0.11561642927E+03  0.41800000000E+01 0. -1.
         -5    1    1    2    0  502  0.52232845671E+02 -0.13104856432E+01 -0.72714763994E+02  0.89637586102E+02  0.41800000000E+01 0. -1.
        -11    1    1    2    0    0 -0.51362083524E+02  0.37024854960E+02  0.64841737142E+02  0.90627558636E+02  0.00000000000E+00 0.  1.
         11    1    1    2    0    0  0.34429970257E+02  0.57244978001E+02  0.36590779869E+02  0.76166236152E+02  0.00000000000E+00 0. -1.
</event>
<event>
 6    1  0.8259171E-006  0.1046964E+03  0.7561462E-02  0.1270719E+00
         -1   -1    0    0    0  501 -0.00000000000E+00  0.00000000000E+00  0.25469017575E+02  0.25469017575E+02  0.00000000000E+00 0.  1.
          1   -1    0    0  501    0  0.00000000000E+00 -0.00000000000E+00 -0.68563470439E+03  0.68563470439E+03  0.00000000000E+00 0. -1.
          5    1    1    2  502    0  0.37707364573E+02 -0.84222327873E+01 -0.13184449390E+03  0.13745261845E+03  0.41800000000E+01 0.  1.
         -5    1    1    2    0  502 -0.72999665429E+02 -0.77298467309E+01 -0.60340585985E+02  0.95116562177E+02  0.41800000000E+01 0.  1.
        -11    1    1    2    0    0  0.64529732685E+02  0.19897730825E+02 -0.37374618544E+03  0.37979760034E+03  0.00000000000E+00 0. -1.
         11    1    1    2    0    0 -0.29237431829E+02 -0.37456513065E+01 -0.94234421489E+02  0.98736940995E+02  0.00000000000E+00 0.  1.
</event>
<event>
 6    1  0.8259171E-006  0.1372079E+03  0.7561462E-02  0.1217136E+00
          1   -1    0    0  501    0  0.00000000000E+00  0.00000000000E+00  0.23530405869E+03  0.23530405869E+03  0.00000000000E+00 0. -1.
         -1   -1    0    0    0  501 -0.00000000000E+00 -0.00000000000E+00 -0.96301043601E+02  0.96301043601E+02  0.00000000000E+00 0.  1.
          5    1    1    2  502    0 -0.20836814012E+01 -0.21024239859E+02 -0.22461955344E+02  0.31118679723E+02  0.41800000000E+01 0.  1.
         -5    1    1    2    0  502  0.73991727508E+02  0.91369650976E+02  0.67346889777E+02  0.13555908240E+03  0.41800000000E+01 0.  1.
        -11    1    1    2    0    0  0.20297101682E+02 -0.25811561850E+02  0.26798099639E+02  0.42383336420E+02  0.00000000000E+00 0. -1.
         11    1    1    2    0    0 -0.92205147789E+02 -0.44533849267E+02  0.67319981013E+02  0.12254400374E+03  0.00000000000E+00 0.  1.
</event>
<event>
 6    1  0.8259171E-006  0.9394027E+02  0.7561462E-02  0.1293581E+00
         -1   -1    0    0    0  501 -0.00000000000E+00  0.00000000000E+00  0.23795363826E+03  0.23795363826E+03  0.00000000000E+00 0.  1.
          1   -1    0    0  501    0  0.00000000000E+00 -0.00000000000E+00 -0.67049016952E+02  0.67049016952E+02  0.00000000000E+00 0. -1.
          5    1    1    2  502    0 -0.37639690955E+02 -0.95464748391E+01  0.18176906566E+01  0.39098055148E+02  0.41800000000E+01 0. -1.
         -5    1    1    2    0  502  0.56431072876E+02  0.16118195845E+02  0.16418323427E+03  0.17440719319E+03  0.41800000000E+01 0.  1.
        -11    1    1    2    0    0 -0.24168539928E+02 -0.45056676816E+02  0.10619047930E+02  0.52220557512E+02  0.00000000000E+00 0.  1.
         11    1    1    2    0    0  0.53771580071E+01  0.38484955810E+02 -0.57153515480E+01  0.39276849355E+02  0.00000000000E+00 0. -1.
</event>
<event>
 6    1  0.8259171E-006  0.9812388E+02  0.7561462E-02  0.1284291E+00
         -3   -1    0    0    0  501 -0.00000000000E+00  0.00000000000E+00  0.90387147474E+02  0.90387147474E+02  0.00000000000E+00 0.  1.
          3   -1    0    0  501    0  0.00000000000E+00 -0.00000000000E+00 -0.18029285390E+03  0.18029285390E+03  0.00000000000E+00 0. -1.
          5    1    1    2  502    0 -0.21216013337E+01  0.59898981754E+02  0.26164368656E+01  0.60139066747E+02  0.41800000000E+01 0.  1.
         -5    1    1    2    0  502 -0.33002860922E+02 -0.61387139390E+02  0.60233555193E+01  0.70080831353E+02  0.41800000000E+01 0.  1.
        -11    1    1    2    0    0  0.46925227691E+02 -0.11987113067E+02 -0.10931238473E+03  0.11956113637E+03  0.00000000000E+00 0. -1.
         11    1    1    2    0    0 -0.11800765435E+02  0.13475270703E+02  0.10766885920E+02  0.20898966907E+02  0.00000000000E+00 0.  1.
</event>
<event>
 6    1  0.8259171E-006  0.2451280E+03  0.7561462E-02  0.1116423E+00
         -4   -1    0    0    0  501 -0.00000000000E+00  0.00000000000E+00  0.60724743379E+03  0.60724743379E+03  0.00000000000E+00 0. -1.
          4   -1    0    0  501    0  0.00000000000E+00 -0.00000000000E+00 -0.17906369333E+03  0.17906369333E+03  0.00000000000E+00 0.  1.
          5    1    1    2  502    0 -0.20381100913E+02  0.14016708378E+03  0.34448378921E+03  0.37248993822E+03  0.41800000000E+01 0. -1.
         -5    1    1    2    0  502 -0.81155573199E+02  0.74496959429E+02  0.11261359648E+03  0.15759225405E+03  0.41800000000E+01 0. -1.
        -11    1    1    2    0    0  0.30130463578E+02 -0.44181374997E+02  0.31141940121E+02  0.61884240050E+02  0.00000000000E+00 0.  1.
         11    1    1    2    0    0  0.71406210535E+02 -0.17048266822E+03 -0.60055585341E+02  0.19434469480E+03  0.00000000000E+00 0. -1.
</event>
<event>
 6    1  0.8259171E-006  0.9721824E+02  0.7561462E-02  0.1286257E+00
          1   -1    0    0  501    0  0.00000000000E+00  0.00000000000E+00  0.14590975243E+03  0.14590975243E+03  0.00000000000E+00 0. -1.
         -1   -1    0    0    0  501 -0.00000000000E+00 -0.00000000000E+00 -0.90927664386E+02  0.90927664386E+02  0.00000000000E+00 0.  1.
          5    1    1    2  502    0 -0.63322994286E+02  0.21195344061E+01  0.24142838194E+02  0.67931164184E+02  0.41800000000E+01 0. -1.
         -5    1    1    2    0  502  0.40267856015E+02  0.15608196139E+02 -0.32262253146E+02  0.54068857883E+02  0.41800000000E+01 0.  1.
        -11    1    1    2    0    0 -0.24894928090E+02  0.15397706002E+02  0.45236370839E+02  0.53881128806E+02  0.00000000000E+00 0.  1.
         11    1    1    2    0    0  0.47950066360E+02 -0.33125436548E+02  0.17865132154E+02  0.60956265940E+02  0.00000000000E+00 0. -1.
</event>
<event>
 6    1  0.8259171E-006  0.1370945E+03  0.7561462E-02  0.1217293E+00
          2   -1    0    0  501    0  0.00000000000E+00  0.00000000000E+00  0.13879903780E+03  0.13879903780E+03  0.00000000000E+00 0. -1.
         -2   -1    0    0    0  501 -0.00000000000E+00 -0.00000000000E+00 -0.18343264971E+03  0.18343264971E+03  0.00000000000E+00 0.  1.
          5    1    1    2  502    0 -0.68270882057E+02  0.50534586546E+02 -0.48584254299E+02  0.97941614955E+02  0.41800000000E+01 0. -1.
         -5    1    1    2    0  502 -0.37170662254E+02 -0.68581692691E+02 -0.22077095534E+02  0.81178674859E+02  0.41800000000E+01 0. -1.
        -11    1    1    2    0    0  0.49726758176E+02  0.23589305471E+02 -0.31020349678E+02  0.63178065066E+02  0.00000000000E+00 0.  1.
         11    1    1    2    0    0  0.55714786135E+02 -0.55421993251E+01  0.57048087601E+02  0.79933332636E+02  0.00000000000E+00 0. -1.
</event>
<event>
 6    1  0.8259171E-006  0.1190990E+03  0.7561462E-02  0.1244591E+00
          1   -1    0    0  501    0  0.00000000000E+00  0.00000000000E+00  0.56090630798E+02  0.56090630798E+02  0.00000000000E+00 0. -1.
         -1   -1    0    0    0  501 -0.00000000000E+00 -0.00000000000E+00 -0.28625272577E+03  0.28625272577E+03  0.00000000000E+00 0.  1.
          5    1    1    2  502    0 -0.18782008090E+02  0.61645552447E+02 -0.53214069000E+02  0.83678835460E+02  0.41800000000E+01 0. -1.
         -5    1    1    2    0  502  0.62837586870E+02 -0.24272877395E+02 -0.11971948505E+03  0.13743348355E+03  0.41800000000E+01 0. -1.
        -11    1    1    2    0    0 -0.20034057316E+01 -0.58866243734E+02 -0.38825127584E+02  0.70545296213E+02  0.00000000000E+00 0.  1.
         11    1    1    2    0    0 -0.42052173049E+02  0.21493568683E+02 -0.18403413335E+02  0.50685741340E+02  0.00000000000E+00 0. -1.
</event>
<event>
 6    1  0.8259171E-006  0.1100211E+03  0.7561462E-02  0.1260531E+00
         -2   -1    0    0    0  501 -0.00000000000E+00  0.00000000000E+00  0.60796594604E+02  0.60796594604E+02  0.00000000000E+00 0. -1.
          2   -1    0    0  501    0  0.00000000000E+00 -0.00000000000E+00 -0.47530837140E+03  0.47530837140E+03  0.00000000000E+00 0.  1.
          5    1    1    2  502    0 -0.32711087538E+02  0.89066870201E+02 -0.61889079944E+02  0.11336072173E+03  0.41800000000E+01 0.  1.
         -5    1    1    2    0  502 -0.20486053612E+02 -0.35863161949E+02  0.78959085665E+01  0.42257100582E+02  0.41800000000E+01 0.  1.
        -11    1    1    2    0    0  0.27205282907E+02 -0.50576722660E+02 -0.34573024493E+03  0.35046759416E+03  0.00000000000E+00 0.  1.
         11    1    1    2    0    0  0.25991858243E+02 -0.26269855919E+01 -0.14788360483E+02  0.30019549530E+02  0.00000000000E+00 0. -1.
</event>
<event>
 6    1  0.8259171E-006  0.1070900E+03  0.7561462E-02  0.1266056E+00
          2   -1    0    0  501    0  0.00000000000E+00  0.00000000000E+00  0.48951039686E+03  0.48951039686E+03  0.00000000000E+00 0. -1.
         -2   -1    0    0    0  501 -0.00000000000E+00 -0.00000000000E+00 -0.25845725792E+02  0.25845725792E+02  0.00000000000E+00 0.  1.
          5    1    1    2  502    0  0.58785472230E+02  0.36356470943E+02  0.15511384305E+03  0.16986848274E+03  0.41800000000E+01 0.  1.
         -5    1    1    2    0  502 -0.37459489439E+02 -0.36146480562E+02  0.57001595056E+02  0.77307410027E+02  0.41800000000E+01 0.  1.
        -11    1    1    2    0    0  0.26624189611E+02 -0.26887783946E+02  0.11264897725E+03  0.11883430681E+03  0.00000000000E+00 0.  1.
         11    1    1    2    0    0 -0.47950172402E+02  0.26677793566E+02  0.13890025571E+03  0.14934592308E+03  0.00000000000E+00 0. -1.
</event>
<event>
 6    1  0.8259171E-006  0.1136177E+03  0.7561462E-02  0.1254013E+00
          1   -1    0    0  501    0  0.00000000000E+00  0.00000000000E+00  0.53601069500E+02  0.53601069500E+02  0.00000000000E+00 0. -1.
         -1   -1    0    0    0  501 -0.00000000000E+00 -0.00000000000E+00 -0.28841112599E+03  0.28841112599E+03  0.00000000000E+00 0.  1.
          5    1    1    2  502    0  0.29315512001E+02  0.41232735075E+02 -0.96597042652E+02  0.10912377713E+03  0.41800000000E+01 0.  1.
         -5    1    1    2    0  502  0.27579451655E+02 -0.68459847258E+02 -0.30269946690E+02  0.79881906041E+02  0.41800000000E+01 0.  1.
        -11    1    1    2    0    0 -0.77822235863E+02  0.19403925024E+02 -0.10224533696E+03  0.12994968885E+03  0.00000000000E+00 0.  1.
         11    1    1    2    0    0  0.20927272207E+02  0.78231871600E+01 -0.56977301856E+01  0.23056823472E+02  0.00000000000E+00 0. -1.
</event>
<event>
 6    1  0.8259171E-006  0.8411703E+02  0.7561462E-02  0.1317758E+00
         -1   -1    0    0    0  501 -0.00000000000E+00  0.00000000000E+00  0.62852100924E+02  0.62852100924E+02  0.00000000000E+00 0.  1.
          1   -1    0    0  501    0  0.00000000000E+00 -0.00000000000E+00 -0.19283062761E+03  0.19283062761E+03  0.00000000000E+00 0. -1.
          5    1    1    2  502    0  0.26797030507E+02  0.35732831096E+02 -0.93586224021E+02  0.10378231925E+03  0.41800000000E+01 0. -1.
         -5    1    1    2    0  502 -0.76118825325E+01 -0.44886667923E+02  0.11747816854E+02  0.47204208645E+02  0.41800000000E+01 0. -1.
        -11    1    1    2    0    0 -0.42604924978E+01  0.41664981912E+02 -0.54113211941E+02  0.68427788366E+02  0.00000000000E+00 0. -1.
         11    1    1    2    0    0 -0.14924655477E+02 -0.32511145085E+02  0.59730924212E+01  0.36268412275E+02  0.00000000000E+00 0.  1.
</event>
<event>
 6    1  0.8259171E-006  0.1060518E+03  0.7561462E-02  0.1268061E+00
          1   -1    0    0  501    0  0.00000000000E+00  0.00000000000E+00  0.31351427613E+03  0.31351427613E+03  0.00000000000E+00 0. -1.
         -1   -1    0    0    0  501 -0.00000000000E+00 -0.00000000000E+00 -0.43077944655E+02  0.43077944655E+02  0.00000000000E+00 0.  1.
          5    1    1    2  502    0 -0.24421469856E+02 -0.72409400729E+02  0.54217417818E+02  0.93789819803E+02  0.41800000000E+01 0. -1.
         -5    1    1    2    0  502  0.57345121622E+01  0.43938708877E+02  0.41750557978E+02  0.61025210028E+02  0.41800000000E+01 0.  1.
        -11    1    1    2    0    0  0.34051118584E+02 -0.20496149163E+02  0.12230517720E+03  0.12860064999E+03  0.00000000000E+00 0. -1.
         11    1    1    2    0    0 -0.15364160890E+02  0.48966841015E+02  0.52163178485E+02  0.73176540971E+02  0.00000000000E+00 0.  1.
</event>
<event>
 6    1  0.8259171E-006  0.9956915E+02  0.7561462E-02  0.1281205E+00
         -2   -1    0    0    0  501 -0.00000000000E+00  0.00000000000E+00  0.75067566258E+02  0.75067566258E+02  0.00000000000E+00 0.  1.
          2   -1    0    0  501    0  0.00000000000E+00 -0.00000000000E+00 -0.24689967695E+03  0.24689967695E+03  0.00000000000E+00 0. -1.
          5    1    1    2  502    0 -0.69625786486E+02 -0.37946285790E+02 -0.26045055024E+02  0.83567266560E+02  0.41800000000E+01 0.  1.
         -5    1    1    2    0  502  0.48043910549E+02 -0.12378105031E+01  0.12864616057E+02  0.49927149548E+02  0.41800000000E+01 0.  1.
        -11    1    1    2    0    0 -0.11765823764E+02 -0.76238392345E+01  0.51075608756E+01  0.14921283846E+02  0.00000000000E+00 0.  1.
         11    1    1    2    0    0  0.33347699702E+02  0.46807935528E+02 -0.16375923260E+03  0.17355154326E+03  0.00000000000E+00 0. -1.
</event>
<event>
 6    1  0.8259171E-006  0.7323987E+02  0.7561462E-02  0.1349410E+00
          2   -1    0    0  501    0  0.00000000000E+00  0.00000000000E+00  0.26319722450E+03  0.26319722450E+03  0.00000000000E+00 0. -1.
         -2   -1    0    0    0  501 -0.00000000000E+00 -0.00000000000E+00 -0.49938100860E+02  0.49938100860E+02  0.00000000000E+00 0.  1.
          5    1    1    2  502    0  0.36343306419E+02 -0.28875175245E+02  0.90685816910E+02  0.10196078391E+03  0.41800000000E+01 0.  1.
         -5    1    1    2    0  502 -0.18014166308E+02  0.44424964001E+02 -0.95506427542E+01  0.49058891052E+02  0.41800000000E+01 0.  1.
        -11    1    1    2    0    0  0.29900775647E+01  0.14558212279E+02 -0.82338155735E+01  0.16990521696E+02  0.00000000000E+00 0.  1.
         11    1    1    2    0    0 -0.21319217675E+02 -0.30108001035E+02  0.14035776506E+03  0.14512512870E+03  0.00000000000E+00 0. -1.
</event>
<event>
 6    1  0.8259171E-006  0.3300463E+03  0.7561462E-02  0.1071116E+00
         -2   -1    0    0    0  501 -0.00000000000E+00  0.00000000000E+00  0.13537751129E+03  0.13537751129E+03  0.00000000000E+00 0.  1.
          2   -1    0    0  501    0  0.00000000000E+00 -0.00000000000E+00 -0.86184267684E+03  0.86184267684E+03  0.00000000000E+00 0. -1.
          5    1    1    2  502    0 -0.52012602283E+02 -0.26460210371E+02 -0.91391348218E+01  0.59215282777E+02  0.41800000000E+01 0.  1.
         -5    1    1    2    0  502 -0.24422125986E+03 -0.10537196136E+03 -0.36208779985E+03  0.44930203784E+03  0.41800000000E+01 0.  1.
        -11    1    1    2    0    0  0.66512868384E+02 -0.74413882046E+01 -0.73998063026E+02  0.99774993113E+02  0.00000000000E+00 0.  1.
         11    1    1    2    0    0  0.22972099375E+03  0.13927355993E+03 -0.28124016785E+03  0.38892787440E+03  0.00000000000E+00 0. -1.
</event>
<event>
 6    1  0.8259171E-006  0.1195465E+03  0.7561462E-02  0.1243847E+00
          3   -1    0    0  501    0  0.00000000000E+00  0.00000000000E+00  0.24254992351E+02  0.24254992351E+02  0.00000000000E+00 0. -1.
         -3   -1    0    0    0  501 -0.00000000000E+00 -0.00000000000E+00 -0.70388880976E+03  0.70388880976E+03  0.00000000000E+00 0.  1.
          5    1    1    2  502    0  0.54927692303E+02 -0.40932455384E+02 -0.32598758064E+03  0.33313344536E+03  0.41800000000E+01 0.  1.
         -5    1    1    2    0  502 -0.49373911546E+02 -0.32454261155E+02 -0.92822357213E+02  0.11011141906E+03  0.41800000000E+01 0.  1.
        -11    1    1    2    0    0 -0.24208398849E+02  0.85584349494E+02 -0.17602055431E+03  0.19721552422E+03  0.00000000000E+00 0. -1.
         11    1    1    2    0    0  0.18654618092E+02 -0.12197632956E+02 -0.84803325252E+02  0.87683413481E+02  0.00000000000E+00 0.  1.
</event>
<event>
 6    1  0.8259171E-006  0.3898447E+03  0.7561462E-02  0.1047354E+00
         -1   -1    0    0    0  501 -0.00000000000E+00  0.00000000000E+00  0.31322613822E+03  0.31322613822E+03  0.00000000000E+00 0.  1.
          1   -1    0    0  501    0  0.00000000000E+00 -0.00000000000E+00 -0.79636867514E+03  0.79636867514E+03  0.00000000000E+00 0. -1.
          5    1    1    2  502    0  0.55028964031E+02  0.19328989032E+03  0.64083337129E+02  0.21098178850E+03  0.41800000000E+01 0.  1.
         -5    1    1    2    0  502  0.15390446478E+03  0.12216622960E+03  0.34489940946E+02  0.19954498330E+03  0.41800000000E+01 0.  1.
        -11    1    1    2    0    0 -0.10357484228E+03 -0.20384368780E+03 -0.40428168118E+03  0.46446062777E+03  0.00000000000E+00 0.  1.
         11    1    1    2    0    0 -0.10535858653E+03 -0.11161243212E+03 -0.17743413382E+03  0.23460741379E+03  0.00000000000E+00 0. -1.
</event>
<event>
 6    1  0.8259171E-006  0.1022947E+03  0.7561462E-02  0.1275543E+00
          2   -1    0    0  501    0  0.00000000000E+00  0.00000000000E+00  0.10753085388E+03  0.10753085388E+03  0.00000000000E+00 0. -1.
         -2   -1    0    0    0  501 -0.00000000000E+00 -0.00000000000E+00 -0.13335971695E+03  0.13335971695E+03  0.00000000000E+00 0.  1.
          5    1    1    2  502    0 -0.42110035200E+02 -0.21625877493E+02  0.33063831734E+02  0.57893203494E+02  0.41800000000E+01 0. -1.
         -5    1    1    2    0  502  0.33317802725E+01  0.62699243287E+02 -0.50055485022E+02  0.80407212670E+02  0.41800000000E+01 0. -1.
        -11    1    1    2    0    0 -0.20960341928E+02 -0.24300757647E+02  0.15872849949E+02  0.35802375919E+02  0.00000000000E+00 0. -1.
         11    1    1    2    0    0  0.59738596856E+02 -0.16772608147E+02 -0.24710059735E+02  0.66787778751E+02  0.00000000000E+00 0.  1.
</event>
<event>
 6    1  0.8259171E-006  0.1165442E+03  0.7561462E-02  0.1248909E+00
         -1   -1    0    0    0  501 -0.00000000000E+00  0.00000000000E+00  0.21472012382E+02  0.21472012382E+02  0.00000000000E+00 0.  1.
          1   -1    0    0  501    0  0.00000000000E+00 -0.00000000000E+00 -0.78373386980E+03  0.78373386980E+03  0.00000000000E+00 0. -1.
          5    1    1    2  502    0  0.79928850133E+02  0.55447633507E+02 -0.37370480402E+03  0.38618106387E+03  0.41800000000E+01 0.  1.
         -5    1    1    2    0  502 -0.30360541389E+02  0.27538415478E+01 -0.28620849117E+02  0.42023463932E+02  0.41800000000E+01 0.  1.
        -11    1    1    2    0    0 -0.85320204265E+01 -0.63053292660E+02 -0.14837516260E+03  0.16144256553E+03  0.00000000000E+00 0. -1.
         11    1    1    2    0    0 -0.41036288318E+02  0.48518176055E+01 -0.21156104168E+03  0.21555878885E+03  0.00000000000E+00 0.  1.
</event>
<event>
 6    1  0.8259171E-006  0.2271543E+03  0.7561462E-02  0.1128659E+00
         -1   -1    0    0    0  501 -0.00000000000E+00  0.00000000000E+00  0.11167326692E+03  0.11167326692E+03  0.00000000000E+00 0.  1.
          1   -1    0    0  501    0  0.00000000000E+00 -0.00000000000E+00 -0.50635255291E+03  0.50635255291E+03  0.00000000000E+00 0. -1.
          5    1    1    2  502    0  0.70624301739E+02  0.10323736960E+03 -0.72968688762E+02  0.14487114419E+03  0.41800000000E+01 0.  1.
         -5    1    1    2    0  502  0.11004726157E+03 -0.15132278027E+02 -0.49521116798E+02  0.12169305250E+03  0.41800000000E+01 0.  1.
        -11    1    1    2    0    0 -0.86999832075E+02  0.33721007711E+01 -0.75851365738E+02  0.11547195127E+03  0.00000000000E+00 0. -1.
         11    1    1    2    0    0 -0.93671731234E+02 -0.91477192348E+02 -0.19633811469E+03  0.23598967188E+03  0.00000000000E+00 0.  1.
</event>
<event>
 6    1  0.8259171E-006  0.6297684E+02  0.7561462E-02  0.1385748E+00
         -1   -1    0    0    0  501 -0.00000000000E+00  0.00000000000E+00  0.27129176013E+02  0.27129176013E+02  0.00000000000E+00 0.  1.
          1   -1    0    0  501    0  0.00000000000E+00 -0.00000000000E+00 -0.42848871540E+03  0.42848871540E+03  0.00000000000E+00 0. -1.
          5    1    1    2  502    0 -0.65557910758E+01  0.48268617556E+01 -0.23854895239E+03  0.23872442707E+03  0.41800000000E+01 0.  1.
         -5    1    1    2    0  502  0.17128673328E+02 -0.22815463097E+02  0.27985471331E+01  0.28969657788E+02  0.41800000000E+01 0.  1.
        -11    1    1    2    0    0  0.26621200901E+02 -0.21131449286E+02 -0.51697334230E+02  0.61869547055E+02  0.00000000000E+00 0.  1.
         11    1    1    2    0    0 -0.37194083153E+02  0.39120050627E+02 -0.11391179989E+03  0.12605425950E+03  0.00000000000E+00 0. -1.
</event>
<event>
 6    1  0.8259171E-006  0.1335989E+03  0.7561462E-02  0.1222211E+00
          2   -1    0    0  501    0  0.00000000000E+00  0.00000000000E+00  0.29327298170E+03  0.29327298170E+03  0.00000000000E+00 0. -1.
         -2   -1    0    0    0  501 -0.00000000000E+00 -0.00000000000E+00 -0.73440033626E+02  0.73440033626E+02  0.00000000000E+00 0.  1.
          5    1    1    2  502    0 -0.99084357238E+02  0.34745581026E+02  0.11725359488E+03  0.15745108181E+03  0.41800000000E+01 0.  1.
         -5    1    1    2    0  502  0.22897618580E+02  0.25177972006E+02 -0.75360173886E+01  0.35106910560E+02  0.41800000000E+01 0.  1.
        -11    1    1    2    0    0  0.84733055194E+02 -0.73242775624E+02  0.11178657316E+03  0.15824169097E+03  0.00000000000E+00 0. -1.
         11    1    1    2    0    0 -0.85463165358E+01  0.13319222591E+02 -0.16712025770E+01  0.15913331984E+02  0.00000000000E+00 0.  1.
</event>
<event>
 6    1  0.8259171E-006  0.1252648E+03  0.7561462E-02  0.1234656E+00
         -2   -1    0    0    0  501 -0.00000000000E+00  0.00000000000E+00  0.81049830396E+02  0.81049830396E+02  0.00000000000E+00 0.  1.
          2   -1    0    0  501    0  0.00000000000E+00 -0.00000000000E+00 -0.25453874634E+03  0.25453874634E+03  0.00000000000E+00 0. -1.
          5    1    1    2  502    0 -0.61226554262E+02 -0.86507180928E+02 -0.12044012225E+02  0.10674602536E+03  0.41800000000E+01 0. -1.
         -5    1    1    2    0  502  0.17489562147E+02  0.71515406346E+01 -0.61213321561E+02  0.64199473939E+02  0.41800000000E+01 0. -1.
        -11    1    1    2    0    0  0.59654049281E+02  0.18868851499E+02 -0.26477158056E+02  0.67938789004E+02  0.00000000000E+00 0.  1.
         11    1    1    2    0    0 -0.15917057166E+02  0.60486788795E+02 -0.73754424108E+02  0.96704288441E+02  0.00000000000E+00 0. -1.
</event>
<event>
 6    1  0.8259171E-006  0.6815829E+02  0.7561462E-02  0.1366470E+00
          1   -1    0    0  501    0  0.00000000000E+00  0.00000000000E+00  0.12799836109E+03  0.12799836109E+03  0.00000000000E+00 0. -1.
         -1   -1    0    0    0  501 -0.00000000000E+00 -0.00000000000E+00 -0.19322742065E+03  0.19322742065E+03  0.00000000000E+00 0.  1.
          5    1    1    2  502    0  0.21510203289E+02  0.57777595496E+01  0.97802849926E+01  0.24681931154E+02  0.41800000000E+01 0. -1.
         -5    1    1    2    0  502 -0.34020649649E+02  0.37055748438E+02 -0.15724385049E+03  0.16514731004E+03  0.41800000000E+01 0.  1.
        -11    1    1    2    0    0  0.20311583870E+02 -0.69574358564E+00 -0.14919014359E+02  0.25211534818E+02  0.00000000000E+00 0.  1.
         11    1    1    2    0    0 -0.78011375096E+01 -0.42137764402E+02  0.97153520300E+02  0.10618500573E+03  0.00000000000E+00 0. -1.
</event>
<event>
 6    1  0.8259171E-006  0.1196829E+03  0.7561462E-02  0.1243621E+00
          2   -1    0    0  501    0  0.00000000000E+00  0.00000000000E+00  0.29793577607E+03  0.29793577607E+03  0.00000000000E+00 0. -1.
         -2   -1    0    0    0  501 -0.00000000000E+00 -0.00000000000E+00 -0.50450358786E+02  0.50450358786E+02  0.00000000000E+00 0.  1.
          5    1    1    2  502    0  0.25345787861E+02  0.55078289143E+02  0.36455564029E+02  0.70869651092E+02  0.41800000000E+01 0.  1.
         -5    1    1    2    0  502 -0.69634901083E+02 -0.23427117301E+02  0.77638656247E+02  0.10697234511E+03  0.41800000000E+01 0.  1.
        -11    1    1    2    0    0  0.40892930202E+02  0.25210656939E+02  0.74214969277E+02  0.88406281613E+02  0.00000000000E+00 0.  1.
         11    1    1    2    0    0  0.33961830193E+01 -0.56861828780E+02  0.59176227731E+02  0.82137857044E+02  0.00000000000E+00 0. -1.
</event>
<event>
 6    1  0.8259171E-006  0.1665631E+03  0.7561462E-02  0.1181480E+00
          3   -1    0    0  501    0  0.00000000000E+00  0.00000000000E+00  0.24999589394E+02  0.24999589394E+02  0.00000000000E+00 0. -1.
         -3   -1    0    0    0  501 -0.00000000000E+00 -0.00000000000E+00 -0.13283306431E+04  0.13283306431E+04  0.00000000000E+00 0.  1.
          5    1    1    2  502    0 -0.57495295061E+02 -0.11098667265E+00 -0.50517015095E+03  0.50844869464E+03  0.41800000000E+01 0. -1.
         -5    1    1    2    0  502 -0.55574854867E+02  0.88598268444E+02 -0.26518575072E+03  0.28509502354E+03  0.41800000000E+01 0. -1.
        -11    1    1    2    0    0  0.83490800694E+02 -0.66086239834E+01 -0.27944483472E+03  0.29172556172E+03  0.00000000000E+00 0. -1.
         11    1    1    2    0    0  0.29579349234E+02 -0.81878657788E+02 -0.25353031734E+03  0.26806095260E+03  0.00000000000E+00 0.  1.
</event>
<event>
 6    1  0.8259171E-006  0.1416912E+03  0.7561462E-02  0.1211071E+00
         -1   -1    0    0    0  501 -0.00000000000E+00  0.00000000000E+00  0.36159424062E+02  0.36159424062E+02  0.00000000000E+00 0.  1.
          1   -1    0    0  501    0  0.00000000000E+00 -0.00000000000E+00 -0.80616032679E+03  0.80616032679E+03  0.00000000000E+00 0. -1.
          5    1    1    2  502    0 -0.14353549443E+02  0.54803327273E+02 -0.22576296181E+03  0.23279994928E+03  0.41800000000E+01 0. -1.
         -5    1    1    2    0  502 -0.47702073330E+02 -0.10067790224E+03 -0.10128871036E+03  0.15062670098E+03  0.41800000000E+01 0.  1.
        -11    1    1    2    0    0  0.19323398059E+02  0.65337735419E+02 -0.32241101860E+03  0.32953190785E+03  0.00000000000E+00 0.  1.
         11    1    1    2    0    0  0.42732224714E+02 -0.19463160450E+02 -0.12053821196E+03  0.12936119274E+03  0.00000000000E+00 0. -1.
</event>
<event>
 6    1  0.8259171E-006  0.1288703E+03  0.7561462E-02  0.1229142E+00
         -1   -1    0    0    0  501 -0.00000000000E+00  0.00000000000E+00  0.85645431119E+02  0.85645431119E+02  0.00000000000E+00 0.  1.
          1   -1    0    0  501    0  0.00000000000E+00 -0.00000000000E+00 -0.29573478172E+03  0.29573478172E+03  0.00000000000E+00 0. -1.
          5    1    1    2  502    0  0.63944318019E+02 -0.57287840429E+02 -0.83742697719E+02  0.12000451779E+03  0.41800000000E+01 0.  1.
         -5    1    1    2    0  502 -0.15974951513E+02 -0.35116429237E+02  0.32507024515E+02  0.50621553918E+02  0.41800000000E+01 0.  1.
        -11    1    1    2    0    0 -0.71596673002E+02  0.74580941822E+02 -0.95127426404E+02  0.14049066774E+03  0.00000000000E+00 0.  1.
         11    1    1    2    0    0  0.23627306497E+02  0.17823327844E+02 -0.63726250996E+02  0.70263473396E+02  0.00000000000E+00 0. -1.
</event>
<event>
 6    1  0.8259171E-006  0.1535200E+03  0.7561462E-02  0.1196213E+00
          2   -1    0    0  501    0  0.00000000000E+00  0.00000000000E+00  0.30174999798E+03  0.30174999798E+03  0.00000000000E+00 0. -1.
         -2   -1    0    0    0  501 -0.00000000000E+00 -0.00000000000E+00 -0.93325716145E+02  0.93325716145E+02  0.00000000000E+00 0.  1.
          5    1    1    2  502    0  0.85696453443E+01 -0.79344859480E+02  0.17947355687E+02  0.81906199542E+02  0.41800000000E+01 0.  1.
         -5    1    1    2    0  502  0.92285464976E+02  0.11330937799E+02  0.47078781732E+02  0.10430187576E+03  0.41800000000E+01 0.  1.
        -11    1    1    2    0    0 -0.56761929957E+02  0.47801184606E+01  0.11195382737E+03  0.12561220357E+03  0.00000000000E+00 0. -1.
         11    1    1    2    0    0 -0.44093180363E+02  0.63233803220E+02  0.31444317050E+02  0.83255435252E+02  0.00000000000E+00 0.  1.
</event>
<event>
 6    1  0.8259171E-006  0.1317137E+03  0.7561462E-02  0.1224935E+00
          2   -1    0    0  501    0  0.00000000000E+00  0.00000000000E+00  0.77708986242E+03  0.77708986242E+03  0.00000000000E+00 0. -1.
         -2   -1    0    0    0  501 -0.00000000000E+00 -0.00000000000E+00 -0.13453357461E+03  0.13453357461E+03  0.00000000000E+00 0.  1.
          5    1    1    2  502    0 -0.77430006651E+02 -0.11919185926E+02  0.14115051709E+02  0.79713110640E+02  0.41800000000E+01 0. -1.
         -5    1    1    2    0  502 -0.33062261593E+02  0.27712767366E+02 -0.89629054393E+02  0.99558778659E+02  0.41800000000E+01 0.  1.
        -11    1    1    2    0    0 -0.85908867091E+01  0.16189692095E+02  0.56803610668E+02  0.59687181618E+02  0.00000000000E+00 0.  1.
         11    1    1    2    0    0  0.11908315495E+03 -0.31983273535E+02  0.66126667983E+03  0.67266436611E+03  0.00000000000E+00 0. -1.
</event>
<event>
 6    1  0.8259171E-006  0.1159226E+03  0.7561462E-02  0.1249979E+00
         -1   -1    0    0    0  501 -0.00000000000E+00  0.00000000000E+00  0.89827342338E+02  0.89827342338E+02  0.00000000000E+00 0.  1.
          1   -1    0    0  501    0  0.00000000000E+00 -0.00000000000E+00 -0.34409176016E+03  0.34409176016E+03  0.00000000000E+00 0. -1.
          5    1    1    2  502    0 -0.58223027396E+02 -0.55208457505E+02  0.17084046877E+02  0.82141534908E+02  0.41800000000E+01 0. -1.
         -5    1    1    2    0  502  0.25897451810E+02  0.38278250152E+02  0.12099326391E+02  0.47955902077E+02  0.41800000000E+01 0.  1.
        -11    1    1    2    0    0 -0.20168374178E+02  0.42247860534E+02 -0.85561390745E+02  0.97531516049E+02  0.00000000000E+00 0.  1.
         11    1    1    2    0    0  0.52493949764E+02 -0.25317653180E+02 -0.19788640034E+03  0.20629014946E+03  0.00000000000E+00 0. -1.
</event>
<event>
 6    1  0.8259171E-006  0.9527156E+02  0.7561462E-02  0.1290566E+00
          1   -1    0    0  501    0  0.00000000000E+00  0.00000000000E+00  0.14993462837E+03  0.14993462837E+03  0.00000000000E+00 0. -1.
         -1   -1    0    0    0  501 -0.00000000000E+00 -0.00000000000E+00 -0.10405429064E+03  0.10405429064E+03  0.00000000000E+00 0.  1.
          5    1    1    2  502    0 -0.13178411060E+02  0.92522343611E+02 -0.14407907085E+02  0.94652600450E+02  0.41800000000E+01 0.  1.
         -5    1    1    2    0  502 -0.69316011048E+01 -0.37443381306E+02  0.21043751979E+02  0.43707731523E+02  0.41800000000E+01 0.  1.
        -11    1    1    2    0    0  0.75427829179E+01 -0.24150940362E+02  0.67377515237E+02  0.71971459996E+02  0.00000000000E+00 0. -1.
         11    1    1    2    0    0  0.12567229247E+02 -0.30928021943E+02 -0.28133022395E+02  0.43657127040E+02  0.00000000000E+00 0.  1.
</event>
<event>
 6    1  0.8259171E-006  0.5930156E+02  0.7561462E-02  0.1400786E+00
          2   -1    0    0  501    0  0.00000000000E+00  0.00000000000E+00  0.38550864359E+03  0.38550864359E+03  0.00000000000E+00 0. -1.
         -2   -1    0    0    0  501 -0.00000000000E+00 -0.00000000000E+00 -0.39339767368E+02  0.39339767368E+02  0.00000000000E+00 0.  1.
          5    1    1    2  502    0 -0.13608145892E+02 -0.23823998236E+02  0.20285962924E+03  0.20474927619E+03  0.41800000000E+01 0. -1.
         -5    1    1    2    0  502  0.20973919224E+02  0.18440609503E+02 -0.19012918534E+02  0.34042985146E+02  0.41800000000E+01 0.  1.
        -11    1    1    2    0    0 -0.34835280005E+02  0.45275911237E+01  0.18636472789E+02  0.39765738173E+02  0.00000000000E+00 0. -1.
         11    1    1    2    0    0  0.27469506673E+02  0.85579760936E+00  0.14368569273E+03  0.14629041144E+03  0.00000000000E+00 0.  1.
</event>
<event>
 6    1  0.8259171E-006  0.8067817E+02  0.7561462E-02  0.1327138E+00
          2   -1    0    0  501    0  0.00000000000E+00  0.00000000000E+00  0.39922173316E+02  0.39922173316E+02  0.00000000000E+00 0. -1.
         -2   -1    0    0    0  501 -0.00000000000E+00 -0.00000000000E+00 -0.32979959050E+03  0.32979959050E+03  0.00000000000E+00 0.  1.
          5    1    1    2  502    0  0.19928946837E+02 -0.28628948288E+02  0.34200450610E+01  0.35297998673E+02  0.41800000000E+01 0. -1.
         -5    1    1    2    0  502  0.15651002845E+02  0.25064110003E+02 -0.18900923096E+03  0.19135079119E+03  0.41800000000E+01 0. -1.
        -11    1    1    2    0    0 -0.11909027341E+02  0.46148553485E+02 -0.64333993879E+02  0.80064828042E+02  0.00000000000E+00 0.  1.
         11    1    1    2    0    0 -0.23670922341E+02 -0.42583715201E+02 -0.39954237408E+02  0.63008145915E+02  0.00000000000E+00 0. -1.
</event>
<event>
 6    1  0.8259171E-006  0.1000140E+03  0.7561462E-02  0.1280266E+00
         -1   -1    0    0    0  501 -0.00000000000E+00  0.00000000000E+00  0.36655221329E+02  0.36655221329E+02  0.00000000000E+00 0.  1.
          1   -1    0    0  501    0  0.00000000000E+00 -0.00000000000E+00 -0.52260552661E+03  0.52260552661E+03  0.00000000000E+00 0. -1.
          5    1    1    2  502    0  0.15381730904E+02  0.50415476285E+01 -0.16203868299E+03  0.16289880918E+03  0.41800000000E+01 0.  1.
         -5    1    1    2    0  502  0.99912175640E+01  0.65438342474E+02 -0.17907996857E+02  0.68703492237E+02  0.41800000000E+01 0.  1.
        -11    1    1    2    0    0  0.31617541907E+02 -0.84104328012E+01 -0.78112694460E+02  0.84687645923E+02  0.00000000000E+00 0.  1.
         11    1    1    2    0    0 -0.56990490375E+02 -0.62069457301E+02 -0.22789093098E+03  0.24297080060E+03  0.00000000000E+00 0. -1.
</event>
<event>
 6    1  0.8259171E-006  0.1051812E+03  0.7561462E-02  0.1269763E+00
          1   -1    0    0  501    0  0.00000000000E+00  0.00000000000E+00  0.18179139591E+03  0.18179139591E+03  0.00000000000E+00 0. -1.
         -1   -1    0    0    0  501 -0.00000000000E+00 -0.00000000000E+00 -0.14965344862E+03  0.14965344862E+03  0.00000000000E+00 0.  1.
          5    1    1    2  502    0  0.24109061204E+02 -0.31490069049E+02 -0.51180470897E+02  0.64882850446E+02  0.41800000000E+01 0. -1.
         -5    1    1    2    0  502  0.17210936890E+02  0.86047340265E+02 -0.42747771469E+02  0.97699567455E+02  0.41800000000E+01 0.  1.
        -11    1    1    2    0    0 -0.10743172799E+02 -0.50684894848E+02  0.12789114490E+03  0.13798738809E+03  0.00000000000E+00 0. -1.
         11    1    1    2    0    0 -0.30576825294E+02 -0.38723763679E+01 -0.18249552437E+01  0.30875038550E+02  0.00000000000E+00 0.  1.
</event>
<event>
 6    1  0.8259171E-006  0.8172982E+02  0.7561462E-02  0.1324213E+00
          2   -1    0    0  501    0  0.00000000000E+00  0.00000000000E+00  0.27020714808E+03  0.27020714808E+03  0.00000000000E+00 0. -1.
         -2   -1    0    0    0  501 -0.00000000000E+00 -0.00000000000E+00 -0.66816139058E+02  0.66816139058E+02  0.00000000000E+00 0.  1.
          5    1    1    2  502    0 -0.26454038246E+02  0.28332561944E+02 -0.34577121019E+02  0.52111418171E+02  0.41800000000E+01 0.  1.
         -5    1    1    2    0  502  0.27704237952E+01  0.35250207256E+02  0.96941586470E+02  0.10327340387E+03  0.41800000000E+01 0.  1.
        -11    1    1    2    0    0  0.36418837738E+02 -0.16301618881E+02  0.12324586201E+03  0.12954388069E+03  0.00000000000E+00 0. -1.
         11    1    1    2    0    0 -0.12735223287E+02 -0.47281150320E+02  0.17780681553E+02  0.52094584404E+02  0.00000000000E+00 0.  1.
</event>
<event>
 6    1  0.8259171E-006  0.1827109E+03  0.7561462E-02  0.1165205E+00
          1   -1    0    0  501    0  0.00000000000E+00  0.00000000000E+00  0.87682885255E+02  0.87682885255E+02  0.00000000000E+00 0. -1.
         -1   -1    0    0    0  501 -0.00000000000E+00 -0.00000000000E+00 -0.40288447214E+03  0.40288447214E+03  0.00000000000E+00 0.  1.
          5    1    1    2  502    0  0.10010790290E+03 -0.25875937610E+02 -0.80751520339E+02  0.13126094929E+03  0.41800000000E+01 0. -1.
         -5    1    1    2    0  502  0.49669683994E+02  0.74373353180E+02 -0.63225221070E+02  0.10960553887E+03  0.41800000000E+01 0.  1.
        -11    1    1    2    0    0 -0.71869412066E+02  0.13145773886E+02 -0.11296335105E+03  0.13453156671E+03  0.00000000000E+00 0.  1.
         11    1    1    2    0    0 -0.77908174828E+02 -0.61643189456E+02 -0.58261494423E+02  0.11516930252E+03  0.00000000000E+00 0. -1.
</event>
<event>
 6    1  0.8259171E-006  0.1020597E+03  0.7561462E-02  0.1276023E+00
         -1   -1    0    0    0  501 -0.00000000000E+00  0.00000000000E+00  0.14260218694E+03  0.14260218694E+03  0.00000000000E+00 0.  1.
          1   -1    0    0  501    0  0.00000000000E+00 -0.00000000000E+00 -0.95055291740E+02  0.95055291740E+02  0.00000000000E+00 0. -1.
          5    1    1    2  502    0 -0.12992933850E+02  0.56850469630E+02  0.42072432602E+02  0.72030231239E+02  0.41800000000E+01 0. -1.
         -5    1    1    2    0  502  0.30682429660E+02 -0.59252788327E+02  0.28274582478E+02  0.72589453977E+02  0.41800000000E+01 0. -1.
        -11    1    1    2    0    0 -0.24598273351E+02  0.36495316888E+02 -0.34940154275E+02  0.56194284295E+02  0.00000000000E+00 0. -1.
         11    1    1    2    0    0  0.69087775407E+01 -0.34092998191E+02  0.12140034394E+02  0.36843509169E+02  0.00000000000E+00 0.  1.
</event>
<event>
 6    1  0.8259171E-006  0.9854300E+02  0.7561462E-02  0.1283390E+00
          2   -1    0    0  501    0  0.00000000000E+00  0.00000000000E+00  0.34932285925E+02  0.34932285925E+02  0.00000000000E+00 0.  1.
         -2   -1    0    0    0  501 -0.00000000000E+00 -0.00000000000E+00 -0.47584663752E+03  0.47584663752E+03  0.00000000000E+00 0. -1.
          5    1    1    2  502    0  0.20543336993E+02  0.62622655350E+00  0.65542472587E+01  0.21973880213E+02  0.41800000000E+01 0. -1.
         -5    1    1    2    0  502 -0.30236925440E+02 -0.65545196292E+02 -0.24219673636E+03  0.25275912628E+03  0.41800000000E+01 0. -1.
        -11    1    1    2    0    0 -0.33731393040E+02  0.13066707912E+02 -0.26309299164E+02  0.44729464054E+02  0.00000000000E+00 0.  1.
         11    1    1    2    0    0  0.43424981487E+02  0.51852261827E+02 -0.17896256334E+03  0.19131645290E+03  0.00000000000E+00 0. -1.
</event>
<event>
 6    1  0.8259171E-006  0.9737263E+02  0.7561462E-02  0.1285920E+00
         -2   -1    0    0    0  501 -0.00000000000E+00  0.00000000000E+00  0.20561667759E+03  0.20561667759E+03  0.00000000000E+00 0.  1.
          2   -1    0    0  501    0  0.00000000000E+00 -0.00000000000E+00 -0.74786095615E+02  0.74786095615E+02  0.00000000000E+00 0. -1.
          5    1    1    2  502    0  0.23121220259E+02  0.63308043541E+02  0.62902846499E+02  0.92286183695E+02  0.41800000000E+01 0. -1.
         -5    1    1    2    0  502 -0.21859063430E+02 -0.14399992046E+02 -0.22815771637E+02  0.34974422945E+02  0.41800000000E+01 0.  1.
        -11    1    1    2    0    0 -0.33584302360E+02 -0.58098371680E+02  0.97990352129E+02  0.11876630527E+03  0.00000000000E+00 0.  1.
         11    1    1    2    0    0  0.32322145530E+02  0.91903201849E+01 -0.72468450209E+01  0.34375861292E+02  0.00000000000E+00 0. -1.
</event>
<event>
 6    1  0.8259171E-006  0.1304865E+03  0.7561462E-02  0.1226736E+00
          2   -1    0    0  501    0  0.00000000000E+00  0.00000000000E+00  0.11221083550E+03  0.11221083550E+03  0.00000000000E+00 0. -1.
         -2   -1    0    0    0  501 -0.00000000000E+00 -0.00000000000E+00 -0.19280978406E+03  0.19280978406E+03  0.00000000000E+00 0.  1.
          5    1    1    2  502    0 -0.79338266173E+02 -0.19247877071E+02 -0.17587042674E+02  0.83617089887E+02  0.41800000000E+01 0.  1.
         -5    1    1    2    0  502 -0.18235568346E+00  0.77206134460E+02 -0.21897796872E+02  0.80360477598E+02  0.41800000000E+01 0.  1.
        -11    1    1    2    0    0  0.51091793995E+02 -0.20902334008E+02 -0.67659364168E+02  0.87321638442E+02  0.00000000000E+00 0.  1.
         11    1    1    2    0    0  0.28428827861E+02 -0.37055923381E+02  0.26545255160E+02  0.53721413633E+02  0.00000000000E+00 0. -1.
</event>
<event>
 6    1  0.8259171E-006  0.1187360E+03  0.7561462E-02  0.1245197E+00
          1   -1    0    0  501    0  0.00000000000E+00  0.00000000000E+00  0.16096144242E+03  0.16096144242E+03  0.00000000000E+00 0. -1.
         -1   -1    0    0    0  501 -0.00000000000E+00 -0.00000000000E+00 -0.98947688014E+02  0.98947688014E+02  0.00000000000E+00 0.  1.
          5    1    1    2  502    0 -0.63319020187E+01 -0.89231994668E+02  0.28408094934E+01  0.89599020386E+02  0.41800000000E+01 0.  1.
         -5    1    1    2    0  502  0.19853472939E+02  0.40056146111E+02 -0.77961284735E+01  0.45573097856E+02  0.41800000000E+01 0.  1.
        -11    1    1    2    0    0  0.37873375674E+02  0.29411840742E+02  0.43979405055E+02  0.65066404770E+02  0.00000000000E+00 0. -1.
         11    1    1    2    0    0 -0.51394946594E+02  0.19764007815E+02  0.22989668336E+02  0.59670607425E+02  0.00000000000E+00 0.  1.
</event>
<event>
 6    1  0.8259171E-006  0.1594331E+03  0.7561462E-02  0.1189338E+00
         -1   -1    0    0    0  501 -0.00000000000E+00  0.00000000000E+00  0.28455708108E+03  0.28455708108E+03  0.00000000000E+00 0.  1.
          1   -1    0    0  501    0  0.00000000000E+00 -0.00000000000E+00 -0.16753539126E+03  0.16753539126E+03  0.00000000000E+00 0. -1.
          5    1    1    2  502    0 -0.11140582638E+02  0.27965429791E+02  0.15053502081E+02  0.33915456208E+02  0.41800000000E+01 0.  1.
         -5    1    1    2    0  502 -0.80746956348E+02 -0.12340975159E+03  0.18625773130E+03  0.23761197910E+03  0.41800000000E+01 0.  1.
        -11    1    1    2    0    0  0.50900147306E+01  0.34515303227E+02  0.12428445452E+02  0.37036207461E+02  0.00000000000E+00 0.  1.
         11    1    1    2    0    0  0.86797524255E+02  0.60929018568E+02 -0.96717989008E+02  0.14352882957E+03  0.00000000000E+00 0. -1.
</event>
<event>
 6    1  0.8259171E-006  0.1468187E+03  0.7561462E-02  0.1204437E+00
          2   -1    0    0  501    0  0.00000000000E+00  0.00000000000E+00  0.75761688460E+03  0.75761688460E+03  0.00000000000E+00 0. -1.
         -2   -1    0    0    0  501 -0.00000000000E+00 -0.00000000000E+00 -0.40066936458E+02  0.40066936458E+02  0.00000000000E+00 0.  1.
          5    1    1    2  502    0 -0.27866629141E+02 -0.44827761301E+02  0.25719591085E+03  0.26258957740E+03  0.41800000000E+01 0. -1.
         -5    1    1    2    0  502 -0.69862812609E+02 -0.46007320870E+02  0.58180775499E+02  0.10198020002E+03  0.41800000000E+01 0. -1.
        -11    1    1    2    0    0 -0.15077921059E+02  0.88800838845E+01  0.21580851864E+02  0.27783677950E+02  0.00000000000E+00 0.  1.
         11    1    1    2    0    0  0.11280736281E+03  0.81954998286E+02  0.38059240994E+03  0.40533036569E+03  0.00000000000E+00 0. -1.
</event>
<event>
 6    1  0.8259171E-006  0.1200397E+03  0.7561462E-02  0.1243032E+00
         -2   -1    0    0    0  501 -0.00000000000E+00  0.00000000000E+00  0.61121017393E+02  0.61121017393E+02  0.00000000000E+00 0.  1.
          2   -1    0    0  501    0  0.00000000000E+00 -0.00000000000E+00 -0.55643710430E+03  0.55643710430E+03  0.00000000000E+00 0. -1.
          5    1    1    2  502    0 -0.55852310426E+02 -0.30891569083E+02  0.22586933339E+02  0.67833705324E+02  0.41800000000E+01 0.  1.
         -5    1    1    2    0  502  0.15907734851E+02 -0.46772044779E+02 -0.82129426342E+02  0.95934327913E+02  0.41800000000E+01 0.  1.
        -11    1    1    2    0    0  0.69901105347E+02  0.56032647356E+02 -0.30207154883E+03  0.31507624904E+03  0.00000000000E+00 0.  1.
         11    1    1    2    0    0 -0.29956529772E+02  0.21630966506E+02 -0.13370204507E+03  0.13871383941E+03  0.00000000000E+00 0. -1.
</event>
<event>
 6    1  0.8259171E-006  0.1089466E+03  0.7561462E-02  0.1262533E+00
          2   -1    0    0  501    0  0.00000000000E+00  0.00000000000E+00  0.31940148336E+02  0.31940148336E+02  0.00000000000E+00 0. -1.
         -2   -1    0    0    0  501 -0.00000000000E+00 -0.00000000000E+00 -0.45376376285E+03  0.45376376285E+03  0.00000000000E+00 0.  1.
          5    1    1    2  502    0  0.69467422650E+01 -0.45163183521E+02 -0.13407363081E+03  0.14170808464E+03  0.41800000000E+01 0. -1.
         -5    1    1    2    0  502 -0.50984826710E+02  0.51969209292E+02 -0.65589083115E+02  0.98079822048E+02  0.41800000000E+01 0. -1.
        -11    1    1    2    0    0  0.71295436330E+02 -0.14695608004E+01 -0.11586337057E+03  0.13604969493E+03  0.00000000000E+00 0.  1.
         11    1    1    2    0    0 -0.27257351885E+02 -0.53364649710E+01 -0.10629753002E+03  0.10986630957E+03  0.00000000000E+00 0. -1.
</event>
<event>
 6    1  0.8259171E-006  0.1353503E+03  0.7561462E-02  0.1219726E+00
         -1   -1    0    0    0  501 -0.00000000000E+00  0.00000000000E+00  0.81928795270E+02  0.81928795270E+02  0.00000000000E+00 0.  1.
          1   -1    0    0  501    0  0.00000000000E+00 -0.00000000000E+00 -0.24840553522E+03  0.24840553522E+03  0.00000000000E+00 0. -1.
          5    1    1    2  502    0 -0.31437097777E+02  0.13391303498E+02 -0.41854362487E+01  0.34678644763E+02  0.41800000000E+01 0.  1.
         -5    1    1    2    0  502  0.81769647248E+02 -0.80811258163E+02 -0.51297952125E+02  0.12595906855E+03  0.41800000000E+01 0.  1.
        -11    1    1    2    0    0 -0.46774897179E+02  0.88369824041E+02 -0.10966806843E+03  0.14840553238E+03  0.00000000000E+00 0.  1.
         11    1    1    2    0    0 -0.35576522926E+01 -0.20949869376E+02 -0.13252831480E+01  0.21291084804E+02  0.00000000000E+00 0. -1.
</event>
<event>
 6    1  0.8259171E-006  0.1674953E+03  0.7561462E-02  0.1180485E+00
         -1   -1    0    0    0  501 -0.00000000000E+00  0.00000000000E+00  0.17998607721E+03  0.17998607721E+03  0.00000000000E+00 0.  1.
          1   -1    0    0  501    0  0.00000000000E+00 -0.00000000000E+00 -0.21065374088E+03  0.21065374088E+03  0.00000000000E+00 0. -1.
          5    1    1    2  502    0 -0.14762962917E+03  0.23616888828E+02  0.83406603881E+02  0.17124952209E+03  0.41800000000E+01 0.  1.
         -5    1    1    2    0  502  0.71662890319E+01 -0.15436024261E+02 -0.20760140366E+02  0.27167671441E+02  0.41800000000E+01 0.  1.
        -11    1    1    2    0    0  0.22607054490E+02  0.35603637470E+02 -0.27031399182E+02  0.50093856465E+02  0.00000000000E+00 0. -1.
         11    1    1    2    0    0  0.11785628565E+03 -0.43784502036E+02 -0.66282728004E+02  0.14212876808E+03  0.00000000000E+00 0.  1.
</event>
<event>
 6    1  0.1007025E-005  0.8343519E+02  0.7561462E-02  0.1319576E+00
         -2   -1    0    0    0  501 -0.00000000000E+00  0.00000000000E+00  0.16152028898E+03  0.16152028898E+03  0.00000000000E+00 0.  1.
          2   -1    0    0  501    0  0.00000000000E+00 -0.00000000000E+00 -0.90829445871E+02  0.90829445871E+02  0.00000000000E+00 0. -1.
          5    1    1    2  502    0 -0.18886335938E+02 -0.38639030067E+02  0.77451703006E+02  0.88689948857E+02  0.41800000000E+01 0. -1.
         -5    1    1    2    0  502  0.57844527946E+02  0.18512616518E+02 -0.72447677996E+01  0.61307955797E+02  0.41800000000E+01 0. -1.
        -11    1    1    2    0    0 -0.10203085342E+02 -0.14526568995E+02  0.39157980140E+02  0.42993854978E+02  0.00000000000E+00 0.  1.
         11    1    1    2    0    0 -0.28755106666E+02  0.34652982544E+02 -0.38674072237E+02  0.59357975218E+02  0.00000000000E+00 0. -1.
</event>
<event>
 6    1  0.8259171E-006  0.1890675E+03  0.7561462E-02  0.1159305E+00
         -2   -1    0    0    0  501 -0.00000000000E+00  0.00000000000E+00  0.27281592267E+03  0.27281592267E+03  0.00000000000E+00 0.  1.
          2   -1    0    0  501    0  0.00000000000E+00 -0.00000000000E+00 -0.24615970514E+03  0.24615970514E+03  0.00000000000E+00 0. -1.
          5    1    1    2  502    0  0.17633148923E+03 -0.22762510103E+02  0.10454246351E+03  0.20629475281E+03  0.41800000000E+01 0.  1.
         -5    1    1    2    0  502 -0.10032273010E+01  0.17270118353E+02  0.66363085815E+02  0.68708041828E+02  0.41800000000E+01 0.  1.
        -11    1    1    2    0    0 -0.16316896286E+03 -0.91936198216E+01 -0.90217670578E+02  0.18667581838E+03  0.00000000000E+00 0. -1.
         11    1    1    2    0    0 -0.12159299073E+02  0.14686011572E+02 -0.54031661213E+02  0.57297014785E+02  0.00000000000E+00 0.  1.
</event>
<event>
 6    1  0.8259171E-006  0.2420668E+03  0.7561462E-02  0.1118424E+00
          2   -1    0    0  501    0  0.00000000000E+00  0.00000000000E+00  0.43293129921E+03  0.43293129921E+03  0.00000000000E+00 0. -1.
         -2   -1    0    0    0  501 -0.00000000000E+00 -0.00000000000E+00 -0.23583994149E+03  0.23583994149E+03  0.00000000000E+00 0.  1.
          5    1    1    2  502    0 -0.20775369438E+02  0.79735513944E+02 -0.15283450677E+02  0.83907237017E+02  0.41800000000E+01 0. -1.
         -5    1    1    2    0  502  0.12121366830E+03  0.12113586484E+03 -0.93209947550E+02  0.19512103386E+03  0.41800000000E+01 0. -1.
        -11    1    1    2    0    0 -0.70313748497E+02 -0.18085817859E+03  0.20234631131E+03  0.28035287352E+03  0.00000000000E+00 0.  1.
         11    1    1    2    0    0 -0.30124550364E+02 -0.20013200193E+02  0.10323844464E+03  0.10939009630E+03  0.00000000000E+00 0. -1.
</event>
<event>
 6    1  0.8259171E-006  0.1019860E+03  0.7561462E-02  0.1276174E+00
         -4   -1    0    0    0  501 -0.00000000000E+00  0.00000000000E+00  0.28041652682E+03  0.28041652682E+03  0.00000000000E+00 0. -1.
          4   -1    0    0  501    0  0.00000000000E+00 -0.00000000000E+00 -0.42544277854E+02  0.42544277854E+02  0.00000000000E+00 0.  1.
          5    1    1    2  502    0  0.98664251730E+01  0.55846748590E+02  0.34733502787E+02  0.66634032518E+02  0.41800000000E+01 0. -1.
         -5    1    1    2    0  502 -0.14338020768E+01 -0.56971519164E+02  0.11692239593E+03  0.13013888295E+03  0.41800000000E+01 0. -1.
        -11    1    1    2    0    0  0.14244449139E+02  0.41378748946E+02  0.28361629401E+02  0.52148702936E+02  0.00000000000E+00 0.  1.
         11    1    1    2    0    0 -0.22677072235E+02 -0.40253978372E+02  0.57854720851E+02  0.74039186278E+02  0.00000000000E+00 0. -1.
</event>
<event>
 6    1  0.8259171E-006  0.1196163E+03  0.7561462E-02  0.1243731E+00
          2   -1    0    0  501    0  0.00000000000E+00  0.00000000000E+00  0.11351363309E+04  0.11351363309E+04  0.00000000000E+00 0. -1.
         -2   -1    0    0    0  501 -0.00000000000E+00 -0.00000000000E+00 -0.14194789346E+02  0.14194789346E+02  0.00000000000E+00 0.  1.
          5    1    1    2  502    0  0.74258503275E+02  0.57021029209E+02  0.54043789000E+03  0.54850369956E+03  0.41800000000E+01 0. -1.
         -5    1    1    2    0  502 -0.13639044481E+02 -0.38954451565E+02  0.13105875421E+03  0.13746760450E+03  0.41800000000E+01 0. -1.
        -11    1    1    2    0    0  0.98836337858E+01 -0.30834451600E+02  0.68909914919E+02  0.76138203266E+02  0.00000000000E+00 0. -1.
         11    1    1    2    0    0 -0.70503092580E+02  0.12767873956E+02  0.38053498246E+03  0.38722161296E+03  0.00000000000E+00 0.  1.
</event>
<event>
 6    1  0.8259171E-006  0.8321370E+02  0.7561462E-02  0.1320171E+00
         -2   -1    0    0    0  501 -0.00000000000E+00  0.00000000000E+00  0.87856395865E+02  0.87856395865E+02  0.00000000000E+00 0.  1.
          2   -1    0    0  501    0  0.00000000000E+00 -0.00000000000E+00 -0.14996067155E+03  0.14996067155E+03  0.00000000000E+00 0. -1.
          5    1    1    2  502    0 -0.58169014572E+02 -0.42058710184E+02 -0.24211804223E+01  0.71943754929E+02  0.41800000000E+01 0.  1.
         -5    1    1    2    0  502  0.52123019455E+02  0.64446804358E+01 -0.35985149207E+02  0.63802401416E+02  0.41800000000E+01 0.  1.
        -11    1    1    2    0    0  0.13590360307E+02  0.27977539011E+02 -0.58171401133E+02  0.65964782211E+02  0.00000000000E+00 0. -1.
         11    1    1    2    0    0 -0.75443651898E+01  0.76364907364E+01  0.34473455073E+02  0.36106128864E+02  0.00000000000E+00 0.  1.
</event>
<event>
 6    1  0.8259171E-006  0.7225277E+02  0.7561462E-02  0.1352596E+00
         -2   -1    0    0    0  501 -0.00000000000E+00  0.00000000000E+00  0.29158006190E+02  0.29158006190E+02  0.00000000000E+00 0.  1.
          2   -1    0    0  501    0  0.00000000000E+00 -0.00000000000E+00 -0.46548587408E+03  0.46548587408E+03  0.00000000000E+00 0. -1.
          5    1    1    2  502    0 -0.19667472492E+02 -0.25547375045E+02  0.48203804428E+01  0.32866187998E+02  0.41800000000E+01 0. -1.
         -5    1    1    2    0  502  0.13829773269E+02 -0.93946492692E+01 -0.20566428379E+03  0.20638505782E+03  0.41800000000E+01 0. -1.
        -11    1    1    2    0    0 -0.41121808099E+02  0.15960991714E+02 -0.73979725701E+02  0.86132201717E+02  0.00000000000E+00 0.  1.
         11    1    1    2    0    0  0.46959507322E+02  0.18981032600E+02 -0.16150423884E+03  0.16926043273E+03  0.00000000000E+00 0. -1.
</event>
<event>
 6    1  0.8259171E-006  0.1009377E+03  0.7561462E-02  0.1278336E+00
         -2   -1    0    0    0  501 -0.00000000000E+00  0.00000000000E+00  0.11440981709E+03  0.11440981709E+03  0.00000000000E+00 0.  1.
          2   -1    0    0  501    0  0.00000000000E+00 -0.00000000000E+00 -0.18856294897E+03  0.18856294897E+03  0.00000000000E+00 0. -1.
          5    1    1    2  502    0 -0.19245012668E+02  0.20811031640E+02  0.45762853922E+02  0.53992413815E+02  0.41800000000E+01 0.  1.
         -5    1    1    2    0  502  0.82041691505E+02 -0.39189435388E+02 -0.10205036270E+02  0.91587478163E+02  0.41800000000E+01 0.  1.
        -11    1    1    2    0    0 -0.32442115530E+02 -0.16143772330E+02  0.23061641624E+01  0.36310200195E+02  0.00000000000E+00 0.  1.
         11    1    1    2    0    0 -0.30354563307E+02  0.34522176077E+02 -0.11201711370E+03  0.12108267389E+03  0.00000000000E+00 0. -1.
</event>
<event>
 6    1  0.8259171E-006  0.1033927E+03  0.7561462E-02  0.1273319E+00
         -2   -1    0    0    0  501 -0.00000000000E+00  0.00000000000E+00  0.12591410000E+03  0.12591410000E+03  0.00000000000E+00 0.  1.
          2   -1    0    0  501    0  0.00000000000E+00 -0.00000000000E+00 -0.15787370754E+03  0.15787370754E+03  0.00000000000E+00 0. -1.
          5    1    1    2  502    0  0.59391379131E+02 -0.27397628901E+02  0.69166676393E+02  0.95286239866E+02  0.41800000000E+01 0. -1.
         -5    1    1    2    0  502 -0.38899633213E+02  0.30654432897E+02  0.11571620265E+01  0.49716065254E+02  0.41800000000E+01 0. -1.
        -11    1    1    2    0    0 -0.54459226413E+02 -0.13418980046E+02 -0.76897186904E+02  0.95179061356E+02  0.00000000000E+00 0.  1.
         11    1    1    2    0    0  0.33967480495E+02  0.10162176050E+02 -0.25386259063E+02  0.43606441066E+02  0.00000000000E+00 0. -1.
</event>
<event>
 6    1  0.8259171E-006  0.1275754E+03  0.7561462E-02  0.1231098E+00
         -1   -1    0    0    0  501 -0.00000000000E+00  0.00000000000E+00  0.45909465043E+03  0.45909465043E+03  0.00000000000E+00 0.  1.
          1   -1    0    0  501    0  0.00000000000E+00 -0.00000000000E+00 -0.62755065006E+02  0.62755065006E+02  0.00000000000E+00 0. -1.
          5    1    1    2  502    0  0.35082216213E+02  0.87708241601E+01  0.47508407432E+02  0.59851569968E+02  0.41800000000E+01 0. -1.
         -5    1    1    2    0  502 -0.92027630719E+02  0.39719145345E+02  0.32595068952E+03  0.34103961606E+03  0.41800000000E+01 0. -1.
        -11    1    1    2    0    0  0.54778428449E+02  0.13485838542E+02  0.62875781228E+01  0.56763348238E+02  0.00000000000E+00 0.  1.
         11    1    1    2    0    0  0.21669860571E+01 -0.61975808047E+02  0.16592910347E+02  0.64195181170E+02  0.00000000000E+00 0. -1.
</event>
<event>
 6    1  0.8259171E-006  0.1280450E+03  0.7561462E-02  0.1230386E+00
         -2   -1    0    0    0  501 -0.00000000000E+00  0.00000000000E+00  0.51424749190E+02  0.51424749190E+02  0.00000000000E+00 0.  1.
          2   -1    0    0  501    0  0.00000000000E+00 -0.00000000000E+00 -0.36006650148E+03  0.36006650148E+03  0.00000000000E+00 0. -1.
          5    1    1    2  502    0 -0.10239104749E+03  0.21135788576E+02 -0.79134564845E+02  0.13118841381E+03  0.41800000000E+01 0. -1.
         -5    1    1    2    0  502  0.31931143742E+02 -0.21842649626E+02 -0.27555671248E+02  0.47681093751E+02  0.41800000000E+01 0. -1.
        -11    1    1    2    0    0  0.81658301819E+02  0.25327996273E+02 -0.12845209049E+03  0.15430335448E+03  0.00000000000E+00 0.  1.
         11    1    1    2    0    0 -0.11198398072E+02 -0.24621135223E+02 -0.73499425707E+02  0.78318388635E+02  0.00000000000E+00 0. -1.
</event>
<event>
 6    1  0.8259171E-006  0.1113598E+03  0.7561462E-02  0.1258072E+00
         -1   -1    0    0    0  501 -0.00000000000E+00  0.00000000000E+00  0.31433032890E+02  0.31433032890E+02  0.00000000000E+00 0.  1.
          1   -1    0    0  501    0  0.00000000000E+00 -0.00000000000E+00 -0.73996375047E+03  0.73996375047E+03  0.00000000000E+00 0. -1.
          5    1    1    2  502    0  0.24011996851E+02  0.86793997759E+02 -0.27405100786E+03  0.28849818257E+03  0.41800000000E+01 0. -1.
         -5    1    1    2    0  502 -0.10869307920E+02  0.11855514754E+02  0.10559723640E+02  0.19689470487E+02  0.41800000000E+01 0. -1.
        -11    1    1    2    0    0 -0.13993237648E+02  0.29882572025E+01 -0.12860384019E+02  0.19238759266E+02  0.00000000000E+00 0.  1.
         11    1    1    2    0    0  0.85054871621E+00 -0.10163776971E+03 -0.43217904935E+03  0.44397037104E+03  0.00000000000E+00 0. -1.
</event>
<event>
 6    1  0.8259171E-006  0.8803043E+02  0.7561462E-02  0.1307693E+00
          2   -1    0    0  501    0  0.00000000000E+00  0.00000000000E+00  0.37002508299E+02  0.37002508299E+02  0.00000000000E+00 0. -1.
         -2   -1    0    0    0  501 -0.00000000000E+00 -0.00000000000E+00 -0.40321961498E+03  0.40321961498E+03  0.00000000000E+00 0.  1.
          5    1    1    2  502    0  0.29595842612E+02 -0.54224698269E+02 -0.27133523759E+03  0.27831010647E+03  0.41800000000E+01 0. -1.
         -5    1    1    2    0  502 -0.11808853292E+02  0.17424448990E+02  0.19035187979E+01  0.21544285147E+02  0.41800000000E+01 0. -1.
        -11    1    1    2    0    0 -0.48564741026E+02  0.38329373565E+02 -0.89330942500E+02  0.10866320553E+03  0.00000000000E+00 0.  1.
         11    1    1    2    0    0  0.30777751706E+02 -0.15291242865E+01 -0.74544453852E+01  0.31704526131E+02  0.00000000000E+00 0. -1.
</event>
<event>
 6    1  0.8259171E-006  0.1158709E+03  0.7561462E-02  0.1250068E+00
          1   -1    0    0  501    0  0.00000000000E+00  0.00000000000E+00  0.30577463475E+03  0.30577463475E+03  0.00000000000E+00 0. -1.
         -1   -1    0    0    0  501 -0.00000000000E+00 -0.00000000000E+00 -0.56775414921E+02  0.56775414921E+02  0.00000000000E+00 0.  1.
          5    1    1    2  502    0  0.40371707268E+02 -0.22562002507E+02  0.13028541149E+02  0.48230011293E+02  0.41800000000E+01 0. -1.
         -5    1    1    2    0  502 -0.38309596304E+02  0.81032890128E+02  0.60798643426E+02  0.10838773867E+03  0.41800000000E+01 0. -1.
        -11    1    1    2    0    0 -0.29238441259E+02 -0.61631851402E+02  0.16156542752E+03  0.17537605003E+03  0.00000000000E+00 0.  1.
         11    1    1    2    0    0  0.27176330294E+02  0.31609637811E+01  0.13606607734E+02  0.30556249676E+02  0.00000000000E+00 0. -1.
</event>
<event>
 6    1  0.8259171E-006  0.1802969E+03  0.7561462E-02  0.1167516E+00
          1   -1    0    0  501    0  0.00000000000E+00  0.00000000000E+00  0.38034141344E+03  0.38034141344E+03  0.00000000000E+00 0. -1.
         -1   -1    0    0    0  501 -0.00000000000E+00 -0.00000000000E+00 -0.92268039050E+02  0.92268039050E+02  0.00000000000E+00 0.  1.
          5    1    1    2  502    0  0.16683830044E+03 -0.22004839390E+02  0.82576715146E+02  0.18749831395E+03  0.41800000000E+01 0. -1.
         -5    1    1    2    0  502 -0.15366788598E+02  0.63625341466E+01  0.42705203745E+02  0.46019852884E+02  0.41800000000E+01 0. -1.
        -11    1    1    2    0    0 -0.10855251181E+03  0.50589598773E+02  0.11105692443E+03  0.16332971496E+03  0.00000000000E+00 0.  1.
         11    1    1    2    0    0 -0.42919000039E+02 -0.34947293530E+02  0.51734531070E+02  0.75761570696E+02  0.00000000000E+00 0. -1.
</event>
<event>
 6    1  0.8259171E-006  0.7307888E+02  0.7561462E-02  0.1349925E+00
         -2   -1    0    0    0  501 -0.00000000000E+00  0.00000000000E+00  0.10933106293E+03  0.10933106293E+03  0.00000000000E+00 0.  1.
          2   -1    0    0  501    0  0.00000000000E+00 -0.00000000000E+00 -0.14110908337E+03  0.14110908337E+03  0.00000000000E+00 0. -1.
          5    1    1    2  502    0  0.24255242509E+02 -0.30335688573E+02 -0.53196069938E+02  0.65998977622E+02  0.41800000000E+01 0. -1.
         -5    1    1    2    0  502  0.33388387458E+02  0.33280257496E+02  0.53956483145E+02  0.71771403981E+02  0.41800000000E+01 0. -1.
        -11    1    1    2    0    0 -0.30402614286E+02 -0.93009474822E+01 -0.63456422141E+02  0.70975658436E+02  0.00000000000E+00 0. -1.
         11    1    1    2    0    0 -0.27241015680E+02  0.63563785594E+01  0.30917988498E+02  0.41694106255E+02  0.00000000000E+00 0.  1.
</event>
<event>
 6    1  0.8259171E-006  0.1311093E+03  0.7561462E-02  0.1225819E+00
         -1   -1    0    0    0  501 -0.00000000000E+00  0.00000000000E+00  0.40840734988E+03  0.40840734988E+03  0.00000000000E+00 0.  1.
          1   -1    0    0  501    0  0.00000000000E+00 -0.00000000000E+00 -0.10741826832E+03  0.10741826832E+03  0.00000000000E+00 0. -1.
          5    1    1    2  502    0 -0.26292683110E+01  0.45603947882E+02  0.15561329277E+02  0.48438213047E+02  0.41800000000E+01 0.  1.
         -5    1    1    2    0  502  0.65303275957E+02  0.63039193727E+02  0.29990312407E+03  0.31336530443E+03  0.41800000000E+01 0.  1.
        -11    1    1    2    0    0 -0.39411051230E+02 -0.64478578934E+02 -0.51864712625E+02  0.91655149970E+02  0.00000000000E+00 0. -1.
         11    1    1    2    0    0 -0.23262956417E+02 -0.44164562675E+02  0.37389340846E+02  0.62366950754E+02  0.00000000000E+00 0.  1.
</event>
<event>
 6    1  0.8259171E-006  0.1036695E+03  0.7561462E-02  0.1272763E+00
         -1   -1    0    0    0  501 -0.00000000000E+00  0.00000000000E+00  0.44363629415E+02  0.44363629415E+02  0.00000000000E+00 0.  1.
          1   -1    0    0  501    0  0.00000000000E+00 -0.00000000000E+00 -0.30709512526E+03  0.30709512526E+03  0.00000000000E+00 0. -1.
          5    1    1    2  502    0 -0.31579703509E+02 -0.66544940524E+02 -0.40772902800E+02  0.84293586860E+02  0.41800000000E+01 0.  1.
         -5    1    1    2    0  502  0.22133484363E+00  0.45154580391E+02 -0.89080444142E+02  0.99958906796E+02  0.41800000000E+01 0.  1.
        -11    1    1    2    0    0 -0.27109645893E+02  0.63874020552E+01 -0.87110812510E+02  0.91455046124E+02  0.00000000000E+00 0. -1.
         11    1    1    2    0    0  0.58468014558E+02  0.15002958078E+02 -0.45767336392E+02  0.75751214894E+02  0.00000000000E+00 0.  1.
</event>
<event>
 6    1  0.8259171E-006  0.1025387E+03  0.7561462E-02  0.1275046E+00
         -4   -1    0    0    0  501 -0.00000000000E+00  0.00000000000E+00  0.22286088709E+03  0.22286088709E+03  0.00000000000E+00 0.  1.
          4   -1    0    0  501    0  0.00000000000E+00 -0.00000000000E+00 -0.66668841158E+02  0.66668841158E+02  0.00000000000E+00 0. -1.
          5    1    1    2  502    0  0.63285794794E+02  0.35020770955E+02  0.44470105324E+02  0.85009463524E+02  0.41800000000E+01 0.  1.
         -5    1    1    2    0  502 -0.22269455310E+02 -0.47199425911E+02  0.86321422040E+02  0.10095828222E+03  0.41800000000E+01 0.  1.
        -11    1    1    2    0    0  0.18483524456E+02  0.93250775194E+01 -0.19907253762E+02  0.28721011462E+02  0.00000000000E+00 0. -1.
         11    1    1    2    0    0 -0.59499863940E+02  0.28535774362E+01  0.45307772334E+02  0.74840971044E+02  0.00000000000E+00 0.  1.
</event>
<event>
 6    1  0.8259171E-006  0.1011558E+03  0.7561462E-02  0.1277884E+00
         -1   -1    0    0    0  501 -0.00000000000E+00  0.00000000000E+00  0.38225641698E+02  0.38225641698E+02  0.00000000000E+00 0.  1.
          1   -1    0    0  501    0  0.00000000000E+00 -0.00000000000E+00 -0.31004718835E+03  0.31004718835E+03  0.00000000000E+00 0. -1.
          5    1    1    2  502    0  0.49091766195E+02 -0.62951584074E+01 -0.10991240412E+03  0.12061442495E+03  0.41800000000E+01 0. -1.
         -5    1    1    2    0  502 -0.65307703059E+02 -0.38513107796E+01 -0.45477580801E+02  0.79784781939E+02  0.41800000000E+01 0. -1.
        -11    1    1    2    0    0  0.18693235274E+02  0.46776478392E+02 -0.44940177647E+02  0.67506262989E+02  0.00000000000E+00 0. -1.
         11    1    1    2    0    0 -0.24772984110E+01 -0.36630009205E+02 -0.71491384092E+02  0.80367360173E+02  0.00000000000E+00 0.  1.
</event>
<event>
 6    1  0.1501210E-005  0.6168003E+02  0.7561462E-02  0.1390914E+00
          2   -1    0    0  501    0  0.00000000000E+00  0.00000000000E+00  0.21069632346E+03  0.21069632346E+03  0.00000000000E+00 0. -1.
         -2   -1    0    0    0  501 -0.00000000000E+00 -0.00000000000E+00 -0.27245226916E+02  0.27245226916E+02  0.00000000000E+00 0.  1.
          5    1    1    2  502    0  0.54527983105E+02 -0.11446756731E+02  0.10721029884E+03  0.12089602872E+03  0.41800000000E+01 0. -1.
         -5    1    1    2    0  502 -0.38908884473E+02 -0.97207820666E+01  0.48136741307E+01  0.40608358173E+02  0.41800000000E+01 0.  1.
        -11    1    1    2    0    0 -0.12410893344E+02  0.11284081381E+02  0.46385862582E+02  0.49325541190E+02  0.00000000000E+00 0.  1.
         11    1    1    2    0    0 -0.32082052885E+01  0.98834574169E+01  0.25041260985E+02  0.27111622294E+02  0.00000000000E+00 0. -1.
</event>
<event>
 6    1  0.8259171E-006  0.2534482E+03  0.7561462E-02  0.1111145E+00
          1   -1    0    0  501    0  0.00000000000E+00  0.00000000000E+00  0.68562974119E+03  0.68562974119E+03  0.00000000000E+00 0. -1.
         -1   -1    0    0    0  501 -0.00000000000E+00 -0.00000000000E+00 -0.13817944111E+03  0.13817944111E+03  0.00000000000E+00 0.  1.
          5    1    1    2  502    0 -0.16443398603E+02 -0.11078385742E+03  0.46064082090E+02  0.12117268868E+03  0.41800000000E+01 0. -1.
         -5    1    1    2    0  502  0.10981855992E+03 -0.10859454415E+03  0.17598503950E+02  0.15549942399E+03  0.41800000000E+01 0. -1.
        -11    1    1    2    0    0 -0.86181654793E+02  0.17183123356E+03  0.29336896759E+03  0.35074007697E+03  0.00000000000E+00 0.  1.
         11    1    1    2    0    0 -0.71935065219E+01  0.47547168011E+02  0.19041874645E+03  0.19639699265E+03  0.00000000000E+00 0. -1.
</event>
<event>
 6    1  0.8259171E-006  0.9292344E+02  0.7561462E-02  0.1295923E+00
          1   -1    0    0  501    0  0.00000000000E+00  0.00000000000E+00  0.72689420719E+02  0.72689420719E+02  0.00000000000E+00 0. -1.
         -1   -1    0    0    0  501 -0.00000000000E+00 -0.00000000000E+00 -0.17261358935E+03  0.17261358935E+03  0.00000000000E+00 0.  1.
          5    1    1    2  502    0  0.66035364311E+02  0.49149723351E+01 -0.18538304229E+02  0.68890982112E+02  0.41800000000E+01 0. -1.
         -5    1    1    2    0  502 -0.36515868605E+02  0.22485744780E+02 -0.63017339448E+02  0.76339209122E+02  0.41800000000E+01 0.  1.
        -11    1    1    2    0    0 -0.16190038821E+02 -0.48679436492E+02 -0.41460024325E+02  0.65960128193E+02  0.00000000000E+00 0.  1.
         11    1    1    2    0    0 -0.13329456885E+02  0.21278719377E+02  0.23091499375E+02  0.34112690638E+02  0.00000000000E+00 0. -1.
</event>
<event>
 6    1  0.8259171E-006  0.1048354E+03  0.7561462E-02  0.1270444E+00
          1   -1    0    0  501    0  0.00000000000E+00  0.00000000000E+00  0.11342424181E+02  0.11342424181E+02  0.00000000000E+00 0. -1.
         -1   -1    0    0    0  501 -0.00000000000E+00 -0.00000000000E+00 -0.18791234792E+04  0.18791234792E+04  0.00000000000E+00 0.  1.
          5    1    1    2  502    0  0.67009592144E+02  0.24139220950E+02 -0.12215446500E+04  0.12236264920E+04  0.41800000000E+01 0. -1.
         -5    1    1    2    0  502 -0.47670709361E+02 -0.12781135508E+02 -0.40069877286E+03  0.40374847731E+03  0.41800000000E+01 0.  1.
        -11    1    1    2    0    0 -0.25371696233E+02 -0.46588497995E+02 -0.99676279894E+02  0.11291400218E+03  0.00000000000E+00 0.  1.
         11    1    1    2    0    0  0.60328134496E+01  0.35230412553E+02 -0.14586135221E+03  0.15017693190E+03  0.00000000000E+00 0. -1.
</event>
<event>
 6    1  0.8259171E-006  0.1051902E+03  0.7561462E-02  0.1269745E+00
          1   -1    0    0  501    0  0.00000000000E+00  0.00000000000E+00  0.50946442748E+03  0.50946442748E+03  0.00000000000E+00 0. -1.
         -1   -1    0    0    0  501 -0.00000000000E+00 -0.00000000000E+00 -0.23868475361E+02  0.23868475361E+02  0.00000000000E+00 0.  1.
          5    1    1    2  502    0  0.57929321950E+02 -0.24150662368E+02  0.81010371523E+02  0.10256321723E+03  0.41800000000E+01 0. -1.
         -5    1    1    2    0  502 -0.53700816057E+02  0.10843130671E+02  0.16184208839E+03  0.17091426243E+03  0.41800000000E+01 0. -1.
        -11    1    1    2    0    0 -0.28976752281E+02 -0.30594378446E+02  0.10203133104E+03  0.11039049180E+03  0.00000000000E+00 0. -1.
         11    1    1    2    0    0  0.24748246388E+02  0.43901910143E+02  0.14071216116E+03  0.14946493138E+03  0.00000000000E+00 0.  1.
</event>
<event>
 6    1  0.8259171E-006  0.1114183E+03  0.7561462E-02  0.1257966E+00
         -2   -1    0    0    0  501 -0.00000000000E+00  0.00000000000E+00  0.16100884050E+02  0.16100884050E+02  0.00000000000E+00 0.  1.
          2   -1    0    0  501    0  0.00000000000E+00 -0.00000000000E+00 -0.80322141703E+03  0.80322141703E+03  0.00000000000E+00 0. -1.
          5    1    1    2  502    0  0.35317265334E+02  0.34429287079E+02 -0.15230384839E+03  0.16014562021E+03  0.41800000000E+01 0.  1.
         -5    1    1    2    0  502 -0.68739185957E+02 -0.40924678872E+02 -0.23417665249E+03  0.24749966060E+03  0.41800000000E+01 0.  1.
        -11    1    1    2    0    0  0.35800992606E+02  0.43392703353E+02 -0.27570627966E+03  0.28138690520E+03  0.00000000000E+00 0. -1.
         11    1    1    2    0    0 -0.23790719827E+01 -0.36897311560E+02 -0.12493375244E+03  0.13029011506E+03  0.00000000000E+00 0.  1.
</event>
<event>
 6    1  0.8259171E-006  0.1726935E+03  0.7561462E-02  0.1175068E+00
          2   -1    0    0  501    0  0.00000000000E+00  0.00000000000E+00  0.57319457844E+02  0.57319457844E+02  0.00000000000E+00 0.  1.
         -2   -1    0    0    0  501 -0.00000000000E+00 -0.00000000000E+00 -0.63411798407E+03  0.63411798407E+03  0.00000000000E+00 0. -1.
          5    1    1    2  502    0 -0.38867872537E+02 -0.24051904694E+02 -0.13333557237E+03  0.14101437123E+03  0.41800000000E+01 0.  1.
         -5    1    1    2    0  502  0.74618267307E+02 -0.12488950436E+03 -0.21712405775E+03  0.26139166583E+03  0.41800000000E+01 0.  1.
        -11    1    1    2    0    0 -0.86382689228E+00  0.29523307858E+02  0.13539725524E+01  0.29566960369E+02  0.00000000000E+00 0.  1.
         11    1    1    2    0    0 -0.34886567878E+02  0.11941810119E+03 -0.22769286866E+03  0.25946444448E+03  0.00000000000E+00 0. -1.
</event>
<event>
 6    1  0.8259171E-006  0.1132448E+03  0.7561462E-02  0.1254676E+00
          1   -1    0    0  501    0  0.00000000000E+00  0.00000000000E+00  0.56051544325E+02  0.56051544325E+02  0.00000000000E+00 0. -1.
         -1   -1    0    0    0  501 -0.00000000000E+00 -0.00000000000E+00 -0.24998631217E+03  0.24998631217E+03  0.00000000000E+00 0.  1.
          5    1    1    2  502    0  0.52495946457E+01  0.47365304935E+02 -0.57345656413E+02  0.74679495613E+02  0.41800000000E+01 0. -1.
         -5    1    1    2    0  502 -0.24290161943E+02 -0.78594127113E+02 -0.96516741644E+02  0.12688578566E+03  0.41800000000E+01 0. -1.
        -11    1    1    2    0    0  0.23700523824E+02 -0.28106363924E+02 -0.12065480024E+02  0.38694422476E+02  0.00000000000E+00 0. -1.
         11    1    1    2    0    0 -0.46599565269E+01  0.59335186102E+02 -0.28006889761E+02  0.65778152746E+02  0.00000000000E+00 0.  1.
</event>
<event>
 6    1  0.8259171E-006  0.9099353E+02  0.7561462E-02  0.1300463E+00
          2   -1    0    0  501    0  0.00000000000E+00  0.00000000000E+00  0.21828675964E+02  0.21828675964E+02  0.00000000000E+00 0.  1.
         -2   -1    0    0    0  501 -0.00000000000E+00 -0.00000000000E+00 -0.55756775613E+03  0.55756775613E+03  0.00000000000E+00 0. -1.
          5    1    1    2  502    0 -0.19612901720E+02  0.50023620180E+02 -0.66842820003E+02  0.85863050702E+02  0.41800000000E+01 0.  1.
         -5    1    1    2    0  502 -0.85813326285E+00 -0.47486481046E+02 -0.26737688254E+03  0.27159449920E+03  0.41800000000E+01 0.  1.
        -11    1    1    2    0    0  0.16246837221E+02  0.37127607748E+02 -0.45638198628E+02  0.61034942048E+02  0.00000000000E+00 0.  1.
         11    1    1    2    0    0  0.42241977621E+01 -0.39664746881E+02 -0.15588117899E+03  0.16090394015E+03  0.00000000000E+00 0. -1.
</event>
<event>
 6    1  0.8259171E-006  0.1315178E+03  0.7561462E-02  0.1225221E+00
          1   -1    0    0  501    0  0.00000000000E+00  0.00000000000E+00  0.28535312831E+03  0.28535312831E+03  0.00000000000E+00 0. -1.
         -1   -1    0    0    0  501 -0.00000000000E+00 -0.00000000000E+00 -0.67396316546E+02  0.67396316546E+02  0.00000000000E+00 0.  1.
          5    1    1    2  502    0  0.69487898166E+02 -0.26373003937E+02  0.39967481139E+02  0.84492456923E+02  0.41800000000E+01 0. -1.
         -5    1    1    2    0  502 -0.45052881209E+02 -0.56723771047E+02  0.90032848018E+02  0.11563189192E+03  0.41800000000E+01 0. -1.
        -11    1    1    2    0    0 -0.56943252906E+01 -0.15062242315E+02 -0.42487022558E+01  0.16653766989E+02  0.00000000000E+00 0.  1.
         11    1    1    2    0    0 -0.18740691667E+02  0.98159017298E+02  0.92205184866E+02  0.13597132903E+03  0.00000000000E+00 0. -1.
</event>
<event>
 6    1  0.8259171E-006  0.1063437E+03  0.7561462E-02  0.1267495E+00
          1   -1    0    0  501    0  0.00000000000E+00  0.00000000000E+00  0.16446501593E+03  0.16446501593E+03  0.00000000000E+00 0. -1.
         -1   -1    0    0    0  501 -0.00000000000E+00 -0.00000000000E+00 -0.93097756487E+02  0.93097756487E+02  0.00000000000E+00 0.  1.
          5    1    1    2  502    0 -0.86819495967E+01 -0.47274931256E+02 -0.60843525851E+00  0.48250782041E+02  0.41800000000E+01 0.  1.
         -5    1    1    2    0  502 -0.29535872993E+02  0.81204189585E+02  0.12354963951E+02  0.87387674954E+02  0.41800000000E+01 0.  1.
        -11    1    1    2    0    0  0.12835591124E+02 -0.47461389532E+02 -0.67130073868E+01  0.49622579175E+02  0.00000000000E+00 0.  1.
         11    1    1    2    0    0  0.25382231466E+02  0.13532131203E+02  0.66333738139E+02  0.72301736249E+02  0.00000000000E+00 0. -1.
</event>
<event>
 6    1  0.8259171E-006  0.1511005E+03  0.7561462E-02  0.1199127E+00
         -1   -1    0    0    0  501 -0.00000000000E+00  0.00000000000E+00  0.30044969028E+02  0.30044969028E+02  0.00000000000E+00 0.  1.
          1   -1    0    0  501    0  0.00000000000E+00 -0.00000000000E+00 -0.83574095148E+03  0.83574095148E+03  0.00000000000E+00 0. -1.
          5    1    1    2  502    0 -0.13066899912E+03  0.16444741527E+02 -0.25426483565E+03  0.28637893760E+03  0.41800000000E+01 0. -1.
         -5    1    1    2    0  502  0.15965770461E+02 -0.17483700885E+02 -0.15236407438E+03  0.15424937337E+03  0.41800000000E+01 0. -1.
        -11    1    1    2    0    0  0.79807011033E+02 -0.42641045027E+02 -0.25860077721E+03  0.27397404933E+03  0.00000000000E+00 0. -1.
         11    1    1    2    0    0  0.34896217622E+02  0.43680004385E+02 -0.14046629522E+03  0.15118356021E+03  0.00000000000E+00 0.  1.
</event>
<event>
 6    1  0.8259171E-006  0.3296109E+03  0.7561462E-02  0.1071309E+00
         -1   -1    0    0    0  501 -0.00000000000E+00  0.00000000000E+00  0.10644977999E+03  0.10644977999E+03  0.00000000000E+00 0.  1.
          1   -1    0    0  501    0  0.00000000000E+00 -0.00000000000E+00 -0.11005690506E+04  0.11005690506E+04  0.00000000000E+00 0. -1.
          5    1    1    2  502    0  0.74151764182E+02  0.67332655095E+02 -0.74163500611E+02  0.12469910904E+03  0.41800000000E+01 0.  1.
         -5    1    1    2    0  502  0.23337048284E+03 -0.42580936991E+01 -0.28589072436E+03  0.36909469286E+03  0.41800000000E+01 0.  1.
        -11    1    1    2    0    0 -0.86363571065E+02  0.21078886775E+02 -0.14861785663E+03  0.17317694184E+03  0.00000000000E+00 0. -1.
         11    1    1    2    0    0 -0.22115867596E+03 -0.84153448171E+02 -0.48544718899E+03  0.54004808683E+03  0.00000000000E+00 0.  1.
</event>
<event>
 6    1  0.8259171E-006  0.8602623E+02  0.7561462E-02  0.1312770E+00
         -1   -1    0    0    0  501 -0.00000000000E+00  0.00000000000E+00  0.13751370404E+03  0.13751370404E+03  0.00000000000E+00 0.  1.
          1   -1    0    0  501    0  0.00000000000E+00 -0.00000000000E+00 -0.11446321019E+03  0.11446321019E+03  0.00000000000E+00 0. -1.
          5    1    1    2  502    0 -0.50882214646E+02  0.14007557708E+02  0.28811428405E+02  0.60272566288E+02  0.41800000000E+01 0.  1.
         -5    1    1    2    0  502  0.56276424381E+02 -0.54386879385E+02  0.31969574097E+02  0.84643337944E+02  0.41800000000E+01 0.  1.
        -11    1    1    2    0    0 -0.27384387926E+01  0.19880834203E+02  0.30085648943E+02  0.36164801782E+02  0.00000000000E+00 0.  1.
         11    1    1    2    0    0 -0.26557709425E+01  0.20498487475E+02 -0.67816157593E+02  0.70896208211E+02  0.00000000000E+00 0. -1.
</event>
<event>
 6    1  0.8259171E-006  0.1290195E+03  0.7561462E-02  0.1228918E+00
         -1   -1    0    0    0  501 -0.00000000000E+00  0.00000000000E+00  0.46711132348E+02  0.46711132348E+02  0.00000000000E+00 0.  1.
          1   -1    0    0  501    0  0.00000000000E+00 -0.00000000000E+00 -0.55747400254E+03  0.55747400254E+03  0.00000000000E+00 0. -1.
          5    1    1    2  502    0  0.76552924794E+01 -0.36113064404E+02 -0.18621259440E+02  0.41556956418E+02  0.41800000000E+01 0.  1.
         -5    1    1    2    0  502  0.99677634281E+01  0.10639684488E+03 -0.76595984743E+02  0.13154490559E+03  0.41800000000E+01 0.  1.
        -11    1    1    2    0    0  0.16928704893E+02 -0.76919189732E+02 -0.26342770760E+03  0.27494963162E+03  0.00000000000E+00 0. -1.
         11    1    1    2    0    0 -0.34551760801E+02  0.66354092550E+01 -0.15211791841E+03  0.15613364126E+03  0.00000000000E+00 0.  1.
</event>
<event>
 6    1  0.8259171E-006  0.1125784E+03  0.7561462E-02  0.1255868E+00
         -1   -1    0    0    0  501 -0.00000000000E+00  0.00000000000E+00  0.18486764226E+03  0.18486764226E+03  0.00000000000E+00 0.  1.
          1   -1    0    0  501    0  0.00000000000E+00 -0.00000000000E+00 -0.74836024067E+02  0.74836024067E+02  0.00000000000E+00 0. -1.
          5    1    1    2  502    0  0.67062081281E+01 -0.89323078949E+02  0.37604762236E+02  0.97237730347E+02  0.41800000000E+01 0. -1.
         -5    1    1    2    0  502 -0.40510052009E+01  0.40917958177E+02  0.27869624818E+02  0.49848553961E+02  0.41800000000E+01 0.  1.
        -11    1    1    2    0    0  0.38880684300E+02  0.19078372331E+02 -0.24407149876E+01  0.43377978193E+02  0.00000000000E+00 0. -1.
         11    1    1    2    0    0 -0.41535887228E+02  0.29326748440E+02  0.46997946124E+02  0.69239403823E+02  0.00000000000E+00 0.  1.
</event>
<event>
 6    1  0.8259171E-006  0.8897410E+02  0.7561462E-02  0.1305355E+00
          2   -1    0    0  501    0  0.00000000000E+00  0.00000000000E+00  0.18010622334E+03  0.18010622334E+03  0.00000000000E+00 0. -1.
         -2   -1    0    0    0  501 -0.00000000000E+00 -0.00000000000E+00 -0.79537296055E+02  0.79537296055E+02  0.00000000000E+00 0.  1.
          5    1    1    2  502    0 -0.29353334093E+02  0.27752199523E+02  0.37222385655E+02  0.55088848187E+02  0.41800000000E+01 0. -1.
         -5    1    1    2    0  502  0.79692845383E+02 -0.33686614016E+02  0.68457196373E+01  0.86891160922E+02  0.41800000000E+01 0. -1.
        -11    1    1    2    0    0 -0.35057167569E+02  0.49083060222E+01 -0.19308301718E+02  0.40322536889E+02  0.00000000000E+00 0.  1.
         11    1    1    2    0    0 -0.15282343721E+02  0.10261084704E+01  0.75809123713E+02  0.77340973399E+02  0.00000000000E+00 0. -1.
</event>
<event>
 6    1  0.8259171E-006  0.4503893E+03  0.7561462E-02  0.1027606E+00
         -1   -1    0    0    0  501 -0.00000000000E+00  0.00000000000E+00  0.29030532506E+03  0.29030532506E+03  0.00000000000E+00 0.  1.
          1   -1    0    0  501    0  0.00000000000E+00 -0.00000000000E+00 -0.96720043033E+03  0.96720043033E+03  0.00000000000E+00 0. -1.
          5    1    1    2  502    0 -0.93305127414E+02  0.18642575490E+03  0.39635253574E+02  0.21224710744E+03  0.41800000000E+01 0. -1.
         -5    1    1    2    0  502 -0.17193255323E+03  0.16989372618E+03 -0.62997579506E+02  0.24982163333E+03  0.41800000000E+01 0. -1.
        -11    1    1    2    0    0  0.94784147427E+02 -0.19017575271E+03 -0.35355320809E+03  0.41249329991E+03  0.00000000000E+00 0.  1.
         11    1    1    2    0    0  0.17045353322E+03 -0.16614372837E+03 -0.29997957125E+03  0.38294371471E+03  0.00000000000E+00 0. -1.
</event>
<event>
 6    1  0.8259171E-006  0.1210278E+03  0.7561462E-02  0.1241411E+00
         -1   -1    0    0    0  501 -0.00000000000E+00  0.00000000000E+00  0.72901270834E+02  0.72901270834E+02  0.00000000000E+00 0.  1.
          1   -1    0    0  501    0  0.00000000000E+00 -0.00000000000E+00 -0.26872578894E+03  0.26872578894E+03  0.00000000000E+00 0. -1.
          5    1    1    2  502    0 -0.45534965713E+01 -0.36627035270E+02 -0.20109186567E+02  0.42238913670E+02  0.41800000000E+01 0. -1.
         -5    1    1    2    0  502 -0.55051446680E+02  0.10160953108E+03 -0.81235219211E+02  0.14132159010E+03  0.41800000000E+01 0. -1.
        -11    1    1    2    0    0  0.30956035033E+02 -0.23540249016E+02  0.11639995271E+02  0.40594444430E+02  0.00000000000E+00 0.  1.
         11    1    1    2    0    0  0.28648908219E+02 -0.41442246790E+02 -0.10612010760E+03  0.11747211157E+03  0.00000000000E+00 0. -1.
</event>
<event>
 6    1  0.8259171E-006  0.1574485E+03  0.7561462E-02  0.1191608E+00
          1   -1    0    0  501    0  0.00000000000E+00  0.00000000000E+00  0.73158364187E+03  0.73158364187E+03  0.00000000000E+00 0. -1.
         -1   -1    0    0    0  501 -0.00000000000E+00 -0.00000000000E+00 -0.45706723450E+02  0.45706723450E+02  0.00000000000E+00 0.  1.
          5    1    1    2  502    0 -0.13253066631E+01 -0.60575373102E+02  0.35292547086E+02  0.70243637036E+02  0.41800000000E+01 0.  1.
         -5    1    1    2    0  502 -0.72574021342E+02 -0.66547330262E+02  0.31079911876E+03  0.32605076347E+03  0.41800000000E+01 0.  1.
        -11    1    1    2    0    0  0.40586473929E+02  0.11180312381E+03  0.17115630129E+03  0.20842667735E+03  0.00000000000E+00 0.  1.
         11    1    1    2    0    0  0.33312854076E+02  0.15319579553E+02  0.16862895129E+03  0.17256928747E+03  0.00000000000E+00 0. -1.
</event>
<event>
 6    1  0.8259171E-006  0.1152091E+03  0.7561462E-02  0.1251217E+00
          3   -1    0    0  501    0  0.00000000000E+00  0.00000000000E+00  0.16222305587E+03  0.16222305587E+03  0.00000000000E+00 0. -1.
         -3   -1    0    0    0  501 -0.00000000000E+00 -0.00000000000E+00 -0.90097335473E+02  0.90097335473E+02  0.00000000000E+00 0.  1.
          5    1    1    2  502    0 -0.48093655148E+02 -0.14476543096E+02 -0.13571490345E+01  0.50417102446E+02  0.41800000000E+01 0.  1.
         -5    1    1    2    0  502  0.52762421214E+02  0.65396401261E+02  0.14309703862E+02  0.85339336855E+02  0.41800000000E+01 0.  1.
        -11    1    1    2    0    0 -0.37243200130E+02 -0.51199986904E+02  0.21739884534E+02  0.66941147245E+02  0.00000000000E+00 0. -1.
         11    1    1    2    0    0  0.32574434065E+02  0.28012873925E+00  0.37433281037E+02  0.49622804797E+02  0.00000000000E+00 0.  1.
</event>
<event>
 6    1  0.8259171E-006  0.1055029E+03  0.7561462E-02  0.1269132E+00
          1   -1    0    0  501    0  0.00000000000E+00  0.00000000000E+00  0.19507692361E+03  0.19507692361E+03  0.00000000000E+00 0. -1.
         -1   -1    0    0    0  501 -0.00000000000E+00 -0.00000000000E+00 -0.10235184720E+03  0.10235184720E+03  0.00000000000E+00 0.  1.
          5    1    1    2  502    0  0.32529775490E+02  0.50474133923E+02  0.63610937824E+02  0.87576528246E+02  0.41800000000E+01 0. -1.
         -5    1    1    2    0  502  0.29050522126E+02  0.14176309845E+01 -0.54024246883E+02  0.61498245216E+02  0.41800000000E+01 0. -1.
        -11    1    1    2    0    0 -0.57023740399E+02 -0.77052461165E+02  0.55778276364E+02  0.11090538695E+03  0.00000000000E+00 0.  1.
         11    1    1    2    0    0 -0.45565572177E+01  0.25160696257E+02  0.27360109110E+02  0.37448610393E+02  0.00000000000E+00 0. -1.
</event>
<event>
 6    1  0.8259171E-006  0.1668163E+03  0.7561462E-02  0.1181209E+00
          1   -1    0    0  501    0  0.00000000000E+00  0.00000000000E+00  0.20256835853E+03  0.20256835853E+03  0.00000000000E+00 0. -1.
         -1   -1    0    0    0  501 -0.00000000000E+00 -0.00000000000E+00 -0.29434481786E+03  0.29434481786E+03  0.00000000000E+00 0.  1.
          5    1    1    2  502    0 -0.25054751906E+02 -0.10822452801E+03 -0.19712169334E+03  0.22630670216E+03  0.41800000000E+01 0.  1.
         -5    1    1    2    0  502  0.50267479695E+02 -0.26872452019E+02 -0.22593035927E+02  0.61456210954E+02  0.41800000000E+01 0.  1.
        -11    1    1    2    0    0  0.34780597533E+02  0.41588018070E+02  0.46052963848E+02  0.71134581540E+02  0.00000000000E+00 0. -1.
         11    1    1    2    0    0 -0.59993325322E+02  0.93508961964E+02  0.81885306092E+02  0.13801568173E+03  0.00000000000E+00 0.  1.
</event>
<event>
 6    1  0.8259171E-006  0.1245433E+03  0.7561462E-02  0.1235785E+00
         -4   -1    0    0    0  501 -0.00000000000E+00  0.00000000000E+00  0.92379856461E+02  0.92379856461E+02  0.00000000000E+00 0. -1.
          4   -1    0    0  501    0  0.00000000000E+00 -0.00000000000E+00 -0.40080282961E+03  0.40080282961E+03  0.00000000000E+00 0.  1.
          5    1    1    2  502    0 -0.66988083728E+02 -0.30019048623E+02  0.50497877335E+02  0.89196718870E+02  0.41800000000E+01 0.  1.
         -5    1    1    2    0  502 -0.39400567577E+02 -0.41805403783E+01 -0.68845980178E+02  0.79543214858E+02  0.41800000000E+01 0.  1.
        -11    1    1    2    0    0  0.67020083048E+02  0.58916562248E+02 -0.12944714181E+03  0.15722409282E+03  0.00000000000E+00 0. -1.
         11    1    1    2    0    0  0.39368568257E+02 -0.24716973246E+02 -0.16062772849E+03  0.16721865953E+03  0.00000000000E+00 0.  1.
</event>
<event>
 6    1  0.8259171E-006  0.2022028E+03  0.7561462E-02  0.1147894E+00
          2   -1    0    0  501    0  0.00000000000E+00  0.00000000000E+00  0.37524745024E+03  0.37524745024E+03  0.00000000000E+00 0. -1.
         -2   -1    0    0    0  501 -0.00000000000E+00 -0.00000000000E+00 -0.13816447031E+03  0.13816447031E+03  0.00000000000E+00 0.  1.
          5    1    1    2  502    0  0.70833358735E+02  0.11376025399E+03 -0.19236131032E+02  0.13544837110E+03  0.41800000000E+01 0. -1.
         -5    1    1    2    0  502  0.68723411683E+02  0.11764954415E+02  0.63543005483E+02  0.94427259897E+02  0.41800000000E+01 0. -1.
        -11    1    1    2    0    0  0.81535492674E+01 -0.10347454889E+02 -0.19835572029E+01  0.13322337914E+02  0.00000000000E+00 0.  1.
         11    1    1    2    0    0 -0.14771031969E+03 -0.11517775352E+03  0.19475966268E+03  0.27021395163E+03  0.00000000000E+00 0. -1.
</event>
<event>
 6    1  0.8259171E-006  0.8810714E+02  0.7561462E-02  0.1307501E+00
          3   -1    0    0  501    0  0.00000000000E+00  0.00000000000E+00  0.27857752640E+03  0.27857752640E+03  0.00000000000E+00 0. -1.
         -3   -1    0    0    0  501 -0.00000000000E+00 -0.00000000000E+00 -0.49927301527E+02  0.49927301527E+02  0.00000000000E+00 0.  1.
          5    1    1    2  502    0  0.71496244592E+02 -0.31043189813E+02  0.12730976029E+03  0.14933398840E+03  0.41800000000E+01 0. -1.
         -5    1    1    2    0  502 -0.41416132307E+02 -0.58176069368E+00  0.12937380707E+02  0.43594525807E+02  0.41800000000E+01 0. -1.
        -11    1    1    2    0    0  0.41525985288E+01  0.19920211638E+02 -0.15484099587E+02  0.25569830783E+02  0.00000000000E+00 0.  1.
         11    1    1    2    0    0 -0.34232710814E+02  0.11704738869E+02  0.10388718346E+03  0.11000648294E+03  0.00000000000E+00 0. -1.
</event>
<event>
 6    1  0.8259171E-006  0.9890619E+02  0.7561462E-02  0.1282613E+00
         -2   -1    0    0    0  501 -0.00000000000E+00  0.00000000000E+00  0.10514841479E+02  0.10514841479E+02  0.00000000000E+00 0.  1.
          2   -1    0    0  501    0  0.00000000000E+00 -0.00000000000E+00 -0.14081429995E+04  0.14081429995E+04  0.00000000000E+00 0. -1.
          5    1    1    2  502    0  0.39474656082E+02 -0.84535168959E+00 -0.11501666206E+03  0.12167690021E+03  0.41800000000E+01 0.  1.
         -5    1    1    2    0  502 -0.47481421909E+02  0.26589935220E+02 -0.85554678843E+03  0.85728600227E+03  0.41800000000E+01 0.  1.
        -11    1    1    2    0    0 -0.37431376280E+02 -0.41076129320E+02 -0.26065129523E+03  0.26650976348E+03  0.00000000000E+00 0.  1.
         11    1    1    2    0    0  0.45438142106E+02  0.15331545790E+02 -0.16641341234E+03  0.17318517506E+03  0.00000000000E+00 0. -1.
</event>
<event>
 6    1  0.8259171E-006  0.1083647E+03  0.7561462E-02  0.1263629E+00
         -3   -1    0    0    0  501 -0.00000000000E+00  0.00000000000E+00  0.80964566981E+02  0.80964566981E+02  0.00000000000E+00 0.  1.
          3   -1    0    0  501    0  0.00000000000E+00 -0.00000000000E+00 -0.16773475676E+03  0.16773475676E+03  0.00000000000E+00 0. -1.
          5    1    1    2  502    0  0.46072868241E+02  0.18894444421E+02  0.79337977936E+01  0.50597695258E+02  0.41800000000E+01 0. -1.
         -5    1    1    2    0  502 -0.69415927419E+02 -0.29342140401E+02 -0.17183850684E+02  0.77409878615E+02  0.41800000000E+01 0. -1.
        -11    1    1    2    0    0  0.50223549496E+01  0.48651233199E+02 -0.31697908138E+02  0.58283135823E+02  0.00000000000E+00 0.  1.
         11    1    1    2    0    0  0.18320704228E+02 -0.38203537219E+02 -0.45822228753E+02  0.62408614048E+02  0.00000000000E+00 0. -1.
</event>
<event>
 6    1  0.8259171E-006  0.1183528E+03  0.7561462E-02  0.1245839E+00
         -2   -1    0    0    0  501 -0.00000000000E+00  0.00000000000E+00  0.65278882305E+02  0.65278882305E+02  0.00000000000E+00 0.  1.
          2   -1    0    0  501    0  0.00000000000E+00 -0.00000000000E+00 -0.33762533816E+03  0.33762533816E+03  0.00000000000E+00 0. -1.
          5    1    1    2  502    0 -0.41593634205E+02  0.24490410595E+02 -0.14840001711E+03  0.15610844979E+03  0.41800000000E+01 0. -1.
         -5    1    1    2    0  502 -0.50661595156E+02  0.15715068703E+02  0.12017277529E+02  0.54547666928E+02  0.41800000000E+01 0. -1.
        -11    1    1    2    0    0  0.56780392838E+02  0.24040398960E+02 -0.72950923807E+02  0.95518537873E+02  0.00000000000E+00 0.  1.
         11    1    1    2    0    0  0.35474836522E+02 -0.64245878258E+02 -0.63012792462E+02  0.96729565870E+02  0.00000000000E+00 0. -1.
</event>
<event>
 6    1  0.8259171E-006  0.1486164E+03  0.7561462E-02  0.1202184E+00
         -4   -1    0    0    0  501 -0.00000000000E+00  0.00000000000E+00  0.25440921692E+03  0.25440921692E+03  0.00000000000E+00 0.  1.
          4   -1    0    0  501    0  0.00000000000E+00 -0.00000000000E+00 -0.90067748165E+02  0.90067748165E+02  0.00000000000E+00 0. -1.
          5    1    1    2  502    0 -0.17261118239E+02  0.16318113857E+02  0.22808512777E+02  0.33195296320E+02  0.41800000000E+01 0. -1.
         -5    1    1    2    0  502  0.10453914604E+03 -0.83728027960E+02  0.72496701172E+02  0.15235504521E+03  0.41800000000E+01 0.  1.
        -11    1    1    2    0    0 -0.16500774329E+02  0.66305045045E+02  0.15209051656E+02  0.69999641457E+02  0.00000000000E+00 0. -1.
         11    1    1    2    0    0 -0.70777253474E+02  0.11048690586E+01  0.53827203146E+02  0.88926982089E+02  0.00000000000E+00 0.  1.
</event>
<event>
 6    1  0.8259171E-006  0.1066328E+03  0.7561462E-02  0.1266936E+00
          1   -1    0    0  501    0  0.00000000000E+00  0.00000000000E+00  0.44781924145E+03  0.44781924145E+03  0.00000000000E+00 0. -1.
         -1   -1    0    0    0  501 -0.00000000000E+00 -0.00000000000E+00 -0.16759972401E+03  0.16759972401E+03  0.00000000000E+00 0.  1.
          5    1    1    2  502    0  0.24635674974E+02  0.15800180823E+02 -0.10585119837E+03  0.10990227838E+03  0.41800000000E+01 0.  1.
         -5    1    1    2    0  502 -0.75014093739E+02  0.13202526815E+02 -0.25125623674E+02  0.80313077010E+02  0.41800000000E+01 0.  1.
        -11    1    1    2    0    0  0.21491495349E+02 -0.60784340284E+02  0.27175875402E+03  0.27930170208E+03  0.00000000000E+00 0. -1.
         11    1    1    2    0    0  0.28886923416E+02  0.31781632646E+02  0.13943758546E+03  0.14590190800E+03  0.00000000000E+00 0.  1.
</event>
<event>
 6    1  0.8259171E-006  0.3596814E+03  0.7561462E-02  0.1058710E+00
          1   -1    0    0  501    0  0.00000000000E+00  0.00000000000E+00  0.76315824708E+03  0.76315824708E+03  0.00000000000E+00 0. -1.
         -1   -1    0    0    0  501 -0.00000000000E+00 -0.00000000000E+00 -0.18078788129E+03  0.18078788129E+03  0.00000000000E+00 0.  1.
          5    1    1    2  502    0 -0.22393861562E+03  0.44833667162E+02  0.17052275547E+03  0.28505094950E+03  0.41800000000E+01 0. -1.
         -5    1    1    2    0  502 -0.12332336032E+03 -0.46638101100E+02  0.31093797294E+02  0.13552881725E+03  0.41800000000E+01 0. -1.
        -11    1    1    2    0    0  0.65889901847E+02  0.36829913269E+02  0.76443385367E+02  0.10743143322E+03  0.00000000000E+00 0.  1.
         11    1    1    2    0    0  0.28137207409E+03 -0.35025479331E+02  0.30431042767E+03  0.41593492841E+03  0.00000000000E+00 0. -1.
</event>
<event>
 6    1  0.8259171E-006  0.1050501E+03  0.7561462E-02  0.1270021E+00
         -3   -1    0    0    0  501 -0.00000000000E+00  0.00000000000E+00  0.27641889653E+03  0.27641889653E+03  0.00000000000E+00 0.  1.
          3   -1    0    0  501    0  0.00000000000E+00 -0.00000000000E+00 -0.55048991501E+02  0.55048991501E+02  0.00000000000E+00 0. -1.
          5    1    1    2  502    0  0.62037715412E+01 -0.19525627822E+02  0.10230739873E+03  0.10442228286E+03  0.41800000000E+01 0. -1.
         -5    1    1    2    0  502 -0.27663058599E+02  0.77755159146E+02  0.55899180391E+02  0.99766228521E+02  0.41800000000E+01 0.  1.
        -11    1    1    2    0    0 -0.11087450699E+02  0.19419149023E+02  0.28508916895E+02  0.36232488934E+02  0.00000000000E+00 0.  1.
         11    1    1    2    0    0  0.32546737757E+02 -0.77648680347E+02  0.34654409013E+02  0.91046887714E+02  0.00000000000E+00 0. -1.
</event>
<event>
 6    1  0.8259171E-006  0.1364188E+03  0.7561462E-02  0.1218231E+00
          2   -1    0    0  501    0  0.00000000000E+00  0.00000000000E+00  0.45840715260E+03  0.45840715260E+03  0.00000000000E+00 0.  1.
         -2   -1    0    0    0  501 -0.00000000000E+00 -0.00000000000E+00 -0.58076782171E+02  0.58076782171E+02  0.00000000000E+00 0. -1.
          5    1    1    2  502    0  0.24793791783E+02  0.11340196821E+03  0.41348010345E+02  0.12329585907E+03  0.41800000000E+01 0. -1.
         -5    1    1    2    0  502  0.12535630707E+01 -0.29493448827E+02  0.39916326893E+02  0.49821887728E+02  0.41800000000E+01 0. -1.
        -11    1    1    2    0    0 -0.47484941238E+02 -0.82072357707E+01  0.11937314277E+03  0.12873276808E+03  0.00000000000E+00 0.  1.
         11    1    1    2    0    0  0.21437586384E+02 -0.75701283608E+02  0.19969289042E+03  0.21463341989E+03  0.00000000000E+00 0. -1.
</event>
<event>
 6    1  0.8259171E-006  0.9703686E+02  0.7561462E-02  0.1286653E+00
         -3   -1    0    0    0  501 -0.00000000000E+00  0.00000000000E+00  0.15267891298E+03  0.15267891298E+03  0.00000000000E+00 0.  1.
          3   -1    0    0  501    0  0.00000000000E+00 -0.00000000000E+00 -0.95125122791E+02  0.95125122791E+02  0.00000000000E+00 0. -1.
          5    1    1    2  502    0  0.34085772037E+02  0.34238518008E+02  0.24467748033E+02  0.54316287286E+02  0.41800000000E+01 0. -1.
         -5    1    1    2    0  502 -0.40801380057E+02 -0.71106338969E+02  0.39910246069E+02  0.91275211297E+02  0.41800000000E+01 0. -1.
        -11    1    1    2    0    0  0.28951859867E+02  0.16417471038E+02 -0.43451599375E+02  0.54733765021E+02  0.00000000000E+00 0. -1.
         11    1    1    2    0    0 -0.22236251847E+02  0.20450349923E+02  0.36627395459E+02  0.47478772165E+02  0.00000000000E+00 0.  1.
</event>
<event>
 6    1  0.8259171E-006  0.1071305E+03  0.7561462E-02  0.1265978E+00
          1   -1    0    0  501    0  0.00000000000E+00  0.00000000000E+00  0.14339849975E+03  0.14339849975E+03  0.00000000000E+00 0. -1.
         -1   -1    0    0    0  501 -0.00000000000E+00 -0.00000000000E+00 -0.93682074920E+02  0.93682074920E+02  0.00000000000E+00 0.  1.
          5    1    1    2  502    0 -0.34607924805E+02 -0.39236245583E+02 -0.17210820439E+02  0.55234736959E+02  0.41800000000E+01 0.  1.
         -5    1    1    2    0  502  0.36012639081E+02  0.60977165702E+02  0.11504842468E+02  0.71867647178E+02  0.41800000000E+01 0.  1.
        -11    1    1    2    0    0 -0.99745333222E+01 -0.55303594707E+02  0.49393892871E+02  0.74818016250E+02  0.00000000000E+00 0.  1.
         11    1    1    2    0    0  0.85698190458E+01  0.33562674588E+02  0.60285099340E+01  0.35160174288E+02  0.00000000000E+00 0. -1.
</event>
<event>
 6    1  0.8259171E-006  0.8416217E+02  0.7561462E-02  0.1317638E+00
          2   -1    0    0  501    0  0.00000000000E+00  0.00000000000E+00  0.32343550083E+03  0.32343550083E+03  0.00000000000E+00 0.  1.
         -2   -1    0    0    0  501 -0.00000000000E+00 -0.00000000000E+00 -0.69807400661E+02  0.69807400661E+02  0.00000000000E+00 0. -1.
          5    1    1    2  502    0 -0.38821599279E+02  0.23898252362E+02 -0.36457977053E+02  0.58522641151E+02  0.41800000000E+01 0. -1.
         -5    1    1    2    0  502 -0.34051931066E+02 -0.34491567416E+02  0.78935335911E+02  0.92722499360E+02  0.41800000000E+01 0. -1.
        -11    1    1    2    0    0  0.26267531529E+02  0.68195083628E+01  0.14823548992E+01  0.27178783692E+02  0.00000000000E+00 0. -1.
         11    1    1    2    0    0  0.46605998816E+02  0.37738066911E+01  0.20966838641E+03  0.21481897729E+03  0.00000000000E+00 0.  1.
</event>
<event>
 6    1  0.8259171E-006  0.1025506E+03  0.7561462E-02  0.1275022E+00
         -3   -1    0    0    0  501 -0.00000000000E+00  0.00000000000E+00  0.76979400408E+02  0.76979400408E+02  0.00000000000E+00 0.  1.
          3   -1    0    0  501    0  0.00000000000E+00 -0.00000000000E+00 -0.16609628609E+03  0.16609628609E+03  0.00000000000E+00 0. -1.
          5    1    1    2  502    0  0.26762283528E+02 -0.51970368164E+02 -0.51924165306E+02  0.78298980386E+02  0.41800000000E+01 0.  1.
         -5    1    1    2    0  502 -0.51863384417E+01  0.50841856333E+02  0.15847390932E+02  0.53669401535E+02  0.41800000000E+01 0.  1.
        -11    1    1    2    0    0 -0.34397706818E+02 -0.39639073328E+02 -0.16894879094E+02  0.55135245608E+02  0.00000000000E+00 0.  1.
         11    1    1    2    0    0  0.12821761732E+02  0.40767585159E+02 -0.36145232218E+02  0.55972058973E+02  0.00000000000E+00 0. -1.
</event>
<event>
 6    1  0.8259171E-006  0.1141013E+03  0.7561462E-02  0.1253158E+00
         -1   -1    0    0    0  501 -0.00000000000E+00  0.00000000000E+00  0.42389544745E+02  0.42389544745E+02  0.00000000000E+00 0.  1.
          1   -1    0    0  501    0  0.00000000000E+00 -0.00000000000E+00 -0.53779943557E+03  0.53779943557E+03  0.00000000000E+00 0. -1.
          5    1    1    2  502    0 -0.33491909425E+02 -0.54373603235E+02 -0.25326963813E+02  0.68826769659E+02  0.41800000000E+01 0.  1.
         -5    1    1    2    0  502 -0.50427000216E+02  0.50704689090E+02 -0.12465463704E+03  0.14377099423E+03  0.41800000000E+01 0.  1.
        -11    1    1    2    0    0  0.78329916343E+02  0.15169437361E+02 -0.34571420548E+03  0.35480135216E+03  0.00000000000E+00 0. -1.
         11    1    1    2    0    0  0.55889932990E+01 -0.11500523217E+02  0.28591550392E+00  0.12789864270E+02  0.00000000000E+00 0.  1.
</event>
<event>
 6    1  0.8259171E-006  0.2272344E+03  0.7561462E-02  0.1128602E+00
         -2   -1    0    0    0  501 -0.00000000000E+00  0.00000000000E+00  0.87651700226E+02  0.87651700226E+02  0.00000000000E+00 0.  1.
          2   -1    0    0  501    0  0.00000000000E+00 -0.00000000000E+00 -0.83037761779E+03  0.83037761779E+03  0.00000000000E+00 0. -1.
          5    1    1    2  502    0  0.31928222816E+02  0.14878317932E+03 -0.58278541453E+02  0.16300216764E+03  0.41800000000E+01 0. -1.
         -5    1    1    2    0  502  0.47055539092E+01  0.74553545567E+02 -0.15530673015E+03  0.17238917084E+03  0.41800000000E+01 0. -1.
        -11    1    1    2    0    0 -0.15238124843E+02 -0.15660148466E+03 -0.45108234259E+03  0.47773581114E+03  0.00000000000E+00 0. -1.
         11    1    1    2    0    0 -0.21395651883E+02 -0.66735240231E+02 -0.78058303364E+02  0.10490216839E+03  0.00000000000E+00 0.  1.
</event>
<event>
 6    1  0.8259171E-006  0.1010501E+03  0.7561462E-02  0.1278103E+00
         -2   -1    0    0    0  501 -0.00000000000E+00  0.00000000000E+00  0.77725201876E+02  0.77725201876E+02  0.00000000000E+00 0.  1.
          2   -1    0    0  501    0  0.00000000000E+00 -0.00000000000E+00 -0.21330301590E+03  0.21330301590E+03  0.00000000000E+00 0. -1.
          5    1    1    2  502    0  0.54390583724E+02 -0.62538018128E+02 -0.46772628639E+02  0.95260120192E+02  0.41800000000E+01 0.  1.
         -5    1    1    2    0  502 -0.52012330369E+02 -0.17891920499E+01  0.23568988984E+01  0.52263860276E+02  0.41800000000E+01 0.  1.
        -11    1    1    2    0    0  0.80027842988E+01  0.28300308554E+02  0.13477066374E+02  0.32350940308E+02  0.00000000000E+00 0.  1.
         11    1    1    2    0    0 -0.10381037654E+02  0.36026901624E+02 -0.10463915066E+03  0.11115329700E+03  0.00000000000E+00 0. -1.
</event>
<event>
 6    1  0.8259171E-006  0.1304681E+03  0.7561462E-02  0.1226763E+00
          2   -1    0    0  501    0  0.00000000000E+00  0.00000000000E+00  0.72663739169E+03  0.72663739169E+03  0.00000000000E+00 0.  1.
         -2   -1    0    0    0  501 -0.00000000000E+00 -0.00000000000E+00 -0.25001617864E+02  0.25001617864E+02  0.00000000000E+00 0. -1.
          5    1    1    2  502    0  0.22733686960E+02  0.26103906644E+02  0.70922086132E+02  0.79029419625E+02  0.41800000000E+01 0. -1.
         -5    1    1    2    0  502 -0.65032288367E+02 -0.91291967542E+02  0.26361226571E+03  0.28648267121E+03  0.41800000000E+01 0. -1.
        -11    1    1    2    0    0  0.55939558150E+02  0.97124028914E+01  0.24243166314E+03  0.24899131757E+03  0.00000000000E+00 0.  1.
         11    1    1    2    0    0 -0.13640956743E+02  0.55475658007E+02  0.12466975884E+03  0.13713560115E+03  0.00000000000E+00 0. -1.
</event>
<event>
 6    1  0.8259171E-006  0.1574590E+03  0.7561462E-02  0.1191596E+00
         -3   -1    0    0    0  501 -0.00000000000E+00  0.00000000000E+00  0.82545332537E+03  0.82545332537E+03  0.00000000000E+00 0.  1.
          3   -1    0    0  501    0  0.00000000000E+00 -0.00000000000E+00 -0.32351884183E+02  0.32351884183E+02  0.00000000000E+00 0. -1.
          5    1    1    2  502    0 -0.95657388699E+02  0.24764900384E+01  0.22918448137E+03  0.24839377593E+03  0.41800000000E+01 0.  1.
         -5    1    1    2    0  502  0.27158337742E+01  0.72450311786E+02  0.28410445569E+03  0.29323921561E+03  0.41800000000E+01 0.  1.
        -11    1    1    2    0    0  0.69038186920E+02 -0.12405920219E+01  0.14722009147E+03  0.16260862724E+03  0.00000000000E+00 0. -1.
         11    1    1    2    0    0  0.23903368004E+02 -0.73686209802E+02  0.13259241266E+03  0.15356359078E+03  0.00000000000E+00 0.  1.
</event>
<event>
 6    1  0.8259171E-006  0.1567328E+03  0.7561462E-02  0.1192436E+00
         -2   -1    0    0    0  501 -0.00000000000E+00  0.00000000000E+00  0.26912293090E+03  0.26912293090E+03  0.00000000000E+00 0.  1.
          2   -1    0    0  501    0  0.00000000000E+00 -0.00000000000E+00 -0.13549822770E+03  0.13549822770E+03  0.00000000000E+00 0. -1.
          5    1    1    2  502    0  0.11366653897E+03 -0.83812108118E+02  0.11208121360E+03  0.18034473208E+03  0.41800000000E+01 0. -1.
         -5    1    1    2    0  502 -0.30555040725E+02 -0.12882987597E+02  0.54276344400E+02  0.63741476642E+02  0.41800000000E+01 0. -1.
        -11    1    1    2    0    0 -0.49191042313E+02  0.16837156165E+02 -0.49928447954E+02  0.72083967612E+02  0.00000000000E+00 0.  1.
         11    1    1    2    0    0 -0.33920455930E+02  0.79857939550E+02  0.17195593160E+02  0.88450982266E+02  0.00000000000E+00 0. -1.
</event>
<event>
 6    1  0.8259171E-006  0.1343686E+03  0.7561462E-02  0.1221114E+00
         -1   -1    0    0    0  501 -0.00000000000E+00  0.00000000000E+00  0.11235853643E+03  0.11235853643E+03  0.00000000000E+00 0.  1.
          1   -1    0    0  501    0  0.00000000000E+00 -0.00000000000E+00 -0.21098582539E+03  0.21098582539E+03  0.00000000000E+00 0. -1.
          5    1    1    2  502    0 -0.62086687172E+02  0.17934212561E+02 -0.14427363029E+02  0.66347674474E+02  0.41800000000E+01 0. -1.
         -5    1    1    2    0  502  0.45441814808E+02  0.64925343402E+02  0.32269434946E+02  0.85668241377E+02  0.41800000000E+01 0. -1.
        -11    1    1    2    0    0  0.53146305548E+02 -0.32067568300E+02 -0.47055249172E+02  0.77891303781E+02  0.00000000000E+00 0.  1.
         11    1    1    2    0    0 -0.36501433184E+02 -0.50791987664E+02 -0.69414111705E+02  0.93437142182E+02  0.00000000000E+00 0. -1.
</event>
<event>
 6    1  0.8259171E-006  0.8680156E+02  0.7561462E-02  0.1310787E+00
         -1   -1    0    0    0  501 -0.00000000000E+00  0.00000000000E+00  0.21804287775E+03  0.21804287775E+03  0.00000000000E+00 0. -1.
          1   -1    0    0  501    0  0.00000000000E+00 -0.00000000000E+00 -0.74769632519E+02  0.74769632519E+02  0.00000000000E+00 0.  1.
          5    1    1    2  502    0  0.19721278928E+02 -0.23975668508E+02 -0.27015198494E+02  0.41364899041E+02  0.41800000000E+01 0.  1.
         -5    1    1    2    0  502  0.27429866628E+02 -0.21112803945E+02  0.12661860311E+03  0.13133122678E+03  0.41800000000E+01 0.  1.
        -11    1    1    2    0    0 -0.53719645816E+02 -0.76545448183E+01  0.38873726475E+02  0.66749973880E+02  0.00000000000E+00 0. -1.
         11    1    1    2    0    0  0.65685002600E+01  0.52743017271E+02  0.47961141437E+01  0.53366410573E+02  0.00000000000E+00 0.  1.
</event>
<event>
 6    1  0.8259171E-006  0.7748543E+02  0.7561462E-02  0.1336343E+00
         -3   -1    0    0    0  501 -0.00000000000E+00  0.00000000000E+00  0.14652664554E+02  0.14652664554E+02  0.00000000000E+00 0.  1.
          3   -1    0    0  501    0  0.00000000000E+00 -0.00000000000E+00 -0.94838436411E+03  0.94838436411E+03  0.00000000000E+00 0. -1.
          5    1    1    2  502    0  0.69440276428E+01  0.18736407351E+02 -0.29464418774E+01  0.20625867256E+02  0.41800000000E+01 0.  1.
         -5    1    1    2    0  502 -0.30961849328E+02  0.16923473567E+02 -0.44574944156E+03  0.44716336737E+03  0.41800000000E+01 0.  1.
        -11    1    1    2    0    0 -0.32423322099E+02 -0.30531350245E+00 -0.19381650442E+03  0.19651005678E+03  0.00000000000E+00 0.  1.
         11    1    1    2    0    0  0.56441143784E+02 -0.35354567415E+02 -0.29121931171E+03  0.29873773726E+03  0.00000000000E+00 0. -1.
</event>
<event>
 6    1  0.8259171E-006  0.1010278E+03  0.7561462E-02  0.1278149E+00
          2   -1    0    0  501    0  0.00000000000E+00  0.00000000000E+00  0.37843696830E+02  0.37843696830E+02  0.00000000000E+00 0. -1.
         -2   -1    0    0    0  501 -0.00000000000E+00 -0.00000000000E+00 -0.43202300125E+03  0.43202300125E+03  0.00000000000E+00 0.  1.
          5    1    1    2  502    0 -0.31401374292E+02  0.81328893129E+01 -0.15946498670E+02  0.36386170667E+02  0.41800000000E+01 0.  1.
         -5    1    1    2    0  502  0.48903242544E+02 -0.48540927120E+02 -0.27211134554E+03  0.28073084174E+03  0.41800000000E+01 0.  1.
        -11    1    1    2    0    0  0.34285312712E+02  0.33743463607E+02 -0.82367520944E+02  0.95386123260E+02  0.00000000000E+00 0.  1.
         11    1    1    2    0    0 -0.51787180965E+02  0.66645741998E+01 -0.23753939271E+02  0.57363562411E+02  0.00000000000E+00 0. -1.
</event>
<event>
 6    1  0.8259171E-006  0.1302257E+03  0.7561462E-02  0.1227121E+00
         -2   -1    0    0    0  501 -0.00000000000E+00  0.00000000000E+00  0.12020732672E+03  0.12020732672E+03  0.00000000000E+00 0. -1.
          2   -1    0    0  501    0  0.00000000000E+00 -0.00000000000E+00 -0.18570272164E+03  0.18570272164E+03  0.00000000000E+00 0.  1.
          5    1    1    2  502    0  0.10047378775E+03  0.50456822346E+01 -0.37542644259E+02  0.10745865936E+03  0.41800000000E+01 0.  1.
         -5    1    1    2    0  502 -0.16864780983E+02  0.40574889524E+02  0.24187333217E+02  0.50331322113E+02  0.41800000000E+01 0.  1.
        -11    1    1    2    0    0 -0.43234704534E+02  0.12365448195E+02 -0.62197273852E+02  0.76750536544E+02  0.00000000000E+00 0.  1.
         11    1    1    2    0    0 -0.40374302231E+02 -0.57986019953E+02  0.10057189974E+02  0.71369530339E+02  0.00000000000E+00 0. -1.
</event>
<event>
 6    1  0.8259171E-006  0.9806916E+02  0.7561462E-02  0.1284409E+00
         -2   -1    0    0    0  501 -0.00000000000E+00  0.00000000000E+00  0.14968472370E+03  0.14968472370E+03  0.00000000000E+00 0.  1.
          2   -1    0    0  501    0  0.00000000000E+00 -0.00000000000E+00 -0.12202853501E+03  0.12202853501E+03  0.00000000000E+00 0. -1.
          5    1    1    2  502    0 -0.51491981197E+02  0.15377335529E+02  0.24363299457E+02  0.59151748376E+02  0.41800000000E+01 0. -1.
         -5    1    1    2    0  502  0.74465845489E+02  0.27535206927E+02  0.56787904353E+02  0.97702038083E+02  0.41800000000E+01 0. -1.
        -11    1    1    2    0    0 -0.11511643767E+02 -0.48594990860E+02  0.92793944442E+01  0.50794667438E+02  0.00000000000E+00 0.  1.
         11    1    1    2    0    0 -0.11462220524E+02  0.56824484050E+01 -0.62774409568E+02  0.64064804814E+02  0.00000000000E+00 0. -1.
</event>
<event>
 6    1  0.8259171E-006  0.8029378E+02  0.7561462E-02  0.1328220E+00
          2   -1    0    0  501    0  0.00000000000E+00  0.00000000000E+00  0.38877462101E+03  0.38877462101E+03  0.00000000000E+00 0. -1.
         -2   -1    0    0    0  501 -0.00000000000E+00 -0.00000000000E+00 -0.70566152390E+02  0.70566152390E+02  0.00000000000E+00 0.  1.
          5    1    1    2  502    0  0.17501886286E+02 -0.19471286741E+02  0.52691711672E+02  0.58985895855E+02  0.41800000000E+01 0.  1.
         -5    1    1    2    0  502 -0.84977275128E+01  0.44726552188E+02 -0.51612633710E+02  0.68949345189E+02  0.41800000000E+01 0.  1.
        -11    1    1    2    0    0 -0.37546940200E+02 -0.41134726727E+02  0.12971083729E+03  0.14116210459E+03  0.00000000000E+00 0.  1.
         11    1    1    2    0    0  0.28542781426E+02  0.15879461279E+02  0.18741855337E+03  0.19024342777E+03  0.00000000000E+00 0. -1.
</event>
<event>
 6    1  0.8259171E-006  0.1029550E+03  0.7561462E-02  0.1274202E+00
          1   -1    0    0  501    0  0.00000000000E+00  0.00000000000E+00  0.12547684090E+03  0.12547684090E+03  0.00000000000E+00 0. -1.
         -1   -1    0    0    0  501 -0.00000000000E+00 -0.00000000000E+00 -0.14017771544E+03  0.14017771544E+03  0.00000000000E+00 0.  1.
          5    1    1    2  502    0  0.49356276960E+02 -0.10010091020E+02  0.26103696221E+01  0.50601684034E+02  0.41800000000E+01 0.  1.
         -5    1    1    2    0  502 -0.55661714888E+02 -0.17813935966E+02 -0.80253542349E+02  0.99366323663E+02  0.41800000000E+01 0.  1.
        -11    1    1    2    0    0  0.49103785571E+02  0.21162468716E+02  0.39132935976E+02  0.66260233305E+02  0.00000000000E+00 0.  1.
         11    1    1    2    0    0 -0.42798347643E+02  0.66615582706E+01  0.23809362211E+02  0.49426315344E+02  0.00000000000E+00 0. -1.
</event>
<event>
 6    1  0.8259171E-006  0.1189473E+03  0.7561462E-02  0.1244844E+00
         -1   -1    0    0    0  501 -0.00000000000E+00  0.00000000000E+00  0.27374658210E+03  0.27374658210E+03  0.00000000000E+00 0.  1.
          1   -1    0    0  501    0  0.00000000000E+00 -0.00000000000E+00 -0.75838092185E+02  0.75838092185E+02  0.00000000000E+00 0. -1.
          5    1    1    2  502    0 -0.32203210835E+02 -0.29041861724E+02  0.56807783335E+02  0.71589616341E+02  0.41800000000E+01 0. -1.
         -5    1    1    2    0  502 -0.54585735545E+01  0.10727863928E+03  0.95752537323E+02  0.14396014475E+03  0.41800000000E+01 0. -1.
        -11    1    1    2    0    0  0.22829138228E+02 -0.47059340296E+02  0.72997748437E+02  0.89802128806E+02  0.00000000000E+00 0.  1.
         11    1    1    2    0    0  0.14832646162E+02 -0.31177437265E+02 -0.27649579175E+02  0.44232784393E+02  0.00000000000E+00 0. -1.
</event>
<event>
 6    1  0.1217582E-005  0.2139191E+03  0.7561462E-02  0.1138500E+00
         -4   -1    0    0    0  501 -0.00000000000E+00  0.00000000000E+00  0.13287636709E+04  0.13287636709E+04  0.00000000000E+00 0.  1.
          4   -1    0    0  501    0  0.00000000000E+00 -0.00000000000E+00 -0.39420503549E+02  0.39420503549E+02  0.00000000000E+00 0. -1.
          5    1    1    2  502    0 -0.56859460701E+02 -0.35507385635E+02  0.43058252864E+03  0.43578958119E+03  0.41800000000E+01 0. -1.
         -5    1    1    2    0  502 -0.13519392507E+03  0.58472434632E+02  0.40552580721E+03  0.43146851067E+03  0.41800000000E+01 0. -1.
        -11    1    1    2    0    0  0.10471110995E+03  0.32754182641E+02  0.23448759441E+03  0.25888546688E+03  0.00000000000E+00 0. -1.
         11    1    1    2    0    0  0.87342275817E+02 -0.55719231639E+02  0.21874723710E+03  0.24204061572E+03  0.00000000000E+00 0.  1.
</event>
<event>
 6    1  0.9094168E-006  0.7923394E+02  0.7561462E-02  0.1331240E+00
          2   -1    0    0  501    0  0.00000000000E+00  0.00000000000E+00  0.47119525183E+03  0.47119525183E+03  0.00000000000E+00 0. -1.
         -2   -1    0    0    0  501 -0.00000000000E+00 -0.00000000000E+00 -0.21531256668E+02  0.21531256668E+02  0.00000000000E+00 0.  1.
          5    1    1    2  502    0  0.30829730866E+02  0.38052933838E+02  0.30316233780E+02  0.57749844238E+02  0.41800000000E+01 0.  1.
         -5    1    1    2    0  502  0.36050707300E+01 -0.50502847963E+02  0.20552443751E+03  0.21171041779E+03  0.41800000000E+01 0.  1.
        -11    1    1    2    0    0  0.75281262700E+01  0.14671377479E+02  0.25914847450E+02  0.30716466604E+02  0.00000000000E+00 0.  1.
         11    1    1    2    0    0 -0.41962927865E+02 -0.22214633543E+01  0.18790847642E+03  0.19254977987E+03  0.00000000000E+00 0. -1.
</event>
<event>
 6    1  0.8259171E-006  0.1153267E+03  0.7561462E-02  0.1251012E+00
         -1   -1    0    0    0  501 -0.00000000000E+00  0.00000000000E+00  0.32389612171E+02  0.32389612171E+02  0.00000000000E+00 0.  1.
          1   -1    0    0  501    0  0.00000000000E+00 -0.00000000000E+00 -0.44911580526E+03  0.44911580526E+03  0.00000000000E+00 0. -1.
          5    1    1    2  502    0 -0.21449329488E+02 -0.27913443857E+02 -0.31315541186E+02  0.47300841464E+02  0.41800000000E+01 0.  1.
         -5    1    1    2    0  502  0.37885003044E+02  0.88636342553E+02 -0.22379582008E+03  0.24370826035E+03  0.41800000000E+01 0.  1.
        -11    1    1    2    0    0  0.27873521093E+02 -0.63663084704E+01 -0.65946589323E+02  0.71877783112E+02  0.00000000000E+00 0. -1.
         11    1    1    2    0    0 -0.44309194649E+02 -0.54356590225E+02 -0.95668242504E+02  0.11861853251E+03  0.00000000000E+00 0.  1.
</event>
<event>
 6    1  0.8259171E-006  0.8435204E+02  0.7561462E-02  0.1317136E+00
         -1   -1    0    0    0  501 -0.00000000000E+00  0.00000000000E+00  0.25359717869E+03  0.25359717869E+03  0.00000000000E+00 0.  1.
          1   -1    0    0  501    0  0.00000000000E+00 -0.00000000000E+00 -0.54660086924E+02  0.54660086924E+02  0.00000000000E+00 0. -1.
          5    1    1    2  502    0  0.14628376053E+02  0.56484177686E+02 -0.27137556173E+01  0.58560127940E+02  0.41800000000E+01 0.  1.
         -5    1    1    2    0  502 -0.90194485340E+01 -0.10761306171E+02  0.11445386288E+03  0.11538767391E+03  0.41800000000E+01 0.  1.
        -11    1    1    2    0    0 -0.44107290982E+02 -0.32731323551E+02  0.72815732019E+02  0.91208132799E+02  0.00000000000E+00 0.  1.
         11    1    1    2    0    0  0.38498363463E+02 -0.12991547965E+02  0.14381252483E+02  0.43101330963E+02  0.00000000000E+00 0. -1.
</event>
<event>
 6    1  0.8259171E-006  0.1762873E+03  0.7561462E-02  0.1171445E+00
         -2   -1    0    0    0  501 -0.00000000000E+00  0.00000000000E+00  0.77268090818E+02  0.77268090818E+02  0.00000000000E+00 0.  1.
          2   -1    0    0  501    0  0.00000000000E+00 -0.00000000000E+00 -0.53279752110E+03  0.53279752110E+03  0.00000000000E+00 0. -1.
          5    1    1    2  502    0 -0.13175818699E+02 -0.43191669694E+02  0.76846114938E+01  0.45996175745E+02  0.41800000000E+01 0. -1.
         -5    1    1    2    0  502 -0.77026801757E+01 -0.12657726258E+03 -0.22006177031E+03  0.25401927060E+03  0.41800000000E+01 0. -1.
        -11    1    1    2    0    0  0.36706214733E+02  0.15277020478E+03 -0.23964751889E+03  0.28656066545E+03  0.00000000000E+00 0.  1.
         11    1    1    2    0    0 -0.15827715858E+02  0.16998727497E+02 -0.35047525755E+01  0.23489500131E+02  0.00000000000E+00 0. -1.
</event>
<event>
 6    1  0.8259171E-006  0.1163265E+03  0.7561462E-02  0.1249283E+00
         -2   -1    0    0    0  501 -0.00000000000E+00  0.00000000000E+00  0.20540209360E+02  0.20540209360E+02  0.00000000000E+00 0.  1.
          2   -1    0    0  501    0  0.00000000000E+00 -0.00000000000E+00 -0.10787561531E+04  0.10787561531E+04  0.00000000000E+00 0. -1.
          5    1    1    2  502    0  0.77194884900E+00  0.58073631758E+02 -0.90966155476E+02  0.10800674263E+03  0.41800000000E+01 0. -1.
         -5    1    1    2    0  502 -0.90602251162E+01  0.39423112702E+02 -0.58304940463E+03  0.58446586738E+03  0.41800000000E+01 0. -1.
        -11    1    1    2    0    0  0.30721411240E+02  0.29255040243E+01 -0.85954270300E+02  0.91326339383E+02  0.00000000000E+00 0.  1.
         11    1    1    2    0    0 -0.22433134973E+02 -0.10042224848E+03 -0.29824611334E+03  0.31549741307E+03  0.00000000000E+00 0. -1.
</event>
<event>
 6    1  0.8259171E-006  0.9510928E+02  0.7561462E-02  0.1290930E+00
         -1   -1    0    0    0  501 -0.00000000000E+00  0.00000000000E+00  0.33534172173E+02  0.33534172173E+02  0.00000000000E+00 0.  1.
          1   -1    0    0  501    0  0.00000000000E+00 -0.00000000000E+00 -0.38004137839E+03  0.38004137839E+03  0.00000000000E+00 0. -1.
          5    1    1    2  502    0 -0.16929902400E+01 -0.68901279349E+02 -0.65409022520E+02  0.95110804533E+02  0.41800000000E+01 0. -1.
         -5    1    1    2    0  502 -0.18641920716E+02  0.47966870996E+02 -0.99474227405E+02  0.11207558271E+03  0.41800000000E+01 0.  1.
        -11    1    1    2    0    0 -0.22420980353E+02  0.13410440854E+02 -0.78571107577E+01  0.27281394270E+02  0.00000000000E+00 0.  1.
         11    1    1    2    0    0  0.42755891309E+02  0.75239674991E+01 -0.17376684554E+03  0.17910776906E+03  0.00000000000E+00 0. -1.
</event>
<event>
 6    1  0.8259171E-006  0.1067146E+03  0.7561462E-02  0.1266778E+00
          2   -1    0    0  501    0  0.00000000000E+00  0.00000000000E+00  0.57920238136E+03  0.57920238136E+03  0.00000000000E+00 0. -1.
         -2   -1    0    0    0  501 -0.00000000000E+00 -0.00000000000E+00 -0.25352458881E+02  0.25352458881E+02  0.00000000000E+00 0.  1.
          5    1    1    2  502    0  0.47740888077E+02 -0.38731666196E+02  0.15922498949E+03  0.17073196548E+03  0.41800000000E+01 0. -1.
         -5    1    1    2    0  502 -0.72095393531E+02 -0.86541205988E+01  0.13335075568E+03  0.15189646478E+03  0.41800000000E+01 0. -1.
        -11    1    1    2    0    0  0.28966734982E+02 -0.24119718231E+01  0.19424216726E+02  0.34959827503E+02  0.00000000000E+00 0.  1.
         11    1    1    2    0    0 -0.46122295282E+01  0.49797758617E+02  0.24184996058E+03  0.24696658247E+03  0.00000000000E+00 0. -1.
</event>
<event>
 6    1  0.8259171E-006  0.2634657E+03  0.7561462E-02  0.1105079E+00
         -2   -1    0    0    0  501 -0.00000000000E+00  0.00000000000E+00  0.55197032178E+02  0.55197032178E+02  0.00000000000E+00 0. -1.
          2   -1    0    0  501    0  0.00000000000E+00 -0.00000000000E+00 -0.14168495701E+04  0.14168495701E+04  0.00000000000E+00 0.  1.
          5    1    1    2  502    0  0.17948057759E+03 -0.39078823037E+02 -0.31155341328E+03  0.36169522234E+03  0.41800000000E+01 0. -1.
         -5    1    1    2    0  502  0.64189700236E+02 -0.41951721491E+02 -0.35965371423E+03  0.36776151391E+03  0.41800000000E+01 0. -1.
        -11    1    1    2    0    0 -0.14036376294E+03  0.93750018593E+01 -0.44673353969E+03  0.46835961834E+03  0.00000000000E+00 0.  1.
         11    1    1    2    0    0 -0.10330651488E+03  0.71655542668E+02 -0.24371187068E+03  0.27423024764E+03  0.00000000000E+00 0. -1.
</event>
<event>
 6    1  0.8259171E-006  0.9649513E+02  0.7561462E-02  0.1287844E+00
          1   -1    0    0  501    0  0.00000000000E+00  0.00000000000E+00  0.33740011808E+03  0.33740011808E+03  0.00000000000E+00 0. -1.
         -1   -1    0    0    0  501 -0.00000000000E+00 -0.00000000000E+00 -0.49107431107E+02  0.49107431107E+02  0.00000000000E+00 0.  1.
          5    1    1    2  502    0 -0.40674095626E+02  0.44002824757E+02  0.30737596669E+02  0.67475202042E+02  0.41800000000E+01 0. -1.
         -5    1    1    2    0  502  0.38412599217E+02 -0.31616472663E+02  0.52048613491E+01  0.50196534779E+02  0.41800000000E+01 0.  1.
        -11    1    1    2    0    0  0.15893120099E+02 -0.44959711909E+02  0.20057626098E+03  0.20616693098E+03  0.00000000000E+00 0.  1.
         11    1    1    2    0    0 -0.13631623690E+02  0.32573359815E+02  0.51773967972E+02  0.62668881382E+02  0.00000000000E+00 0. -1.
</event>
<event>
 6    1  0.8259171E-006  0.1699486E+03  0.7561462E-02  0.1177901E+00
          1   -1    0    0  501    0  0.00000000000E+00  0.00000000000E+00  0.23861160392E+03  0.23861160392E+03  0.00000000000E+00 0. -1.
         -1   -1    0    0    0  501 -0.00000000000E+00 -0.00000000000E+00 -0.60067405441E+03  0.60067405441E+03  0.00000000000E+00 0.  1.
          5    1    1    2  502    0 -0.15782541659E+02 -0.33804017756E+02 -0.10608316137E+03  0.11252959506E+03  0.41800000000E+01 0. -1.
         -5    1    1    2    0  502 -0.10723725263E+03  0.92622857721E+02 -0.45048244251E+03  0.47226128948E+03  0.41800000000E+01 0.  1.
        -11    1    1    2    0    0  0.31561993065E+00  0.16576156583E+02  0.68272848211E+01  0.17929874541E+02  0.00000000000E+00 0.  1.
         11    1    1    2    0    0  0.12270417436E+03 -0.75394996549E+02  0.18767586858E+03  0.23656489925E+03  0.00000000000E+00 0. -1.
</event>
<event>
 6    1  0.8259171E-006  0.9369241E+02  0.7561462E-02  0.1294149E+00
          4   -1    0    0  501    0  0.00000000000E+00  0.00000000000E+00  0.18182962017E+03  0.18182962017E+03  0.00000000000E+00 0. -1.
         -4   -1    0    0    0  501 -0.00000000000E+00 -0.00000000000E+00 -0.88572048904E+02  0.88572048904E+02  0.00000000000E+00 0.  1.
          5    1    1    2  502    0 -0.80007718679E+02 -0.79592513296E+01  0.55524653780E+02  0.97801044510E+02  0.41800000000E+01 0. -1.
         -5    1    1    2    0  502  0.21339294572E+02  0.13117694494E+02 -0.33675489519E+02  0.42177605385E+02  0.41800000000E+01 0. -1.
        -11    1    1    2    0    0  0.11580513872E+02 -0.27143812558E+02  0.72676920762E+02  0.78439974969E+02  0.00000000000E+00 0. -1.
         11    1    1    2    0    0  0.47087910235E+02  0.21985369394E+02 -0.12685137610E+01  0.51983044205E+02  0.00000000000E+00 0.  1.
</event>
<event>
 6    1  0.8259171E-006  0.7991146E+02  0.7561462E-02  0.1329303E+00
         -1   -1    0    0    0  501 -0.00000000000E+00  0.00000000000E+00  0.65379887148E+03  0.65379887148E+03  0.00000000000E+00 0.  1.
          1   -1    0    0  501    0  0.00000000000E+00 -0.00000000000E+00 -0.23117148789E+02  0.23117148789E+02  0.00000000000E+00 0. -1.
          5    1    1    2  502    0  0.53418261443E+01  0.24189510122E+02  0.28693469104E+03  0.28803238850E+03  0.41800000000E+01 0.  1.
         -5    1    1    2    0  502  0.33157506787E+02 -0.62012904939E+02  0.10109658740E+03  0.12321936949E+03  0.41800000000E+01 0.  1.
        -11    1    1    2    0    0 -0.20780490840E+02  0.41268163151E+02  0.24325427146E+03  0.24760357565E+03  0.00000000000E+00 0.  1.
         11    1    1    2    0    0 -0.17718842091E+02 -0.34447683336E+01 -0.60382720575E+00  0.18060686621E+02  0.00000000000E+00 0. -1.
</event>
<event>
 6    1  0.8259171E-006  0.9364419E+02  0.7561462E-02  0.1294259E+00
         -1   -1    0    0    0  501 -0.00000000000E+00  0.00000000000E+00  0.10940990346E+02  0.10940990346E+02  0.00000000000E+00 0.  1.
          1   -1    0    0  501    0  0.00000000000E+00 -0.00000000000E+00 -0.95880816124E+03  0.95880816124E+03  0.00000000000E+00 0. -1.
          5    1    1    2  502    0 -0.20463075216E+02  0.38356600474E+02 -0.38081929618E+03  0.38331550319E+03  0.41800000000E+01 0. -1.
         -5    1    1    2    0  502  0.30905265398E+02 -0.43409309888E+02 -0.13773883368E+03  0.14774627683E+03  0.41800000000E+01 0.  1.
        -11    1    1    2    0    0  0.29779374334E+02  0.30452686565E+02 -0.21083840493E+03  0.21509767606E+03  0.00000000000E+00 0. -1.
         11    1    1    2    0    0 -0.40221564516E+02 -0.25399977151E+02 -0.21847063611E+03  0.22358969550E+03  0.00000000000E+00 0.  1.
</event>
<event>
 6    1  0.8259171E-006  0.1669573E+03  0.7561462E-02  0.1181059E+00
          1   -1    0    0  501    0  0.00000000000E+00  0.00000000000E+00  0.51572359829E+03  0.51572359829E+03  0.00000000000E+00 0. -1.
         -1   -1    0    0    0  501 -0.00000000000E+00 -0.00000000000E+00 -0.13195484873E+03  0.13195484873E+03  0.00000000000E+00 0.  1.
          5    1    1    2  502    0 -0.30280744385E+02 -0.52435553510E+02 -0.68411876646E+02  0.91455278791E+02  0.41800000000E+01 0.  1.
         -5    1    1    2    0  502 -0.34201638849E+02 -0.95664027248E+02  0.50687199386E+02  0.11361347979E+03  0.41800000000E+01 0.  1.
        -11    1    1    2    0    0  0.48158599862E+02  0.41130823011E+02  0.72440442507E+02  0.96221687020E+02  0.00000000000E+00 0.  1.
         11    1    1    2    0    0  0.16323783371E+02  0.10696875775E+03  0.32905298431E+03  0.34638800141E+03  0.00000000000E+00 0. -1.
</event>
<event>
 6    1  0.8259171E-006  0.1285470E+03  0.7561462E-02  0.1229628E+00
         -2   -1    0    0    0  501 -0.00000000000E+00  0.00000000000E+00  0.35084178440E+02  0.35084178440E+02  0.00000000000E+00 0.  1.
          2   -1    0    0  501    0  0.00000000000E+00 -0.00000000000E+00 -0.63713882360E+03  0.63713882360E+03  0.00000000000E+00 0. -1.
          5    1    1    2  502    0  0.40625838367E+02  0.27025637847E+02 -0.61798556675E+02  0.78850350989E+02  0.41800000000E+01 0. -1.
         -5    1    1    2    0  502 -0.83139547004E+01 -0.97837076467E+02 -0.11374459826E+03  0.15032139371E+03  0.41800000000E+01 0. -1.
        -11    1    1    2    0    0 -0.46230487773E+02  0.97920585138E+01 -0.27647020875E+03  0.28047980094E+03  0.00000000000E+00 0. -1.
         11    1    1    2    0    0  0.13918604107E+02  0.61019380106E+02 -0.15004128148E+03  0.16257145640E+03  0.00000000000E+00 0.  1.
</event>
<event>
 6    1  0.8259171E-006  0.1413944E+03  0.7561462E-02  0.1211465E+00
          1   -1    0    0  501    0  0.00000000000E+00  0.00000000000E+00  0.60806417583E+03  0.60806417583E+03  0.00000000000E+00 0. -1.
         -1   -1    0    0    0  501 -0.00000000000E+00 -0.00000000000E+00 -0.35694403254E+02  0.35694403254E+02  0.00000000000E+00 0.  1.
          5    1    1    2  502    0 -0.71557736698E+02 -0.48298983522E+02  0.15950429202E+03  0.18141773084E+03  0.41800000000E+01 0.  1.
         -5    1    1    2    0  502 -0.20703316425E+02  0.63726483486E+02  0.78873374458E+02  0.10357689707E+03  0.41800000000E+01 0.  1.
        -11    1    1    2    0    0  0.84790514673E+02 -0.46883286172E+02  0.22253451550E+03  0.24271193726E+03  0.00000000000E+00 0. -1.
         11    1    1    2    0    0  0.74705384498E+01  0.31455786208E+02  0.11145759060E+03  0.11605201391E+03  0.00000000000E+00 0.  1.
</event>
<event>
 6    1  0.8259171E-006  0.1227895E+03  0.7561462E-02  0.1238565E+00
         -3   -1    0    0    0  501 -0.00000000000E+00  0.00000000000E+00  0.18928603445E+03  0.18928603445E+03  0.00000000000E+00 0.  1.
          3   -1    0    0  501    0  0.00000000000E+00 -0.00000000000E+00 -0.83052712723E+02  0.83052712723E+02  0.00000000000E+00 0. -1.
          5    1    1    2  502    0 -0.83711893434E+02 -0.25228561740E+02  0.19319519095E+02  0.89637479035E+02  0.41800000000E+01 0.  1.
         -5    1    1    2    0  502  0.20462627044E+02  0.45107486895E+02  0.40236537705E+02  0.63951980783E+02  0.41800000000E+01 0.  1.
        -11    1    1    2    0    0  0.64251212494E+02 -0.48000152315E+02  0.40881239700E+02  0.90019490604E+02  0.00000000000E+00 0.  1.
         11    1    1    2    0    0 -0.10019461046E+01  0.28121227159E+02  0.57960252281E+01  0.28729796751E+02  0.00000000000E+00 0. -1.
</event>
<event>
 6    1  0.8259171E-006  0.6435660E+02  0.7561462E-02  0.1380408E+00
         -2   -1    0    0    0  501 -0.00000000000E+00  0.00000000000E+00  0.68554298037E+02  0.68554298037E+02  0.00000000000E+00 0.  1.
          2   -1    0    0  501    0  0.00000000000E+00 -0.00000000000E+00 -0.26983568771E+03  0.26983568771E+03  0.00000000000E+00 0. -1.
          5    1    1    2  502    0  0.26362583930E+02  0.20941316570E+02 -0.86152073601E+02  0.92591450776E+02  0.41800000000E+01 0. -1.
         -5    1    1    2    0  502  0.19195804763E+02  0.18882960909E+02  0.44757728384E+02  0.52400112436E+02  0.41800000000E+01 0. -1.
        -11    1    1    2    0    0  0.27038296840E+01 -0.10990532123E+02  0.95933000593E+01  0.14836909966E+02  0.00000000000E+00 0.  1.
         11    1    1    2    0    0 -0.48262218377E+02 -0.28833745356E+02 -0.16948034451E+03  0.17856151257E+03  0.00000000000E+00 0. -1.
</event>
<event>
 6    1  0.8259171E-006  0.9887895E+02  0.7561462E-02  0.1282671E+00
          1   -1    0    0  501    0  0.00000000000E+00  0.00000000000E+00  0.71516651260E+02  0.71516651260E+02  0.00000000000E+00 0. -1.
         -1   -1    0    0    0  501 -0.00000000000E+00 -0.00000000000E+00 -0.22022424665E+03  0.22022424665E+03  0.00000000000E+00 0.  1.
          5    1    1    2  502    0  0.50211250551E+02  0.36125674361E+02 -0.14067400536E+03  0.15372990019E+03  0.41800000000E+01 0.  1.
         -5    1    1    2    0  502 -0.40422245374E+02 -0.60549757456E-01 -0.35710307366E+01  0.40794438933E+02  0.41800000000E+01 0.  1.
        -11    1    1    2    0    0 -0.44843920035E+01  0.29250242881E+02 -0.10521048046E+02  0.31406670187E+02  0.00000000000E+00 0.  1.
         11    1    1    2    0    0 -0.53046131740E+01 -0.65315367485E+02  0.60584887550E+01  0.65809888593E+02  0.00000000000E+00 0. -1.
</event>
<event>
 6    1  0.8259171E-006  0.1091541E+03  0.7561462E-02  0.1262144E+00
         -3   -1    0    0    0  501 -0.00000000000E+00  0.00000000000E+00  0.20173721126E+03  0.20173721126E+03  0.00000000000E+00 0.  1.
          3   -1    0    0  501    0  0.00000000000E+00 -0.00000000000E+00 -0.82481023722E+02  0.82481023722E+02  0.00000000000E+00 0. -1.
          5    1    1    2  502    0  0.32822427896E+02 -0.78832401390E+02  0.28253814577E+02  0.90042266298E+02  0.41800000000E+01 0. -1.
         -5    1    1    2    0  502 -0.67760963960E+01  0.27203729992E+02  0.81002284842E+02  0.85818418521E+02  0.41800000000E+01 0. -1.
        -11    1    1    2    0    0  0.10775211511E+02  0.64552003790E+02  0.19318437065E+02  0.68236855049E+02  0.00000000000E+00 0.  1.
         11    1    1    2    0    0 -0.36821543011E+02 -0.12923332392E+02 -0.93183489412E+01  0.40120695119E+02  0.00000000000E+00 0. -1.
</event>
<event>
 6    1  0.8259171E-006  0.1564859E+03  0.7561462E-02  0.1192722E+00
         -1   -1    0    0    0  501 -0.00000000000E+00  0.00000000000E+00  0.25956909916E+03  0.25956909916E+03  0.00000000000E+00 0.  1.
          1   -1    0    0  501    0  0.00000000000E+00 -0.00000000000E+00 -0.17467095560E+03  0.17467095560E+03  0.00000000000E+00 0. -1.
          5    1    1    2  502    0  0.86614022255E+02 -0.52779708039E+00  0.11671478623E+03  0.14540316759E+03  0.41800000000E+01 0. -1.
         -5    1    1    2    0  502 -0.66539191288E+02 -0.49887731497E+02  0.73639789870E+02  0.11115997833E+03  0.41800000000E+01 0.  1.
        -11    1    1    2    0    0  0.20067191517E+02 -0.39617454125E+02 -0.31770932911E+02  0.54604276616E+02  0.00000000000E+00 0.  1.
         11    1    1    2    0    0 -0.40142022484E+02  0.90032982702E+02 -0.73685499635E+02  0.12307263221E+03  0.00000000000E+00 0. -1.
</event>
<event>
 6    1  0.8259171E-006  0.1005717E+03  0.7561462E-02  0.1279098E+00
          3   -1    0    0  501    0  0.00000000000E+00  0.00000000000E+00  0.21812175923E+03  0.21812175923E+03  0.00000000000E+00 0. -1.
         -3   -1    0    0    0  501 -0.00000000000E+00 -0.00000000000E+00 -0.60267078670E+02  0.60267078670E+02  0.00000000000E+00 0.  1.
          5    1    1    2  502    0 -0.65789816226E+02 -0.24912727956E+01  0.49451918889E+02  0.82446777020E+02  0.41800000000E+01 0. -1.
         -5    1    1    2    0  502  0.50780910382E+02  0.11840832686E+02 -0.23934618579E+01  0.52365133797E+02  0.41800000000E+01 0. -1.
        -11    1    1    2    0    0 -0.45618270422E+00  0.35458564722E+02  0.18919528367E+02  0.40192865889E+02  0.00000000000E+00 0.  1.
         11    1    1    2    0    0  0.15465088548E+02 -0.44808124613E+02  0.91876695164E+02  0.10338406120E+03  0.00000000000E+00 0. -1.
</event>
<event>
 6    1  0.8259171E-006  0.6452750E+02  0.7561462E-02  0.1379758E+00
          1   -1    0    0  501    0  0.00000000000E+00  0.00000000000E+00  0.40631200103E+02  0.40631200103E+02  0.00000000000E+00 0. -1.
         -1   -1    0    0    0  501 -0.00000000000E+00 -0.00000000000E+00 -0.38969758502E+03  0.38969758502E+03  0.00000000000E+00 0.  1.
          5    1    1    2  502    0  0.57066521708E+02 -0.18953951001E+02 -0.27192693138E+03  0.27852750056E+03  0.41800000000E+01 0.  1.
         -5    1    1    2    0  502 -0.87272564809E+01  0.99961499502E+01  0.91331253762E+01  0.16642547841E+02  0.41800000000E+01 0.  1.
        -11    1    1    2    0    0 -0.25108439037E+02 -0.77193226819E+01 -0.10003205766E+03  0.10342356701E+03  0.00000000000E+00 0.  1.
         11    1    1    2    0    0 -0.23230826190E+02  0.16677123732E+02  0.13759478744E+02  0.31735169714E+02  0.00000000000E+00 0. -1.
</event>
<event>
 6    1  0.8259171E-006  0.1119242E+03  0.7561462E-02  0.1257047E+00
          1   -1    0    0  501    0  0.00000000000E+00  0.00000000000E+00  0.49902364019E+03  0.49902364019E+03  0.00000000000E+00 0. -1.
         -1   -1    0    0    0  501 -0.00000000000E+00 -0.00000000000E+00 -0.34876256778E+02  0.34876256778E+02  0.00000000000E+00 0.  1.
          5    1    1    2  502    0  0.93511147034E+02  0.35012230952E+01  0.25267163689E+03  0.26947545653E+03  0.41800000000E+01 0. -1.
         -5    1    1    2    0  502 -0.19497757816E+02 -0.21608476729E+02  0.96133770183E+01  0.30935064960E+02  0.41800000000E+01 0. -1.
        -11    1    1    2    0    0 -0.45667383433E+02 -0.22771582870E+02  0.16168176437E+03  0.16954364578E+03  0.00000000000E+00 0.  1.
         11    1    1    2    0    0 -0.28346005785E+02  0.40878836504E+02  0.40180605146E+02  0.63945729707E+02  0.00000000000E+00 0. -1.
</event>
<event>
 6    1  0.8259171E-006  0.1137747E+03  0.7561462E-02  0.1253735E+00
         -1   -1    0    0    0  501 -0.00000000000E+00  0.00000000000E+00  0.27564260040E+03  0.27564260040E+03  0.00000000000E+00 0.  1.
          1   -1    0    0  501    0  0.00000000000E+00 -0.00000000000E+00 -0.69812156106E+02  0.69812156106E+02  0.00000000000E+00 0. -1.
          5    1    1    2  502    0  0.72885530987E+02 -0.55772135636E+02  0.16061613942E+03  0.18503472210E+03  0.41800000000E+01 0.  1.
         -5    1    1    2    0  502 -0.13565464831E+02  0.39191787583E+02  0.31015400767E+02  0.51956188609E+02  0.41800000000E+01 0.  1.
        -11    1    1    2    0    0  0.99111552271E+01  0.22425045491E+02 -0.19422805673E+02  0.31278731487E+02  0.00000000000E+00 0.  1.
         11    1    1    2    0    0 -0.69231221383E+02 -0.58446974379E+01  0.33621709778E+02  0.77185114307E+02  0.00000000000E+00 0. -1.
</event>
<event>
 6    1  0.8259171E-006  0.8648914E+02  0.7561462E-02  0.1311584E+00
         -3   -1    0    0    0  501 -0.00000000000E+00  0.00000000000E+00  0.99580607588E+02  0.99580607588E+02  0.00000000000E+00 0.  1.
          3   -1    0    0  501    0  0.00000000000E+00 -0.00000000000E+00 -0.15911241850E+03  0.15911241850E+03  0.00000000000E+00 0. -1.
          5    1    1    2  502    0  0.21593907725E+02  0.10254392159E+02  0.43452673054E+02  0.49770037220E+02  0.41800000000E+01 0. -1.
         -5    1    1    2    0  502 -0.71594952193E+02 -0.30694376234E+02 -0.37623700782E+02  0.86608297365E+02  0.41800000000E+01 0. -1.
        -11    1    1    2    0    0  0.41548962442E+02 -0.68701521520E+01  0.86342393665E+01  0.42989130720E+02  0.00000000000E+00 0.  1.
         11    1    1    2    0    0  0.84520820262E+01  0.27310136227E+02 -0.73995022552E+02  0.79325560784E+02  0.00000000000E+00 0. -1.
</event>
<event>
 6    1  0.1555741E-005  0.1989985E+03  0.7561462E-02  0.1150587E+00
          2   -1    0    0  501    0  0.00000000000E+00  0.00000000000E+00  0.55438415764E+03  0.55438415764E+03  0.00000000000E+00 0. -1.
         -2   -1    0    0    0  501 -0.00000000000E+00 -0.00000000000E+00 -0.89275096930E+02  0.89275096930E+02  0.00000000000E+00 0.  1.
          5    1    1    2  502    0 -0.15893003873E+03 -0.11312352388E+03  0.11058631181E+03  0.22428217411E+03  0.41800000000E+01 0. -1.
         -5    1    1    2    0  502  0.73539435149E+01  0.20105796719E+02  0.18326177031E+02  0.28489378924E+02  0.41800000000E+01 0. -1.
        -11    1    1    2    0    0  0.44990792059E+02  0.46700487753E+02  0.20791404860E+03  0.21779200751E+03  0.00000000000E+00 0. -1.
         11    1    1    2    0    0  0.10658530316E+03  0.46317239406E+02  0.12828252327E+03  0.17309569403E+03  0.00000000000E+00 0.  1.
</event>
<event>
 6    1  0.8259171E-006  0.1287872E+03  0.7561462E-02  0.1229267E+00
          1   -1    0    0  501    0  0.00000000000E+00  0.00000000000E+00  0.18172396170E+03  0.18172396170E+03  0.00000000000E+00 0.  1.
         -1   -1    0    0    0  501 -0.00000000000E+00 -0.00000000000E+00 -0.12330226583E+03  0.12330226583E+03  0.00000000000E+00 0. -1.
          5    1    1    2  502    0  0.89130615535E+02 -0.29510596135E+02 -0.26595003210E+02  0.97672455204E+02  0.41800000000E+01 0.  1.
         -5    1    1    2    0  502 -0.18736052979E+02  0.46810611299E+02 -0.14183191319E+02  0.52544346294E+02  0.41800000000E+01 0.  1.
        -11    1    1    2    0    0 -0.36043622849E+02  0.35120896717E+02  0.68559430841E+02  0.85047138056E+02  0.00000000000E+00 0.  1.
         11    1    1    2    0    0 -0.34350939707E+02 -0.52420911881E+02  0.30640459557E+02  0.69762287972E+02  0.00000000000E+00 0. -1.
</event>
<event>
 6    1  0.8259171E-006  0.1680415E+03  0.7561462E-02  0.1179906E+00
          2   -1    0    0  501    0  0.00000000000E+00  0.00000000000E+00  0.46657353498E+03  0.46657353498E+03  0.00000000000E+00 0. -1.
         -2   -1    0    0    0  501 -0.00000000000E+00 -0.00000000000E+00 -0.78887466805E+02  0.78887466805E+02  0.00000000000E+00 0.  1.
          5    1    1    2  502    0  0.62042907530E+02  0.30756550956E+02  0.17930521842E+02  0.71653777396E+02  0.41800000000E+01 0. -1.
         -5    1    1    2    0  502 -0.33839038575E+02  0.11140780488E+03  0.97338729335E+02  0.15181923511E+03  0.41800000000E+01 0. -1.
        -11    1    1    2    0    0 -0.32169578858E+01 -0.10707604343E+03  0.25298721344E+03  0.27473288493E+03  0.00000000000E+00 0. -1.
         11    1    1    2    0    0 -0.24986911069E+02 -0.35088312414E+02  0.19429603549E+02  0.47255104348E+02  0.00000000000E+00 0.  1.
</event>
<event>
 6    1  0.8259171E-006  0.1086554E+03  0.7561462E-02  0.1263080E+00
          2   -1    0    0  501    0  0.00000000000E+00  0.00000000000E+00  0.42139808864E+02  0.42139808864E+02  0.00000000000E+00 0. -1.
         -2   -1    0    0    0  501 -0.00000000000E+00 -0.00000000000E+00 -0.43862848333E+03  0.43862848333E+03  0.00000000000E+00 0.  1.
          5    1    1    2  502    0  0.13503445096E+02 -0.26602160837E+02 -0.18734641985E+01  0.30182780832E+02  0.41800000000E+01 0. -1.
         -5    1    1    2    0  502 -0.60237389109E+02 -0.35692760499E+02 -0.27102640932E+03  0.27995589501E+03  0.41800000000E+01 0. -1.
        -11    1    1    2    0    0  0.66666765368E+02  0.69065615554E+02 -0.94317552744E+02  0.13457458011E+03  0.00000000000E+00 0.  1.
         11    1    1    2    0    0 -0.19932821354E+02 -0.67706942177E+01 -0.29271248201E+02  0.36055036244E+02  0.00000000000E+00 0. -1.
</event>
<event>
 6    1  0.8259171E-006  0.1680240E+03  0.7561462E-02  0.1179924E+00
          2   -1    0    0  501    0  0.00000000000E+00  0.00000000000E+00  0.14599436694E+03  0.14599436694E+03  0.00000000000E+00 0. -1.
         -2   -1    0    0    0  501 -0.00000000000E+00 -0.00000000000E+00 -0.30194819685E+03  0.30194819685E+03  0.00000000000E+00 0.  1.
          5    1    1    2  502    0  0.30385829153E+02 -0.45617805070E+02 -0.31751825380E+01  0.55062118891E+02  0.41800000000E+01 0.  1.
         -5    1    1    2    0  502  0.11380652587E+03  0.67678177481E+00 -0.18177803058E+03  0.21450666228E+03  0.41800000000E+01 0.  1.
        -11    1    1    2    0    0 -0.41418829460E+02 -0.19611696112E+02 -0.16576975849E+02  0.48733296487E+02  0.00000000000E+00 0.  1.
         11    1    1    2    0    0 -0.10277352557E+03  0.64552719407E+02  0.45576359048E+02  0.12964048613E+03  0.00000000000E+00 0. -1.
</event>
<event>
 6    1  0.8259171E-006  0.1121601E+03  0.7561462E-02  0.1256621E+00
          3   -1    0    0  501    0  0.00000000000E+00  0.00000000000E+00  0.15185575119E+03  0.15185575119E+03  0.00000000000E+00 0. -1.
         -3   -1    0    0    0  501 -0.00000000000E+00 -0.00000000000E+00 -0.10923182420E+03  0.10923182420E+03  0.00000000000E+00 0.  1.
          5    1    1    2  502    0  0.20132278911E+02 -0.60962916232E+02 -0.15878598488E+02  0.66267549371E+02  0.41800000000E+01 0.  1.
         -5    1    1    2    0  502  0.13623852624E+02  0.62878802000E+02 -0.17035380615E+01  0.64495949820E+02  0.41800000000E+01 0.  1.
        -11    1    1    2    0    0  0.30242836835E+02  0.65768646768E+01 -0.12243270438E+02  0.33283359202E+02  0.00000000000E+00 0.  1.
         11    1    1    2    0    0 -0.63998968370E+02 -0.84927504444E+01  0.72449333971E+02  0.97040716998E+02  0.00000000000E+00 0. -1.
</event>
<event>
 6    1  0.8259171E-006  0.2157495E+03  0.7561462E-02  0.1137092E+00
         -2   -1    0    0    0  501 -0.00000000000E+00  0.00000000000E+00  0.43216595389E+03  0.43216595389E+03  0.00000000000E+00 0. -1.
          2   -1    0    0  501    0  0.00000000000E+00 -0.00000000000E+00 -0.11712761887E+03  0.11712761887E+03  0.00000000000E+00 0.  1.
          5    1    1    2  502    0 -0.29026780559E+02  0.32496434093E+02  0.42746049090E+02  0.61182263207E+02  0.41800000000E+01 0. -1.
         -5    1    1    2    0  502  0.12707958039E+03  0.13824501585E+03  0.11050248236E+03  0.21792011189E+03  0.41800000000E+01 0. -1.
        -11    1    1    2    0    0 -0.95750961442E+02 -0.14319576320E+03  0.92351773606E+02  0.19545363467E+03  0.00000000000E+00 0.  1.
         11    1    1    2    0    0 -0.23018383875E+01 -0.27545686742E+02  0.69438029955E+02  0.74737562993E+02  0.00000000000E+00 0. -1.
</event>
<event>
 6    1  0.8259171E-006  0.1286786E+03  0.7561462E-02  0.1229430E+00
         -1   -1    0    0    0  501 -0.00000000000E+00  0.00000000000E+00  0.18997026608E+03  0.18997026608E+03  0.00000000000E+00 0. -1.
          1   -1    0    0  501    0  0.00000000000E+00 -0.00000000000E+00 -0.10154572930E+03  0.10154572930E+03  0.00000000000E+00 0.  1.
          5    1    1    2  502    0 -0.22364584293E+02 -0.34028433639E+02  0.67971504702E+00  0.40939508291E+02  0.41800000000E+01 0.  1.
         -5    1    1    2    0  502  0.10899851736E+03  0.68843473963E+01  0.63618470384E+02  0.12646285304E+03  0.41800000000E+01 0.  1.
        -11    1    1    2    0    0 -0.94644614453E+02  0.20785746586E+02  0.40325431263E+02  0.10495613709E+03  0.00000000000E+00 0.  1.
         11    1    1    2    0    0  0.80106813835E+01  0.63583396566E+01 -0.16199079915E+02  0.19157496953E+02  0.00000000000E+00 0. -1.
</event>
<event>
 6    1  0.8259171E-006  0.1181596E+03  0.7561462E-02  0.1246164E+00
          1   -1    0    0  501    0  0.00000000000E+00  0.00000000000E+00  0.43239055998E+03  0.43239055998E+03  0.00000000000E+00 0. -1.
         -1   -1    0    0    0  501 -0.00000000000E+00 -0.00000000000E+00 -0.55779630766E+02  0.55779630766E+02  0.00000000000E+00 0.  1.
          5    1    1    2  502    0  0.40967811599E+02  0.50059063137E+02  0.22941496804E+02  0.68760861432E+02  0.41800000000E+01 0. -1.
         -5    1    1    2    0  502  0.38086038037E+02 -0.73268291222E+02  0.62895359171E+02  0.10388497195E+03  0.41800000000E+01 0. -1.
        -11    1    1    2    0    0 -0.47381807338E+02 -0.33254304741E+01  0.42191281034E+02  0.63531081761E+02  0.00000000000E+00 0.  1.
         11    1    1    2    0    0 -0.31672042297E+02  0.26534658559E+02  0.24858279220E+03  0.25199327560E+03  0.00000000000E+00 0. -1.
</event>
<event>
 6    1  0.8259171E-006  0.9031342E+02  0.7561462E-02  0.1302094E+00
         -1   -1    0    0    0  501 -0.00000000000E+00  0.00000000000E+00  0.51894859742E+03  0.51894859742E+03  0.00000000000E+00 0.  1.
          1   -1    0    0  501    0  0.00000000000E+00 -0.00000000000E+00 -0.56645564724E+02  0.56645564724E+02  0.00000000000E+00 0. -1.
          5    1    1    2  502    0 -0.32567903665E+02  0.68349809924E+02  0.34280106041E+03  0.35108745960E+03  0.41800000000E+01 0. -1.
         -5    1    1    2    0  502  0.35441258393E+01 -0.48501506048E+02  0.11831823413E+03  0.12799075687E+03  0.41800000000E+01 0. -1.
        -11    1    1    2    0    0 -0.11605989928E+02 -0.59916558494E+01  0.37862797684E+02  0.40052345630E+02  0.00000000000E+00 0.  1.
         11    1    1    2    0    0  0.40629767754E+02 -0.13856648026E+02 -0.36679059530E+02  0.56463600047E+02  0.00000000000E+00 0. -1.
</event>
<event>
 6    1  0.8259171E-006  0.1177003E+03  0.7561462E-02  0.1246940E+00
         -1   -1    0    0    0  501 -0.00000000000E+00  0.00000000000E+00  0.30394203202E+03  0.30394203202E+03  0.00000000000E+00 0.  1.
          1   -1    0    0  501    0  0.00000000000E+00 -0.00000000000E+00 -0.96523492284E+02  0.96523492284E+02  0.00000000000E+00 0. -1.
          5    1    1    2  502    0 -0.11686881817E+02 -0.10166943796E+03  0.16738043534E+03  0.19623185357E+03  0.41800000000E+01 0.  1.
         -5    1    1    2    0  502 -0.33934189478E+02  0.32539209827E+02  0.63746298841E+02  0.79318298063E+02  0.41800000000E+01 0.  1.
        -11    1    1    2    0    0  0.23955414143E+02  0.54782270274E+02  0.28772369223E+02  0.66353660290E+02  0.00000000000E+00 0.  1.
         11    1    1    2    0    0  0.21665657152E+02  0.14347957861E+02 -0.52480563664E+02  0.58561712382E+02  0.00000000000E+00 0. -1.
</event>
<event>
 6    1  0.8259171E-006  0.1090010E+03  0.7561462E-02  0.1262431E+00
          1   -1    0    0  501    0  0.00000000000E+00  0.00000000000E+00  0.20297731817E+03  0.20297731817E+03  0.00000000000E+00 0. -1.
         -1   -1    0    0    0  501 -0.00000000000E+00 -0.00000000000E+00 -0.63147523023E+02  0.63147523023E+02  0.00000000000E+00 0.  1.
          5    1    1    2  502    0  0.72392434629E+02 -0.25671989997E+02  0.21661718670E+02  0.79915068152E+02  0.41800000000E+01 0. -1.
         -5    1    1    2    0  502 -0.36833070467E+02  0.25917158305E+02  0.54387378021E+02  0.70737779599E+02  0.41800000000E+01 0. -1.
        -11    1    1    2    0    0 -0.61410035795E+02  0.18247253303E+02  0.37515926626E+02  0.74240147495E+02  0.00000000000E+00 0. -1.
         11    1    1    2    0    0  0.25850671633E+02 -0.18492421612E+02  0.26264771834E+02  0.41231845950E+02  0.00000000000E+00 0.  1.
</event>
<event>
 6    1  0.8259171E-006  0.1331821E+03  0.7561462E-02  0.1222809E+00
         -1   -1    0    0    0  501 -0.00000000000E+00  0.00000000000E+00  0.35733534925E+03  0.35733534925E+03  0.00000000000E+00 0.  1.
          1   -1    0    0  501    0  0.00000000000E+00 -0.00000000000E+00 -0.83290585049E+02  0.83290585049E+02  0.00000000000E+00 0. -1.
          5    1    1    2  502    0 -0.43324692202E+02  0.16989684219E+02  0.90350146303E+02  0.10171676195E+03  0.41800000000E+01 0. -1.
         -5    1    1    2    0  502  0.88829555697E+02  0.54303846284E+02  0.18631755207E+03  0.21347435513E+03  0.41800000000E+01 0. -1.
        -11    1    1    2    0    0 -0.65836196629E+01 -0.75958258751E+02 -0.25074942089E+02  0.80260537259E+02  0.00000000000E+00 0.  1.
         11    1    1    2    0    0 -0.38921243832E+02  0.46647282475E+01  0.22452007917E+02  0.45174279967E+02  0.00000000000E+00 0. -1.
</event>
<event>
 6    1  0.8259171E-006  0.1315842E+03  0.7561462E-02  0.1225124E+00
          1   -1    0    0  501    0  0.00000000000E+00  0.00000000000E+00  0.24695891287E+03  0.24695891287E+03  0.00000000000E+00 0. -1.
         -1   -1    0    0    0  501 -0.00000000000E+00 -0.00000000000E+00 -0.92635464172E+02  0.92635464172E+02  0.00000000000E+00 0.  1.
          5    1    1    2  502    0 -0.51386189568E+02  0.45111055287E+01  0.26239689733E+02  0.58024859058E+02  0.41800000000E+01 0. -1.
         -5    1    1    2    0  502  0.10109761898E+03  0.43432344742E+02  0.88560670277E+00  0.11011518438E+03  0.41800000000E+01 0.  1.
        -11    1    1    2    0    0  0.63170813845E+01  0.15454712781E+02 -0.22104083783E+01  0.16841602346E+02  0.00000000000E+00 0.  1.
         11    1    1    2    0    0 -0.56028510792E+02 -0.63398163052E+02  0.12940856064E+03  0.15461273126E+03  0.00000000000E+00 0. -1.
</event>
<event>
 6    1  0.8259171E-006  0.1249840E+03  0.7561462E-02  0.1235094E+00
          2   -1    0    0  501    0  0.00000000000E+00  0.00000000000E+00  0.39413741779E+03  0.39413741779E+03  0.00000000000E+00 0. -1.
         -2   -1    0    0    0  501 -0.00000000000E+00 -0.00000000000E+00 -0.40015837283E+02  0.40015837283E+02  0.00000000000E+00 0.  1.
          5    1    1    2  502    0 -0.61397547061E+02  0.22832164846E+02  0.95950151943E+02  0.11625347562E+03  0.41800000000E+01 0. -1.
         -5    1    1    2    0  502  0.18879526327E+02 -0.73243248156E+02  0.11501541488E+03  0.13772083348E+03  0.41800000000E+01 0. -1.
        -11    1    1    2    0    0 -0.22474029477E+01 -0.22720689057E+02  0.21646579663E+02  0.31461960243E+02  0.00000000000E+00 0.  1.
         11    1    1    2    0    0  0.44765423682E+02  0.73131772368E+02  0.12150943402E+03  0.14871698572E+03  0.00000000000E+00 0. -1.
</event>
<event>
 6    1  0.8259171E-006  0.1277443E+03  0.7561462E-02  0.1230842E+00
         -2   -1    0    0    0  501 -0.00000000000E+00  0.00000000000E+00  0.54540643751E+02  0.54540643751E+02  0.00000000000E+00 0. -1.
          2   -1    0    0  501    0  0.00000000000E+00 -0.00000000000E+00 -0.41936636645E+03  0.41936636645E+03  0.00000000000E+00 0.  1.
          5    1    1    2  502    0 -0.35589446168E+02 -0.16019022176E+02  0.46121844005E+01  0.39521669941E+02  0.41800000000E+01 0.  1.
         -5    1    1    2    0  502  0.10246572077E+02  0.95321481280E+02 -0.99304972248E+02  0.13809463040E+03  0.41800000000E+01 0.  1.
        -11    1    1    2    0    0  0.61676659716E+01  0.19074523089E+02 -0.30015436050E+02  0.36094375405E+02  0.00000000000E+00 0. -1.
         11    1    1    2    0    0  0.19175208120E+02 -0.98376982193E+02 -0.24011749880E+03  0.26019633445E+03  0.00000000000E+00 0.  1.
</event>
<event>
 6    1  0.8259171E-006  0.9178063E+02  0.7561462E-02  0.1298596E+00
          4   -1    0    0  501    0  0.00000000000E+00  0.00000000000E+00  0.43320203710E+03  0.43320203710E+03  0.00000000000E+00 0. -1.
         -4   -1    0    0    0  501 -0.00000000000E+00 -0.00000000000E+00 -0.34272190778E+02  0.34272190778E+02  0.00000000000E+00 0.  1.
          5    1    1    2  502    0  0.25513960689E+02  0.77409925002E+00  0.19374025615E+03  0.19545925579E+03  0.41800000000E+01 0. -1.
         -5    1    1    2    0  502 -0.14923402248E+02 -0.56353233157E+02  0.26738371719E+02  0.64271360217E+02  0.41800000000E+01 0. -1.
        -11    1    1    2    0    0 -0.15855200041E+02  0.76269711931E+02  0.10186842328E+03  0.12824052397E+03  0.00000000000E+00 0.  1.
         11    1    1    2    0    0  0.52646415994E+01 -0.20690578023E+02  0.76582795176E+02  0.79503087909E+02  0.00000000000E+00 0. -1.
</event>
<event>
 6    1  0.8259171E-006  0.3595725E+03  0.7561462E-02  0.1058753E+00
         -1   -1    0    0    0  501 -0.00000000000E+00  0.00000000000E+00  0.15680851628E+03  0.15680851628E+03  0.00000000000E+00 0.  1.
          1   -1    0    0  501    0  0.00000000000E+00 -0.00000000000E+00 -0.13973425707E+04  0.13973425707E+04  0.00000000000E+00 0. -1.
          5    1    1    2  502    0 -0.20023715508E+02  0.95638845752E+01 -0.18574222381E+02  0.29238522671E+02  0.41800000000E+01 0. -1.
         -5    1    1    2    0  502 -0.23052874731E+03 -0.25454517525E+03 -0.11811275047E+03  0.36318706448E+03  0.41800000000E+01 0.  1.
        -11    1    1    2    0    0  0.14282299339E+03  0.16912405109E+03 -0.80977159548E+03  0.83948281039E+03  0.00000000000E+00 0. -1.
         11    1    1    2    0    0  0.10772946942E+03  0.75857239583E+02 -0.29407548606E+03  0.32224268942E+03  0.00000000000E+00 0.  1.
</event>
<event>
 6    1  0.8259171E-006  0.5313543E+02  0.7561462E-02  0.1429128E+00
          3   -1    0    0  501    0  0.00000000000E+00  0.00000000000E+00  0.42173059660E+02  0.42173059660E+02  0.00000000000E+00 0. -1.
         -3   -1    0    0    0  501 -0.00000000000E+00 -0.00000000000E+00 -0.29785294707E+03  0.29785294707E+03  0.00000000000E+00 0.  1.
          5    1    1    2  502    0  0.55482896927E+01  0.16671622461E+02 -0.20488619275E+03  0.20568070131E+03  0.41800000000E+01 0. -1.
         -5    1    1    2    0  502 -0.55204167610E+01 -0.23766139099E+02  0.94101414324E+01  0.26482589199E+02  0.41800000000E+01 0. -1.
        -11    1    1    2    0    0 -0.22311767775E+02 -0.18882964493E+02 -0.66883117597E+02  0.72991319681E+02  0.00000000000E+00 0.  1.
         11    1    1    2    0    0  0.22283894844E+02  0.25977481132E+02  0.66792814985E+01  0.34871396541E+02  0.00000000000E+00 0. -1.
</event>
<event>
 6    1  0.8259171E-006  0.1250715E+03  0.7561462E-02  0.1234958E+00
         -1   -1    0    0    0  501 -0.00000000000E+00  0.00000000000E+00  0.32032414126E+02  0.32032414126E+02  0.00000000000E+00 0. -1.
          1   -1    0    0  501    0  0.00000000000E+00 -0.00000000000E+00 -0.55291038858E+03  0.55291038858E+03  0.00000000000E+00 0.  1.
          5    1    1    2  502    0  0.97037143429E+02  0.49845955775E+02 -0.24822527690E+03  0.27117169285E+03  0.41800000000E+01 0. -1.
         -5    1    1    2    0  502 -0.26974680814E+02 -0.18510294816E+02 -0.36789639914E+02  0.49408647262E+02  0.41800000000E+01 0. -1.
        -11    1    1    2    0    0 -0.20566639158E+02 -0.50800258969E+02 -0.62999810926E+02  0.83502270234E+02  0.00000000000E+00 0. -1.
         11    1    1    2    0    0 -0.49495823457E+02  0.19464598010E+02 -0.17286324671E+03  0.18086019236E+03  0.00000000000E+00 0.  1.
</event>
<event>
 6    1  0.8259171E-006  0.1030350E+03  0.7561462E-02  0.1274040E+00
          2   -1    0    0  501    0  0.00000000000E+00  0.00000000000E+00  0.36620377307E+03  0.36620377307E+03  0.00000000000E+00 0. -1.
         -2   -1    0    0    0  501 -0.00000000000E+00 -0.00000000000E+00 -0.38185407872E+02  0.38185407872E+02  0.00000000000E+00 0.  1.
          5    1    1    2  502    0 -0.50716878895E+01 -0.30107843408E+02  0.25585463241E+01  0.30922852586E+02  0.41800000000E+01 0. -1.
         -5    1    1    2    0  502  0.52740237907E+02  0.54387318820E+02  0.19231675353E+03  0.20674312378E+03  0.41800000000E+01 0. -1.
        -11    1    1    2    0    0  0.18672668285E+02  0.13492987994E+02  0.21760336979E+02  0.31689770137E+02  0.00000000000E+00 0.  1.
         11    1    1    2    0    0 -0.66341218303E+02 -0.37772463405E+02  0.11138272836E+03  0.13503343443E+03  0.00000000000E+00 0. -1.
</event>
<event>
 6    1  0.8259171E-006  0.1785014E+03  0.7561462E-02  0.1169261E+00
          1   -1    0    0  501    0  0.00000000000E+00  0.00000000000E+00  0.29708418407E+02  0.29708418407E+02  0.00000000000E+00 0. -1.
         -1   -1    0    0    0  501 -0.00000000000E+00 -0.00000000000E+00 -0.13164529216E+04  0.13164529216E+04  0.00000000000E+00 0.  1.
          5    1    1    2  502    0 -0.11648127947E+03  0.55176998121E+02 -0.57995630934E+03  0.59412051196E+03  0.41800000000E+01 0.  1.
         -5    1    1    2    0  502 -0.33442837749E+02 -0.56859171634E+02 -0.32844246782E+03  0.33502733599E+03  0.41800000000E+01 0.  1.
        -11    1    1    2    0    0  0.10680044453E+03  0.29290890376E+02 -0.32373120570E+03  0.34214936030E+03  0.00000000000E+00 0.  1.
         11    1    1    2    0    0  0.43123672693E+02 -0.27608716863E+02 -0.54614520375E+02  0.74864131793E+02  0.00000000000E+00 0. -1.
</event>
<event>
 6    1  0.8259171E-006  0.1023260E+03  0.7561462E-02  0.1275479E+00
         -1   -1    0    0    0  501 -0.00000000000E+00  0.00000000000E+00  0.59464579152E+02  0.59464579152E+02  0.00000000000E+00 0.  1.
          1   -1    0    0  501    0  0.00000000000E+00 -0.00000000000E+00 -0.26126372475E+03  0.26126372475E+03  0.00000000000E+00 0. -1.
          5    1    1    2  502    0  0.53670051498E+02  0.19151953527E+02 -0.64292533612E+02  0.86013220088E+02  0.41800000000E+01 0. -1.
         -5    1    1    2    0  502 -0.58233001899E+02  0.36185630721E+02 -0.11399643526E+02  0.69626910411E+02  0.41800000000E+01 0.  1.
        -11    1    1    2    0    0 -0.23919368735E+02 -0.11478794489E+02  0.21115455352E+01  0.26614987284E+02  0.00000000000E+00 0.  1.
         11    1    1    2    0    0  0.28482319136E+02 -0.43858789759E+02 -0.12821851399E+03  0.13847318611E+03  0.00000000000E+00 0. -1.
</event>
<event>
 6    1  0.8259171E-006  0.1165332E+03  0.7561462E-02  0.1248928E+00
         -1   -1    0    0    0  501 -0.00000000000E+00  0.00000000000E+00  0.39264111616E+02  0.39264111616E+02  0.00000000000E+00 0.  1.
          1   -1    0    0  501    0  0.00000000000E+00 -0.00000000000E+00 -0.39641764746E+03  0.39641764746E+03  0.00000000000E+00 0. -1.
          5    1    1    2  502    0 -0.10124842392E+02 -0.94912828553E+02 -0.13848107276E+03  0.16824219854E+03  0.41800000000E+01 0. -1.
         -5    1    1    2    0  502 -0.10129777945E+02  0.39094963654E+02 -0.34088681146E+02  0.53014518451E+02  0.41800000000E+01 0. -1.
        -11    1    1    2    0    0 -0.10474077484E+01 -0.19051894712E+02 -0.66445868356E+01  0.20204511608E+02  0.00000000000E+00 0.  1.
         11    1    1    2    0    0  0.21302028085E+02  0.74869759611E+02 -0.17793919510E+03  0.19422053047E+03  0.00000000000E+00 0. -1.
</event>
<event>
 6    1  0.8259171E-006  0.1116636E+03  0.7561462E-02  0.1257520E+00
          2   -1    0    0  501    0  0.00000000000E+00  0.00000000000E+00  0.20442349122E+03  0.20442349122E+03  0.00000000000E+00 0. -1.
         -2   -1    0    0    0  501 -0.00000000000E+00 -0.00000000000E+00 -0.78412214002E+02  0.78412214002E+02  0.00000000000E+00 0.  1.
          5    1    1    2  502    0 -0.32309980335E+02 -0.42688366945E+02 -0.10977990495E+02  0.54810766980E+02  0.41800000000E+01 0. -1.
         -5    1    1    2    0  502  0.57521581766E+02 -0.16170243798E+02  0.85092685083E+02  0.10405982226E+03  0.41800000000E+01 0. -1.
        -11    1    1    2    0    0  0.31536764820E+02  0.58497881930E+01  0.30378745860E+01  0.32218259407E+02  0.00000000000E+00 0.  1.
         11    1    1    2    0    0 -0.56748366251E+02  0.53008822549E+02  0.48858708039E+02  0.91746856575E+02  0.00000000000E+00 0. -1.
</event>
<event>
 6    1  0.8259171E-006  0.9926276E+02  0.7561462E-02  0.1281854E+00
         -1   -1    0    0    0  501 -0.00000000000E+00  0.00000000000E+00  0.19455652810E+03  0.19455652810E+03  0.00000000000E+00 0.  1.
          1   -1    0    0  501    0  0.00000000000E+00 -0.00000000000E+00 -0.10236014997E+03  0.10236014997E+03  0.00000000000E+00 0. -1.
          5    1    1    2  502    0 -0.51132985145E+02 -0.64711225967E+01  0.19496191184E+02  0.55263292231E+02  0.41800000000E+01 0. -1.
         -5    1    1    2    0  502  0.49902123588E+02  0.27778151727E+02  0.12217733342E+03  0.13493191192E+03  0.41800000000E+01 0. -1.
        -11    1    1    2    0    0 -0.42857520996E+02 -0.92798768248E+01 -0.71464494048E+01  0.44429212900E+02  0.00000000000E+00 0. -1.
         11    1    1    2    0    0  0.44088382553E+02 -0.12027152306E+02 -0.42330697065E+02  0.62292261018E+02  0.00000000000E+00 0.  1.
</event>
<event>
 6    1  0.8259171E-006  0.1367019E+03  0.7561462E-02  0.1217837E+00
          1   -1    0    0  501    0  0.00000000000E+00  0.00000000000E+00  0.62989873080E+03  0.62989873080E+03  0.00000000000E+00 0. -1.
         -1   -1    0    0    0  501 -0.00000000000E+00 -0.00000000000E+00 -0.37811621641E+02  0.37811621641E+02  0.00000000000E+00 0.  1.
          5    1    1    2  502    0 -0.90177337963E+01 -0.27099953887E+02  0.19219641113E+02  0.34678437508E+02  0.41800000000E+01 0. -1.
         -5    1    1    2    0  502  0.11676624385E+03  0.45284261799E+02  0.30136839125E+03  0.32638229075E+03  0.41800000000E+01 0. -1.
        -11    1    1    2    0    0 -0.31396729054E+02  0.16386017730E+02  0.18147386575E+02  0.39794268581E+02  0.00000000000E+00 0.  1.
         11    1    1    2    0    0 -0.76351781000E+02 -0.34570325642E+02  0.25335169022E+03  0.26685535560E+03  0.00000000000E+00 0. -1.
</event>
<event>
 6    1  0.8259171E-006  0.1845415E+03  0.7561462E-02  0.1163479E+00
         -1   -1    0    0    0  501 -0.00000000000E+00  0.00000000000E+00  0.15680272485E+03  0.15680272485E+03  0.00000000000E+00 0.  1.
          1   -1    0    0  501    0  0.00000000000E+00 -0.00000000000E+00 -0.22827095138E+03  0.22827095138E+03  0.00000000000E+00 0. -1.
          5    1    1    2  502    0  0.41450671369E+02 -0.11808545536E+02 -0.27581868625E+02  0.51340352369E+02  0.41800000000E+01 0. -1.
         -5    1    1    2    0  502  0.30961968723E+02  0.14802819070E+03 -0.17246065984E+02  0.15226912997E+03  0.41800000000E+01 0. -1.
        -11    1    1    2    0    0 -0.33005787204E+02 -0.13057583551E+03 -0.38228253870E+02  0.14000296497E+03  0.00000000000E+00 0. -1.
         11    1    1    2    0    0 -0.39406852887E+02 -0.56438096609E+01  0.11587961949E+02  0.41461228926E+02  0.00000000000E+00 0.  1.
</event>
<event>
 6    1  0.9492904E-006  0.1098365E+03  0.7561462E-02  0.1260873E+00
         -1   -1    0    0    0  501 -0.00000000000E+00  0.00000000000E+00  0.76392235184E+02  0.76392235184E+02  0.00000000000E+00 0.  1.
          1   -1    0    0  501    0  0.00000000000E+00 -0.00000000000E+00 -0.26632236601E+03  0.26632236601E+03  0.00000000000E+00 0. -1.
          5    1    1    2  502    0  0.53257182800E+02  0.90809003185E+02 -0.11588543382E+03  0.15661899231E+03  0.41800000000E+01 0.  1.
         -5    1    1    2    0  502 -0.20462978523E+02 -0.46784275847E+01  0.17190100197E+02  0.27451650579E+02  0.41800000000E+01 0.  1.
        -11    1    1    2    0    0 -0.12926813962E+02 -0.19597672440E+02  0.17741285417E+02  0.29426594987E+02  0.00000000000E+00 0.  1.
         11    1    1    2    0    0 -0.19867390314E+02 -0.66532903160E+02 -0.10897608262E+03  0.12921736333E+03  0.00000000000E+00 0. -1.
</event>
<event>
 6    1  0.8259171E-006  0.1283696E+03  0.7561462E-02  0.1229895E+00
          1   -1    0    0  501    0  0.00000000000E+00  0.00000000000E+00  0.23172704842E+02  0.23172704842E+02  0.00000000000E+00 0. -1.
         -1   -1    0    0    0  501 -0.00000000000E+00 -0.00000000000E+00 -0.15620326361E+04  0.15620326361E+04  0.00000000000E+00 0.  1.
          5    1    1    2  502    0 -0.84548317741E+02  0.67797760815E+02 -0.66583940073E+03  0.67461435974E+03  0.41800000000E+01 0.  1.
         -5    1    1    2    0  502 -0.10599206692E+02 -0.34845435847E+02 -0.64204428444E+03  0.64309010501E+03  0.41800000000E+01 0.  1.
        -11    1    1    2    0    0  0.49188528718E+02 -0.42121192726E+02 -0.20263860139E+03  0.21273483262E+03  0.00000000000E+00 0.  1.
         11    1    1    2    0    0  0.45958995715E+02  0.91688677582E+01 -0.28337644722E+02  0.54766043599E+02  0.00000000000E+00 0. -1.
</event>
<event>
 6    1  0.8259171E-006  0.1213978E+03  0.7561462E-02  0.1240809E+00
          1   -1    0    0  501    0  0.00000000000E+00  0.00000000000E+00  0.35021922378E+02  0.35021922378E+02  0.00000000000E+00 0. -1.
         -1   -1    0    0    0  501 -0.00000000000E+00 -0.00000000000E+00 -0.49342012980E+03  0.49342012980E+03  0.00000000000E+00 0.  1.
          5    1    1    2  502    0  0.66791424405E+02  0.26350032395E+02 -0.13887314892E+03  0.15639259085E+03  0.41800000000E+01 0.  1.
         -5    1    1    2    0  502 -0.55940657338E+02  0.45745819583E+02 -0.11589713701E+03  0.13664426779E+03  0.41800000000E+01 0.  1.
        -11    1    1    2    0    0  0.18666273754E+02 -0.65681422695E+02 -0.67675757336E+02  0.96137855157E+02  0.00000000000E+00 0. -1.
         11    1    1    2    0    0 -0.29517040821E+02 -0.64144292820E+01 -0.13595216416E+03  0.13926733839E+03  0.00000000000E+00 0.  1.
</event>
<event>
 6    1  0.8259171E-006  0.7516148E+02  0.7561462E-02  0.1343372E+00
         -3   -1    0    0    0  501 -0.00000000000E+00  0.00000000000E+00  0.65532800991E+02  0.65532800991E+02  0.00000000000E+00 0.  1.
          3   -1    0    0  501    0  0.00000000000E+00 -0.00000000000E+00 -0.11623393743E+03  0.11623393743E+03  0.00000000000E+00 0. -1.
          5    1    1    2  502    0  0.15312743813E+01  0.58575359829E+02 -0.58127193752E+02  0.82641760835E+02  0.41800000000E+01 0. -1.
         -5    1    1    2    0  502  0.17372289512E+02 -0.67054943177E+02  0.21728308850E+02  0.72716941993E+02  0.41800000000E+01 0.  1.
        -11    1    1    2    0    0 -0.71270896750E+01  0.75318044196E+01 -0.71840245226E+01  0.12614820387E+02  0.00000000000E+00 0.  1.
         11    1    1    2    0    0 -0.11776474218E+02  0.94777892803E+00 -0.71182270137E+01  0.13793215206E+02  0.00000000000E+00 0. -1.
</event>
<event>
 6    1  0.8259171E-006  0.1115042E+03  0.7561462E-02  0.1257810E+00
          2   -1    0    0  501    0  0.00000000000E+00  0.00000000000E+00  0.37631172328E+03  0.37631172328E+03  0.00000000000E+00 0. -1.
         -2   -1    0    0    0  501 -0.00000000000E+00 -0.00000000000E+00 -0.37560515044E+02  0.37560515044E+02  0.00000000000E+00 0.  1.
          5    1    1    2  502    0  0.26259292701E+02 -0.53691108588E+02  0.40915140635E+02  0.72552096646E+02  0.41800000000E+01 0.  1.
         -5    1    1    2    0  502  0.13635046106E+02  0.64580538137E+02  0.10444807369E+03  0.12362618204E+03  0.41800000000E+01 0.  1.
        -11    1    1    2    0    0  0.15094634026E+02 -0.34083795194E+02  0.49873141448E+02  0.62264623256E+02  0.00000000000E+00 0.  1.
         11    1    1    2    0    0 -0.54988972833E+02  0.23194365645E+02  0.14351485246E+03  0.15542933638E+03  0.00000000000E+00 0. -1.
</event>
<event>
 6    1  0.8259171E-006  0.1231345E+03  0.7561462E-02  0.1238014E+00
          2   -1    0    0  501    0  0.00000000000E+00  0.00000000000E+00  0.22678551038E+02  0.22678551038E+02  0.00000000000E+00 0. -1.
         -2   -1    0    0    0  501 -0.00000000000E+00 -0.00000000000E+00 -0.97871539156E+03  0.97871539156E+03  0.00000000000E+00 0.  1.
          5    1    1    2  502    0  0.78555514104E+02 -0.78942532386E+02 -0.39816231426E+03  0.41346534693E+03  0.41800000000E+01 0.  1.
         -5    1    1    2    0  502 -0.31884032777E+02  0.22323525523E+01 -0.28599817308E+03  0.28780896850E+03  0.41800000000E+01 0.  1.
        -11    1    1    2    0    0 -0.50317628210E+01  0.55738860189E+02 -0.55651425633E+02  0.78925410022E+02  0.00000000000E+00 0. -1.
         11    1    1    2    0    0 -0.41639718506E+02  0.20971319645E+02 -0.21622492756E+03  0.22119421715E+03  0.00000000000E+00 0.  1.
</event>
<event>
 6    1  0.8259171E-006  0.1391502E+03  0.7561462E-02  0.1214477E+00
         -1   -1    0    0    0  501 -0.00000000000E+00  0.00000000000E+00  0.37430038240E+03  0.37430038240E+03  0.00000000000E+00 0.  1.
          1   -1    0    0  501    0  0.00000000000E+00 -0.00000000000E+00 -0.13624033970E+03  0.13624033970E+03  0.00000000000E+00 0. -1.
          5    1    1    2  502    0 -0.58320634754E+01  0.29386556977E+02  0.10887047402E+03  0.11299484594E+03  0.41800000000E+01 0. -1.
         -5    1    1    2    0  502  0.72802372822E+02 -0.96858772439E+02  0.21018081954E+03  0.24264223991E+03  0.41800000000E+01 0. -1.
        -11    1    1    2    0    0 -0.21747724683E+02  0.77496075061E+02 -0.71413923283E+02  0.10760368775E+03  0.00000000000E+00 0. -1.
         11    1    1    2    0    0 -0.45222584664E+02 -0.10023859600E+02 -0.95773275737E+01  0.47299948504E+02  0.00000000000E+00 0.  1.
</event>
<event>
 6    1  0.8259171E-006  0.1529874E+03  0.7561462E-02  0.1196849E+00
         -2   -1    0    0    0  501 -0.00000000000E+00  0.00000000000E+00  0.34409844037E+03  0.34409844037E+03  0.00000000000E+00 0.  1.
          2   -1    0    0  501    0  0.00000000000E+00 -0.00000000000E+00 -0.80617494126E+02  0.80617494126E+02  0.00000000000E+00 0. -1.
          5    1    1    2  502    0  0.10134087982E+03 -0.81691316194E+02  0.62363695125E+02  0.14439580304E+03  0.41800000000E+01 0. -1.
         -5    1    1    2    0  502 -0.60988360856E+02  0.66891548294E+02  0.13395717807E+03  0.16172834430E+03  0.41800000000E+01 0.  1.
        -11    1    1    2    0    0 -0.29731175119E+02  0.44535377349E+02  0.11757855450E+02  0.54823259428E+02  0.00000000000E+00 0. -1.
         11    1    1    2    0    0 -0.10621343848E+02 -0.29735609448E+02  0.55402217599E+02  0.63768527733E+02  0.00000000000E+00 0.  1.
</event>
<event>
 6    1  0.8259171E-006  0.2215257E+03  0.7561462E-02  0.1132751E+00
         -1   -1    0    0    0  501 -0.00000000000E+00  0.00000000000E+00  0.12404279394E+03  0.12404279394E+03  0.00000000000E+00 0.  1.
          1   -1    0    0  501    0  0.00000000000E+00 -0.00000000000E+00 -0.43796268667E+03  0.43796268667E+03  0.00000000000E+00 0. -1.
          5    1    1    2  502    0  0.71773825496E+02  0.45111160494E+02 -0.84614881750E+02  0.11984844363E+03  0.41800000000E+01 0. -1.
         -5    1    1    2    0  502  0.13210691549E+03 -0.60691956036E+02 -0.42761964672E+02  0.15159752198E+03  0.41800000000E+01 0. -1.
        -11    1    1    2    0    0 -0.86907258898E+02  0.35860895001E+02 -0.40545099343E+02  0.10238545073E+03  0.00000000000E+00 0.  1.
         11    1    1    2    0    0 -0.11697348209E+03 -0.20280099459E+02 -0.14599794697E+03  0.18817406427E+03  0.00000000000E+00 0. -1.
</event>
<event>
 6    1  0.8259171E-006  0.1335098E+03  0.7561462E-02  0.1222339E+00
         -2   -1    0    0    0  501 -0.00000000000E+00  0.00000000000E+00  0.56033667898E+02  0.56033667898E+02  0.00000000000E+00 0.  1.
          2   -1    0    0  501    0  0.00000000000E+00 -0.00000000000E+00 -0.34133029189E+03  0.34133029189E+03  0.00000000000E+00 0. -1.
          5    1    1    2  502    0  0.30341914691E+02  0.63835715916E+02 -0.61399022855E+02  0.93717356029E+02  0.41800000000E+01 0.  1.
         -5    1    1    2    0  502 -0.80124330678E+02  0.57016196717E+01 -0.83556062683E+02  0.11598062271E+03  0.41800000000E+01 0.  1.
        -11    1    1    2    0    0 -0.20519828687E+02 -0.25872266837E+02 -0.75914747148E+02  0.82785786190E+02  0.00000000000E+00 0.  1.
         11    1    1    2    0    0  0.70302244674E+02 -0.43665068750E+02 -0.64426791308E+02  0.10488019486E+03  0.00000000000E+00 0. -1.
</event>
<event>
 6    1  0.8259171E-006  0.1831917E+03  0.7561462E-02  0.1164749E+00
          1   -1    0    0  501    0  0.00000000000E+00  0.00000000000E+00  0.11675634711E+03  0.11675634711E+03  0.00000000000E+00 0. -1.
         -1   -1    0    0    0  501 -0.00000000000E+00 -0.00000000000E+00 -0.29679828898E+03  0.29679828898E+03  0.00000000000E+00 0.  1.
          5    1    1    2  502    0 -0.25554826288E+02  0.14248363725E+03 -0.95630592918E+02  0.17354342031E+03  0.41800000000E+01 0.  1.
         -5    1    1    2    0  502  0.47776285251E+02  0.67717592500E+01 -0.11312212524E+02  0.49738000642E+02  0.41800000000E+01 0.  1.
        -11    1    1    2    0    0 -0.85203805829E+01 -0.15710837807E+03 -0.75120520423E+02  0.17435232127E+03  0.00000000000E+00 0.  1.
         11    1    1    2    0    0 -0.13701078380E+02  0.78529815691E+01  0.20213839961E+01  0.15920893868E+02  0.00000000000E+00 0. -1.
</event>
<event>
 6    1  0.8259171E-006  0.2408281E+03  0.7561462E-02  0.1119242E+00
          2   -1    0    0  501    0  0.00000000000E+00  0.00000000000E+00  0.15674997956E+04  0.15674997956E+04  0.00000000000E+00 0.  1.
         -2   -1    0    0    0  501 -0.00000000000E+00 -0.00000000000E+00 -0.42766510148E+02  0.42766510148E+02  0.00000000000E+00 0. -1.
          5    1    1    2  502    0 -0.69117905461E+02  0.11701645305E+03  0.27100282931E+03  0.30319983680E+03  0.41800000000E+01 0. -1.
         -5    1    1    2    0  502 -0.11446955169E+03 -0.11686430638E+01  0.23544299810E+03  0.26183109392E+03  0.41800000000E+01 0. -1.
        -11    1    1    2    0    0  0.11213108840E+03 -0.23837893337E+02  0.60877793470E+03  0.61947736030E+03  0.00000000000E+00 0.  1.
         11    1    1    2    0    0  0.71456368750E+02 -0.92009916650E+02  0.40950952335E+03  0.42575801473E+03  0.00000000000E+00 0. -1.
</event>
<event>
 6    1  0.8259171E-006  0.1264752E+03  0.7561462E-02  0.1232782E+00
          1   -1    0    0  501    0  0.00000000000E+00  0.00000000000E+00  0.67237668193E+02  0.67237668193E+02  0.00000000000E+00 0. -1.
         -1   -1    0    0    0  501 -0.00000000000E+00 -0.00000000000E+00 -0.37273185323E+03  0.37273185323E+03  0.00000000000E+00 0.  1.
          5    1    1    2  502    0  0.52446721252E+02  0.46887592330E+02 -0.19038909974E+03  0.20301375960E+03  0.41800000000E+01 0.  1.
         -5    1    1    2    0  502  0.53057122559E+02 -0.60145197419E+01 -0.30684173882E+01  0.53648115411E+02  0.41800000000E+01 0.  1.
        -11    1    1    2    0    0 -0.30818793944E+02 -0.44515117251E+02 -0.73202002864E+01  0.54634961849E+02  0.00000000000E+00 0. -1.
         11    1    1    2    0    0 -0.74685049866E+02  0.36420446625E+01 -0.10471646762E+03  0.12867268456E+03  0.00000000000E+00 0.  1.
</event>
<event>
 6    1  0.8259171E-006  0.1118519E+03  0.7561462E-02  0.1257178E+00
         -4   -1    0    0    0  501 -0.00000000000E+00  0.00000000000E+00  0.23606289918E+03  0.23606289918E+03  0.00000000000E+00 0.  1.
          4   -1    0    0  501    0  0.00000000000E+00 -0.00000000000E+00 -0.11147119493E+03  0.11147119493E+03  0.00000000000E+00 0. -1.
          5    1    1    2  502    0 -0.20506866423E+02 -0.29550092079E+02  0.70592007381E+02  0.79337528436E+02  0.41800000000E+01 0.  1.
         -5    1    1    2    0  502  0.83146841882E+02  0.60324509937E+02  0.10003746134E+03  0.14344828296E+03  0.41800000000E+01 0.  1.
        -11    1    1    2    0    0 -0.47607777455E+02 -0.43875990053E+02 -0.68809916315E+02  0.94479667445E+02  0.00000000000E+00 0. -1.
         11    1    1    2    0    0 -0.15032198005E+02  0.13101572195E+02  0.22772151844E+02  0.30268615271E+02  0.00000000000E+00 0.  1.
</event>
<event>
 6    1  0.8259171E-006  0.8884256E+02  0.7561462E-02  0.1305679E+00
          3   -1    0    0  501    0  0.00000000000E+00  0.00000000000E+00  0.81986162473E+02  0.81986162473E+02  0.00000000000E+00 0. -1.
         -3   -1    0    0    0  501 -0.00000000000E+00 -0.00000000000E+00 -0.16744013089E+03  0.16744013089E+03  0.00000000000E+00 0.  1.
          5    1    1    2  502    0  0.26391212488E+02  0.18116236592E+02 -0.86582517761E+02  0.92405080524E+02  0.41800000000E+01 0.  1.
         -5    1    1    2    0  502 -0.50271051828E+02  0.13674537470E+02  0.18509274773E+02  0.55445804887E+02  0.41800000000E+01 0.  1.
        -11    1    1    2    0    0 -0.11218975003E+02 -0.51619628373E+02 -0.28138951475E+02  0.59851917460E+02  0.00000000000E+00 0.  1.
         11    1    1    2    0    0  0.35098814343E+02  0.19828854311E+02  0.10758226042E+02  0.41723490496E+02  0.00000000000E+00 0. -1.
</event>
<event>
 6    1  0.8259171E-006  0.1985845E+03  0.7561462E-02  0.1150939E+00
         -2   -1    0    0    0  501 -0.00000000000E+00  0.00000000000E+00  0.38206203935E+02  0.38206203935E+02  0.00000000000E+00 0.  1.
          2   -1    0    0  501    0  0.00000000000E+00 -0.00000000000E+00 -0.12383570681E+04  0.12383570681E+04  0.00000000000E+00 0. -1.
          5    1    1    2  502    0 -0.25684408872E+01 -0.19715998707E+02 -0.99068661516E+02  0.10113055714E+03  0.41800000000E+01 0.  1.
         -5    1    1    2    0  502 -0.13568217066E+03  0.13897461249E+03 -0.39141632341E+03  0.43697574874E+03  0.41800000000E+01 0.  1.
        -11    1    1    2    0    0  0.82436132818E+02 -0.70953639676E+02 -0.57201089916E+03  0.58225991081E+03  0.00000000000E+00 0. -1.
         11    1    1    2    0    0  0.55814478731E+02 -0.48304974107E+02 -0.13765498011E+03  0.15619705537E+03  0.00000000000E+00 0.  1.
</event>
<event>
 6    1  0.8259171E-006  0.1199398E+03  0.7561462E-02  0.1243196E+00
          2   -1    0    0  501    0  0.00000000000E+00  0.00000000000E+00  0.13299623774E+03  0.13299623774E+03  0.00000000000E+00 0. -1.
         -2   -1    0    0    0  501 -0.00000000000E+00 -0.00000000000E+00 -0.15804686116E+03  0.15804686116E+03  0.00000000000E+00 0.  1.
          5    1    1    2  502    0  0.36855315362E+02 -0.11931068279E+02  0.41258777510E+02  0.56748777805E+02  0.41800000000E+01 0. -1.
         -5    1    1    2    0  502  0.39740329842E+02  0.65445265814E+02 -0.66325344061E+02  0.10138491159E+03  0.41800000000E+01 0. -1.
        -11    1    1    2    0    0 -0.13779707232E+02 -0.59556964987E+02 -0.23602424104E+02  0.65528519237E+02  0.00000000000E+00 0.  1.
         11    1    1    2    0    0 -0.62815937973E+02  0.60427674524E+01  0.23618367236E+02  0.67380890264E+02  0.00000000000E+00 0. -1.
</event>
<event>
 6    1  0.8259171E-006  0.1059096E+03  0.7561462E-02  0.1268338E+00
          2   -1    0    0  501    0  0.00000000000E+00  0.00000000000E+00  0.12195717937E+03  0.12195717937E+03  0.00000000000E+00 0. -1.
         -2   -1    0    0    0  501 -0.00000000000E+00 -0.00000000000E+00 -0.11216101895E+03  0.11216101895E+03  0.00000000000E+00 0.  1.
          5    1    1    2  502    0  0.66722825496E+02  0.24811141024E+02 -0.17236656550E+02  0.73362816808E+02  0.41800000000E+01 0. -1.
         -5    1    1    2    0  502 -0.40253583112E+02 -0.40749014230E+02 -0.90857349982E+01  0.58145129586E+02  0.41800000000E+01 0. -1.
        -11    1    1    2    0    0 -0.14689153706E+02  0.47325982927E+02  0.46047160087E+02  0.67645109569E+02  0.00000000000E+00 0. -1.
         11    1    1    2    0    0 -0.11780088678E+02 -0.31388109720E+02 -0.99286081203E+01  0.34965142360E+02  0.00000000000E+00 0.  1.
</event>
<event>
 6    1  0.8259171E-006  0.1092389E+03  0.7561462E-02  0.1261986E+00
          1   -1    0    0  501    0  0.00000000000E+00  0.00000000000E+00  0.16160484654E+03  0.16160484654E+03  0.00000000000E+00 0. -1.
         -1   -1    0    0    0  501 -0.00000000000E+00 -0.00000000000E+00 -0.12970511535E+03  0.12970511535E+03  0.00000000000E+00 0.  1.
          5    1    1    2  502    0  0.24063731011E+02 -0.71617710899E+02 -0.72680930477E+02  0.10491972989E+03  0.41800000000E+01 0.  1.
         -5    1    1    2    0  502  0.30488229174E+02  0.22890429165E+02  0.27130439566E+02  0.46979112556E+02  0.41800000000E+01 0.  1.
        -11    1    1    2    0    0 -0.16045407651E+01 -0.18675547845E+02  0.43232711407E+02  0.47121311251E+02  0.00000000000E+00 0. -1.
         11    1    1    2    0    0 -0.52947419419E+02  0.67402829579E+02  0.34217510697E+02  0.92289808195E+02  0.00000000000E+00 0.  1.
</event>
<event>
 6    1  0.8259171E-006  0.8163117E+02  0.7561462E-02  0.1324485E+00
         -1   -1    0    0    0  501 -0.00000000000E+00  0.00000000000E+00  0.12484205808E+03  0.12484205808E+03  0.00000000000E+00 0.  1.
          1   -1    0    0  501    0  0.00000000000E+00 -0.00000000000E+00 -0.10972196282E+03  0.10972196282E+03  0.00000000000E+00 0. -1.
          5    1    1    2  502    0 -0.28228922826E+02 -0.27390663936E+02  0.69754486630E+02  0.80189035159E+02  0.41800000000E+01 0.  1.
         -5    1    1    2    0  502  0.17715061901E+02  0.46666535701E+02 -0.23034627315E+02  0.55133070185E+02  0.41800000000E+01 0.  1.
        -11    1    1    2    0    0  0.33858486083E+02  0.10804524413E+02  0.15417389128E+02  0.38740556464E+02  0.00000000000E+00 0.  1.
         11    1    1    2    0    0 -0.23344625158E+02 -0.30080396178E+02 -0.47017153188E+02  0.60501359091E+02  0.00000000000E+00 0. -1.
</event>
<event>
 6    1  0.8259171E-006  0.1207293E+03  0.7561462E-02  0.1241899E+00
         -1   -1    0    0    0  501 -0.00000000000E+00  0.00000000000E+00  0.62538599115E+02  0.62538599115E+02  0.00000000000E+00 0.  1.
          1   -1    0    0  501    0  0.00000000000E+00 -0.00000000000E+00 -0.23392042988E+03  0.23392042988E+03  0.00000000000E+00 0. -1.
          5    1    1    2  502    0  0.33032412419E+02 -0.30659321284E+02 -0.36637154081E+02  0.58231329291E+02  0.41800000000E+01 0. -1.
         -5    1    1    2    0  502 -0.84269975934E+02  0.40375614609E+02 -0.70394470972E+02  0.11706610544E+03  0.41800000000E+01 0.  1.
        -11    1    1    2    0    0  0.32394946597E+02  0.38839954336E+02 -0.31701787154E+02  0.59690685426E+02  0.00000000000E+00 0.  1.
         11    1    1    2    0    0  0.18842616917E+02 -0.48556247660E+02 -0.32648418554E+02  0.61470908837E+02  0.00000000000E+00 0. -1.
</event>
<event>
 6    1  0.8259171E-006  0.6208096E+02  0.7561462E-02  0.1389301E+00
          1   -1    0    0  501    0  0.00000000000E+00  0.00000000000E+00  0.63221557238E+02  0.63221557238E+02  0.00000000000E+00 0. -1.
         -1   -1    0    0    0  501 -0.00000000000E+00 -0.00000000000E+00 -0.21038388537E+03  0.21038388537E+03  0.00000000000E+00 0.  1.
          5    1    1    2  502    0  0.41313622485E+01  0.13856312898E+01 -0.12958302267E+03  0.12972363043E+03  0.41800000000E+01 0. -1.
         -5    1    1    2    0  502  0.24825697898E+02 -0.22177114512E+02  0.21109920541E+02  0.39638880275E+02  0.41800000000E+01 0. -1.
        -11    1    1    2    0    0 -0.53722543571E+02  0.24913509348E+01  0.12700305690E+01  0.53795273909E+02  0.00000000000E+00 0. -1.
         11    1    1    2    0    0  0.24765483425E+02  0.18300132288E+02 -0.39959256567E+02  0.50447657987E+02  0.00000000000E+00 0.  1.
</event>
<event>
 6    1  0.8259171E-006  0.1519944E+03  0.7561462E-02  0.1198043E+00
          1   -1    0    0  501    0  0.00000000000E+00  0.00000000000E+00  0.78684967434E+03  0.78684967434E+03  0.00000000000E+00 0. -1.
         -1   -1    0    0    0  501 -0.00000000000E+00 -0.00000000000E+00 -0.39765102647E+02  0.39765102647E+02  0.00000000000E+00 0.  1.
          5    1    1    2  502    0 -0.44141277534E+01  0.13843917176E+03  0.22529252720E+03  0.26449779586E+03  0.41800000000E+01 0. -1.
         -5    1    1    2    0  502 -0.18770208314E+02 -0.19264462535E+02  0.11521948184E+02  0.29557874194E+02  0.41800000000E+01 0. -1.
        -11    1    1    2    0    0 -0.16619284552E+02 -0.51110604624E+01  0.15630714070E+02  0.23380393077E+02  0.00000000000E+00 0.  1.
         11    1    1    2    0    0  0.39803620619E+02 -0.11406364876E+03  0.49463938224E+03  0.50917871386E+03  0.00000000000E+00 0. -1.
</event>
<event>
 6    1  0.8259171E-006  0.8889568E+02  0.7561462E-02  0.1305548E+00
         -1   -1    0    0    0  501 -0.00000000000E+00  0.00000000000E+00  0.17607864016E+03  0.17607864016E+03  0.00000000000E+00 0.  1.
          1   -1    0    0  501    0  0.00000000000E+00 -0.00000000000E+00 -0.11942145033E+03  0.11942145033E+03  0.00000000000E+00 0. -1.
          5    1    1    2  502    0 -0.41320762387E+02 -0.29868370468E+02  0.65688703814E+02  0.83258652208E+02  0.41800000000E+01 0. -1.
         -5    1    1    2    0  502  0.65030050636E+02  0.30805548321E+02  0.41454133265E+02  0.83149304614E+02  0.41800000000E+01 0. -1.
        -11    1    1    2    0    0 -0.23800787304E+02 -0.22642394299E+02 -0.83416241965E+02  0.89651686651E+02  0.00000000000E+00 0. -1.
         11    1    1    2    0    0  0.91499054790E-01  0.21705216446E+02  0.32930594707E+02  0.39440447016E+02  0.00000000000E+00 0.  1.
</event>
<event>
 6    1  0.1474516E-005  0.3473020E+03  0.7561462E-02  0.1063728E+00
         -1   -1    0    0    0  501 -0.00000000000E+00  0.00000000000E+00  0.90879390176E+02  0.90879390176E+02  0.00000000000E+00 0.  1.
          1   -1    0    0  501    0  0.00000000000E+00 -0.00000000000E+00 -0.14709503375E+04  0.14709503375E+04  0.00000000000E+00 0. -1.
          5    1    1    2  502    0 -0.11923825707E+03 -0.12159916209E+03 -0.27452161860E+03  0.32308467876E+03  0.41800000000E+01 0.  1.
         -5    1    1    2    0  502 -0.17880312294E+03 -0.25619199048E+02 -0.19812211241E+03  0.26813568199E+03  0.41800000000E+01 0.  1.
        -11    1    1    2    0    0  0.20721638202E+03  0.55566724198E+02 -0.53209851970E+03  0.57372042362E+03  0.00000000000E+00 0.  1.
         11    1    1    2    0    0  0.90824997991E+02  0.91651636939E+02 -0.37532869665E+03  0.39688894334E+03  0.00000000000E+00 0. -1.
</event>
<event>
 6    1  0.8259171E-006  0.1321395E+03  0.7561462E-02  0.1224315E+00
          2   -1    0    0  501    0  0.00000000000E+00  0.00000000000E+00  0.53596041529E+03  0.53596041529E+03  0.00000000000E+00 0.  1.
         -2   -1    0    0    0  501 -0.00000000000E+00 -0.00000000000E+00 -0.40031899776E+02  0.40031899776E+02  0.00000000000E+00 0. -1.
          5    1    1    2  502    0 -0.25543146495E+01 -0.98773802672E+02  0.10265823501E+03  0.14254463944E+03  0.41800000000E+01 0.  1.
         -5    1    1    2    0  502 -0.30859540690E+02  0.33711524522E+02  0.42176548577E+02  0.62330664902E+02  0.41800000000E+01 0.  1.
        -11    1    1    2    0    0  0.53361240170E+02  0.78873051030E+02  0.26162413210E+03  0.27841617523E+03  0.00000000000E+00 0. -1.
         11    1    1    2    0    0 -0.19947384830E+02 -0.13810772880E+02  0.89469599816E+02  0.92700835489E+02  0.00000000000E+00 0.  1.
</event>
<event>
 6    1  0.8259171E-006  0.8876271E+02  0.7561462E-02  0.1305876E+00
          2   -1    0    0  501    0  0.00000000000E+00  0.00000000000E+00  0.46855213050E+03  0.46855213050E+03  0.00000000000E+00 0. -1.
         -2   -1    0    0    0  501 -0.00000000000E+00 -0.00000000000E+00 -0.27909610300E+02  0.27909610300E+02  0.00000000000E+00 0.  1.
          5    1    1    2  502    0  0.50354349501E+02  0.41673006238E+02  0.25668581766E+03  0.26490994951E+03  0.41800000000E+01 0. -1.
         -5    1    1    2    0  502 -0.31825709323E+02 -0.80664336432E+01  0.14542102677E+02  0.36150909752E+02  0.41800000000E+01 0. -1.
        -11    1    1    2    0    0 -0.40218863704E+02 -0.15767615067E+01  0.28616908735E+02  0.49385935650E+02  0.00000000000E+00 0.  1.
         11    1    1    2    0    0  0.21690223525E+02 -0.32029811089E+02  0.14079769113E+03  0.14601494589E+03  0.00000000000E+00 0. -1.
</event>
<event>
 6    1  0.8259171E-006  0.1246648E+03  0.7561462E-02  0.1235594E+00
          1   -1    0    0  501    0  0.00000000000E+00  0.00000000000E+00  0.22804432042E+03  0.22804432042E+03  0.00000000000E+00 0. -1.
         -1   -1    0    0    0  501 -0.00000000000E+00 -0.00000000000E+00 -0.94479225748E+02  0.94479225748E+02  0.00000000000E+00 0.  1.
          5    1    1    2  502    0  0.58176239202E+02  0.26396711375E+02  0.19858406970E+02  0.67030514741E+02  0.41800000000E+01 0. -1.
         -5    1    1    2    0  502  0.20594160073E+01 -0.83217549047E+02 -0.63462178754E+01  0.83589165237E+02  0.41800000000E+01 0. -1.
        -11    1    1    2    0    0 -0.45100863710E+02  0.20615931857E+01  0.74195963706E+01  0.45753562530E+02  0.00000000000E+00 0.  1.
         11    1    1    2    0    0 -0.15134791499E+02  0.54759244487E+02  0.11263330921E+03  0.12615030366E+03  0.00000000000E+00 0. -1.
</event>
<event>
 6    1  0.8259171E-006  0.8794293E+02  0.7561462E-02  0.1307911E+00
         -4   -1    0    0    0  501 -0.00000000000E+00  0.00000000000E+00  0.56034668596E+02  0.56034668596E+02  0.00000000000E+00 0.  1.
          4   -1    0    0  501    0  0.00000000000E+00 -0.00000000000E+00 -0.23753308940E+03  0.23753308940E+03  0.00000000000E+00 0. -1.
          5    1    1    2  502    0  0.13183555262E+02  0.84025403998E+01 -0.84729869782E+02  0.86261416912E+02  0.41800000000E+01 0. -1.
         -5    1    1    2    0  502 -0.56084655791E+02 -0.26596591377E+02  0.49938027420E+01  0.62412160305E+02  0.41800000000E+01 0.  1.
        -11    1    1    2    0    0  0.32808273195E+02  0.52402053143E+02 -0.40196497465E+02  0.73743585295E+02  0.00000000000E+00 0. -1.
         11    1    1    2    0    0  0.10092827334E+02 -0.34208002166E+02 -0.61565856297E+02  0.71150595482E+02  0.00000000000E+00 0.  1.
</event>
<event>
 6    1  0.8259171E-006  0.1165232E+03  0.7561462E-02  0.1248945E+00
         -2   -1    0    0    0  501 -0.00000000000E+00  0.00000000000E+00  0.43047965118E+02  0.43047965118E+02  0.00000000000E+00 0.  1.
          2   -1    0    0  501    0  0.00000000000E+00 -0.00000000000E+00 -0.64357853145E+03  0.64357853145E+03  0.00000000000E+00 0. -1.
          5    1    1    2  502    0 -0.29137926460E+02  0.29742604880E+02 -0.67443846736E+02  0.79371192292E+02  0.41800000000E+01 0.  1.
         -5    1    1    2    0  502  0.29010154900E+01 -0.83743093986E+02 -0.25702659073E+02  0.87746343312E+02  0.41800000000E+01 0.  1.
        -11    1    1    2    0    0 -0.22928093259E+02  0.53421820832E+02 -0.34432591492E+03  0.34919897493E+03  0.00000000000E+00 0. -1.
         11    1    1    2    0    0  0.49165004228E+02  0.57866827381E+00 -0.16305814560E+03  0.17030998604E+03  0.00000000000E+00 0.  1.
</event>
<event>
 6    1  0.8259171E-006  0.1078302E+03  0.7561462E-02  0.1264642E+00
          1   -1    0    0  501    0  0.00000000000E+00  0.00000000000E+00  0.29623993657E+03  0.29623993657E+03  0.00000000000E+00 0. -1.
         -1   -1    0    0    0  501 -0.00000000000E+00 -0.00000000000E+00 -0.44290459257E+02  0.44290459257E+02  0.00000000000E+00 0.  1.
          5    1    1    2  502    0  0.45117394917E+02 -0.95386923147E+01  0.88030757594E+02  0.99465836636E+02  0.41800000000E+01 0.  1.
         -5    1    1    2    0  502 -0.70083661202E+02 -0.15677808114E+02  0.36895723574E+02  0.80847263731E+02  0.41800000000E+01 0.  1.
        -11    1    1    2    0    0 -0.27583946537E+02  0.34378199926E+02  0.52067884329E+02  0.68218760728E+02  0.00000000000E+00 0.  1.
         11    1    1    2    0    0  0.52550212822E+02 -0.91616994976E+01  0.74955111815E+02  0.91998534731E+02  0.00000000000E+00 0. -1.
</event>
<event>
 6    1  0.8259171E-006  0.1384604E+03  0.7561462E-02  0.1215416E+00
          2   -1    0    0  501    0  0.00000000000E+00  0.00000000000E+00  0.50403658983E+03  0.50403658983E+03  0.00000000000E+00 0. -1.
         -2   -1    0    0    0  501 -0.00000000000E+00 -0.00000000000E+00 -0.51185758406E+02  0.51185758406E+02  0.00000000000E+00 0.  1.
          5    1    1    2  502    0 -0.27981543553E+02  0.68889494971E+01  0.27689492916E+01  0.29250023675E+02  0.41800000000E+01 0. -1.
         -5    1    1    2    0  502  0.10471621180E+03 -0.57780307115E+02  0.11173107880E+03  0.16372341089E+03  0.41800000000E+01 0. -1.
        -11    1    1    2    0    0 -0.50493674060E+02 -0.18629862563E+02  0.16759862378E+03  0.17602835451E+03  0.00000000000E+00 0. -1.
         11    1    1    2    0    0 -0.26240994184E+02  0.69521220181E+02  0.17075217955E+03  0.18622055916E+03  0.00000000000E+00 0.  1.
</event>
<event>
 6    1  0.8259171E-006  0.1474623E+03  0.7561462E-02  0.1203626E+00
         -2   -1    0    0    0  501 -0.00000000000E+00  0.00000000000E+00  0.39412575762E+03  0.39412575762E+03  0.00000000000E+00 0. -1.
          2   -1    0    0  501    0  0.00000000000E+00 -0.00000000000E+00 -0.63817210826E+02  0.63817210826E+02  0.00000000000E+00 0.  1.
          5    1    1    2  502    0  0.25462341049E+02  0.12105481226E+02  0.67827767671E+02  0.73572766393E+02  0.41800000000E+01 0.  1.
         -5    1    1    2    0  502 -0.11351204811E+03 -0.64874083525E+02  0.18398786272E+03  0.22574905937E+03  0.41800000000E+01 0.  1.
        -11    1    1    2    0    0  0.55832884534E+02 -0.17334546266E+02  0.19948589478E+02  0.61771706402E+02  0.00000000000E+00 0.  1.
         11    1    1    2    0    0  0.32216822528E+02  0.70103148565E+02  0.58544326930E+02  0.96849436283E+02  0.00000000000E+00 0. -1.
</event>
<event>
 6    1  0.8259171E-006  0.1172109E+03  0.7561462E-02  0.1247770E+00
         -1   -1    0    0    0  501 -0.00000000000E+00  0.00000000000E+00  0.32390808878E+03  0.32390808878E+03  0.00000000000E+00 0.  1.
          1   -1    0    0  501    0  0.00000000000E+00 -0.00000000000E+00 -0.81419961541E+02  0.81419961541E+02  0.00000000000E+00 0. -1.
          5    1    1    2  502    0 -0.21480064249E+02 -0.86443190503E+02  0.15110213862E+03  0.17545126685E+03  0.41800000000E+01 0. -1.
         -5    1    1    2    0  502  0.30924095346E+02  0.25885854777E+02  0.11227932392E+03  0.11937544191E+03  0.41800000000E+01 0.  1.
        -11    1    1    2    0    0  0.34827241965E+02  0.46821751042E+02  0.28446096183E+01  0.58423496621E+02  0.00000000000E+00 0.  1.
         11    1    1    2    0    0 -0.44271273062E+02  0.13735584683E+02 -0.23737944916E+02  0.52077844943E+02  0.00000000000E+00 0. -1.
</event>
<event>
 6    1  0.8259171E-006  0.1010933E+03  0.7561462E-02  0.1278013E+00
          1   -1    0    0  501    0  0.00000000000E+00  0.00000000000E+00  0.18395233074E+03  0.18395233074E+03  0.00000000000E+00 0. -1.
         -1   -1    0    0    0  501 -0.00000000000E+00 -0.00000000000E+00 -0.89185678679E+02  0.89185678679E+02  0.00000000000E+00 0.  1.
          5    1    1    2  502    0 -0.87582029710E+02  0.11778024245E+01  0.15367517610E+02  0.89026019478E+02  0.41800000000E+01 0.  1.
         -5    1    1    2    0  502  0.36958376452E+02 -0.35761081703E+02  0.73381281347E+01  0.52116188263E+02  0.41800000000E+01 0.  1.
        -11    1    1    2    0    0  0.42635837328E+02  0.21952624803E+02 -0.96606545237E+01  0.48918918695E+02  0.00000000000E+00 0.  1.
         11    1    1    2    0    0  0.79878159298E+01  0.12630654475E+02  0.81721660844E+02  0.83076882987E+02  0.00000000000E+00 0. -1.
</event>
<event>
 6    1  0.8259171E-006  0.1054273E+03  0.7561462E-02  0.1269280E+00
         -3   -1    0    0    0  501 -0.00000000000E+00  0.00000000000E+00  0.60134506048E+02  0.60134506048E+02  0.00000000000E+00 0.  1.
          3   -1    0    0  501    0  0.00000000000E+00 -0.00000000000E+00 -0.26072274506E+03  0.26072274506E+03  0.00000000000E+00 0. -1.
          5    1    1    2  502    0 -0.45190329158E+02  0.19055442226E+02 -0.75193554044E+01  0.49792457597E+02  0.41800000000E+01 0.  1.
         -5    1    1    2    0  502  0.70894390047E+02 -0.32557932492E+02 -0.33587635456E+02  0.85039021418E+02  0.41800000000E+01 0.  1.
        -11    1    1    2    0    0 -0.50728680524E+02 -0.69324089639E+01 -0.13809402289E+03  0.14728006138E+03  0.00000000000E+00 0. -1.
         11    1    1    2    0    0  0.25024619635E+02  0.20434899230E+02 -0.21387225260E+02  0.38745710714E+02  0.00000000000E+00 0.  1.
</event>
<event>
 6    1  0.8259171E-006  0.1151084E+03  0.7561462E-02  0.1251392E+00
         -2   -1    0    0    0  501 -0.00000000000E+00  0.00000000000E+00  0.25011591007E+03  0.25011591007E+03  0.00000000000E+00 0.  1.
          2   -1    0    0  501    0  0.00000000000E+00 -0.00000000000E+00 -0.90164252070E+02  0.90164252070E+02  0.00000000000E+00 0. -1.
          5    1    1    2  502    0 -0.64137702840E+02 -0.39750925530E+00  0.10974504231E+03  0.12718195489E+03  0.41800000000E+01 0. -1.
         -5    1    1    2    0  502  0.20727222357E+02  0.73972764978E+02  0.43908177138E+02  0.88583227107E+02  0.41800000000E+01 0. -1.
        -11    1    1    2    0    0  0.45823187889E+02 -0.61510702553E+02 -0.32877747351E+02  0.83452245912E+02  0.00000000000E+00 0. -1.
         11    1    1    2    0    0 -0.24127074063E+01 -0.12064553170E+02  0.39176185900E+02  0.41062734223E+02  0.00000000000E+00 0.  1.
</event>
<event>
 6    1  0.8259171E-006  0.1129677E+03  0.7561462E-02  0.1255171E+00
          1   -1    0    0  501    0  0.00000000000E+00  0.00000000000E+00  0.13327408704E+03  0.13327408704E+03  0.00000000000E+00 0. -1.
         -1   -1    0    0    0  501 -0.00000000000E+00 -0.00000000000E+00 -0.10507179516E+03  0.10507179516E+03  0.00000000000E+00 0.  1.
          5    1    1    2  502    0  0.19111603919E+02  0.43806320474E+02  0.69304429986E+01  0.48474225708E+02  0.41800000000E+01 0.  1.
         -5    1    1    2    0  502 -0.27193207848E+00 -0.84733905610E+02  0.39753359910E+01  0.84930468050E+02  0.41800000000E+01 0.  1.
        -11    1    1    2    0    0  0.27880767337E+02 -0.41647543890E+01 -0.15528448882E+02  0.32184081331E+02  0.00000000000E+00 0.  1.
         11    1    1    2    0    0 -0.46720439178E+02  0.45092339525E+02  0.32824961772E+02  0.72757107117E+02  0.00000000000E+00 0. -1.
</event>
<event>
 6    1  0.8259171E-006  0.1019047E+03  0.7561462E-02  0.1276341E+00
         -3   -1    0    0    0  501 -0.00000000000E+00  0.00000000000E+00  0.18634923990E+03  0.18634923990E+03  0.00000000000E+00 0.  1.
          3   -1    0    0  501    0  0.00000000000E+00 -0.00000000000E+00 -0.87803052373E+02  0.87803052373E+02  0.00000000000E+00 0. -1.
          5    1    1    2  502    0  0.49367741367E+02 -0.25906862968E+02  0.33457652374E+02  0.65155401456E+02  0.41800000000E+01 0.  1.
         -5    1    1    2    0  502 -0.73422767015E+02 -0.91819774128E+01  0.79333261264E+02  0.10856541884E+03  0.41800000000E+01 0.  1.
        -11    1    1    2    0    0  0.40450000315E+02  0.39781729563E+02  0.21623653857E+02  0.60715491751E+02  0.00000000000E+00 0.  1.
         11    1    1    2    0    0 -0.16394974667E+02 -0.46928891823E+01 -0.35868379971E+02  0.39715980221E+02  0.00000000000E+00 0. -1.
</event>
<event>
 6    1  0.8259171E-006  0.1354968E+03  0.7561462E-02  0.1219520E+00
          1   -1    0    0  501    0  0.00000000000E+00  0.00000000000E+00  0.22267768943E+03  0.22267768943E+03  0.00000000000E+00 0. -1.
         -1   -1    0    0    0  501 -0.00000000000E+00 -0.00000000000E+00 -0.10353823121E+03  0.10353823121E+03  0.00000000000E+00 0.  1.
          5    1    1    2  502    0  0.72195377460E+02 -0.26012359712E+02  0.48009599759E+02  0.90615724096E+02  0.41800000000E+01 0.  1.
         -5    1    1    2    0  502  0.19912798770E+02  0.71599621769E+02 -0.12189623336E+02  0.75426021434E+02  0.41800000000E+01 0.  1.
        -11    1    1    2    0    0 -0.31822646966E+02  0.14159089733E+02 -0.77526099889E+01  0.35682820007E+02  0.00000000000E+00 0.  1.
         11    1    1    2    0    0 -0.60285529264E+02 -0.59746351790E+02  0.91072091787E+02  0.12449135509E+03  0.00000000000E+00 0. -1.
</event>
<event>
 6    1  0.8259171E-006  0.1003637E+03  0.7561462E-02  0.1279533E+00
         -2   -1    0    0    0  501 -0.00000000000E+00  0.00000000000E+00  0.32663606694E+02  0.32663606694E+02  0.00000000000E+00 0. -1.
          2   -1    0    0  501    0  0.00000000000E+00 -0.00000000000E+00 -0.55752301579E+03  0.55752301579E+03  0.00000000000E+00 0.  1.
          5    1    1    2  502    0  0.18049047661E+02 -0.37785373986E+02 -0.11986067217E+03  0.12703367955E+03  0.41800000000E+01 0. -1.
         -5    1    1    2    0  502  0.19448512955E+02  0.60442005399E+02 -0.22539302404E+02  0.67505357015E+02  0.41800000000E+01 0. -1.
        -11    1    1    2    0    0 -0.47925841129E+02  0.19384636879E+02 -0.13769763232E+03  0.14708259020E+03  0.00000000000E+00 0.  1.
         11    1    1    2    0    0  0.10428280513E+02 -0.42041268293E+02 -0.24476180220E+03  0.24856499571E+03  0.00000000000E+00 0. -1.
</event>
<event>
 6    1  0.8259171E-006  0.8375282E+02  0.7561462E-02  0.1318727E+00
          1   -1    0    0  501    0  0.00000000000E+00  0.00000000000E+00  0.23805845590E+03  0.23805845590E+03  0.00000000000E+00 0. -1.
         -1   -1    0    0    0  501 -0.00000000000E+00 -0.00000000000E+00 -0.82608000252E+02  0.82608000252E+02  0.00000000000E+00 0.  1.
          5    1    1    2  502    0  0.20376150727E+02  0.34979085171E+02  0.34007207468E+02  0.53034766688E+02  0.41800000000E+01 0.  1.
         -5    1    1    2    0  502 -0.36790961140E+02 -0.41166542989E+02 -0.49414934153E+02  0.74212985391E+02  0.41800000000E+01 0.  1.
        -11    1    1    2    0    0  0.14370223795E+02  0.37449205598E+02  0.15120724155E+03  0.15643713187E+03  0.00000000000E+00 0. -1.
         11    1    1    2    0    0  0.20445866179E+01 -0.31261747780E+02  0.19650940783E+02  0.36981572199E+02  0.00000000000E+00 0.  1.
</event>
<event>
 6    1  0.8259171E-006  0.1486450E+03  0.7561462E-02  0.1202148E+00
         -1   -1    0    0    0  501 -0.00000000000E+00  0.00000000000E+00  0.17350493377E+03  0.17350493377E+03  0.00000000000E+00 0.  1.
          1   -1    0    0  501    0  0.00000000000E+00 -0.00000000000E+00 -0.17844912977E+03  0.17844912977E+03  0.00000000000E+00 0. -1.
          5    1    1    2  502    0 -0.62978288361E+02  0.14428594047E+02  0.10588382003E+02  0.65605147393E+02  0.41800000000E+01 0. -1.
         -5    1    1    2    0  502  0.11688250170E+03  0.24758246326E+02  0.75208107355E+02  0.14123817394E+03  0.41800000000E+01 0.  1.
        -11    1    1    2    0    0 -0.77153363939E+02 -0.44611135533E+02 -0.67566394314E+02  0.11183922667E+03  0.00000000000E+00 0. -1.
         11    1    1    2    0    0  0.23249150598E+02  0.54242951594E+01 -0.23174291046E+02  0.33271515549E+02  0.00000000000E+00 0.  1.
</event>
<event>
 6    1  0.8259171E-006  0.5759896E+02  0.7561462E-02  0.1408193E+00
          2   -1    0    0  501    0  0.00000000000E+00  0.00000000000E+00  0.56340563864E+02  0.56340563864E+02  0.00000000000E+00 0. -1.
         -2   -1    0    0    0  501 -0.00000000000E+00 -0.00000000000E+00 -0.24326746957E+03  0.24326746957E+03  0.00000000000E+00 0.  1.
          5    1    1    2  502    0  0.14091932642E+01 -0.28722025812E+00  0.20126237220E+02  0.20605973546E+02  0.41800000000E+01 0. -1.
         -5    1    1    2    0  502 -0.10473998549E+02  0.16228457722E+02 -0.18146308934E+03  0.18253600379E+03  0.41800000000E+01 0.  1.
        -11    1    1    2    0    0 -0.37611507712E+02 -0.22580562554E+02 -0.22283026213E+02  0.49204070714E+02  0.00000000000E+00 0.  1.
         11    1    1    2    0    0  0.46676312997E+02  0.66393250900E+01 -0.33070273715E+01  0.47261985386E+02  0.00000000000E+00 0. -1.
</event>
<event>
 6    1  0.8259171E-006  0.7267930E+02  0.7561462E-02  0.1351212E+00
         -3   -1    0    0    0  501 -0.00000000000E+00  0.00000000000E+00  0.22211281387E+03  0.22211281387E+03  0.00000000000E+00 0.  1.
          3   -1    0    0  501    0  0.00000000000E+00 -0.00000000000E+00 -0.17632620513E+03  0.17632620513E+03  0.00000000000E+00 0. -1.
          5    1    1    2  502    0 -0.48496614288E+02  0.14458364245E+02  0.19899822149E+03  0.20537461005E+03  0.41800000000E+01 0. -1.
         -5    1    1    2    0  502  0.62492004842E+01 -0.14317116994E+02 -0.14351473674E+02  0.21621043969E+02  0.41800000000E+01 0. -1.
        -11    1    1    2    0    0 -0.34402278582E+01 -0.25787224514E+02 -0.10701339797E+03  0.11013030219E+03  0.00000000000E+00 0.  1.
         11    1    1    2    0    0  0.45687641661E+02  0.25645977263E+02 -0.31846741109E+02  0.61313062797E+02  0.00000000000E+00 0. -1.
</event>
<event>
 6    1  0.8259171E-006  0.1214892E+03  0.7561462E-02  0.1240660E+00
         -4   -1    0    0    0  501 -0.00000000000E+00  0.00000000000E+00  0.35321665863E+02  0.35321665863E+02  0.00000000000E+00 0.  1.
          4   -1    0    0  501    0  0.00000000000E+00 -0.00000000000E+00 -0.54057739391E+03  0.54057739391E+03  0.00000000000E+00 0. -1.
          5    1    1    2  502    0  0.13911086170E+02  0.77462527588E+02 -0.80322541337E+02  0.11253063825E+03  0.41800000000E+01 0.  1.
         -5    1    1    2    0  502 -0.49988303703E+02 -0.31374926407E+02 -0.67858049443E+02  0.90030016042E+02  0.41800000000E+01 0.  1.
        -11    1    1    2    0    0 -0.28058671492E+02 -0.24727722510E+02 -0.82785259187E+02  0.90841336654E+02  0.00000000000E+00 0.  1.
         11    1    1    2    0    0  0.64135889026E+02 -0.21359878670E+02 -0.27428987808E+03  0.28249706883E+03  0.00000000000E+00 0. -1.
</event>
<event>
 6    1  0.8259171E-006  0.9617195E+02  0.7561462E-02  0.1288558E+00
          3   -1    0    0  501    0  0.00000000000E+00  0.00000000000E+00  0.19240881783E+02  0.19240881783E+02  0.00000000000E+00 0. -1.
         -3   -1    0    0    0  501 -0.00000000000E+00 -0.00000000000E+00 -0.72312183846E+03  0.72312183846E+03  0.00000000000E+00 0.  1.
          5    1    1    2  502    0  0.49861020418E+02  0.73074215865E+01 -0.19366401518E+03  0.20015679590E+03  0.41800000000E+01 0.  1.
         -5    1    1    2    0  502 -0.75963979771E+02 -0.12972634822E+02 -0.32936080158E+03  0.33828216846E+03  0.41800000000E+01 0.  1.
        -11    1    1    2    0    0  0.27453633585E+01  0.30432548582E+02 -0.13965739154E+02  0.33596412060E+02  0.00000000000E+00 0. -1.
         11    1    1    2    0    0  0.23357595994E+02 -0.24767335347E+02 -0.16689040075E+03  0.17032734383E+03  0.00000000000E+00 0.  1.
</event>
<event>
 6    1  0.8259171E-006  0.9993523E+02  0.7561462E-02  0.1280432E+00
          4   -1    0    0  501    0  0.00000000000E+00  0.00000000000E+00  0.11174070041E+03  0.11174070041E+03  0.00000000000E+00 0.  1.
         -4   -1    0    0    0  501 -0.00000000000E+00 -0.00000000000E+00 -0.13693068263E+03  0.13693068263E+03  0.00000000000E+00 0. -1.
          5    1    1    2  502    0 -0.76383406595E+02  0.11971741274E+02  0.40494874058E+01  0.77534625429E+02  0.41800000000E+01 0. -1.
         -5    1    1    2    0  502  0.34920065508E+02  0.11972782276E+02 -0.53724702170E+02  0.65319021072E+02  0.41800000000E+01 0. -1.
        -11    1    1    2    0    0 -0.18635654653E+02 -0.16203015422E+02  0.36474136969E+02  0.44047565208E+02  0.00000000000E+00 0.  1.
         11    1    1    2    0    0  0.60098995740E+02 -0.77415081282E+01 -0.11988904418E+02  0.61770171330E+02  0.00000000000E+00 0. -1.
</event>
<event>
 6    1  0.8259171E-006  0.9643029E+02  0.7561462E-02  0.1287987E+00
          1   -1    0    0  501    0  0.00000000000E+00  0.00000000000E+00  0.13946291037E+03  0.13946291037E+03  0.00000000000E+00 0. -1.
         -1   -1    0    0    0  501 -0.00000000000E+00 -0.00000000000E+00 -0.92872889751E+02  0.92872889751E+02  0.00000000000E+00 0.  1.
          5    1    1    2  502    0  0.53201076922E+01  0.53673035692E+02  0.11866362173E+02  0.55383944040E+02  0.41800000000E+01 0.  1.
         -5    1    1    2    0  502 -0.22391509255E+02 -0.69459510285E+02  0.19697907986E+02  0.75706560051E+02  0.41800000000E+01 0.  1.
        -11    1    1    2    0    0  0.20653572385E+02 -0.20559216844E+02  0.45261533833E+02  0.53831755446E+02  0.00000000000E+00 0. -1.
         11    1    1    2    0    0 -0.35821708228E+01  0.36345691437E+02 -0.30235783377E+02  0.47413540579E+02  0.00000000000E+00 0.  1.
</event>
<event>
 6    1  0.8259171E-006  0.1812842E+03  0.7561462E-02  0.1166566E+00
          2   -1    0    0  501    0  0.00000000000E+00  0.00000000000E+00  0.33363450394E+03  0.33363450394E+03  0.00000000000E+00 0. -1.
         -2   -1    0    0    0  501 -0.00000000000E+00 -0.00000000000E+00 -0.15300515138E+03  0.15300515138E+03  0.00000000000E+00 0.  1.
          5    1    1    2  502    0 -0.22630623315E+02 -0.25586430387E+02 -0.14603460562E+02  0.37383739673E+02  0.41800000000E+01 0.  1.
         -5    1    1    2    0  502 -0.69489258469E+02  0.14480893782E+03 -0.29786209072E+02  0.16341075903E+03  0.41800000000E+01 0.  1.
        -11    1    1    2    0    0  0.90540522083E+02 -0.60851365926E+02  0.18595221815E+03  0.21558919803E+03  0.00000000000E+00 0. -1.
         11    1    1    2    0    0  0.15793597005E+01 -0.58371141508E+02  0.39066804052E+02  0.70255958586E+02  0.00000000000E+00 0.  1.
</event>
<event>
 6    1  0.8259171E-006  0.9491798E+02  0.7561462E-02  0.1291361E+00
         -3   -1    0    0    0  501 -0.00000000000E+00  0.00000000000E+00  0.31134470787E+02  0.31134470787E+02  0.00000000000E+00 0.  1.
          3   -1    0    0  501    0  0.00000000000E+00 -0.00000000000E+00 -0.46479082576E+03  0.46479082576E+03  0.00000000000E+00 0. -1.
          5    1    1    2  502    0  0.16330693325E+02  0.51515705386E+02 -0.41426523532E+02  0.68221614594E+02  0.41800000000E+01 0.  1.
         -5    1    1    2    0  502 -0.44718088273E+02 -0.13031209042E+02 -0.22666200372E+03  0.23143607359E+03  0.41800000000E+01 0.  1.
        -11    1    1    2    0    0 -0.20257641495E+02 -0.34565669785E+02 -0.24417808353E+02  0.46918940007E+02  0.00000000000E+00 0.  1.
         11    1    1    2    0    0  0.48645036443E+02 -0.39188265588E+01 -0.14115001936E+03  0.14934866835E+03  0.00000000000E+00 0. -1.
</event>
<event>
 6    1  0.8259171E-006  0.9487351E+02  0.7561462E-02  0.1291461E+00
          1   -1    0    0  501    0  0.00000000000E+00  0.00000000000E+00  0.35606522478E+03  0.35606522478E+03  0.00000000000E+00 0. -1.
         -1   -1    0    0    0  501 -0.00000000000E+00 -0.00000000000E+00 -0.39187698142E+02  0.39187698142E+02  0.00000000000E+00 0.  1.
          5    1    1    2  502    0 -0.42716343865E+02 -0.14894791249E+02  0.38441609243E+02  0.59512776449E+02  0.41800000000E+01 0.  1.
         -5    1    1    2    0  502  0.86598366059E+02  0.79858374608E+01  0.88958818341E+02  0.12447567780E+03  0.41800000000E+01 0.  1.
        -11    1    1    2    0    0 -0.32815554806E+02 -0.12329343157E+02  0.18541740533E+03  0.18870211323E+03  0.00000000000E+00 0. -1.
         11    1    1    2    0    0 -0.11066467389E+02  0.19238296945E+02  0.40596937291E+01  0.22562355440E+02  0.00000000000E+00 0.  1.
</event>
<event>
 6    1  0.8259171E-006  0.1318622E+03  0.7561462E-02  0.1224718E+00
         -1   -1    0    0    0  501 -0.00000000000E+00  0.00000000000E+00  0.71632514724E+02  0.71632514724E+02  0.00000000000E+00 0.  1.
          1   -1    0    0  501    0  0.00000000000E+00 -0.00000000000E+00 -0.46935061018E+03  0.46935061018E+03  0.00000000000E+00 0. -1.
          5    1    1    2  502    0  0.50097904891E+02  0.61554118800E+01  0.16935417992E+02  0.53403838368E+02  0.41800000000E+01 0. -1.
         -5    1    1    2    0  502 -0.16117721779E+02  0.91940815950E+02 -0.72925581934E+02  0.11852639999E+03  0.41800000000E+01 0. -1.
        -11    1    1    2    0    0  0.21056955391E+01 -0.78593550430E+02 -0.30156559036E+03  0.31164592956E+03  0.00000000000E+00 0.  1.
         11    1    1    2    0    0 -0.36085878651E+02 -0.19502677400E+02 -0.40162341147E+02  0.57406956984E+02  0.00000000000E+00 0. -1.
</event>
<event>
 6    1  0.8259171E-006  0.1491893E+03  0.7561462E-02  0.1201473E+00
         -1   -1    0    0    0  501 -0.00000000000E+00  0.00000000000E+00  0.60952922012E+02  0.60952922012E+02  0.00000000000E+00 0.  1.
          1   -1    0    0  501    0  0.00000000000E+00 -0.00000000000E+00 -0.53161548953E+03  0.53161548953E+03  0.00000000000E+00 0. -1.
          5    1    1    2  502    0 -0.41778277138E+02 -0.93607727714E+02 -0.15648704230E+03  0.18711894061E+03  0.41800000000E+01 0. -1.
         -5    1    1    2    0  502 -0.59378858963E+02  0.52613555631E+01 -0.98245284996E+01  0.60560090112E+02  0.41800000000E+01 0. -1.
        -11    1    1    2    0    0  0.48760949511E+02  0.28473018338E+02 -0.40995712439E+02  0.69778158537E+02  0.00000000000E+00 0.  1.
         11    1    1    2    0    0  0.52396186590E+02  0.59873353812E+02 -0.26335528428E+03  0.27511122228E+03  0.00000000000E+00 0. -1.
</event>
<event>
 6    1  0.8259171E-006  0.1103671E+03  0.7561462E-02  0.1259892E+00
          3   -1    0    0  501    0  0.00000000000E+00  0.00000000000E+00  0.57529443253E+03  0.57529443253E+03  0.00000000000E+00 0. -1.
         -3   -1    0    0    0  501 -0.00000000000E+00 -0.00000000000E+00 -0.31031164287E+02  0.31031164287E+02  0.00000000000E+00 0.  1.
          5    1    1    2  502    0  0.10462161209E+02 -0.23877062051E+02  0.24085359951E+03  0.24229630560E+03  0.41800000000E+01 0.  1.
         -5    1    1    2    0  502  0.65064039016E+02  0.35952515449E+02  0.73753683597E+02  0.10479976519E+03  0.41800000000E+01 0.  1.
        -11    1    1    2    0    0  0.13295100397E+02  0.21204173948E+02  0.40156232902E+02  0.47317013095E+02  0.00000000000E+00 0.  1.
         11    1    1    2    0    0 -0.88821300622E+02 -0.33279627346E+02  0.18949975223E+03  0.21191251293E+03  0.00000000000E+00 0. -1.
</event>
<event>
 6    1  0.8259171E-006  0.9498417E+02  0.7561462E-02  0.1291212E+00
         -1   -1    0    0    0  501 -0.00000000000E+00  0.00000000000E+00  0.36145110640E+02  0.36145110640E+02  0.00000000000E+00 0.  1.
          1   -1    0    0  501    0  0.00000000000E+00 -0.00000000000E+00 -0.39557348530E+03  0.39557348530E+03  0.00000000000E+00 0. -1.
          5    1    1    2  502    0 -0.24599692938E+02  0.84172035148E+02 -0.14938649852E+03  0.17327398747E+03  0.41800000000E+01 0. -1.
         -5    1    1    2    0  502  0.28183530288E+02 -0.33881746543E+02 -0.43344529309E+02  0.61955667612E+02  0.41800000000E+01 0. -1.
        -11    1    1    2    0    0  0.12109330890E+02 -0.29256625317E+02 -0.16726925059E+03  0.17023979621E+03  0.00000000000E+00 0. -1.
         11    1    1    2    0    0 -0.15693168239E+02 -0.21033663288E+02  0.57190376444E+00  0.26249144646E+02  0.00000000000E+00 0.  1.
</event>
<event>
 6    1  0.8259171E-006  0.1208205E+03  0.7561462E-02  0.1241750E+00
          1   -1    0    0  501    0  0.00000000000E+00  0.00000000000E+00  0.30368372373E+03  0.30368372373E+03  0.00000000000E+00 0. -1.
         -1   -1    0    0    0  501 -0.00000000000E+00 -0.00000000000E+00 -0.59602870705E+02  0.59602870705E+02  0.00000000000E+00 0.  1.
          5    1    1    2  502    0 -0.13895110872E+02  0.29620178154E+02  0.14461523048E+01  0.33015039248E+02  0.41800000000E+01 0.  1.
         -5    1    1    2    0  502  0.93635187003E+02 -0.34390457980E+02  0.14017743440E+03  0.17209717418E+03  0.41800000000E+01 0.  1.
        -11    1    1    2    0    0  0.87005061451E+01  0.17426411782E+02 -0.32741846890E+01  0.19750922008E+02  0.00000000000E+00 0.  1.
         11    1    1    2    0    0 -0.88440582275E+02 -0.12656131957E+02  0.10573145101E+03  0.13842345900E+03  0.00000000000E+00 0. -1.
</event>
<event>
 6    1  0.8259171E-006  0.1545951E+03  0.7561462E-02  0.1194938E+00
         -1   -1    0    0    0  501 -0.00000000000E+00  0.00000000000E+00  0.75007322905E+02  0.75007322905E+02  0.00000000000E+00 0.  1.
          1   -1    0    0  501    0  0.00000000000E+00 -0.00000000000E+00 -0.39107273739E+03  0.39107273739E+03  0.00000000000E+00 0. -1.
          5    1    1    2  502    0  0.96709660422E+02 -0.75717892727E+02 -0.12979197257E+03  0.17874391246E+03  0.41800000000E+01 0. -1.
         -5    1    1    2    0  502 -0.34929973141E+02 -0.19622034258E+02  0.10861980626E+02  0.41720286135E+02  0.41800000000E+01 0.  1.
        -11    1    1    2    0    0 -0.81531028391E+02  0.47745233172E+02 -0.13702000459E+03  0.16643736822E+03  0.00000000000E+00 0.  1.
         11    1    1    2    0    0  0.19751341110E+02  0.47594693812E+02 -0.60115417948E+02  0.79178493481E+02  0.00000000000E+00 0. -1.
</event>
<event>
 6    1  0.8259171E-006  0.2531779E+03  0.7561462E-02  0.1111313E+00
         -1   -1    0    0    0  501 -0.00000000000E+00  0.00000000000E+00  0.10493833104E+03  0.10493833104E+03  0.00000000000E+00 0. -1.
          1   -1    0    0  501    0  0.00000000000E+00 -0.00000000000E+00 -0.10310931615E+04  0.10310931615E+04  0.00000000000E+00 0.  1.
          5    1    1    2  502    0  0.13887345534E+03  0.67164411714E+02 -0.27240134691E+02  0.15670479296E+03  0.41800000000E+01 0. -1.
         -5    1    1    2    0  502  0.10092417421E+03  0.59709117873E+01 -0.12946639868E+03  0.16431786730E+03  0.41800000000E+01 0. -1.
        -11    1    1    2    0    0 -0.13042161308E+03 -0.35295055103E+02 -0.55622189341E+03  0.57239700627E+03  0.00000000000E+00 0.  1.
         11    1    1    2    0    0 -0.10937601648E+03 -0.37840268398E+02 -0.21322640368E+03  0.24261182600E+03  0.00000000000E+00 0. -1.
</event>
<event>
 6    1  0.8259171E-006  0.9969565E+02  0.7561462E-02  0.1280937E+00
         -1   -1    0    0    0  501 -0.00000000000E+00  0.00000000000E+00  0.19464587151E+03  0.19464587151E+03  0.00000000000E+00 0.  1.
          1   -1    0    0  501    0  0.00000000000E+00 -0.00000000000E+00 -0.62054820345E+02  0.62054820345E+02  0.00000000000E+00 0. -1.
          5    1    1    2  502    0  0.55845553151E+02  0.29266920156E+01  0.85689292509E+02  0.10240809823E+03  0.41800000000E+01 0.  1.
         -5    1    1    2    0  502 -0.54635908533E+02 -0.24090324191E+02  0.21234559319E+02  0.63512243941E+02  0.41800000000E+01 0.  1.
        -11    1    1    2    0    0  0.39499172403E+02  0.15151194163E+02  0.25947860419E+02  0.49628971029E+02  0.00000000000E+00 0.  1.
         11    1    1    2    0    0 -0.40708817021E+02  0.60124380132E+01 -0.28066108510E+00  0.41151378649E+02  0.00000000000E+00 0. -1.
</event>
<event>
 6    1  0.8259171E-006  0.1859180E+03  0.7561462E-02  0.1162195E+00
         -2   -1    0    0    0  501 -0.00000000000E+00  0.00000000000E+00  0.49469740896E+02  0.49469740896E+02  0.00000000000E+00 0. -1.
          2   -1    0    0  501    0  0.00000000000E+00 -0.00000000000E+00 -0.99310065270E+03  0.99310065270E+03  0.00000000000E+00 0.  1.
          5    1    1    2  502    0 -0.17960244161E+02  0.21214135660E+02 -0.47458867590E+02  0.55158194632E+02  0.41800000000E+01 0. -1.
         -5    1    1    2    0  502 -0.48243501998E+02 -0.16513025193E+03 -0.18292707709E+03  0.25114781209E+03  0.41800000000E+01 0. -1.
        -11    1    1    2    0    0 -0.20940848240E+01  0.73559385443E+02 -0.18693191622E+03  0.20089527043E+03  0.00000000000E+00 0. -1.
         11    1    1    2    0    0  0.68297830984E+02  0.70356730825E+02 -0.52631305090E+03  0.53536911644E+03  0.00000000000E+00 0.  1.
</event>
<event>
 6    1  0.8259171E-006  0.1084449E+03  0.7561462E-02  0.1263477E+00
         -1   -1    0    0    0  501 -0.00000000000E+00  0.00000000000E+00  0.22968759273E+02  0.22968759273E+02  0.00000000000E+00 0.  1.
          1   -1    0    0  501    0  0.00000000000E+00 -0.00000000000E+00 -0.94649605614E+03  0.94649605614E+03  0.00000000000E+00 0. -1.
          5    1    1    2  502    0 -0.40177678407E+02 -0.69193289756E+02 -0.10100015878E+03  0.12892036947E+03  0.41800000000E+01 0. -1.
         -5    1    1    2    0  502 -0.22865820597E+02 -0.38287766848E+01 -0.31796626566E+03  0.31883777031E+03  0.41800000000E+01 0. -1.
        -11    1    1    2    0    0 -0.45485919152E+01  0.35720241253E+02 -0.56189458899E+02  0.66737400421E+02  0.00000000000E+00 0.  1.
         11    1    1    2    0    0  0.67592090919E+02  0.37301825187E+02 -0.44837141353E+03  0.45496927521E+03  0.00000000000E+00 0. -1.
</event>
<event>
 6    1  0.8259171E-006  0.1034417E+03  0.7561462E-02  0.1273221E+00
         -2   -1    0    0    0  501 -0.00000000000E+00  0.00000000000E+00  0.63297729643E+03  0.63297729643E+03  0.00000000000E+00 0.  1.
          2   -1    0    0  501    0  0.00000000000E+00 -0.00000000000E+00 -0.22346838606E+02  0.22346838606E+02  0.00000000000E+00 0. -1.
          5    1    1    2  502    0 -0.26513252086E+02 -0.47579521963E+02  0.34356997201E+03  0.34788584552E+03  0.41800000000E+01 0. -1.
         -5    1    1    2    0  502  0.47058766799E+02  0.25905842749E+02  0.95717759327E+02  0.10984080331E+03  0.41800000000E+01 0. -1.
        -11    1    1    2    0    0 -0.37706924348E+02 -0.27253607578E+02  0.84022179834E+02  0.96043208890E+02  0.00000000000E+00 0.  1.
         11    1    1    2    0    0  0.17161409634E+02  0.48927286792E+02  0.87320546656E+02  0.10155427732E+03  0.00000000000E+00 0. -1.
</event>
<event>
 6    1  0.8259171E-006  0.9433769E+02  0.7561462E-02  0.1292675E+00
          2   -1    0    0  501    0  0.00000000000E+00  0.00000000000E+00  0.11006686759E+03  0.11006686759E+03  0.00000000000E+00 0. -1.
         -2   -1    0    0    0  501 -0.00000000000E+00 -0.00000000000E+00 -0.13208176651E+03  0.13208176651E+03  0.00000000000E+00 0.  1.
          5    1    1    2  502    0  0.69616939692E+02  0.33127427899E+01 -0.37892974302E+02  0.79440811037E+02  0.41800000000E+01 0.  1.
         -5    1    1    2    0  502 -0.38919718231E+02  0.37241829321E+02  0.18226838875E+02  0.57020946798E+02  0.41800000000E+01 0.  1.
        -11    1    1    2    0    0  0.93911783331E+01 -0.13562362992E+02  0.38833247184E+02  0.42191859490E+02  0.00000000000E+00 0. -1.
         11    1    1    2    0    0 -0.40088399794E+02 -0.26992209119E+02 -0.41182010678E+02  0.63495016771E+02  0.00000000000E+00 0.  1.
</event>
<event>
 6    1  0.8259171E-006  0.2657988E+03  0.7561462E-02  0.1103708E+00
         -2   -1    0    0    0  501 -0.00000000000E+00  0.00000000000E+00  0.13358489969E+04  0.13358489969E+04  0.00000000000E+00 0.  1.
          2   -1    0    0  501    0  0.00000000000E+00 -0.00000000000E+00 -0.68415317997E+02  0.68415317997E+02  0.00000000000E+00 0. -1.
          5    1    1    2  502    0 -0.69892563087E+01 -0.44562452328E+01  0.43089219389E+01  0.10234599826E+02  0.41800000000E+01 0. -1.
         -5    1    1    2    0  502  0.25934769535E+03  0.41791120400E+01  0.94766947460E+03  0.98253427297E+03  0.41800000000E+01 0. -1.
        -11    1    1    2    0    0 -0.91093548077E+02 -0.35408169688E+02  0.97750312343E+02  0.13822769818E+03  0.00000000000E+00 0. -1.
         11    1    1    2    0    0 -0.16126489096E+03  0.35685302881E+02  0.21770497004E+03  0.27326774394E+03  0.00000000000E+00 0.  1.
</event>
<event>
 6    1  0.8259171E-006  0.1159433E+03  0.7561462E-02  0.1249943E+00
         -2   -1    0    0    0  501 -0.00000000000E+00  0.00000000000E+00  0.29747087716E+02  0.29747087716E+02  0.00000000000E+00 0.  1.
          2   -1    0    0  501    0  0.00000000000E+00 -0.00000000000E+00 -0.45267128569E+03  0.45267128569E+03  0.00000000000E+00 0. -1.
          5    1    1    2  502    0 -0.66548993011E+02  0.45556119571E+02 -0.15477561156E+03  0.17457689089E+03  0.41800000000E+01 0. -1.
         -5    1    1    2    0  502  0.50035831291E+02 -0.76773945995E+01 -0.85879504144E+02  0.99776191713E+02  0.41800000000E+01 0. -1.
        -11    1    1    2    0    0  0.33360620190E+02 -0.62298758458E+02 -0.12711929120E+03  0.14544201759E+03  0.00000000000E+00 0. -1.
         11    1    1    2    0    0 -0.16847458469E+02  0.24420033487E+02 -0.55149791071E+02  0.62623273210E+02  0.00000000000E+00 0.  1.
</event>
<event>
 6    1  0.8259171E-006  0.1139185E+03  0.7561462E-02  0.1253481E+00
          1   -1    0    0  501    0  0.00000000000E+00  0.00000000000E+00  0.61631720825E+03  0.61631720825E+03  0.00000000000E+00 0. -1.
         -1   -1    0    0    0  501 -0.00000000000E+00 -0.00000000000E+00 -0.21366274341E+02  0.21366274341E+02  0.00000000000E+00 0.  1.
          5    1    1    2  502    0 -0.23741136392E+02  0.65247174630E+02  0.16400287107E+03  0.17814390103E+03  0.41800000000E+01 0.  1.
         -5    1    1    2    0  502 -0.24162941348E+02 -0.59662939470E+02  0.15122277297E+03  0.16440594133E+03  0.41800000000E+01 0.  1.
        -11    1    1    2    0    0  0.38583424108E+02 -0.41501699172E+02  0.15653790012E+03  0.16647878491E+03  0.00000000000E+00 0.  1.
         11    1    1    2    0    0  0.93206536322E+01  0.35917464012E+02  0.12318738975E+03  0.12865485532E+03  0.00000000000E+00 0. -1.
</event>
<event>
 6    1  0.8259171E-006  0.8837155E+02  0.7561462E-02  0.1306844E+00
          1   -1    0    0  501    0  0.00000000000E+00  0.00000000000E+00  0.44153381059E+03  0.44153381059E+03  0.00000000000E+00 0. -1.
         -1   -1    0    0    0  501 -0.00000000000E+00 -0.00000000000E+00 -0.28874801955E+02  0.28874801955E+02  0.00000000000E+00 0.  1.
          5    1    1    2  502    0  0.36209326632E+02  0.30196419573E+01  0.12737367447E+03  0.13252078675E+03  0.41800000000E+01 0. -1.
         -5    1    1    2    0  502 -0.50310668283E+02  0.12235315221E+01  0.15698780440E+02  0.52882742740E+02  0.41800000000E+01 0.  1.
        -11    1    1    2    0    0 -0.37065082051E+02 -0.94158949122E+01  0.81698584257E+02  0.90206086569E+02  0.00000000000E+00 0.  1.
         11    1    1    2    0    0  0.51166423702E+02  0.51727214328E+01  0.18788796946E+03  0.19479899648E+03  0.00000000000E+00 0. -1.
</event>
<event>
 6    1  0.8259171E-006  0.1297828E+03  0.7561462E-02  0.1227778E+00
          1   -1    0    0  501    0  0.00000000000E+00  0.00000000000E+00  0.76028108722E+02  0.76028108722E+02  0.00000000000E+00 0. -1.
         -1   -1    0    0    0  501 -0.00000000000E+00 -0.00000000000E+00 -0.35634544153E+03  0.35634544153E+03  0.00000000000E+00 0.  1.
          5    1    1    2  502    0 -0.27513957784E+02 -0.17516018157E+02  0.23539548383E+01  0.32967290887E+02  0.41800000000E+01 0.  1.
         -5    1    1    2    0  502  0.46886281141E+02 -0.92226326622E+02 -0.20745793358E+03  0.23186264314E+03  0.41800000000E+01 0.  1.
        -11    1    1    2    0    0 -0.29208241373E+02  0.26882507510E+02  0.16998963371E+02  0.43182812899E+02  0.00000000000E+00 0. -1.
         11    1    1    2    0    0  0.98359180171E+01  0.82859837269E+02 -0.92212317440E+02  0.12436080332E+03  0.00000000000E+00 0.  1.
</event>
<event>
 6    1  0.8259171E-006  0.8904459E+02  0.7561462E-02  0.1305182E+00
          2   -1    0    0  501    0  0.00000000000E+00  0.00000000000E+00  0.32737966974E+02  0.32737966974E+02  0.00000000000E+00 0. -1.
         -2   -1    0    0    0  501 -0.00000000000E+00 -0.00000000000E+00 -0.41939921277E+03  0.41939921277E+03  0.00000000000E+00 0.  1.
          5    1    1    2  502    0  0.25880781767E+02  0.32268025983E+02 -0.41850971093E+02  0.58991665065E+02  0.41800000000E+01 0.  1.
         -5    1    1    2    0  502 -0.53833953450E+02 -0.49728158774E+02 -0.24322174264E+03  0.25405761711E+03  0.41800000000E+01 0.  1.
        -11    1    1    2    0    0 -0.15132688642E+02  0.12707422368E+02 -0.92772024392E+02  0.94853177905E+02  0.00000000000E+00 0.  1.
         11    1    1    2    0    0  0.43085860326E+02  0.47527104228E+01 -0.88165076736E+01  0.44234719666E+02  0.00000000000E+00 0. -1.
</event>
<event>
 6    1  0.8259171E-006  0.1027941E+03  0.7561462E-02  0.1274528E+00
          1   -1    0    0  501    0  0.00000000000E+00  0.00000000000E+00  0.19045135400E+03  0.19045135400E+03  0.00000000000E+00 0. -1.
         -1   -1    0    0    0  501 -0.00000000000E+00 -0.00000000000E+00 -0.14428860077E+03  0.14428860077E+03  0.00000000000E+00 0.  1.
          5    1    1    2  502    0  0.67865701005E+02  0.12319862548E+02  0.50123687840E+02  0.85366204488E+02  0.41800000000E+01 0. -1.
         -5    1    1    2    0  502 -0.21312417457E+02 -0.10955102040E+02 -0.99009550193E+02  0.10195389560E+03  0.41800000000E+01 0.  1.
        -11    1    1    2    0    0  0.15807759775E+02  0.36101961184E+02  0.40319979273E+02  0.56382068063E+02  0.00000000000E+00 0. -1.
         11    1    1    2    0    0 -0.62361043322E+02 -0.37466721692E+02  0.54728636311E+02  0.91037786611E+02  0.00000000000E+00 0.  1.
</event>
<event>
 6    1  0.8259171E-006  0.1080236E+03  0.7561462E-02  0.1264274E+00
          4   -1    0    0  501    0  0.00000000000E+00  0.00000000000E+00  0.32729689365E+03  0.32729689365E+03  0.00000000000E+00 0. -1.
         -4   -1    0    0    0  501 -0.00000000000E+00 -0.00000000000E+00 -0.38595152721E+02  0.38595152721E+02  0.00000000000E+00 0.  1.
          5    1    1    2  502    0 -0.51372463008E+02 -0.34045545486E+02  0.68721402465E+02  0.92403098864E+02  0.41800000000E+01 0. -1.
         -5    1    1    2    0  502  0.65595575197E+02  0.69877249351E+01  0.99469119939E+02  0.11942858120E+03  0.41800000000E+01 0. -1.
        -11    1    1    2    0    0 -0.41947348565E+02  0.39655488244E+02  0.46821052308E+02  0.74325962750E+02  0.00000000000E+00 0.  1.
         11    1    1    2    0    0  0.27724236376E+02 -0.12597667693E+02  0.73690166217E+02  0.79734403560E+02  0.00000000000E+00 0. -1.
</event>
<event>
 6    1  0.8259171E-006  0.1762779E+03  0.7561462E-02  0.1171455E+00
          1   -1    0    0  501    0  0.00000000000E+00  0.00000000000E+00  0.38523814738E+03  0.38523814738E+03  0.00000000000E+00 0. -1.
         -1   -1    0    0    0  501 -0.00000000000E+00 -0.00000000000E+00 -0.10234145301E+03  0.10234145301E+03  0.00000000000E+00 0.  1.
          5    1    1    2  502    0  0.34803523146E+02 -0.48914951777E+02  0.62802625923E+02  0.86980457308E+02  0.41800000000E+01 0. -1.
         -5    1    1    2    0  502  0.12632811582E+03  0.27165062202E+02  0.61031730864E+01  0.12942741044E+03  0.41800000000E+01 0. -1.
        -11    1    1    2    0    0 -0.12797094024E+03  0.12013715729E+02  0.14339070582E+03  0.19256631436E+03  0.00000000000E+00 0.  1.
         11    1    1    2    0    0 -0.33160698727E+02  0.97361738462E+01  0.70600189539E+02  0.78605418287E+02  0.00000000000E+00 0. -1.
</event>
<event>
 6    1  0.8259171E-006  0.2132399E+03  0.7561462E-02  0.1139026E+00
          1   -1    0    0  501    0  0.00000000000E+00  0.00000000000E+00  0.61968624373E+03  0.61968624373E+03  0.00000000000E+00 0. -1.
         -1   -1    0    0    0  501 -0.00000000000E+00 -0.00000000000E+00 -0.10192189900E+03  0.10192189900E+03  0.00000000000E+00 0.  1.
          5    1    1    2  502    0  0.81081006944E+02 -0.16298836711E+03  0.51055837569E+02  0.18911242278E+03  0.41800000000E+01 0. -1.
         -5    1    1    2    0  502  0.37048961738E+01 -0.25951863670E+02  0.83736292988E+02  0.87843409810E+02  0.41800000000E+01 0. -1.
        -11    1    1    2    0    0 -0.17262801719E+02  0.66714005723E-01  0.72131738944E+01  0.18709319913E+02  0.00000000000E+00 0.  1.
         11    1    1    2    0    0 -0.67523101398E+02  0.18887351678E+03  0.37575904028E+03  0.42594299021E+03  0.00000000000E+00 0. -1.
</event>
<event>
 6    1  0.8259171E-006  0.9969316E+02  0.7561462E-02  0.1280943E+00
         -1   -1    0    0    0  501 -0.00000000000E+00  0.00000000000E+00  0.27371022590E+02  0.27371022590E+02  0.00000000000E+00 0.  1.
          1   -1    0    0  501    0  0.00000000000E+00 -0.00000000000E+00 -0.63357961497E+03  0.63357961497E+03  0.00000000000E+00 0. -1.
          5    1    1    2  502    0  0.46730173399E+02  0.13925190957E+02 -0.29409707631E+03  0.29814121276E+03  0.41800000000E+01 0. -1.
         -5    1    1    2    0  502  0.25884693289E+02 -0.25305525442E+02 -0.84669263746E+01  0.37410536040E+02  0.41800000000E+01 0. -1.
        -11    1    1    2    0    0 -0.28927403301E+02 -0.38205216278E+02 -0.92838454767E+02  0.10447684861E+03  0.00000000000E+00 0.  1.
         11    1    1    2    0    0 -0.43687463386E+02  0.49585550763E+02 -0.21080613492E+03  0.22092204015E+03  0.00000000000E+00 0. -1.
</event>
<event>
 6    1  0.8259171E-006  0.8470549E+02  0.7561462E-02  0.1316204E+00
         -1   -1    0    0    0  501 -0.00000000000E+00  0.00000000000E+00  0.11742932084E+03  0.11742932084E+03  0.00000000000E+00 0.  1.
          1   -1    0    0  501    0  0.00000000000E+00 -0.00000000000E+00 -0.12095686273E+03  0.12095686273E+03  0.00000000000E+00 0. -1.
          5    1    1    2  502    0 -0.48632422283E+02  0.42569008259E+02  0.37252160785E+02  0.74715653276E+02  0.41800000000E+01 0. -1.
         -5    1    1    2    0  502  0.56102246189E+01 -0.26802475437E+02 -0.52513878085E+02  0.59371938670E+02  0.41800000000E+01 0. -1.
        -11    1    1    2    0    0  0.17666612164E+02  0.23988135307E+02  0.39579158366E+02  0.49538364909E+02  0.00000000000E+00 0.  1.
         11    1    1    2    0    0  0.25355585501E+02 -0.39754668129E+02 -0.27844982957E+02  0.54760226716E+02  0.00000000000E+00 0. -1.
</event>
<event>
 6    1  0.8259171E-006  0.1042195E+03  0.7561462E-02  0.1271665E+00
         -1   -1    0    0    0  501 -0.00000000000E+00  0.00000000000E+00  0.43183222887E+02  0.43183222887E+02  0.00000000000E+00 0.  1.
          1   -1    0    0  501    0  0.00000000000E+00 -0.00000000000E+00 -0.44433438882E+03  0.44433438882E+03  0.00000000000E+00 0. -1.
          5    1    1    2  502    0  0.28862233384E+02 -0.51087294134E+02 -0.82252490910E+02  0.10112311703E+03  0.41800000000E+01 0. -1.
         -5    1    1    2    0  502  0.22784980478E+02  0.60712464471E+02 -0.17571015646E+02  0.67315463813E+02  0.41800000000E+01 0. -1.
        -11    1    1    2    0    0  0.10568976164E+02  0.14465005276E+02 -0.10646319650E+02  0.20839475926E+02  0.00000000000E+00 0.  1.
         11    1    1    2    0    0 -0.62216190025E+02 -0.24090175613E+02 -0.29068133973E+03  0.29823955494E+03  0.00000000000E+00 0. -1.
</event>
<event>
 6    1  0.8259171E-006  0.1532996E+03  0.7561462E-02  0.1196476E+00
          1   -1    0    0  501    0  0.00000000000E+00  0.00000000000E+00  0.16112852489E+03  0.16112852489E+03  0.00000000000E+00 0. -1.
         -1   -1    0    0    0  501 -0.00000000000E+00 -0.00000000000E+00 -0.17181230322E+03  0.17181230322E+03  0.00000000000E+00 0.  1.
          5    1    1    2  502    0  0.13243752473E+03 -0.32720022834E+02 -0.19829394509E+02  0.13791655136E+03  0.41800000000E+01 0.  1.
         -5    1    1    2    0  502 -0.10634148688E+02  0.34954167954E+02 -0.17100018815E+02  0.40555665685E+02  0.41800000000E+01 0.  1.
        -11    1    1    2    0    0 -0.72118322715E+02  0.25433918954E+02 -0.22343022151E+02  0.79668986083E+02  0.00000000000E+00 0.  1.
         11    1    1    2    0    0 -0.49685053329E+02 -0.27668064075E+02  0.48588657149E+02  0.74799624983E+02  0.00000000000E+00 0. -1.
</event>
<event>
 6    1  0.8259171E-006  0.1834435E+03  0.7561462E-02  0.1164511E+00
         -1   -1    0    0    0  501 -0.00000000000E+00  0.00000000000E+00  0.91518350274E+02  0.91518350274E+02  0.00000000000E+00 0.  1.
          1   -1    0    0  501    0  0.00000000000E+00 -0.00000000000E+00 -0.45023147391E+03  0.45023147391E+03  0.00000000000E+00 0. -1.
          5    1    1    2  502    0  0.34422951575E+01 -0.12303042644E+02  0.69700915352E+01  0.15141625747E+02  0.41800000000E+01 0. -1.
         -5    1    1    2    0  502  0.35038962754E+02  0.17895395006E+03 -0.21282620989E+03  0.28029397633E+03  0.41800000000E+01 0. -1.
        -11    1    1    2    0    0 -0.15118850454E+02 -0.69333688721E+02 -0.96719330632E+01  0.71619036016E+02  0.00000000000E+00 0.  1.
         11    1    1    2    0    0 -0.23362407457E+02 -0.97317218693E+02 -0.14318507223E+03  0.17469518609E+03  0.00000000000E+00 0. -1.
</event>
<event>
 6    1  0.8259171E-006  0.1146954E+03  0.7561462E-02  0.1252114E+00
         -2   -1    0    0    0  501 -0.00000000000E+00  0.00000000000E+00  0.37599960882E+02  0.37599960882E+02  0.00000000000E+00 0.  1.
          2   -1    0    0  501    0  0.00000000000E+00 -0.00000000000E+00 -0.37478132166E+03  0.37478132166E+03  0.00000000000E+00 0. -1.
          5    1    1    2  502    0 -0.14382926215E+02 -0.53865478730E+02 -0.69896669151E+02  0.89506285387E+02  0.41800000000E+01 0.  1.
         -5    1    1    2    0  502  0.59393642567E+02  0.44799958179E+02 -0.15309644554E+03  0.17026636505E+03  0.41800000000E+01 0.  1.
        -11    1    1    2    0    0 -0.52793233418E+02  0.40529839570E+02 -0.91059436586E+02  0.11279013424E+03  0.00000000000E+00 0. -1.
         11    1    1    2    0    0  0.77825170655E+01 -0.31464319020E+02 -0.23128809495E+02  0.39818497861E+02  0.00000000000E+00 0.  1.
</event>
<event>
 6    1  0.8259171E-006  0.1494024E+03  0.7561462E-02  0.1201209E+00
         -2   -1    0    0    0  501 -0.00000000000E+00  0.00000000000E+00  0.34830131216E+02  0.34830131216E+02  0.00000000000E+00 0.  1.
          2   -1    0    0  501    0  0.00000000000E+00 -0.00000000000E+00 -0.72695065478E+03  0.72695065478E+03  0.00000000000E+00 0. -1.
          5    1    1    2  502    0 -0.28111777257E+02  0.17376168549E+02 -0.10238209600E+03  0.10766507900E+03  0.41800000000E+01 0.  1.
         -5    1    1    2    0  502  0.26397702088E+02 -0.13283865882E+03 -0.29342232743E+03  0.32319820944E+03  0.41800000000E+01 0.  1.
        -11    1    1    2    0    0  0.30529420658E+02  0.66645141720E+02 -0.24026178834E+03  0.25119583471E+03  0.00000000000E+00 0. -1.
         11    1    1    2    0    0 -0.28815345490E+02  0.48817348555E+02 -0.56054311793E+02  0.79721662841E+02  0.00000000000E+00 0.  1.
</event>
<event>
 6    1  0.8259171E-006  0.1025714E+03  0.7561462E-02  0.1274980E+00
          2   -1    0    0  501    0  0.00000000000E+00  0.00000000000E+00  0.26509019232E+03  0.26509019232E+03  0.00000000000E+00 0. -1.
         -2   -1    0    0    0  501 -0.00000000000E+00 -0.00000000000E+00 -0.61827204337E+02  0.61827204337E+02  0.00000000000E+00 0.  1.
          5    1    1    2  502    0  0.18907851581E+02  0.65234672570E+02 -0.12762742596E+02  0.69234596520E+02  0.41800000000E+01 0.  1.
         -5    1    1    2    0  502 -0.31677610588E+02 -0.13534562037E+02  0.70292927297E+02  0.78391475366E+02  0.41800000000E+01 0.  1.
        -11    1    1    2    0    0 -0.88966252874E+01 -0.72093115449E+02  0.11829482951E+03  0.13881726811E+03  0.00000000000E+00 0.  1.
         11    1    1    2    0    0  0.21666384294E+02  0.20393004916E+02  0.27437973772E+02  0.40474056661E+02  0.00000000000E+00 0. -1.
</event>
<event>
 6    1  0.8259171E-006  0.9303519E+02  0.7561462E-02  0.1295664E+00
         -3   -1    0    0    0  501 -0.00000000000E+00  0.00000000000E+00  0.33922945495E+02  0.33922945495E+02  0.00000000000E+00 0.  1.
          3   -1    0    0  501    0  0.00000000000E+00 -0.00000000000E+00 -0.49634088001E+03  0.49634088001E+03  0.00000000000E+00 0. -1.
          5    1    1    2  502    0 -0.44812384516E+02  0.42317636738E+02 -0.19735112392E+03  0.20679427144E+03  0.41800000000E+01 0.  1.
         -5    1    1    2    0  502 -0.15515382675E+02 -0.22587508664E+02  0.80019013950E+01  0.28851784575E+02  0.41800000000E+01 0.  1.
        -11    1    1    2    0    0  0.56588562459E+02  0.17440496272E+02 -0.89703299604E+02  0.10748543283E+03  0.00000000000E+00 0. -1.
         11    1    1    2    0    0  0.37392047324E+01 -0.37170624346E+02 -0.18336541238E+03  0.18713233666E+03  0.00000000000E+00 0.  1.
</event>
<event>
 6    1  0.8259171E-006  0.1148306E+03  0.7561462E-02  0.1251877E+00
          2   -1    0    0  501    0  0.00000000000E+00  0.00000000000E+00  0.42876606680E+02  0.42876606680E+02  0.00000000000E+00 0. -1.
         -2   -1    0    0    0  501 -0.00000000000E+00 -0.00000000000E+00 -0.32882478224E+03  0.32882478224E+03  0.00000000000E+00 0.  1.
          5    1    1    2  502    0  0.12002652939E+02 -0.54242717925E+02 -0.81970077846E+02  0.99110555379E+02  0.41800000000E+01 0.  1.
         -5    1    1    2    0  502 -0.48733565336E+02  0.56156322669E+02 -0.12529729120E+03  0.14575793820E+03  0.41800000000E+01 0.  1.
        -11    1    1    2    0    0  0.68079471982E+02 -0.24782425926E+01 -0.53889697780E+02  0.86862280182E+02  0.00000000000E+00 0. -1.
         11    1    1    2    0    0 -0.31348559585E+02  0.56463784919E+00 -0.24791108733E+02  0.39970615158E+02  0.00000000000E+00 0.  1.
</event>
<event>
 6    1  0.8259171E-006  0.1216609E+03  0.7561462E-02  0.1240382E+00
         -1   -1    0    0    0  501 -0.00000000000E+00  0.00000000000E+00  0.19558877573E+02  0.19558877573E+02  0.00000000000E+00 0.  1.
          1   -1    0    0  501    0  0.00000000000E+00 -0.00000000000E+00 -0.10071234119E+04  0.10071234119E+04  0.00000000000E+00 0. -1.
          5    1    1    2  502    0  0.33088676481E+02  0.52841723257E+02 -0.49157961058E+03  0.49553515936E+03  0.41800000000E+01 0. -1.
         -5    1    1    2    0  502 -0.44121658269E+02  0.38597777063E+02 -0.11629429498E+03  0.13030097684E+03  0.41800000000E+01 0.  1.
        -11    1    1    2    0    0  0.36240596557E+02 -0.89761174326E+02 -0.34227401592E+03  0.35569924266E+03  0.00000000000E+00 0. -1.
         11    1    1    2    0    0 -0.25207614769E+02 -0.16783259943E+01 -0.37416612896E+02  0.45146910648E+02  0.00000000000E+00 0.  1.
</event>
<event>
 6    1  0.8259171E-006  0.4504861E+02  0.7561462E-02  0.1474038E+00
         -1   -1    0    0    0  501 -0.00000000000E+00  0.00000000000E+00  0.25111381915E+03  0.25111381915E+03  0.00000000000E+00 0.  1.
          1   -1    0    0  501    0  0.00000000000E+00 -0.00000000000E+00 -0.58060637231E+02  0.58060637231E+02  0.00000000000E+00 0. -1.
          5    1    1    2  502    0  0.70728496794E+00  0.13783983839E+02 -0.20704116115E+02  0.25231553392E+02  0.41800000000E+01 0. -1.
         -5    1    1    2    0  502  0.26221817969E+02  0.17042693158E+02  0.17393138000E+03  0.17677000446E+03  0.41800000000E+01 0. -1.
        -11    1    1    2    0    0 -0.13774484232E+02 -0.41589784727E+01 -0.28903372154E+02  0.32286815260E+02  0.00000000000E+00 0. -1.
         11    1    1    2    0    0 -0.13154618705E+02 -0.26667698524E+02  0.68729290188E+02  0.74886083271E+02  0.00000000000E+00 0.  1.
</event>
<event>
 6    1  0.8259171E-006  0.1387452E+03  0.7561462E-02  0.1215027E+00
          1   -1    0    0  501    0  0.00000000000E+00  0.00000000000E+00  0.11468764981E+03  0.11468764981E+03  0.00000000000E+00 0. -1.
         -1   -1    0    0    0  501 -0.00000000000E+00 -0.00000000000E+00 -0.35120397765E+03  0.35120397765E+03  0.00000000000E+00 0.  1.
          5    1    1    2  502    0 -0.36594687255E+02  0.73047227260E+02 -0.20565374194E+03  0.22132781687E+03  0.41800000000E+01 0.  1.
         -5    1    1    2    0  502 -0.63397523511E+02 -0.31770160308E+02 -0.67522048969E+02  0.98006574117E+02  0.41800000000E+01 0.  1.
        -11    1    1    2    0    0  0.64911580423E+02  0.66515289525E+01 -0.15994496728E+02  0.67183182688E+02  0.00000000000E+00 0.  1.
         11    1    1    2    0    0  0.35080630343E+02 -0.47928595905E+02  0.52653959805E+02  0.79374053782E+02  0.00000000000E+00 0. -1.
</event>
<event>
 6    1  0.8259171E-006  0.1264067E+03  0.7561462E-02  0.1232887E+00
          2   -1    0    0  501    0  0.00000000000E+00  0.00000000000E+00  0.68492660065E+02  0.68492660065E+02  0.00000000000E+00 0. -1.
         -2   -1    0    0    0  501 -0.00000000000E+00 -0.00000000000E+00 -0.31109321052E+03  0.31109321052E+03  0.00000000000E+00 0.  1.
          5    1    1    2  502    0 -0.35680106283E+02 -0.89690498627E+01 -0.16080653319E+02  0.40367978039E+02  0.41800000000E+01 0. -1.
         -5    1    1    2    0  502  0.81496006974E+02 -0.55487615719E+02 -0.18018545808E+03  0.20543793796E+03  0.41800000000E+01 0. -1.
        -11    1    1    2    0    0 -0.71499715293E+02  0.41580705652E+02 -0.92916480683E+01  0.83231599127E+02  0.00000000000E+00 0. -1.
         11    1    1    2    0    0  0.25683814602E+02  0.22875959930E+02 -0.37042790990E+02  0.50548355458E+02  0.00000000000E+00 0.  1.
</event>
<event>
 6    1  0.8259171E-006  0.1175884E+03  0.7561462E-02  0.1247129E+00
          2   -1    0    0  501    0  0.00000000000E+00  0.00000000000E+00  0.39956319467E+02  0.39956319467E+02  0.00000000000E+00 0.  1.
         -2   -1    0    0    0  501 -0.00000000000E+00 -0.00000000000E+00 -0.80087813074E+03  0.80087813074E+03  0.00000000000E+00 0. -1.
          5    1    1    2  502    0 -0.58382297241E+02 -0.21675644186E+02 -0.20260444443E+03  0.21200084784E+03  0.41800000000E+01 0. -1.
         -5    1    1    2    0  502  0.52459265310E+02 -0.42834778786E+02 -0.50029961166E+03  0.50488015074E+03  0.41800000000E+01 0. -1.
        -11    1    1    2    0    0  0.34547597702E+02  0.67798342906E+02 -0.57085248374E+02  0.95125587461E+02  0.00000000000E+00 0. -1.
         11    1    1    2    0    0 -0.28624565770E+02 -0.32879199347E+01 -0.93250680731E+00  0.28827864159E+02  0.00000000000E+00 0.  1.
</event>
<event>
 6    1  0.8259171E-006  0.1112773E+03  0.7561462E-02  0.1258223E+00
          1   -1    0    0  501    0  0.00000000000E+00  0.00000000000E+00  0.14467606691E+03  0.14467606691E+03  0.00000000000E+00 0. -1.
         -1   -1    0    0    0  501 -0.00000000000E+00 -0.00000000000E+00 -0.17887212470E+03  0.17887212470E+03  0.00000000000E+00 0.  1.
          5    1    1    2  502    0  0.90758077642E+02 -0.20640219645E+02 -0.12762208080E+03  0.15801238949E+03  0.41800000000E+01 0.  1.
         -5    1    1    2    0  502 -0.17641718165E+02  0.85234230471E+01  0.15730750239E+02  0.25471707115E+02  0.41800000000E+01 0.  1.
        -11    1    1    2    0    0 -0.30108483840E+02  0.45740140653E+02  0.14686280739E+02  0.56695397591E+02  0.00000000000E+00 0.  1.
         11    1    1    2    0    0 -0.43007875636E+02 -0.33623344055E+02  0.63008992029E+02  0.83368697415E+02  0.00000000000E+00 0. -1.
</event>
<event>
 6    1  0.8259171E-006  0.2710040E+03  0.7561462E-02  0.1100706E+00
         -1   -1    0    0    0  501 -0.00000000000E+00  0.00000000000E+00  0.43083032952E+03  0.43083032952E+03  0.00000000000E+00 0.  1.
          1   -1    0    0  501    0  0.00000000000E+00 -0.00000000000E+00 -0.24804315350E+03  0.24804315350E+03  0.00000000000E+00 0. -1.
          5    1    1    2  502    0 -0.94934701171E+02 -0.16228185764E+03  0.10270871357E+03  0.21427680941E+03  0.41800000000E+01 0.  1.
         -5    1    1    2    0  502 -0.60969974002E+02 -0.48813341746E+02  0.15763066640E+03  0.17596868884E+03  0.41800000000E+01 0.  1.
        -11    1    1    2    0    0  0.14667714503E+03  0.13583789459E+03 -0.39445300467E+02  0.20376960080E+03  0.00000000000E+00 0. -1.
         11    1    1    2    0    0  0.92275301378E+01  0.75257304793E+02 -0.38106903480E+02  0.84858383970E+02  0.00000000000E+00 0.  1.
</event>
<event>
 6    1  0.8259171E-006  0.8396827E+02  0.7561462E-02  0.1318153E+00
          1   -1    0    0  501    0  0.00000000000E+00  0.00000000000E+00  0.28073681160E+03  0.28073681160E+03  0.00000000000E+00 0. -1.
         -1   -1    0    0    0  501 -0.00000000000E+00 -0.00000000000E+00 -0.57686315147E+02  0.57686315147E+02  0.00000000000E+00 0.  1.
          5    1    1    2  502    0 -0.27623474745E+02  0.18804537715E+02 -0.32743137008E+02  0.46970761297E+02  0.41800000000E+01 0. -1.
         -5    1    1    2    0  502  0.21556315617E+02  0.23211599767E+02  0.92781024165E+02  0.98128711149E+02  0.41800000000E+01 0. -1.
        -11    1    1    2    0    0  0.43128856089E+02  0.38948279132E+01  0.86190924452E+02  0.96457987590E+02  0.00000000000E+00 0. -1.
         11    1    1    2    0    0 -0.37061696961E+02 -0.45910965395E+02  0.76821684839E+02  0.96865666707E+02  0.00000000000E+00 0.  1.
</event>
<event>
 6    1  0.8259171E-006  0.1428421E+03  0.7561462E-02  0.1209555E+00
         -2   -1    0    0    0  501 -0.00000000000E+00  0.00000000000E+00  0.74322401746E+03  0.74322401746E+03  0.00000000000E+00 0.  1.
          2   -1    0    0  501    0  0.00000000000E+00 -0.00000000000E+00 -0.35508099524E+02  0.35508099524E+02  0.00000000000E+00 0. -1.
          5    1    1    2  502    0 -0.72706977256E+01  0.11454486642E+03  0.20093656957E+03  0.23144409013E+03  0.41800000000E+01 0.  1.
         -5    1    1    2    0  502 -0.40686362338E+02 -0.66251994690E+01  0.20907320985E+03  0.21313928034E+03  0.41800000000E+01 0.  1.
        -11    1    1    2    0    0 -0.10163315239E+02 -0.33294366885E+02  0.18638335469E+02  0.39486648275E+02  0.00000000000E+00 0. -1.
         11    1    1    2    0    0  0.58120375303E+02 -0.74625300065E+02  0.27906780305E+03  0.29466209823E+03  0.00000000000E+00 0.  1.
</event>
<event>
 6    1  0.8259171E-006  0.1162359E+03  0.7561462E-02  0.1249439E+00
         -2   -1    0    0    0  501 -0.00000000000E+00  0.00000000000E+00  0.29639239135E+02  0.29639239135E+02  0.00000000000E+00 0.  1.
          2   -1    0    0  501    0  0.00000000000E+00 -0.00000000000E+00 -0.48938106309E+03  0.48938106309E+03  0.00000000000E+00 0. -1.
          5    1    1    2  502    0 -0.62868016670E+02  0.40456117041E+02 -0.16434503303E+03  0.18059858030E+03  0.41800000000E+01 0. -1.
         -5    1    1    2    0  502  0.56467813484E+02  0.10020747616E+02 -0.79077144754E+02  0.97773700783E+02  0.41800000000E+01 0. -1.
        -11    1    1    2    0    0 -0.29116184358E+02  0.92960627556E+01 -0.10536538386E+03  0.10970885602E+03  0.00000000000E+00 0. -1.
         11    1    1    2    0    0  0.35516387545E+02 -0.59772927413E+02 -0.11095426232E+03  0.13093916512E+03  0.00000000000E+00 0.  1.
</event>
<event>
 6    1  0.8259171E-006  0.2718377E+03  0.7561462E-02  0.1100232E+00
         -2   -1    0    0    0  501 -0.00000000000E+00  0.00000000000E+00  0.46806976381E+03  0.46806976381E+03  0.00000000000E+00 0.  1.
          2   -1    0    0  501    0  0.00000000000E+00 -0.00000000000E+00 -0.18333870140E+03  0.18333870140E+03  0.00000000000E+00 0. -1.
          5    1    1    2  502    0 -0.61733452130E+02 -0.19376854507E+03  0.22682298664E+03  0.30466934181E+03  0.41800000000E+01 0.  1.
         -5    1    1    2    0  502  0.33860082600E+02 -0.60171933446E+02  0.20182698823E+02  0.72055398827E+02  0.41800000000E+01 0.  1.
        -11    1    1    2    0    0  0.59756223961E+02  0.19668860581E+03  0.38543137170E+02  0.20914776447E+03  0.00000000000E+00 0.  1.
         11    1    1    2    0    0 -0.31882854431E+02  0.57251872707E+02 -0.81776022739E+00  0.65535960105E+02  0.00000000000E+00 0. -1.
</event>
<event>
 6    1  0.8259171E-006  0.1243444E+03  0.7561462E-02  0.1236098E+00
         -1   -1    0    0    0  501 -0.00000000000E+00  0.00000000000E+00  0.22829895619E+03  0.22829895619E+03  0.00000000000E+00 0.  1.
          1   -1    0    0  501    0  0.00000000000E+00 -0.00000000000E+00 -0.91317960705E+02  0.91317960705E+02  0.00000000000E+00 0. -1.
          5    1    1    2  502    0 -0.11601731280E+03 -0.17645852827E+02  0.97742620379E+02  0.15278247684E+03  0.41800000000E+01 0. -1.
         -5    1    1    2    0  502  0.29390959660E+02  0.16533192723E+02  0.18378308664E+02  0.38631717548E+02  0.41800000000E+01 0. -1.
        -11    1    1    2    0    0  0.40452817117E+02  0.22618051620E+02 -0.30805540063E+02  0.55650588230E+02  0.00000000000E+00 0. -1.
         11    1    1    2    0    0  0.46173536020E+02 -0.21505391515E+02  0.51665606501E+02  0.72552134275E+02  0.00000000000E+00 0.  1.
</event>
<event>
 6    1  0.8259171E-006  0.1703709E+03  0.7561462E-02  0.1177462E+00
          2   -1    0    0  501    0  0.00000000000E+00  0.00000000000E+00  0.81610978711E+03  0.81610978711E+03  0.00000000000E+00 0. -1.
         -2   -1    0    0    0  501 -0.00000000000E+00 -0.00000000000E+00 -0.43553179894E+02  0.43553179894E+02  0.00000000000E+00 0.  1.
          5    1    1    2  502    0  0.93640317436E+02 -0.68586469577E+01  0.20790866273E+03  0.22816449006E+03  0.41800000000E+01 0.  1.
         -5    1    1    2    0  502  0.18936980287E+02 -0.80568208313E+02  0.71082906557E+02  0.10917919865E+03  0.41800000000E+01 0.  1.
        -11    1    1    2    0    0 -0.19344117512E+02 -0.15664384802E+02  0.33627712270E+02  0.41837672809E+02  0.00000000000E+00 0.  1.
         11    1    1    2    0    0 -0.93233180211E+02  0.10309124007E+03  0.45993732566E+03  0.48048160548E+03  0.00000000000E+00 0. -1.
</event>
<event>
 6    1  0.8259171E-006  0.7638616E+02  0.7561462E-02  0.1339631E+00
         -2   -1    0    0    0  501 -0.00000000000E+00  0.00000000000E+00  0.51613120354E+03  0.51613120354E+03  0.00000000000E+00 0.  1.
          2   -1    0    0  501    0  0.00000000000E+00 -0.00000000000E+00 -0.29741392677E+02  0.29741392677E+02  0.00000000000E+00 0. -1.
          5    1    1    2  502    0  0.30722986716E+02 -0.42430828263E+02  0.37273678363E+02  0.64428849117E+02  0.41800000000E+01 0. -1.
         -5    1    1    2    0  502  0.24467609753E+02  0.23647355215E+02  0.27311840056E+03  0.27526168360E+03  0.41800000000E+01 0. -1.
        -11    1    1    2    0    0 -0.50685170811E+02  0.44133297716E+01  0.18273389155E+03  0.18968431443E+03  0.00000000000E+00 0.  1.
         11    1    1    2    0    0 -0.45054256576E+01  0.14370143276E+02 -0.67361596057E+01  0.16497749070E+02  0.00000000000E+00 0. -1.
</event>
<event>
 6    1  0.8259171E-006  0.1311998E+03  0.7561462E-02  0.1225686E+00
          3   -1    0    0  501    0  0.00000000000E+00  0.00000000000E+00  0.37998047191E+02  0.37998047191E+02  0.00000000000E+00 0. -1.
         -3   -1    0    0    0  501 -0.00000000000E+00 -0.00000000000E+00 -0.54418042577E+03  0.54418042577E+03  0.00000000000E+00 0.  1.
          5    1    1    2  502    0 -0.70253065370E+02  0.48139067418E+02 -0.27448136223E+03  0.28742016912E+03  0.41800000000E+01 0. -1.
         -5    1    1    2    0  502 -0.17479601756E+02 -0.53001788675E+02 -0.71276791261E+02  0.90623283171E+02  0.41800000000E+01 0. -1.
        -11    1    1    2    0    0 -0.16100412890E+02  0.63921216399E+01 -0.48287924167E+02  0.51301131904E+02  0.00000000000E+00 0.  1.
         11    1    1    2    0    0  0.10383308001E+03 -0.15294003834E+01 -0.11213630093E+03  0.15283388877E+03  0.00000000000E+00 0. -1.
</event>
<event>
 6    1  0.8259171E-006  0.1052164E+03  0.7561462E-02  0.1269694E+00
          1   -1    0    0  501    0  0.00000000000E+00  0.00000000000E+00  0.18486746321E+03  0.18486746321E+03  0.00000000000E+00 0. -1.
         -1   -1    0    0    0  501 -0.00000000000E+00 -0.00000000000E+00 -0.14093425776E+03  0.14093425776E+03  0.00000000000E+00 0.  1.
          5    1    1    2  502    0 -0.12811777269E+02  0.46489805558E+02 -0.67323478600E+02  0.82917831787E+02  0.41800000000E+01 0. -1.
         -5    1    1    2    0  502  0.30737093375E+02 -0.63531663440E+02 -0.26966021899E+02  0.75668222562E+02  0.41800000000E+01 0. -1.
        -11    1    1    2    0    0 -0.46346426304E+02 -0.14796128129E+02  0.53255207041E+02  0.72132057476E+02  0.00000000000E+00 0.  1.
         11    1    1    2    0    0  0.28421110198E+02  0.31837986011E+02  0.84967498905E+02  0.95083609146E+02  0.00000000000E+00 0. -1.
</event>
<event>
 6    1  0.8259171E-006  0.1050750E+03  0.7561462E-02  0.1269972E+00
          2   -1    0    0  501    0  0.00000000000E+00  0.00000000000E+00  0.38599220412E+03  0.38599220412E+03  0.00000000000E+00 0. -1.
         -2   -1    0    0    0  501 -0.00000000000E+00 -0.00000000000E+00 -0.45120970868E+02  0.45120970868E+02  0.00000000000E+00 0.  1.
          5    1    1    2  502    0 -0.43848762041E+01  0.61099804746E+02  0.39108464490E+02  0.72796687247E+02  0.41800000000E+01 0. -1.
         -5    1    1    2    0  502 -0.48938798916E+02 -0.55543433543E+02  0.63891507748E+02  0.97875820362E+02  0.41800000000E+01 0. -1.
        -11    1    1    2    0    0  0.31109195806E+02  0.22809978748E+02  0.21346581235E+03  0.21692332802E+03  0.00000000000E+00 0. -1.
         11    1    1    2    0    0  0.22214479314E+02 -0.28366349952E+02  0.24405448659E+02  0.43517339360E+02  0.00000000000E+00 0.  1.
</event>
<event>
 6    1  0.8259171E-006  0.1208333E+03  0.7561462E-02  0.1241729E+00
         -1   -1    0    0    0  501 -0.00000000000E+00  0.00000000000E+00  0.14665739743E+03  0.14665739743E+03  0.00000000000E+00 0.  1.
          1   -1    0    0  501    0  0.00000000000E+00 -0.00000000000E+00 -0.13759288577E+03  0.13759288577E+03  0.00000000000E+00 0. -1.
          5    1    1    2  502    0 -0.16409182366E+02  0.35552979108E+02  0.54697011639E+02  0.67398153324E+02  0.41800000000E+01 0.  1.
         -5    1    1    2    0  502 -0.71990875732E+02 -0.12244886828E+02 -0.48333654825E+02  0.87671192708E+02  0.41800000000E+01 0.  1.
        -11    1    1    2    0    0  0.81062950841E+02  0.21397083094E+02  0.25235422301E+01  0.83877323690E+02  0.00000000000E+00 0. -1.
         11    1    1    2    0    0  0.73371072574E+01 -0.44705175374E+02  0.17761262261E+00  0.45303613480E+02  0.00000000000E+00 0.  1.
</event>
<event>
 6    1  0.8259171E-006  0.1302707E+03  0.7561462E-02  0.1227055E+00
         -2   -1    0    0    0  501 -0.00000000000E+00  0.00000000000E+00  0.18026924240E+03  0.18026924240E+03  0.00000000000E+00 0.  1.
          2   -1    0    0  501    0  0.00000000000E+00 -0.00000000000E+00 -0.14409327733E+03  0.14409327733E+03  0.00000000000E+00 0. -1.
          5    1    1    2  502    0 -0.29724542724E+01  0.32037986395E+02  0.71327227272E+02  0.78360154460E+02  0.41800000000E+01 0. -1.
         -5    1    1    2    0  502 -0.84885718433E+02 -0.54887483561E+02  0.26549081092E+02  0.10459707048E+03  0.41800000000E+01 0. -1.
        -11    1    1    2    0    0  0.46825512360E+02  0.56838222220E+02 -0.40645703364E+02  0.84114715210E+02  0.00000000000E+00 0.  1.
         11    1    1    2    0    0  0.41032660346E+02 -0.33988725053E+02 -0.21054639937E+02  0.57290579580E+02  0.00000000000E+00 0. -1.
</event>
<event>
 6    1  0.8259171E-006  0.1374300E+03  0.7561462E-02  0.1216829E+00
         -1   -1    0    0    0  501 -0.00000000000E+00  0.00000000000E+00  0.12706632533E+03  0.12706632533E+03  0.00000000000E+00 0.  1.
          1   -1    0    0  501    0  0.00000000000E+00 -0.00000000000E+00 -0.19012939993E+03  0.19012939993E+03  0.00000000000E+00 0. -1.
          5    1    1    2  502    0  0.18596459847E+02 -0.98820157685E+02  0.40969603987E+02  0.10866109117E+03  0.41800000000E+01 0.  1.
         -5    1    1    2    0  502  0.37629945817E+02  0.94028150348E+01 -0.38871391057E+02  0.55071618784E+02  0.41800000000E+01 0.  1.
        -11    1    1    2    0    0 -0.10014057098E+02  0.88418547637E+02 -0.59152358550E+02  0.10685093555E+03  0.00000000000E+00 0.  1.
         11    1    1    2    0    0 -0.46212348565E+02  0.99879501328E+00 -0.60089289802E+01  0.46612079753E+02  0.00000000000E+00 0. -1.
</event>
<event>
 6    1  0.8259171E-006  0.1279076E+03  0.7561462E-02  0.1230594E+00
          2   -1    0    0  501    0  0.00000000000E+00  0.00000000000E+00  0.44530782813E+03  0.44530782813E+03  0.00000000000E+00 0. -1.
         -2   -1    0    0    0  501 -0.00000000000E+00 -0.00000000000E+00 -0.49743724760E+02  0.49743724760E+02  0.00000000000E+00 0.  1.
          5    1    1    2  502    0  0.37639454149E+02  0.35009347692E+02  0.42655255057E+02  0.66927767918E+02  0.41800000000E+01 0. -1.
         -5    1    1    2    0  502  0.92650830205E+01 -0.92868180323E+02  0.56330984889E+02  0.10909167218E+03  0.41800000000E+01 0. -1.
        -11    1    1    2    0    0 -0.29941209110E+02  0.78549909259E+02  0.16989256189E+03  0.18955222719E+03  0.00000000000E+00 0.  1.
         11    1    1    2    0    0 -0.16963328060E+02 -0.20691076629E+02  0.12668530153E+03  0.12947988560E+03  0.00000000000E+00 0. -1.
</event>
<event>
 6    1  0.8259171E-006  0.8576332E+02  0.7561462E-02  0.1313448E+00
          4   -1    0    0  501    0  0.00000000000E+00  0.00000000000E+00  0.15664882873E+03  0.15664882873E+03  0.00000000000E+00 0. -1.
         -4   -1    0    0    0  501 -0.00000000000E+00 -0.00000000000E+00 -0.10477784639E+03  0.10477784639E+03  0.00000000000E+00 0.  1.
          5    1    1    2  502    0  0.50542392189E+01  0.40216621595E+02 -0.54092388282E+02  0.67722823750E+02  0.41800000000E+01 0. -1.
         -5    1    1    2    0  502  0.30933606164E+02  0.15440121470E+02  0.65392930927E+02  0.74087739583E+02  0.41800000000E+01 0. -1.
        -11    1    1    2    0    0  0.17574090678E+02 -0.33816601597E+02 -0.13505002821E+02  0.40432614409E+02  0.00000000000E+00 0.  1.
         11    1    1    2    0    0 -0.53561936061E+02 -0.21840141468E+02  0.54075442513E+02  0.79183497377E+02  0.00000000000E+00 0. -1.
</event>
<event>
 6    1  0.8259171E-006  0.1517062E+03  0.7561462E-02  0.1198392E+00
          1   -1    0    0  501    0  0.00000000000E+00  0.00000000000E+00  0.36092252019E+02  0.36092252019E+02  0.00000000000E+00 0. -1.
         -1   -1    0    0    0  501 -0.00000000000E+00 -0.00000000000E+00 -0.74818985219E+03  0.74818985219E+03  0.00000000000E+00 0.  1.
          5    1    1    2  502    0  0.81018205010E+02 -0.28016748764E+02 -0.36216951083E+03  0.37220036906E+03  0.41800000000E+01 0.  1.
         -5    1    1    2    0  502 -0.13863246778E+02 -0.67380884605E+02 -0.10796908990E+03  0.12809047582E+03  0.41800000000E+01 0.  1.
        -11    1    1    2    0    0 -0.90415537564E+02  0.80376982460E+02 -0.19515773263E+03  0.22961265067E+03  0.00000000000E+00 0.  1.
         11    1    1    2    0    0  0.23260579333E+02  0.15020650910E+02 -0.46801266808E+02  0.54378608657E+02  0.00000000000E+00 0. -1.
</event>
<event>
 6    1  0.8259171E-006  0.6401229E+02  0.7561462E-02  0.1381726E+00
         -4   -1    0    0    0  501 -0.00000000000E+00  0.00000000000E+00  0.82248217675E+03  0.82248217675E+03  0.00000000000E+00 0.  1.
          4   -1    0    0  501    0  0.00000000000E+00 -0.00000000000E+00 -0.15759864211E+02  0.15759864211E+02  0.00000000000E+00 0. -1.
          5    1    1    2  502    0  0.89195271283E+01 -0.50728937083E+02  0.88166621540E+02  0.10219495377E+03  0.41800000000E+01 0. -1.
         -5    1    1    2    0  502 -0.42575607392E+01  0.18234984550E+02  0.48508975272E+03  0.48546903308E+03  0.41800000000E+01 0. -1.
        -11    1    1    2    0    0 -0.14900489734E+02 -0.69277721458E+01  0.32040418224E+01  0.16741699591E+02  0.00000000000E+00 0. -1.
         11    1    1    2    0    0  0.10238523344E+02  0.39421724679E+02  0.23026189645E+03  0.23383635452E+03  0.00000000000E+00 0.  1.
</event>
<event>
 6    1  0.8259171E-006  0.1266876E+03  0.7561462E-02  0.1232455E+00
         -2   -1    0    0    0  501 -0.00000000000E+00  0.00000000000E+00  0.48130510281E+02  0.48130510281E+02  0.00000000000E+00 0.  1.
          2   -1    0    0  501    0  0.00000000000E+00 -0.00000000000E+00 -0.36786166693E+03  0.36786166693E+03  0.00000000000E+00 0. -1.
          5    1    1    2  502    0 -0.53997922608E+02  0.46762700077E+02 -0.64202967250E+02  0.96135420986E+02  0.41800000000E+01 0. -1.
         -5    1    1    2    0  502 -0.87051172842E+01 -0.69146252076E+02 -0.50283188795E+02  0.86039843785E+02  0.41800000000E+01 0. -1.
        -11    1    1    2    0    0  0.49790079807E+02  0.56628837076E+02 -0.13824859930E+03  0.15747556142E+03  0.00000000000E+00 0.  1.
         11    1    1    2    0    0  0.12912960085E+02 -0.34245285077E+02 -0.66996401311E+02  0.76341351028E+02  0.00000000000E+00 0. -1.
</event>
<event>
 6    1  0.8259171E-006  0.2120653E+03  0.7561462E-02  0.1139941E+00
          3   -1    0    0  501    0  0.00000000000E+00  0.00000000000E+00  0.21423385956E+03  0.21423385956E+03  0.00000000000E+00 0. -1.
         -3   -1    0    0    0  501 -0.00000000000E+00 -0.00000000000E+00 -0.25404197610E+03  0.25404197610E+03  0.00000000000E+00 0.  1.
          5    1    1    2  502    0 -0.16044964630E+02  0.24770811250E+02 -0.33232282657E+02  0.44641807653E+02  0.41800000000E+01 0. -1.
         -5    1    1    2    0  502  0.99920886381E+02  0.16089632699E+03  0.45012948853E+02  0.19471889877E+03  0.41800000000E+01 0. -1.
        -11    1    1    2    0    0 -0.35409112870E+02 -0.10456270102E+03  0.17624706149E+02  0.11179353284E+03  0.00000000000E+00 0. -1.
         11    1    1    2    0    0 -0.48466808881E+02 -0.81104437221E+02 -0.69213488878E+02  0.11712159640E+03  0.00000000000E+00 0.  1.
</event>
<event>
 6    1  0.8259171E-006  0.1459301E+03  0.7561462E-02  0.1205565E+00
          1   -1    0    0  501    0  0.00000000000E+00  0.00000000000E+00  0.74530859030E+03  0.74530859030E+03  0.00000000000E+00 0. -1.
         -1   -1    0    0    0  501 -0.00000000000E+00 -0.00000000000E+00 -0.95055690364E+02  0.95055690364E+02  0.00000000000E+00 0.  1.
          5    1    1    2  502    0 -0.67871068849E+02  0.10295757244E+02  0.40562079921E+03  0.41141000201E+03  0.41800000000E+01 0. -1.
         -5    1    1    2    0  502  0.10244740569E+03  0.42015024895E+02 -0.42324183907E+02  0.11861510104E+03  0.41800000000E+01 0.  1.
        -11    1    1    2    0    0 -0.66958681167E+02 -0.34635067322E+02  0.23365943410E+03  0.24551941678E+03  0.00000000000E+00 0.  1.
         11    1    1    2    0    0  0.32382344322E+02 -0.17675714817E+02  0.53296850534E+02  0.64819760836E+02  0.00000000000E+00 0. -1.
</event>
<event>
 6    1  0.8259171E-006  0.7738311E+02  0.7561462E-02  0.1336646E+00
         -1   -1    0    0    0  501 -0.00000000000E+00  0.00000000000E+00  0.10763190591E+03  0.10763190591E+03  0.00000000000E+00 0.  1.
          1   -1    0    0  501    0  0.00000000000E+00 -0.00000000000E+00 -0.14199034922E+03  0.14199034922E+03  0.00000000000E+00 0. -1.
          5    1    1    2  502    0 -0.18065161982E+01  0.92254660295E+01 -0.54363019475E+02  0.55327958671E+02  0.41800000000E+01 0. -1.
         -5    1    1    2    0  502 -0.27842418157E+02 -0.61680449159E+02  0.48904954060E+02  0.83599312132E+02  0.41800000000E+01 0. -1.
        -11    1    1    2    0    0 -0.12742145358E+02  0.17972059400E+02 -0.47995082643E+02  0.52809896282E+02  0.00000000000E+00 0. -1.
         11    1    1    2    0    0  0.42391079713E+02  0.34482923729E+02  0.19094704744E+02  0.57885088040E+02  0.00000000000E+00 0.  1.
</event>
<event>
 6    1  0.8259171E-006  0.2113166E+03  0.7561462E-02  0.1140528E+00
          2   -1    0    0  501    0  0.00000000000E+00  0.00000000000E+00  0.10387790353E+03  0.10387790353E+03  0.00000000000E+00 0. -1.
         -2   -1    0    0    0  501 -0.00000000000E+00 -0.00000000000E+00 -0.46427924437E+03  0.46427924437E+03  0.00000000000E+00 0.  1.
          5    1    1    2  502    0  0.17371792227E+03  0.98269735997E+02 -0.16427954784E+03  0.25853452336E+03  0.41800000000E+01 0.  1.
         -5    1    1    2    0  502 -0.26778788062E+00 -0.18561503392E+02 -0.54062272297E+02  0.57313199217E+02  0.41800000000E+01 0.  1.
        -11    1    1    2    0    0 -0.68837819023E+02  0.54920345750E+01 -0.73930485083E+02  0.10116582623E+03  0.00000000000E+00 0.  1.
         11    1    1    2    0    0 -0.10461231537E+03 -0.85200267180E+02 -0.68129035615E+02  0.15114359910E+03  0.00000000000E+00 0. -1.
</event>
<event>
 6    1  0.8259171E-006  0.2071023E+03  0.7561462E-02  0.1143881E+00
          1   -1    0    0  501    0  0.00000000000E+00  0.00000000000E+00  0.51237350263E+03  0.51237350263E+03  0.00000000000E+00 0. -1.
         -1   -1    0    0    0  501 -0.00000000000E+00 -0.00000000000E+00 -0.84587993349E+02  0.84587993349E+02  0.00000000000E+00 0.  1.
          5    1    1    2  502    0 -0.90797818653E+02  0.22896516672E+02  0.77652921762E+02  0.12172075832E+03  0.41800000000E+01 0. -1.
         -5    1    1    2    0  502  0.17889395062E+03 -0.61678416125E+02  0.20170887231E+03  0.27660660540E+03  0.41800000000E+01 0.  1.
        -11    1    1    2    0    0 -0.60511073493E+02  0.67992683858E+02  0.11275913383E+03  0.14491106699E+03  0.00000000000E+00 0. -1.
         11    1    1    2    0    0 -0.27585058475E+02 -0.29210784405E+02  0.35664581376E+02  0.53723065264E+02  0.00000000000E+00 0.  1.
</event>
<event>
 6    1  0.8259171E-006  0.1077307E+03  0.7561462E-02  0.1264831E+00
          1   -1    0    0  501    0  0.00000000000E+00  0.00000000000E+00  0.88170608251E+03  0.88170608251E+03  0.00000000000E+00 0. -1.
         -1   -1    0    0    0  501 -0.00000000000E+00 -0.00000000000E+00 -0.18999896660E+02  0.18999896660E+02  0.00000000000E+00 0.  1.
          5    1    1    2  502    0  0.30279768979E+02  0.47140043760E+02  0.67537935631E+02  0.87851541161E+02  0.41800000000E+01 0. -1.
         -5    1    1    2    0  502 -0.44288965803E+02  0.20358933652E+02  0.35084002832E+03  0.35423466310E+03  0.41800000000E+01 0. -1.
        -11    1    1    2    0    0 -0.28771144843E+02 -0.60518228207E+02  0.21391579719E+03  0.22416557053E+03  0.00000000000E+00 0. -1.
         11    1    1    2    0    0  0.42780341666E+02 -0.69807492044E+01  0.23041242471E+03  0.23445420438E+03  0.00000000000E+00 0.  1.
</event>
<event>
 6    1  0.8259171E-006  0.1160563E+03  0.7561462E-02  0.1249748E+00
         -2   -1    0    0    0  501 -0.00000000000E+00  0.00000000000E+00  0.19858844273E+02  0.19858844273E+02  0.00000000000E+00 0.  1.
          2   -1    0    0  501    0  0.00000000000E+00 -0.00000000000E+00 -0.74251753181E+03  0.74251753181E+03  0.00000000000E+00 0. -1.
          5    1    1    2  502    0 -0.45273063514E+02  0.16294944916E+02 -0.18074458954E+03  0.18708622225E+03  0.41800000000E+01 0. -1.
         -5    1    1    2    0  502  0.46327253895E+02 -0.67331698272E+02 -0.16691037141E+03  0.18589329340E+03  0.41800000000E+01 0. -1.
        -11    1    1    2    0    0 -0.27033425469E+02 -0.15069917984E+02 -0.15995423537E+03  0.16292104203E+03  0.00000000000E+00 0.  1.
         11    1    1    2    0    0  0.25979235087E+02  0.66106671340E+02 -0.21504949121E+03  0.22647581840E+03  0.00000000000E+00 0. -1.
</event>
<event>
 6    1  0.8259171E-006  0.8129302E+02  0.7561462E-02  0.1325422E+00
          1   -1    0    0  501    0  0.00000000000E+00  0.00000000000E+00  0.96887941653E+02  0.96887941653E+02  0.00000000000E+00 0. -1.
         -1   -1    0    0    0  501 -0.00000000000E+00 -0.00000000000E+00 -0.16368185736E+03  0.16368185736E+03  0.00000000000E+00 0.  1.
          5    1    1    2  502    0 -0.90279697081E+01  0.47599616441E+01  0.34977202654E+02  0.36674767585E+02  0.41800000000E+01 0. -1.
         -5    1    1    2    0  502 -0.42381530689E+02 -0.25405868283E+02 -0.10699987243E+03  0.11793259679E+03  0.41800000000E+01 0. -1.
        -11    1    1    2    0    0  0.16099793585E+02  0.52191939639E+02 -0.11367533561E+02  0.55789091550E+02  0.00000000000E+00 0.  1.
         11    1    1    2    0    0  0.35309706812E+02 -0.31546033000E+02  0.16596287628E+02  0.50173343084E+02  0.00000000000E+00 0. -1.
</event>
<event>
 6    1  0.8259171E-006  0.1508629E+03  0.7561462E-02  0.1199417E+00
          1   -1    0    0  501    0  0.00000000000E+00  0.00000000000E+00  0.83929220209E+02  0.83929220209E+02  0.00000000000E+00 0. -1.
         -1   -1    0    0    0  501 -0.00000000000E+00 -0.00000000000E+00 -0.34774032963E+03  0.34774032963E+03  0.00000000000E+00 0.  1.
          5    1    1    2  502    0  0.44867641057E+02 -0.58665833666E+02 -0.10237351107E+03  0.12630357644E+03  0.41800000000E+01 0. -1.
         -5    1    1    2    0  502  0.86264221407E+02  0.36604563552E+02 -0.32507178676E+02  0.99275369721E+02  0.41800000000E+01 0.  1.
        -11    1    1    2    0    0 -0.95776068901E+02  0.23306587487E+02 -0.13798149061E+03  0.16957341816E+03  0.00000000000E+00 0.  1.
         11    1    1    2    0    0 -0.35355793563E+02 -0.12453173739E+01  0.90510709260E+01  0.36517185526E+02  0.00000000000E+00 0. -1.
</event>
<event>
 6    1  0.8259171E-006  0.1203035E+03  0.7561462E-02  0.1242597E+00
          2   -1    0    0  501    0  0.00000000000E+00  0.00000000000E+00  0.30211921134E+03  0.30211921134E+03  0.00000000000E+00 0. -1.
         -2   -1    0    0    0  501 -0.00000000000E+00 -0.00000000000E+00 -0.69563275135E+02  0.69563275135E+02  0.00000000000E+00 0.  1.
          5    1    1    2  502    0  0.81303630349E+02  0.31522064484E+02  0.35122341338E+02  0.94100861412E+02  0.41800000000E+01 0.  1.
         -5    1    1    2    0  502 -0.11310524102E+02 -0.56171400112E+02  0.11110144175E+02  0.58515483845E+02  0.41800000000E+01 0.  1.
        -11    1    1    2    0    0  0.94450160125E+01 -0.54516869475E+01 -0.32081212069E+01  0.11367552935E+02  0.00000000000E+00 0.  1.
         11    1    1    2    0    0 -0.79438122260E+02  0.30101022576E+02  0.18953157190E+03  0.20769858828E+03  0.00000000000E+00 0. -1.
</event>
<event>
 6    1  0.8259171E-006  0.9860265E+02  0.7561462E-02  0.1283262E+00
         -2   -1    0    0    0  501 -0.00000000000E+00  0.00000000000E+00  0.12595729643E+03  0.12595729643E+03  0.00000000000E+00 0.  1.
          2   -1    0    0  501    0  0.00000000000E+00 -0.00000000000E+00 -0.14328371242E+03  0.14328371242E+03  0.00000000000E+00 0. -1.
          5    1    1    2  502    0  0.60007584843E+02 -0.40223698673E+02 -0.70462417768E+02  0.10100139054E+03  0.41800000000E+01 0.  1.
         -5    1    1    2    0  502  0.47724678133E+01 -0.58591879359E+01  0.48119673875E+02  0.48888464346E+02  0.41800000000E+01 0.  1.
        -11    1    1    2    0    0 -0.11812585877E+02 -0.24946894856E+02 -0.10244188926E+02  0.29441945500E+02  0.00000000000E+00 0. -1.
         11    1    1    2    0    0 -0.52967466780E+02  0.71029781465E+02  0.15260516827E+02  0.89909208460E+02  0.00000000000E+00 0.  1.
</event>
<event>
 6    1  0.8259171E-006  0.1152519E+03  0.7561462E-02  0.1251142E+00
          1   -1    0    0  501    0  0.00000000000E+00  0.00000000000E+00  0.42941998099E+03  0.42941998099E+03  0.00000000000E+00 0. -1.
         -1   -1    0    0    0  501 -0.00000000000E+00 -0.00000000000E+00 -0.63308089558E+02  0.63308089558E+02  0.00000000000E+00 0.  1.
          5    1    1    2  502    0 -0.41617135512E+02  0.74513307221E+02  0.97432800690E+02  0.12959491491E+03  0.41800000000E+01 0. -1.
         -5    1    1    2    0  502 -0.23268270055E+02 -0.13210923929E+02 -0.28073420244E+02  0.39006797185E+02  0.41800000000E+01 0. -1.
        -11    1    1    2    0    0  0.75420028684E+02 -0.23902472808E+02  0.12424196361E+03  0.14729417658E+03  0.00000000000E+00 0.  1.
         11    1    1    2    0    0 -0.10534623117E+02 -0.37399910485E+02  0.17251054738E+03  0.17683218187E+03  0.00000000000E+00 0. -1.
</event>
<event>
 6    1  0.8259171E-006  0.7301411E+02  0.7561462E-02  0.1350133E+00
          1   -1    0    0  501    0  0.00000000000E+00  0.00000000000E+00  0.15970238316E+03  0.15970238316E+03  0.00000000000E+00 0. -1.
         -1   -1    0    0    0  501 -0.00000000000E+00 -0.00000000000E+00 -0.12144542898E+03  0.12144542898E+03  0.00000000000E+00 0.  1.
          5    1    1    2  502    0  0.32622683290E+00  0.19956270041E+02 -0.81427009717E+02  0.83941583552E+02  0.41800000000E+01 0. -1.
         -5    1    1    2    0  502 -0.29263616684E+02 -0.45942895315E+02  0.23271176075E+02  0.59381216957E+02  0.41800000000E+01 0. -1.
        -11    1    1    2    0    0  0.29810681070E+02 -0.12631894105E+02 -0.16599277071E+01  0.32419081025E+02  0.00000000000E+00 0.  1.
         11    1    1    2    0    0 -0.87329121929E+00  0.38618519379E+02  0.98072715529E+02  0.10540593061E+03  0.00000000000E+00 0. -1.
</event>
<event>
 6    1  0.8259171E-006  0.8421501E+02  0.7561462E-02  0.1317498E+00
          2   -1    0    0  501    0  0.00000000000E+00  0.00000000000E+00  0.80749955970E+02  0.80749955970E+02  0.00000000000E+00 0. -1.
         -2   -1    0    0    0  501 -0.00000000000E+00 -0.00000000000E+00 -0.18591273696E+03  0.18591273696E+03  0.00000000000E+00 0.  1.
          5    1    1    2  502    0  0.20621368473E+02 -0.57533987748E+02 -0.86352750338E+02  0.10587573128E+03  0.41800000000E+01 0.  1.
         -5    1    1    2    0  502  0.11161885603E+01  0.59312594212E+01  0.38568532614E+02  0.39261047149E+02  0.41800000000E+01 0.  1.
        -11    1    1    2    0    0  0.26593446067E+02 -0.31683479676E+01 -0.37027330834E+02  0.45697626101E+02  0.00000000000E+00 0.  1.
         11    1    1    2    0    0 -0.48331003101E+02  0.54771076295E+02 -0.20351232430E+02  0.75828288393E+02  0.00000000000E+00 0. -1.
</event>
<event>
 6    1  0.8259171E-006  0.1239313E+03  0.7561462E-02  0.1236749E+00
          1   -1    0    0  501    0  0.00000000000E+00  0.00000000000E+00  0.22953795906E+03  0.22953795906E+03  0.00000000000E+00 0. -1.
         -1   -1    0    0    0  501 -0.00000000000E+00 -0.00000000000E+00 -0.11724211760E+03  0.11724211760E+03  0.00000000000E+00 0.  1.
          5    1    1    2  502    0 -0.14141297889E+01 -0.76432912166E+02  0.65068500643E+02  0.10047572842E+03  0.41800000000E+01 0.  1.
         -5    1    1    2    0  502  0.24796982826E+02 -0.34563973288E+02 -0.53864264922E+02  0.68763289932E+02  0.41800000000E+01 0.  1.
        -11    1    1    2    0    0  0.17757382722E+02  0.12217215687E+02 -0.95904160149E+01  0.23591546784E+02  0.00000000000E+00 0.  1.
         11    1    1    2    0    0 -0.41140235760E+02  0.98779669766E+02  0.11068202176E+03  0.15394951152E+03  0.00000000000E+00 0. -1.
</event>
<event>
 6    1  0.8259171E-006  0.1254108E+03  0.7561462E-02  0.1234429E+00
          2   -1    0    0  501    0  0.00000000000E+00  0.00000000000E+00  0.52583561990E+03  0.52583561990E+03  0.00000000000E+00 0. -1.
         -2   -1    0    0    0  501 -0.00000000000E+00 -0.00000000000E+00 -0.38556903296E+02  0.38556903296E+02  0.00000000000E+00 0.  1.
          5    1    1    2  502    0 -0.65450941446E+01 -0.18250240437E+02  0.11714037544E+03  0.11880761546E+03  0.41800000000E+01 0.  1.
         -5    1    1    2    0  502  0.27700368454E+02  0.10500362917E+03  0.10343087495E+03  0.15002830014E+03  0.41800000000E+01 0.  1.
        -11    1    1    2    0    0  0.30603112035E+02 -0.15672221648E+02  0.42129960104E+02  0.54379247292E+02  0.00000000000E+00 0.  1.
         11    1    1    2    0    0 -0.51758386344E+02 -0.71081167082E+02  0.22457750611E+03  0.24117736030E+03  0.00000000000E+00 0. -1.
</event>
<event>
 6    1  0.8259171E-006  0.1037274E+03  0.7561462E-02  0.1272647E+00
          2   -1    0    0  501    0  0.00000000000E+00  0.00000000000E+00  0.16854725647E+03  0.16854725647E+03  0.00000000000E+00 0. -1.
         -2   -1    0    0    0  501 -0.00000000000E+00 -0.00000000000E+00 -0.10349726314E+03  0.10349726314E+03  0.00000000000E+00 0.  1.
          5    1    1    2  502    0 -0.19235348781E+02 -0.31514783022E+02 -0.25535770636E+02  0.45085786824E+02  0.41800000000E+01 0.  1.
         -5    1    1    2    0  502  0.90647434511E+02  0.69471131976E+01  0.47553446156E+02  0.10268409033E+03  0.41800000000E+01 0.  1.
        -11    1    1    2    0    0 -0.60981949007E+02  0.10664093526E+02 -0.14997239960E+02  0.63698023532E+02  0.00000000000E+00 0.  1.
         11    1    1    2    0    0 -0.10430136723E+02  0.13903576298E+02  0.58029557763E+02  0.60576618923E+02  0.00000000000E+00 0. -1.
</event>
<event>
 6    1  0.8259171E-006  0.1242605E+03  0.7561462E-02  0.1236230E+00
          2   -1    0    0  501    0  0.00000000000E+00  0.00000000000E+00  0.16853811151E+03  0.16853811151E+03  0.00000000000E+00 0. -1.
         -2   -1    0    0    0  501 -0.00000000000E+00 -0.00000000000E+00 -0.10090707822E+03  0.10090707822E+03  0.00000000000E+00 0.  1.
          5    1    1    2  502    0  0.24809344534E+02  0.30158559212E+02 -0.77379158934E+01  0.40029864006E+02  0.41800000000E+01 0.  1.
         -5    1    1    2    0  502 -0.13469196031E+01 -0.98138194755E+02  0.50544511474E+02  0.11047687316E+03  0.41800000000E+01 0.  1.
        -11    1    1    2    0    0 -0.53295718558E+02  0.59742844076E+02  0.13125400530E+01  0.80070992228E+02  0.00000000000E+00 0.  1.
         11    1    1    2    0    0  0.29833293627E+02  0.82367914673E+01  0.23511897647E+02  0.38867460340E+02  0.00000000000E+00 0. -1.
</event>
<event>
 6    1  0.8259171E-006  0.1130191E+03  0.7561462E-02  0.1255079E+00
         -2   -1    0    0    0  501 -0.00000000000E+00  0.00000000000E+00  0.21731195846E+02  0.21731195846E+02  0.00000000000E+00 0.  1.
          2   -1    0    0  501    0  0.00000000000E+00 -0.00000000000E+00 -0.75215939178E+03  0.75215939178E+03  0.00000000000E+00 0. -1.
          5    1    1    2  502    0 -0.17742129780E+02  0.47830534404E+02 -0.72490654912E+02  0.88740693259E+02  0.41800000000E+01 0.  1.
         -5    1    1    2    0  502 -0.30145259432E+02 -0.74485200448E+02 -0.21432503340E+03  0.22893115580E+03  0.41800000000E+01 0.  1.
        -11    1    1    2    0    0  0.93627304532E+01 -0.26862981244E+02 -0.53702480914E+02  0.60772007859E+02  0.00000000000E+00 0.  1.
         11    1    1    2    0    0  0.38524658759E+02  0.53517647289E+02 -0.38991002670E+03  0.39544673071E+03  0.00000000000E+00 0. -1.
</event>
<event>
 6    1  0.8259171E-006  0.1118321E+03  0.7561462E-02  0.1257214E+00
         -4   -1    0    0    0  501 -0.00000000000E+00  0.00000000000E+00  0.10681381434E+03  0.10681381434E+03  0.00000000000E+00 0.  1.
          4   -1    0    0  501    0  0.00000000000E+00 -0.00000000000E+00 -0.13417233993E+03  0.13417233993E+03  0.00000000000E+00 0. -1.
          5    1    1    2  502    0 -0.45347128833E+02 -0.64313443490E+02  0.20288567701E+02  0.81373702670E+02  0.41800000000E+01 0. -1.
         -5    1    1    2    0  502  0.26406519900E+01  0.41408350421E+02 -0.37133446081E+02  0.55838962609E+02  0.41800000000E+01 0.  1.
        -11    1    1    2    0    0  0.26519086286E+02 -0.34499713566E+02 -0.64757240925E+01  0.43993490156E+02  0.00000000000E+00 0. -1.
         11    1    1    2    0    0  0.16187390557E+02  0.57404806636E+02 -0.40379231180E+01  0.59779998838E+02  0.00000000000E+00 0.  1.
</event>
<event>
 6    1  0.8259171E-006  0.1044609E+03  0.7561462E-02  0.1271186E+00
          2   -1    0    0  501    0  0.00000000000E+00  0.00000000000E+00  0.11105279920E+03  0.11105279920E+03  0.00000000000E+00 0. -1.
         -2   -1    0    0    0  501 -0.00000000000E+00 -0.00000000000E+00 -0.12544083940E+03  0.12544083940E+03  0.00000000000E+00 0.  1.
          5    1    1    2  502    0 -0.56958567836E+02  0.29355377435E+02 -0.89622031191E+01  0.64836796026E+02  0.41800000000E+01 0. -1.
         -5    1    1    2    0  502  0.67005835992E+02  0.14271045042E+02 -0.10229175313E+02  0.69394187157E+02  0.41800000000E+01 0. -1.
        -11    1    1    2    0    0  0.19596000019E+02  0.39742294626E+01 -0.30155279277E+02  0.36182020187E+02  0.00000000000E+00 0.  1.
         11    1    1    2    0    0 -0.29643268175E+02 -0.47600651939E+02  0.34958617511E+02  0.66080635222E+02  0.00000000000E+00 0. -1.
</event>
<event>
 6    1  0.8259171E-006  0.1003464E+03  0.7561462E-02  0.1279569E+00
          1   -1    0    0  501    0  0.00000000000E+00  0.00000000000E+00  0.70203086593E+02  0.70203086593E+02  0.00000000000E+00 0. -1.
         -1   -1    0    0    0  501 -0.00000000000E+00 -0.00000000000E+00 -0.18369940010E+03  0.18369940010E+03  0.00000000000E+00 0.  1.
          5    1    1    2  502    0  0.31668504253E+01  0.59944531371E+02 -0.12308156024E+02  0.61419368994E+02  0.41800000000E+01 0.  1.
         -5    1    1    2    0  502  0.16038666634E+02 -0.47870938499E+02 -0.83908715890E+02  0.98015358911E+02  0.41800000000E+01 0.  1.
        -11    1    1    2    0    0 -0.20199430062E+02  0.36265203983E+02  0.38783596422E+01  0.41692009646E+02  0.00000000000E+00 0. -1.
         11    1    1    2    0    0  0.99391300312E+00 -0.48338796855E+02 -0.21157801237E+02  0.52775749143E+02  0.00000000000E+00 0.  1.
</event>
<event>
 6    1  0.8259171E-006  0.8521903E+02  0.7561462E-02  0.1314861E+00
         -1   -1    0    0    0  501 -0.00000000000E+00  0.00000000000E+00  0.54313398434E+02  0.54313398434E+02  0.00000000000E+00 0.  1.
          1   -1    0    0  501    0  0.00000000000E+00 -0.00000000000E+00 -0.26712965347E+03  0.26712965347E+03  0.00000000000E+00 0. -1.
          5    1    1    2  502    0  0.60100087941E+02 -0.21575983830E+02 -0.12479605368E+03  0.14024646542E+03  0.41800000000E+01 0. -1.
         -5    1    1    2    0  502 -0.80624646797E+00  0.41989971448E+02  0.68549936311E+01  0.42758286603E+02  0.41800000000E+01 0. -1.
        -11    1    1    2    0    0 -0.22431442904E+02 -0.14995263139E+02 -0.97425276734E+02  0.10109259169E+03  0.00000000000E+00 0. -1.
         11    1    1    2    0    0 -0.36862398569E+02 -0.54187244784E+01  0.25500817503E+01  0.37345708189E+02  0.00000000000E+00 0.  1.
</event>
<event>
 6    1  0.8259171E-006  0.9006730E+02  0.7561462E-02  0.1302689E+00
          1   -1    0    0  501    0  0.00000000000E+00  0.00000000000E+00  0.98586628992E+03  0.98586628992E+03  0.00000000000E+00 0. -1.
         -1   -1    0    0    0  501 -0.00000000000E+00 -0.00000000000E+00 -0.14045267797E+02  0.14045267797E+02  0.00000000000E+00 0.  1.
          5    1    1    2  502    0  0.61506815647E+02 -0.24445855959E+01  0.48728045826E+03  0.49117082748E+03  0.41800000000E+01 0. -1.
         -5    1    1    2    0  502 -0.17120668699E+02  0.21142734648E+01  0.46464519779E+01  0.18348007111E+02  0.41800000000E+01 0. -1.
        -11    1    1    2    0    0 -0.60321332309E+02  0.29727853321E+02  0.30416307886E+03  0.31150856640E+03  0.00000000000E+00 0.  1.
         11    1    1    2    0    0  0.15935185361E+02 -0.29397541190E+02  0.17573103302E+03  0.17888415673E+03  0.00000000000E+00 0. -1.
</event>
<event>
 6    1  0.8259171E-006  0.1125889E+03  0.7561462E-02  0.1255849E+00
          1   -1    0    0  501    0  0.00000000000E+00  0.00000000000E+00  0.28214214972E+02  0.28214214972E+02  0.00000000000E+00 0. -1.
         -1   -1    0    0    0  501 -0.00000000000E+00 -0.00000000000E+00 -0.83329487374E+03  0.83329487374E+03  0.00000000000E+00 0.  1.
          5    1    1    2  502    0  0.19627984191E+01 -0.33366058264E+02 -0.39207943040E+03  0.39352369505E+03  0.41800000000E+01 0. -1.
         -5    1    1    2    0  502 -0.43205223906E+02 -0.65775529378E+02 -0.11289152998E+03  0.13767745487E+03  0.41800000000E+01 0. -1.
        -11    1    1    2    0    0 -0.18107678097E+01  0.37245283203E+02 -0.20780274987E+03  0.21112193836E+03  0.00000000000E+00 0.  1.
         11    1    1    2    0    0  0.43053193297E+02  0.61896304440E+02 -0.92306948518E+02  0.11918600044E+03  0.00000000000E+00 0. -1.
</event>
<event>
 6    1  0.8259171E-006  0.1118696E+03  0.7561462E-02  0.1257146E+00
          3   -1    0    0  501    0  0.00000000000E+00  0.00000000000E+00  0.30537586581E+03  0.30537586581E+03  0.00000000000E+00 0. -1.
         -3   -1    0    0    0  501 -0.00000000000E+00 -0.00000000000E+00 -0.25190118177E+03  0.25190118177E+03  0.00000000000E+00 0.  1.
          5    1    1    2  502    0 -0.85264635191E+02 -0.36786401206E+02 -0.22649979407E+03  0.24483244565E+03  0.41800000000E+01 0. -1.
         -5    1    1    2    0  502 -0.13763253062E+01  0.76339821235E+01  0.14968669966E+02  0.17369669973E+02  0.41800000000E+01 0. -1.
        -11    1    1    2    0    0  0.61437126466E+02 -0.21748365847E+02  0.90260739856E+02  0.11133064755E+03  0.00000000000E+00 0.  1.
         11    1    1    2    0    0  0.25203834031E+02  0.50900784929E+02  0.17474506830E+03  0.18374428440E+03  0.00000000000E+00 0. -1.
</event>
<event>
 6    1  0.8259171E-006  0.1081945E+03  0.7561462E-02  0.1263950E+00
         -2   -1    0    0    0  501 -0.00000000000E+00  0.00000000000E+00  0.69120485839E+02  0.69120485839E+02  0.00000000000E+00 0. -1.
          2   -1    0    0  501    0  0.00000000000E+00 -0.00000000000E+00 -0.17759898445E+03  0.17759898445E+03  0.00000000000E+00 0.  1.
          5    1    1    2  502    0 -0.41637833527E+02 -0.47961491674E+02 -0.36220261131E+02  0.73235193595E+02  0.41800000000E+01 0. -1.
         -5    1    1    2    0  502  0.52119110638E+02  0.31013168809E+02 -0.10022362865E+02  0.61612811092E+02  0.41800000000E+01 0. -1.
        -11    1    1    2    0    0 -0.33666197118E+02  0.44587325632E+02 -0.29611769406E+02  0.63232106740E+02  0.00000000000E+00 0.  1.
         11    1    1    2    0    0  0.23184920008E+02 -0.27639002767E+02 -0.32624105204E+02  0.48639358858E+02  0.00000000000E+00 0. -1.
</event>
<event>
 6    1  0.8259171E-006  0.9432631E+02  0.7561462E-02  0.1292701E+00
         -1   -1    0    0    0  501 -0.00000000000E+00  0.00000000000E+00  0.37067208224E+02  0.37067208224E+02  0.00000000000E+00 0.  1.
          1   -1    0    0  501    0  0.00000000000E+00 -0.00000000000E+00 -0.45502792973E+03  0.45502792973E+03  0.00000000000E+00 0. -1.
          5    1    1    2  502    0 -0.33408636343E+01 -0.79312211471E+02 -0.52070102018E+02  0.95028186253E+02  0.41800000000E+01 0. -1.
         -5    1    1    2    0  502  0.35347831848E+02  0.18142954858E+02 -0.13242988469E+03  0.13832491745E+03  0.41800000000E+01 0. -1.
        -11    1    1    2    0    0 -0.20260776244E+02  0.33513190826E+02 -0.22376979612E+03  0.22717076103E+03  0.00000000000E+00 0. -1.
         11    1    1    2    0    0 -0.11746191969E+02  0.27656065788E+02 -0.96909386833E+01  0.31571273227E+02  0.00000000000E+00 0.  1.
</event>
<event>
 6    1  0.8259171E-006  0.1416416E+03  0.7561462E-02  0.1211137E+00
          1   -1    0    0  501    0  0.00000000000E+00  0.00000000000E+00  0.46634067467E+03  0.46634067467E+03  0.00000000000E+00 0. -1.
         -1   -1    0    0    0  501 -0.00000000000E+00 -0.00000000000E+00 -0.52597114571E+02  0.52597114571E+02  0.00000000000E+00 0.  1.
          5    1    1    2  502    0 -0.10025452299E+03  0.30152083845E+02  0.68810975344E+02  0.12534967199E+03  0.41800000000E+01 0.  1.
         -5    1    1    2    0  502  0.10040310900E+02  0.31501346525E+02  0.12758422957E+03  0.13186489567E+03  0.41800000000E+01 0.  1.
        -11    1    1    2    0    0 -0.14939075588E+02 -0.32956821894E+02  0.65081715707E+02  0.74464473463E+02  0.00000000000E+00 0. -1.
         11    1    1    2    0    0  0.10515328768E+03 -0.28696608476E+02  0.15226663949E+03  0.18725874812E+03  0.00000000000E+00 0.  1.
</event>
<event>
 6    1  0.8259171E-006  0.1005985E+03  0.7561462E-02  0.1279042E+00
          2   -1    0    0  501    0  0.00000000000E+00  0.00000000000E+00  0.51290462059E+02  0.51290462059E+02  0.00000000000E+00 0. -1.
         -2   -1    0    0    0  501 -0.00000000000E+00 -0.00000000000E+00 -0.30728326854E+03  0.30728326854E+03  0.00000000000E+00 0.  1.
          5    1    1    2  502    0  0.12633934411E+02 -0.70466864117E+02 -0.60466860517E+02  0.93802499209E+02  0.41800000000E+01 0.  1.
         -5    1    1    2    0  502  0.73454182800E+00  0.33278002066E+02 -0.15395130382E+03  0.15756408640E+03  0.41800000000E+01 0.  1.
        -11    1    1    2    0    0  0.32951283052E+02  0.37095680238E+02 -0.34301567007E+02  0.60319764971E+02  0.00000000000E+00 0. -1.
         11    1    1    2    0    0 -0.46319759291E+02  0.93181813071E-01 -0.72730751375E+01  0.46887380025E+02  0.00000000000E+00 0.  1.
</event>
<event>
 6    1  0.8259171E-006  0.8298920E+02  0.7561462E-02  0.1320776E+00
         -1   -1    0    0    0  501 -0.00000000000E+00  0.00000000000E+00  0.19637421092E+02  0.19637421092E+02  0.00000000000E+00 0.  1.
          1   -1    0    0  501    0  0.00000000000E+00 -0.00000000000E+00 -0.70908551950E+03  0.70908551950E+03  0.00000000000E+00 0. -1.
          5    1    1    2  502    0  0.23560618014E+02  0.23170408503E+02 -0.10164191776E+02  0.34824614081E+02  0.41800000000E+01 0.  1.
         -5    1    1    2    0  502 -0.33022856041E+02  0.13652304719E+02 -0.29472255766E+03  0.29691034478E+03  0.41800000000E+01 0.  1.
        -11    1    1    2    0    0  0.44378148999E+02 -0.42349133817E+02 -0.27902975888E+03  0.28569297433E+03  0.00000000000E+00 0. -1.
         11    1    1    2    0    0 -0.34915910972E+02  0.55264205951E+01 -0.10553159010E+03  0.11129500740E+03  0.00000000000E+00 0.  1.
</event>
<event>
 6    1  0.8259171E-006  0.1022535E+03  0.7561462E-02  0.1275627E+00
          1   -1    0    0  501    0  0.00000000000E+00  0.00000000000E+00  0.26599789727E+03  0.26599789727E+03  0.00000000000E+00 0. -1.
         -1   -1    0    0    0  501 -0.00000000000E+00 -0.00000000000E+00 -0.45761953537E+02  0.45761953537E+02  0.00000000000E+00 0.  1.
          5    1    1    2  502    0  0.15745133715E+02 -0.59212526774E+02  0.22647473718E+02  0.65455427800E+02  0.41800000000E+01 0. -1.
         -5    1    1    2    0  502 -0.10046204052E+02  0.54385301445E+02  0.75682611486E+02  0.93829725090E+02  0.41800000000E+01 0. -1.
        -11    1    1    2    0    0  0.67202099146E+01  0.45043061653E+02  0.41013487242E+02  0.61287394790E+02  0.00000000000E+00 0.  1.
         11    1    1    2    0    0 -0.12419139577E+02 -0.40215836325E+02  0.80892371286E+02  0.91187303127E+02  0.00000000000E+00 0. -1.
</event>
<event>
 6    1  0.8259171E-006  0.7017428E+02  0.7561462E-02  0.1359501E+00
         -1   -1    0    0    0  501 -0.00000000000E+00  0.00000000000E+00  0.44635072547E+02  0.44635072547E+02  0.00000000000E+00 0.  1.
          1   -1    0    0  501    0  0.00000000000E+00 -0.00000000000E+00 -0.35978840932E+03  0.35978840932E+03  0.00000000000E+00 0. -1.
          5    1    1    2  502    0 -0.31303725856E+02 -0.11678964718E+02  0.22219021069E+02  0.40342022341E+02  0.41800000000E+01 0.  1.
         -5    1    1    2    0  502  0.39386469652E+02  0.33588230881E+01 -0.21683153431E+03  0.22044491909E+03  0.41800000000E+01 0. -1.
        -11    1    1    2    0    0  0.16403669202E+02 -0.22323086344E+02 -0.89278508230E+02  0.93477551203E+02  0.00000000000E+00 0. -1.
         11    1    1    2    0    0 -0.24486412998E+02  0.30643227974E+02 -0.31262315302E+02  0.50158989226E+02  0.00000000000E+00 0.  1.
</event>
<event>
 6    1  0.8259171E-006  0.1396826E+03  0.7561462E-02  0.1213757E+00
          2   -1    0    0  501    0  0.00000000000E+00  0.00000000000E+00  0.13079699841E+03  0.13079699841E+03  0.00000000000E+00 0. -1.
         -2   -1    0    0    0  501 -0.00000000000E+00 -0.00000000000E+00 -0.22285793900E+03  0.22285793900E+03  0.00000000000E+00 0.  1.
          5    1    1    2  502    0 -0.38425988577E+02 -0.38370012126E+02 -0.99135016649E+02  0.11311073492E+03  0.41800000000E+01 0.  1.
         -5    1    1    2    0  502 -0.83441096970E+02  0.57635650958E+01  0.12285624754E+02  0.84640677701E+02  0.41800000000E+01 0.  1.
        -11    1    1    2    0    0  0.92749856632E+02 -0.58350399354E+01 -0.34903592884E+02  0.99271568904E+02  0.00000000000E+00 0.  1.
         11    1    1    2    0    0  0.29117228914E+02  0.38441486965E+02  0.29692044189E+02  0.56631955889E+02  0.00000000000E+00 0. -1.
</event>
<event>
 6    1  0.8259171E-006  0.1254521E+03  0.7561462E-02  0.1234364E+00
          2   -1    0    0  501    0  0.00000000000E+00  0.00000000000E+00  0.42253965334E+03  0.42253965334E+03  0.00000000000E+00 0. -1.
         -2   -1    0    0    0  501 -0.00000000000E+00 -0.00000000000E+00 -0.52795093817E+02  0.52795093817E+02  0.00000000000E+00 0.  1.
          5    1    1    2  502    0 -0.98556786224E+02  0.44333568633E+02  0.79274820757E+02  0.13409278513E+03  0.41800000000E+01 0. -1.
         -5    1    1    2    0  502  0.12887395152E+01 -0.43787885432E+02  0.75337805293E+02  0.87248478878E+02  0.41800000000E+01 0. -1.
        -11    1    1    2    0    0  0.85955762160E+02  0.50976441812E+01  0.22303854255E+03  0.23908276911E+03  0.00000000000E+00 0. -1.
         11    1    1    2    0    0  0.11312284549E+02 -0.56433273816E+01 -0.79066090810E+01  0.14910714028E+02  0.00000000000E+00 0.  1.
</event>
<event>
 6    1  0.8259171E-006  0.1028025E+03  0.7561462E-02  0.1274511E+00
          2   -1    0    0  501    0  0.00000000000E+00  0.00000000000E+00  0.87044148398E+02  0.87044148398E+02  0.00000000000E+00 0. -1.
         -2   -1    0    0    0  501 -0.00000000000E+00 -0.00000000000E+00 -0.23503853614E+03  0.23503853614E+03  0.00000000000E+00 0.  1.
          5    1    1    2  502    0 -0.34914978466E+02  0.12392762742E+02 -0.11575511249E+02  0.39039738093E+02  0.41800000000E+01 0.  1.
         -5    1    1    2    0  502  0.60504177157E+02 -0.45344355819E+02 -0.16307994799E+03  0.17980380389E+03  0.41800000000E+01 0.  1.
        -11    1    1    2    0    0 -0.19234288996E+02  0.60935428598E+02  0.35645931483E+02  0.73169097048E+02  0.00000000000E+00 0. -1.
         11    1    1    2    0    0 -0.63549096954E+01 -0.27983835521E+02 -0.89848599864E+01  0.30070045505E+02  0.00000000000E+00 0.  1.
</event>
<event>
 6    1  0.8259171E-006  0.1311202E+03  0.7561462E-02  0.1225803E+00
         -2   -1    0    0    0  501 -0.00000000000E+00  0.00000000000E+00  0.41798379535E+03  0.41798379535E+03  0.00000000000E+00 0. -1.
          2   -1    0    0  501    0  0.00000000000E+00 -0.00000000000E+00 -0.53527264133E+02  0.53527264133E+02  0.00000000000E+00 0.  1.
          5    1    1    2  502    0  0.48320303377E+02 -0.11114366447E+03  0.15766620418E+03  0.19890668720E+03  0.41800000000E+01 0. -1.
         -5    1    1    2    0  502 -0.34155083713E+02  0.10110866014E+02  0.19716564104E+02  0.40926942899E+02  0.41800000000E+01 0. -1.
        -11    1    1    2    0    0 -0.21528877685E+02  0.78933172008E+02  0.57437667149E+02  0.99965113040E+02  0.00000000000E+00 0.  1.
         11    1    1    2    0    0  0.73636580219E+01  0.22099626445E+02  0.12963609578E+03  0.13171231635E+03  0.00000000000E+00 0. -1.
</event>
<event>
 6    1  0.8259171E-006  0.1269917E+03  0.7561462E-02  0.1231989E+00
         -2   -1    0    0    0  501 -0.00000000000E+00  0.00000000000E+00  0.73794555517E+03  0.73794555517E+03  0.00000000000E+00 0.  1.
          2   -1    0    0  501    0  0.00000000000E+00 -0.00000000000E+00 -0.25839070743E+02  0.25839070743E+02  0.00000000000E+00 0. -1.
          5    1    1    2  502    0 -0.28244562831E+02  0.91309151920E+01  0.23253615607E+03  0.23446037026E+03  0.41800000000E+01 0. -1.
         -5    1    1    2    0  502  0.19194519679E+02 -0.97552326317E+02  0.20963922621E+03  0.23205810377E+03  0.41800000000E+01 0.  1.
        -11    1    1    2    0    0  0.48268289212E+02  0.45093854646E+02  0.14053248953E+03  0.15528252987E+03  0.00000000000E+00 0. -1.
         11    1    1    2    0    0 -0.39218246061E+02  0.43327556479E+02  0.12939861262E+03  0.14198362202E+03  0.00000000000E+00 0.  1.
</event>
<event>
 6    1  0.8259171E-006  0.1137270E+03  0.7561462E-02  0.1253820E+00
          1   -1    0    0  501    0  0.00000000000E+00  0.00000000000E+00  0.30927381281E+02  0.30927381281E+02  0.00000000000E+00 0. -1.
         -1   -1    0    0    0  501 -0.00000000000E+00 -0.00000000000E+00 -0.44086119884E+03  0.44086119884E+03  0.00000000000E+00 0.  1.
          5    1    1    2  502    0  0.10159302621E+02  0.48433923329E+02 -0.94655593813E+02  0.10689345255E+03  0.41800000000E+01 0. -1.
         -5    1    1    2    0  502  0.45238749711E+02 -0.60571624354E+02 -0.14387397252E+03  0.16258123668E+03  0.41800000000E+01 0.  1.
        -11    1    1    2    0    0  0.17174304448E+02 -0.16724863362E+02 -0.72073539468E+02  0.75955729732E+02  0.00000000000E+00 0.  1.
         11    1    1    2    0    0 -0.72572356780E+02  0.28862564386E+02 -0.99330711760E+02  0.12635816115E+03  0.00000000000E+00 0. -1.
</event>
<event>
 6    1  0.8259171E-006  0.1131719E+03  0.7561462E-02  0.1254806E+00
         -2   -1    0    0    0  501 -0.00000000000E+00  0.00000000000E+00  0.75036477410E+02  0.75036477410E+02  0.00000000000E+00 0.  1.
          2   -1    0    0  501    0  0.00000000000E+00 -0.00000000000E+00 -0.21772655009E+03  0.21772655009E+03  0.00000000000E+00 0. -1.
          5    1    1    2  502    0 -0.36550342379E+02 -0.27369244336E+01 -0.76195761691E+01  0.37668934474E+02  0.41800000000E+01 0. -1.
         -5    1    1    2    0  502  0.10225001881E+03  0.10327862402E+02 -0.61149505531E+02  0.11965979072E+03  0.41800000000E+01 0. -1.
        -11    1    1    2    0    0 -0.71294765246E+02 -0.19093427419E+02 -0.15225517461E+02  0.75361255987E+02  0.00000000000E+00 0.  1.
         11    1    1    2    0    0  0.55950888144E+01  0.11502489451E+02 -0.58695473521E+02  0.60073046321E+02  0.00000000000E+00 0. -1.
</event>
<event>
 6    1  0.8259171E-006  0.3184462E+03  0.7561462E-02  0.1076367E+00
         -2   -1    0    0    0  501 -0.00000000000E+00  0.00000000000E+00  0.82559670678E+02  0.82559670678E+02  0.00000000000E+00 0.  1.
          2   -1    0    0  501    0  0.00000000000E+00 -0.00000000000E+00 -0.13237197412E+04  0.13237197412E+04  0.00000000000E+00 0. -1.
          5    1    1    2  502    0 -0.17855665464E+02  0.87660497571E+01 -0.42614987782E+02  0.47214171613E+02  0.41800000000E+01 0.  1.
         -5    1    1    2    0  502 -0.76420867396E+02 -0.29867682827E+03 -0.45724321023E+03  0.55148601290E+03  0.41800000000E+01 0.  1.
        -11    1    1    2    0    0  0.26069936766E+02  0.15381735166E+03 -0.26468209897E+03  0.30723937376E+03  0.00000000000E+00 0.  1.
         11    1    1    2    0    0  0.68206596094E+02  0.13609342685E+03 -0.47661977357E+03  0.50033985364E+03  0.00000000000E+00 0. -1.
</event>
<event>
 6    1  0.8259171E-006  0.1208123E+03  0.7561462E-02  0.1241763E+00
         -1   -1    0    0    0  501 -0.00000000000E+00  0.00000000000E+00  0.51409430597E+02  0.51409430597E+02  0.00000000000E+00 0.  1.
          1   -1    0    0  501    0  0.00000000000E+00 -0.00000000000E+00 -0.53929340173E+03  0.53929340173E+03  0.00000000000E+00 0. -1.
          5    1    1    2  502    0 -0.77987286610E+02  0.32028652108E+02 -0.10964009826E+03  0.13837006532E+03  0.41800000000E+01 0.  1.
         -5    1    1    2    0  502 -0.90903629469E+01 -0.41773385500E+02  0.98432566590E+01  0.44068271310E+02  0.41800000000E+01 0.  1.
        -11    1    1    2    0    0  0.13876157710E+02 -0.28477638055E+02 -0.42850046239E+02  0.53288367255E+02  0.00000000000E+00 0.  1.
         11    1    1    2    0    0  0.73201491847E+02  0.38222371446E+02 -0.34523708328E+03  0.35497612844E+03  0.00000000000E+00 0. -1.
</event>
<event>
 6    1  0.8259171E-006  0.1301930E+03  0.7561462E-02  0.1227170E+00
         -2   -1    0    0    0  501 -0.00000000000E+00  0.00000000000E+00  0.80939771495E+02  0.80939771495E+02  0.00000000000E+00 0. -1.
          2   -1    0    0  501    0  0.00000000000E+00 -0.00000000000E+00 -0.33778435046E+03  0.33778435046E+03  0.00000000000E+00 0.  1.
          5    1    1    2  502    0  0.69804346614E+01 -0.26931691158E+02  0.24904948815E+02  0.37573545643E+02  0.41800000000E+01 0.  1.
         -5    1    1    2    0  502 -0.80801278061E+02 -0.62879110877E+02 -0.12032337343E+03  0.15804371457E+03  0.41800000000E+01 0.  1.
        -11    1    1    2    0    0  0.59951219927E+01  0.51573230826E+02 -0.12845640552E+03  0.13855247289E+03  0.00000000000E+00 0.  1.
         11    1    1    2    0    0  0.67825721407E+02  0.38237571209E+02 -0.32969748834E+02  0.84554388854E+02  0.00000000000E+00 0. -1.
</event>
<event>
 6    1  0.8259171E-006  0.1149772E+03  0.7561462E-02  0.1251621E+00
          2   -1    0    0  501    0  0.00000000000E+00  0.00000000000E+00  0.12311971184E+03  0.12311971184E+03  0.00000000000E+00 0. -1.
         -2   -1    0    0    0  501 -0.00000000000E+00 -0.00000000000E+00 -0.17419877169E+03  0.17419877169E+03  0.00000000000E+00 0.  1.
          5    1    1    2  502    0  0.49445698769E+02  0.50244929757E+02 -0.68653567928E+02  0.98489668912E+02  0.41800000000E+01 0. -1.
         -5    1    1    2    0  502  0.75296598403E+01  0.28538633545E+02  0.52913556901E+02  0.60732744758E+02  0.41800000000E+01 0. -1.
        -11    1    1    2    0    0 -0.78869557734E+02 -0.71493920793E+02 -0.41431665150E+02  0.11422946522E+03  0.00000000000E+00 0. -1.
         11    1    1    2    0    0  0.21894199125E+02 -0.72896425088E+01  0.60926163274E+01  0.23866604638E+02  0.00000000000E+00 0.  1.
</event>
<event>
 6    1  0.8259171E-006  0.1106508E+03  0.7561462E-02  0.1259370E+00
         -1   -1    0    0    0  501 -0.00000000000E+00  0.00000000000E+00  0.13731184182E+03  0.13731184182E+03  0.00000000000E+00 0.  1.
          1   -1    0    0  501    0  0.00000000000E+00 -0.00000000000E+00 -0.10356858590E+03  0.10356858590E+03  0.00000000000E+00 0. -1.
          5    1    1    2  502    0  0.57234275121E+01  0.33647877841E+02 -0.16047600688E+02  0.37946478012E+02  0.41800000000E+01 0.  1.
         -5    1    1    2    0  502  0.19060438322E+02 -0.89733619920E+02  0.53630825580E+02  0.10634453773E+03  0.41800000000E+01 0.  1.
        -11    1    1    2    0    0 -0.42644786126E+02  0.62878484391E+02 -0.97233737448E+01  0.76595205986E+02  0.00000000000E+00 0.  1.
         11    1    1    2    0    0  0.17860920291E+02 -0.67927423120E+01  0.58834047733E+01  0.19994205998E+02  0.00000000000E+00 0. -1.
</event>
<event>
 6    1  0.8259171E-006  0.1266561E+03  0.7561462E-02  0.1232504E+00
          1   -1    0    0  501    0  0.00000000000E+00  0.00000000000E+00  0.72849755985E+03  0.72849755985E+03  0.00000000000E+00 0. -1.
         -1   -1    0    0    0  501 -0.00000000000E+00 -0.00000000000E+00 -0.25507617997E+02  0.25507617997E+02  0.00000000000E+00 0.  1.
          5    1    1    2  502    0 -0.50556045149E+02 -0.95602789581E+02  0.19723646786E+03  0.22497889619E+03  0.41800000000E+01 0.  1.
         -5    1    1    2    0  502  0.17761584028E+02  0.18043303217E+02  0.17040500430E+03  0.17232635478E+03  0.41800000000E+01 0.  1.
        -11    1    1    2    0    0 -0.25556131836E+02  0.45454203494E+01  0.10386270337E+03  0.10705717104E+03  0.00000000000E+00 0. -1.
         11    1    1    2    0    0  0.58350592958E+02  0.73014066015E+02  0.23148576632E+03  0.24964275584E+03  0.00000000000E+00 0.  1.
</event>
<event>
 6    1  0.8259171E-006  0.1137895E+03  0.7561462E-02  0.1253709E+00
         -3   -1    0    0    0  501 -0.00000000000E+00  0.00000000000E+00  0.42014496780E+03  0.42014496780E+03  0.00000000000E+00 0.  1.
          3   -1    0    0  501    0  0.00000000000E+00 -0.00000000000E+00 -0.32060826776E+02  0.32060826776E+02  0.00000000000E+00 0. -1.
          5    1    1    2  502    0  0.65574412188E+02 -0.87937192668E+01  0.12929915138E+03  0.14530339287E+03  0.41800000000E+01 0. -1.
         -5    1    1    2    0  502 -0.45229934174E+02  0.45576641039E+02  0.89883970498E+02  0.11054219876E+03  0.41800000000E+01 0. -1.
        -11    1    1    2    0    0  0.23243729501E+02  0.16199065260E+02  0.74150134507E+02  0.79378354253E+02  0.00000000000E+00 0.  1.
         11    1    1    2    0    0 -0.43588207515E+02 -0.52981987032E+02  0.94750884648E+02  0.11698184870E+03  0.00000000000E+00 0. -1.
</event>
<event>
 6    1  0.8259171E-006  0.8703544E+02  0.7561462E-02  0.1310194E+00
         -1   -1    0    0    0  501 -0.00000000000E+00  0.00000000000E+00  0.11139793866E+03  0.11139793866E+03  0.00000000000E+00 0.  1.
          1   -1    0    0  501    0  0.00000000000E+00 -0.00000000000E+00 -0.11145892436E+03  0.11145892436E+03  0.00000000000E+00 0. -1.
          5    1    1    2  502    0 -0.56753374617E+02 -0.38176054199E+00  0.45518827134E+02  0.72873364785E+02  0.41800000000E+01 0.  1.
         -5    1    1    2    0  502  0.29450684343E+02  0.39013112297E+01 -0.46351374810E+02  0.55213090697E+02  0.41800000000E+01 0.  1.
        -11    1    1    2    0    0  0.27538844005E+02 -0.41158721622E+02  0.18882741857E+02  0.52999870139E+02  0.00000000000E+00 0.  1.
         11    1    1    2    0    0 -0.23615373131E+00  0.37639170935E+02 -0.18111179883E+02  0.41770537392E+02  0.00000000000E+00 0. -1.
</event>
<event>
 6    1  0.8259171E-006  0.1154708E+03  0.7561462E-02  0.1250761E+00
          2   -1    0    0  501    0  0.00000000000E+00  0.00000000000E+00  0.21795500211E+03  0.21795500211E+03  0.00000000000E+00 0.  1.
         -2   -1    0    0    0  501 -0.00000000000E+00 -0.00000000000E+00 -0.81530116364E+02  0.81530116364E+02  0.00000000000E+00 0. -1.
          5    1    1    2  502    0 -0.36191693657E+02  0.22570536740E+02 -0.23622531908E+02  0.48936328348E+02  0.41800000000E+01 0. -1.
         -5    1    1    2    0  502  0.38977970742E+01 -0.78763447008E+02  0.52631620323E+02  0.94902230029E+02  0.41800000000E+01 0. -1.
        -11    1    1    2    0    0  0.50093891004E+02 -0.78934353076E-01  0.68843028896E+02  0.85139689770E+02  0.00000000000E+00 0. -1.
         11    1    1    2    0    0 -0.17799994422E+02  0.56271844622E+02  0.38572768433E+02  0.70506870326E+02  0.00000000000E+00 0.  1.
</event>
<event>
 6    1  0.8259171E-006  0.1780655E+03  0.7561462E-02  0.1169688E+00
         -1   -1    0    0    0  501 -0.00000000000E+00  0.00000000000E+00  0.22329917677E+02  0.22329917677E+02  0.00000000000E+00 0.  1.
          1   -1    0    0  501    0  0.00000000000E+00 -0.00000000000E+00 -0.15708451451E+04  0.15708451451E+04  0.00000000000E+00 0. -1.
          5    1    1    2  502    0 -0.15453031996E+03 -0.60959100013E+02 -0.92586672807E+03  0.94066056695E+03  0.41800000000E+01 0.  1.
         -5    1    1    2    0  502  0.23176059492E+02  0.30289158152E+01 -0.10585363419E+03  0.10848395427E+03  0.41800000000E+01 0.  1.
        -11    1    1    2    0    0  0.96006239352E+02  0.79634876273E+02 -0.43177911983E+03  0.44943533443E+03  0.00000000000E+00 0. -1.
         11    1    1    2    0    0  0.35348021118E+02 -0.21704692075E+02 -0.85015745294E+02  0.94595207082E+02  0.00000000000E+00 0.  1.
</event>
<event>
 6    1  0.8259171E-006  0.8499616E+02  0.7561462E-02  0.1315443E+00
         -1   -1    0    0    0  501 -0.00000000000E+00  0.00000000000E+00  0.10141023032E+03  0.10141023032E+03  0.00000000000E+00 0.  1.
          1   -1    0    0  501    0  0.00000000000E+00 -0.00000000000E+00 -0.18807970515E+03  0.18807970515E+03  0.00000000000E+00 0. -1.
          5    1    1    2  502    0  0.11019348691E+02  0.37331830131E+02  0.50765016256E+02  0.64106558650E+02  0.41800000000E+01 0.  1.
         -5    1    1    2    0  502 -0.31078778161E+02  0.40069572845E+02 -0.68629381583E+02  0.85433749399E+02  0.41800000000E+01 0.  1.
        -11    1    1    2    0    0  0.32148216202E+01 -0.13661547337E+02  0.22988339666E+02  0.26933932396E+02  0.00000000000E+00 0.  1.
         11    1    1    2    0    0  0.16844607849E+02 -0.63739855639E+02 -0.91793449178E+02  0.11301569503E+03  0.00000000000E+00 0. -1.
</event>
<event>
 6    1  0.8259171E-006  0.2433423E+03  0.7561462E-02  0.1117586E+00
          1   -1    0    0  501    0  0.00000000000E+00  0.00000000000E+00  0.56136033479E+03  0.56136033479E+03  0.00000000000E+00 0. -1.
         -1   -1    0    0    0  501 -0.00000000000E+00 -0.00000000000E+00 -0.12252828868E+03  0.12252828868E+03  0.00000000000E+00 0.  1.
          5    1    1    2  502    0  0.17124400759E+01 -0.64168106173E+02  0.39230255949E+02  0.75345628159E+02  0.41800000000E+01 0. -1.
         -5    1    1    2    0  502  0.19775448114E+03 -0.13596422772E+02  0.95091407599E+02  0.21988984907E+03  0.41800000000E+01 0.  1.
        -11    1    1    2    0    0 -0.12854214213E+03  0.82942436866E+02  0.13198402291E+03  0.20204532274E+03  0.00000000000E+00 0.  1.
         11    1    1    2    0    0 -0.70924779092E+02 -0.51779079209E+01  0.17252635965E+03  0.18660782351E+03  0.00000000000E+00 0. -1.
</event>
<event>
 6    1  0.8259171E-006  0.1216422E+03  0.7561462E-02  0.1240412E+00
         -1   -1    0    0    0  501 -0.00000000000E+00  0.00000000000E+00  0.14492385792E+03  0.14492385792E+03  0.00000000000E+00 0.  1.
          1   -1    0    0  501    0  0.00000000000E+00 -0.00000000000E+00 -0.15010276789E+03  0.15010276789E+03  0.00000000000E+00 0. -1.
          5    1    1    2  502    0 -0.54643690152E+02  0.79505448720E+02  0.65959115907E+02  0.11694069703E+03  0.41800000000E+01 0. -1.
         -5    1    1    2    0  502  0.61150654252E+01 -0.30468010813E+02 -0.14961261163E+02  0.34741983876E+02  0.41800000000E+01 0. -1.
        -11    1    1    2    0    0  0.28541351475E+02  0.25451702069E+02  0.12337557013E+02  0.40182249754E+02  0.00000000000E+00 0.  1.
         11    1    1    2    0    0  0.19987273251E+02 -0.74489139976E+02 -0.68514321728E+02  0.10316169516E+03  0.00000000000E+00 0. -1.
</event>
<event>
 6    1  0.8259171E-006  0.1449697E+03  0.7561462E-02  0.1206794E+00
         -2   -1    0    0    0  501 -0.00000000000E+00  0.00000000000E+00  0.50582642659E+03  0.50582642659E+03  0.00000000000E+00 0.  1.
          2   -1    0    0  501    0  0.00000000000E+00 -0.00000000000E+00 -0.51109186061E+02  0.51109186061E+02  0.00000000000E+00 0. -1.
          5    1    1    2  502    0 -0.72988687149E+02  0.82015886693E+02  0.20906640419E+03  0.23617829681E+03  0.41800000000E+01 0.  1.
         -5    1    1    2    0  502  0.49793560209E+02  0.31165249458E+02  0.80591085311E+02  0.99815163395E+02  0.41800000000E+01 0.  1.
        -11    1    1    2    0    0 -0.52569988059E+01 -0.65083450811E+02  0.14918427881E+03  0.16284790650E+03  0.00000000000E+00 0.  1.
         11    1    1    2    0    0  0.28452125746E+02 -0.48097685340E+02  0.15875472219E+02  0.58094245952E+02  0.00000000000E+00 0. -1.
</event>
<event>
 6    1  0.8259171E-006  0.2872124E+03  0.7561462E-02  0.1091814E+00
          2   -1    0    0  501    0  0.00000000000E+00  0.00000000000E+00  0.14227498502E+04  0.14227498502E+04  0.00000000000E+00 0. -1.
         -2   -1    0    0    0  501 -0.00000000000E+00 -0.00000000000E+00 -0.79893252225E+02  0.79893252225E+02  0.00000000000E+00 0.  1.
          5    1    1    2  502    0 -0.18999598878E+03  0.13189394071E+03  0.19472246529E+03  0.30237195345E+03  0.41800000000E+01 0.  1.
         -5    1    1    2    0  502 -0.77643175204E+01  0.55998519949E+02  0.11878213781E+03  0.13161606105E+03  0.41800000000E+01 0.  1.
        -11    1    1    2    0    0  0.85453805081E+02 -0.14064324851E+03  0.55300993126E+03  0.57697734810E+03  0.00000000000E+00 0.  1.
         11    1    1    2    0    0  0.11230650122E+03 -0.47249212149E+02  0.47634206367E+03  0.49167773987E+03  0.00000000000E+00 0. -1.
</event>
<event>
 6    1  0.8259171E-006  0.1290343E+03  0.7561462E-02  0.1228896E+00
          1   -1    0    0  501    0  0.00000000000E+00  0.00000000000E+00  0.48858695420E+03  0.48858695420E+03  0.00000000000E+00 0. -1.
         -1   -1    0    0    0  501 -0.00000000000E+00 -0.00000000000E+00 -0.54024365024E+02  0.54024365024E+02  0.00000000000E+00 0.  1.
          5    1    1    2  502    0 -0.18289603931E+02  0.25363509415E+02  0.23276869421E+02  0.39205895881E+02  0.41800000000E+01 0. -1.
         -5    1    1    2    0  502  0.10325041727E+03 -0.39314926692E+02  0.50079758291E+02  0.12137448957E+03  0.41800000000E+01 0.  1.
        -11    1    1    2    0    0 -0.40235500878E+02  0.45867217945E+02  0.25793231725E+03  0.26505051876E+03  0.00000000000E+00 0. -1.
         11    1    1    2    0    0 -0.44725312463E+02 -0.31915800668E+02  0.10327364421E+03  0.11698041501E+03  0.00000000000E+00 0.  1.
</event>
<event>
 6    1  0.8259171E-006  0.1361077E+03  0.7561462E-02  0.1218664E+00
         -3   -1    0    0    0  501 -0.00000000000E+00  0.00000000000E+00  0.80507334281E+02  0.80507334281E+02  0.00000000000E+00 0.  1.
          3   -1    0    0  501    0  0.00000000000E+00 -0.00000000000E+00 -0.38947181303E+03  0.38947181303E+03  0.00000000000E+00 0. -1.
          5    1    1    2  502    0  0.19826002428E+02 -0.10926269465E+03  0.66463908113E+01  0.11132409320E+03  0.41800000000E+01 0.  1.
         -5    1    1    2    0  502 -0.15465668296E+02 -0.72040280038E+01 -0.68138215798E+02  0.70365998661E+02  0.41800000000E+01 0.  1.
        -11    1    1    2    0    0  0.39128145507E+02  0.42893546803E+02 -0.13559770226E+03  0.14750459310E+03  0.00000000000E+00 0. -1.
         11    1    1    2    0    0 -0.43488479640E+02  0.73573175853E+02 -0.11187495151E+03  0.14078446236E+03  0.00000000000E+00 0.  1.
</event>
<event>
 6    1  0.8259171E-006  0.9317685E+02  0.7561462E-02  0.1295336E+00
         -1   -1    0    0    0  501 -0.00000000000E+00  0.00000000000E+00  0.13377540093E+03  0.13377540093E+03  0.00000000000E+00 0.  1.
          1   -1    0    0  501    0  0.00000000000E+00 -0.00000000000E+00 -0.95675593557E+02  0.95675593557E+02  0.00000000000E+00 0. -1.
          5    1    1    2  502    0  0.33246414429E+02  0.43402257052E+02  0.59307769465E+02  0.80771058607E+02  0.41800000000E+01 0. -1.
         -5    1    1    2    0  502  0.26858140584E+01 -0.41327817706E+02 -0.31661175363E+02  0.52298226919E+02  0.41800000000E+01 0. -1.
        -11    1    1    2    0    0  0.87131559513E+01 -0.33943061024E+02 -0.12099655266E+02  0.37073604301E+02  0.00000000000E+00 0. -1.
         11    1    1    2    0    0 -0.44645384438E+02  0.31868621678E+02  0.22552868538E+02  0.59308104662E+02  0.00000000000E+00 0.  1.
</event>
<event>
 6    1  0.8259171E-006  0.8729143E+02  0.7561462E-02  0.1309547E+00
         -1   -1    0    0    0  501 -0.00000000000E+00  0.00000000000E+00  0.21169054178E+02  0.21169054178E+02  0.00000000000E+00 0.  1.
          1   -1    0    0  501    0  0.00000000000E+00 -0.00000000000E+00 -0.58917193389E+03  0.58917193389E+03  0.00000000000E+00 0. -1.
          5    1    1    2  502    0 -0.26333156117E+02 -0.31019515474E+02 -0.24152987848E+03  0.24496897773E+03  0.41800000000E+01 0. -1.
         -5    1    1    2    0  502  0.11771544785E+02  0.39713351325E+02 -0.21660202811E+02  0.46929269394E+02  0.41800000000E+01 0. -1.
        -11    1    1    2    0    0  0.52690310848E+02 -0.11085589380E+02 -0.17021363813E+03  0.17852686564E+03  0.00000000000E+00 0.  1.
         11    1    1    2    0    0 -0.38128699515E+02  0.23917535291E+01 -0.13459916029E+03  0.13991587530E+03  0.00000000000E+00 0. -1.
</event>
<event>
 6    1  0.8259171E-006  0.1148621E+03  0.7561462E-02  0.1251822E+00
         -1   -1    0    0    0  501 -0.00000000000E+00  0.00000000000E+00  0.12180307064E+03  0.12180307064E+03  0.00000000000E+00 0.  1.
          1   -1    0    0  501    0  0.00000000000E+00 -0.00000000000E+00 -0.11741339501E+03  0.11741339501E+03  0.00000000000E+00 0. -1.
          5    1    1    2  502    0 -0.50346736828E+02  0.54111873738E+01 -0.18023331180E+01  0.50840885739E+02  0.41800000000E+01 0.  1.
         -5    1    1    2    0  502  0.74030121251E+02  0.34673457797E+02  0.15771650228E+02  0.83360211605E+02  0.41800000000E+01 0.  1.
        -11    1    1    2    0    0  0.17566521095E+02 -0.51373603628E+02 -0.24708113019E+02  0.59651661017E+02  0.00000000000E+00 0. -1.
         11    1    1    2    0    0 -0.41249905518E+02  0.11288958458E+02  0.15128471539E+02  0.45363707293E+02  0.00000000000E+00 0.  1.
</event>
<event>
 6    1  0.8259171E-006  0.9034749E+02  0.7561462E-02  0.1302012E+00
          2   -1    0    0  501    0  0.00000000000E+00  0.00000000000E+00  0.11223994956E+03  0.11223994956E+03  0.00000000000E+00 0. -1.
         -2   -1    0    0    0  501 -0.00000000000E+00 -0.00000000000E+00 -0.10755302285E+03  0.10755302285E+03  0.00000000000E+00 0.  1.
          5    1    1    2  502    0  0.27218642525E+01  0.49158506172E+02  0.39539695334E+02  0.63283703915E+02  0.41800000000E+01 0. -1.
         -5    1    1    2    0  502 -0.96866364872E+01 -0.38759405238E+02 -0.48171914575E+02  0.62722628888E+02  0.41800000000E+01 0. -1.
        -11    1    1    2    0    0 -0.30690399196E+02  0.24884864834E+02 -0.31040785047E+01  0.39633223487E+02  0.00000000000E+00 0.  1.
         11    1    1    2    0    0  0.37655171430E+02 -0.35283965768E+02  0.16423224463E+02  0.54153416120E+02  0.00000000000E+00 0. -1.
</event>
<event>
 6    1  0.8259171E-006  0.1014566E+03  0.7561462E-02  0.1277262E+00
         -1   -1    0    0    0  501 -0.00000000000E+00  0.00000000000E+00  0.22797310816E+02  0.22797310816E+02  0.00000000000E+00 0.  1.
          1   -1    0    0  501    0  0.00000000000E+00 -0.00000000000E+00 -0.56313538176E+03  0.56313538176E+03  0.00000000000E+00 0. -1.
          5    1    1    2  502    0  0.69708928780E+02 -0.27477545185E+01 -0.20543419363E+03  0.21699669403E+03  0.41800000000E+01 0.  1.
         -5    1    1    2    0  502 -0.45658454975E+02 -0.93598827973E+01 -0.48911149173E+02  0.67691024738E+02  0.41800000000E+01 0.  1.
        -11    1    1    2    0    0  0.29797254302E+02 -0.39047458728E+01 -0.16668812017E+03  0.16937547877E+03  0.00000000000E+00 0.  1.
         11    1    1    2    0    0 -0.53847728108E+02  0.16012383189E+02 -0.11930460798E+03  0.13186949504E+03  0.00000000000E+00 0. -1.
</event>
<event>
 6    1  0.8259171E-006  0.1015680E+03  0.7561462E-02  0.1277033E+00
         -1   -1    0    0    0  501 -0.00000000000E+00  0.00000000000E+00  0.35218611843E+03  0.35218611843E+03  0.00000000000E+00 0.  1.
          1   -1    0    0  501    0  0.00000000000E+00 -0.00000000000E+00 -0.58107087626E+02  0.58107087626E+02  0.00000000000E+00 0. -1.
          5    1    1    2  502    0  0.59491754253E+02  0.39104244737E+02  0.20280377642E+03  0.21497733581E+03  0.41800000000E+01 0. -1.
         -5    1    1    2    0  502 -0.25776152812E+02  0.37906190214E+02  0.12252592835E+02  0.47632843097E+02  0.41800000000E+01 0. -1.
        -11    1    1    2    0    0 -0.23954346578E+02 -0.69386210692E+02  0.99562920816E+02  0.12369734094E+03  0.00000000000E+00 0.  1.
         11    1    1    2    0    0 -0.97612548638E+01 -0.76242242587E+01 -0.20540259270E+02  0.23985686210E+02  0.00000000000E+00 0. -1.
</event>
<event>
 6    1  0.8259171E-006  0.1198531E+03  0.7561462E-02  0.1243340E+00
          3   -1    0    0  501    0  0.00000000000E+00  0.00000000000E+00  0.85485360088E+02  0.85485360088E+02  0.00000000000E+00 0. -1.
         -3   -1    0    0    0  501 -0.00000000000E+00 -0.00000000000E+00 -0.24575771900E+03  0.24575771900E+03  0.00000000000E+00 0.  1.
          5    1    1    2  502    0 -0.32484810797E+02 -0.22270853462E+02 -0.64957405277E+02  0.76080160008E+02  0.41800000000E+01 0. -1.
         -5    1    1    2    0  502  0.49829751075E+01  0.10625199037E+03 -0.64565834278E+02  0.12450114399E+03  0.41800000000E+01 0. -1.
        -11    1    1    2    0    0 -0.52535188906E+01 -0.30381433337E+02 -0.55222460587E+02  0.63246747787E+02  0.00000000000E+00 0. -1.
         11    1    1    2    0    0  0.32755354580E+02 -0.53599703569E+02  0.24473341227E+02  0.67415027310E+02  0.00000000000E+00 0.  1.
</event>
<event>
 6    1  0.8259171E-006  0.3517224E+03  0.7561462E-02  0.1061910E+00
          2   -1    0    0  501    0  0.00000000000E+00  0.00000000000E+00  0.49646029362E+03  0.49646029362E+03  0.00000000000E+00 0. -1.
         -2   -1    0    0    0  501 -0.00000000000E+00 -0.00000000000E+00 -0.24982044616E+03  0.24982044616E+03  0.00000000000E+00 0.  1.
          5    1    1    2  502    0 -0.25476368052E+03 -0.11090642169E+03  0.90696322488E+02  0.29231500577E+03  0.41800000000E+01 0. -1.
         -5    1    1    2    0  502 -0.23759470825E+02 -0.75022579401E+02  0.39364712195E+02  0.88090594504E+02  0.41800000000E+01 0. -1.
        -11    1    1    2    0    0  0.34519403433E+02  0.66858119774E+02  0.22610273905E+02  0.78567307954E+02  0.00000000000E+00 0. -1.
         11    1    1    2    0    0  0.24400374792E+03  0.11907088132E+03  0.93968538873E+02  0.28730783156E+03  0.00000000000E+00 0.  1.
</event>
<event>
 6    1  0.8259171E-006  0.1308969E+03  0.7561462E-02  0.1226131E+00
         -2   -1    0    0    0  501 -0.00000000000E+00  0.00000000000E+00  0.11890157832E+03  0.11890157832E+03  0.00000000000E+00 0.  1.
          2   -1    0    0  501    0  0.00000000000E+00 -0.00000000000E+00 -0.16159119757E+03  0.16159119757E+03  0.00000000000E+00 0. -1.
          5    1    1    2  502    0  0.47586337047E+02 -0.99562683059E+01  0.10611494852E+02  0.49936589543E+02  0.41800000000E+01 0.  1.
         -5    1    1    2    0  502 -0.23407313616E+02  0.90638702574E+02 -0.48856555517E+02  0.10567739660E+03  0.41800000000E+01 0.  1.
        -11    1    1    2    0    0 -0.12034525917E+02 -0.97670693278E+02  0.10833626199E+02  0.99003846370E+02  0.00000000000E+00 0.  1.
         11    1    1    2    0    0 -0.12144497514E+02  0.16988259010E+02 -0.15278184784E+02  0.25874943369E+02  0.00000000000E+00 0. -1.
</event>
<event>
 6    1  0.8259171E-006  0.1174033E+03  0.7561462E-02  0.1247443E+00
         -1   -1    0    0    0  501 -0.00000000000E+00  0.00000000000E+00  0.84510043546E+02  0.84510043546E+02  0.00000000000E+00 0.  1.
          1   -1    0    0  501    0  0.00000000000E+00 -0.00000000000E+00 -0.22098700432E+03  0.22098700432E+03  0.00000000000E+00 0. -1.
          5    1    1    2  502    0 -0.67818027935E+02  0.18352142264E+02 -0.53752030271E+02  0.88559805764E+02  0.41800000000E+01 0. -1.
         -5    1    1    2    0  502  0.10396098096E+02 -0.76662984418E+02 -0.32466974489E+02  0.84005171674E+02  0.41800000000E+01 0. -1.
        -11    1    1    2    0    0  0.47380277982E+02  0.28042600021E+02  0.17725828726E+02  0.57840151812E+02  0.00000000000E+00 0.  1.
         11    1    1    2    0    0  0.10041651857E+02  0.30268242133E+02 -0.67983784738E+02  0.75091918614E+02  0.00000000000E+00 0. -1.
</event>
<event>
 6    1  0.8259171E-006  0.2174075E+03  0.7561462E-02  0.1135831E+00
         -2   -1    0    0    0  501 -0.00000000000E+00  0.00000000000E+00  0.37855840691E+02  0.37855840691E+02  0.00000000000E+00 0.  1.
          2   -1    0    0  501    0  0.00000000000E+00 -0.00000000000E+00 -0.16508060199E+04  0.16508060199E+04  0.00000000000E+00 0. -1.
          5    1    1    2  502    0 -0.18589831121E+03 -0.51601344274E+02 -0.35231714779E+03  0.40170352982E+03  0.41800000000E+01 0.  1.
         -5    1    1    2    0  502 -0.20450943073E+02  0.22682042343E+02 -0.19127630319E+03  0.19374419392E+03  0.41800000000E+01 0.  1.
        -11    1    1    2    0    0  0.15900898463E+03  0.78563284437E+01 -0.94775656895E+03  0.96103490732E+03  0.00000000000E+00 0. -1.
         11    1    1    2    0    0  0.47340269658E+02  0.21062973487E+02 -0.12160015929E+03  0.13217922954E+03  0.00000000000E+00 0.  1.
</event>
<event>
 6    1  0.8259171E-006  0.1645165E+03  0.7561462E-02  0.1183690E+00
          3   -1    0    0  501    0  0.00000000000E+00  0.00000000000E+00  0.89457864496E+02  0.89457864496E+02  0.00000000000E+00 0. -1.
         -3   -1    0    0    0  501 -0.00000000000E+00 -0.00000000000E+00 -0.34481700058E+03  0.34481700058E+03  0.00000000000E+00 0.  1.
          5    1    1    2  502    0 -0.93937686868E+02 -0.66108091002E+02 -0.64625234295E+02  0.13186531772E+03  0.41800000000E+01 0.  1.
         -5    1    1    2    0  502  0.22969704111E+02 -0.48703881424E+02 -0.10658459895E+03  0.11948817727E+03  0.41800000000E+01 0.  1.
        -11    1    1    2    0    0 -0.19505161529E+02  0.11069136623E+02 -0.23552025151E+02  0.32521915696E+02  0.00000000000E+00 0.  1.
         11    1    1    2    0    0  0.90473144286E+02  0.10374283580E+03 -0.60597277681E+02  0.15039945439E+03  0.00000000000E+00 0. -1.
</event>
<event>
 6    1  0.8259171E-006  0.1144808E+03  0.7561462E-02  0.1252490E+00
          1   -1    0    0  501    0  0.00000000000E+00  0.00000000000E+00  0.37959301070E+02  0.37959301070E+02  0.00000000000E+00 0. -1.
         -1   -1    0    0    0  501 -0.00000000000E+00 -0.00000000000E+00 -0.45513507332E+03  0.45513507332E+03  0.00000000000E+00 0.  1.
          5    1    1    2  502    0 -0.63203098723E+02  0.51118893903E+01 -0.98973285099E+02  0.11761779910E+03  0.41800000000E+01 0.  1.
         -5    1    1    2    0  502  0.46428234255E+02  0.63397964329E+02 -0.16849860026E+03  0.18596809809E+03  0.41800000000E+01 0.  1.
        -11    1    1    2    0    0  0.34845908770E+02 -0.40984813765E+02 -0.22844244974E+02  0.58445289338E+02  0.00000000000E+00 0. -1.
         11    1    1    2    0    0 -0.18071044301E+02 -0.27525039954E+02 -0.12685964192E+03  0.13106318787E+03  0.00000000000E+00 0.  1.
</event>
<event>
 6    1  0.8259171E-006  0.1328660E+03  0.7561462E-02  0.1223264E+00
         -2   -1    0    0    0  501 -0.00000000000E+00  0.00000000000E+00  0.31208711252E+03  0.31208711252E+03  0.00000000000E+00 0.  1.
          2   -1    0    0  501    0  0.00000000000E+00 -0.00000000000E+00 -0.76309420961E+02  0.76309420961E+02  0.00000000000E+00 0. -1.
          5    1    1    2  502    0  0.88607232923E+02  0.21834059731E+02  0.14180758451E+03  0.16868559902E+03  0.41800000000E+01 0. -1.
         -5    1    1    2    0  502 -0.38078921268E+02  0.43531778161E+02  0.72147496471E+02  0.92562160746E+02  0.41800000000E+01 0. -1.
        -11    1    1    2    0    0  0.20500651183E+02 -0.31789010807E+02 -0.14606784043E+02  0.40548440748E+02  0.00000000000E+00 0. -1.
         11    1    1    2    0    0 -0.71028962838E+02 -0.33576827085E+02  0.36429394622E+02  0.86600332976E+02  0.00000000000E+00 0.  1.
</event>
<event>
 6    1  0.8259171E-006  0.1130955E+03  0.7561462E-02  0.1254943E+00
          1   -1    0    0  501    0  0.00000000000E+00  0.00000000000E+00  0.69487872875E+02  0.69487872875E+02  0.00000000000E+00 0. -1.
         -1   -1    0    0    0  501 -0.00000000000E+00 -0.00000000000E+00 -0.20978774560E+03  0.20978774560E+03  0.00000000000E+00 0.  1.
          5    1    1    2  502    0  0.69867538515E+02 -0.45007559098E+02 -0.88255478902E+02  0.12129985684E+03  0.41800000000E+01 0. -1.
         -5    1    1    2    0  502 -0.39665910937E+02  0.42495778404E+01 -0.25221340154E+00  0.40112085634E+02  0.41800000000E+01 0. -1.
        -11    1    1    2    0    0 -0.62318917435E+02  0.27602044862E+02 -0.47081031871E+02  0.82838058360E+02  0.00000000000E+00 0.  1.
         11    1    1    2    0    0  0.32117289857E+02  0.13155936396E+02 -0.47111485513E+01  0.35025617638E+02  0.00000000000E+00 0. -1.
</event>
<event>
 6    1  0.8259171E-006  0.1319080E+03  0.7561462E-02  0.1224652E+00
          1   -1    0    0  501    0  0.00000000000E+00  0.00000000000E+00  0.33353751582E+03  0.33353751582E+03  0.00000000000E+00 0. -1.
         -1   -1    0    0    0  501 -0.00000000000E+00 -0.00000000000E+00 -0.72222927717E+02  0.72222927717E+02  0.00000000000E+00 0.  1.
          5    1    1    2  502    0 -0.57895137028E+01 -0.24868736558E+02  0.88235143548E+02  0.91950451243E+02  0.41800000000E+01 0. -1.
         -5    1    1    2    0  502  0.98696666638E+02 -0.30009908244E+02  0.18930303163E+02  0.10496406707E+03  0.41800000000E+01 0. -1.
        -11    1    1    2    0    0 -0.46086453065E+01  0.45692563738E+02  0.25468222091E+02  0.52513620414E+02  0.00000000000E+00 0.  1.
         11    1    1    2    0    0 -0.88298507628E+02  0.91860810633E+01  0.12868091930E+03  0.15633230481E+03  0.00000000000E+00 0. -1.
</event>
<event>
 6    1  0.8259171E-006  0.1054406E+03  0.7561462E-02  0.1269254E+00
         -2   -1    0    0    0  501 -0.00000000000E+00  0.00000000000E+00  0.90368992311E+02  0.90368992311E+02  0.00000000000E+00 0.  1.
          2   -1    0    0  501    0  0.00000000000E+00 -0.00000000000E+00 -0.13978449394E+03  0.13978449394E+03  0.00000000000E+00 0. -1.
          5    1    1    2  502    0 -0.67235302463E+02 -0.11488081569E+02 -0.31164108356E+02  0.75108161774E+02  0.41800000000E+01 0. -1.
         -5    1    1    2    0  502  0.53029671896E+02 -0.21283935971E+02  0.52591017460E+01  0.57535055254E+02  0.41800000000E+01 0. -1.
        -11    1    1    2    0    0 -0.28244769456E+02 -0.46915940642E+01 -0.28844218623E+02  0.40641936524E+02  0.00000000000E+00 0. -1.
         11    1    1    2    0    0  0.42450400023E+02  0.37463611604E+02  0.53337236046E+01  0.56868332699E+02  0.00000000000E+00 0.  1.
</event>
<event>
 6    1  0.8259171E-006  0.9584659E+02  0.7561462E-02  0.1289281E+00
          2   -1    0    0  501    0  0.00000000000E+00  0.00000000000E+00  0.36383246611E+03  0.36383246611E+03  0.00000000000E+00 0. -1.
         -2   -1    0    0    0  501 -0.00000000000E+00 -0.00000000000E+00 -0.30458216254E+02  0.30458216254E+02  0.00000000000E+00 0.  1.
          5    1    1    2  502    0  0.53208965735E+02 -0.17587708962E+02  0.17284798952E+03  0.18175373840E+03  0.41800000000E+01 0. -1.
         -5    1    1    2    0  502 -0.33648460425E+02  0.24632216450E+02  0.28697790855E+02  0.50793706069E+02  0.41800000000E+01 0.  1.
        -11    1    1    2    0    0 -0.27133705122E+02 -0.46269088343E+02  0.79672950539E+02  0.96046059457E+02  0.00000000000E+00 0.  1.
         11    1    1    2    0    0  0.75731998126E+01  0.39224580855E+02  0.52155518944E+02  0.65697178440E+02  0.00000000000E+00 0. -1.
</event>
<event>
 6    1  0.8259171E-006  0.1762243E+03  0.7561462E-02  0.1171508E+00
         -1   -1    0    0    0  501 -0.00000000000E+00  0.00000000000E+00  0.11687553345E+03  0.11687553345E+03  0.00000000000E+00 0.  1.
          1   -1    0    0  501    0  0.00000000000E+00 -0.00000000000E+00 -0.30567121014E+03  0.30567121014E+03  0.00000000000E+00 0. -1.
          5    1    1    2  502    0 -0.15473650399E+02  0.61426907103E+02 -0.62185290950E+02  0.88866087926E+02  0.41800000000E+01 0. -1.
         -5    1    1    2    0  502  0.11946341441E+03  0.30706098806E+02 -0.11265374971E+03  0.16710090248E+03  0.41800000000E+01 0. -1.
        -11    1    1    2    0    0  0.69356679411E+01 -0.44145709906E+02 -0.92085592268E+01  0.45626141146E+02  0.00000000000E+00 0. -1.
         11    1    1    2    0    0 -0.11092543195E+03 -0.47987296003E+02 -0.47480768052E+01  0.12095361203E+03  0.00000000000E+00 0.  1.
</event>
<event>
 6    1  0.8259171E-006  0.2646470E+03  0.7561462E-02  0.1104383E+00
         -2   -1    0    0    0  501 -0.00000000000E+00  0.00000000000E+00  0.75405535474E+02  0.75405535474E+02  0.00000000000E+00 0.  1.
          2   -1    0    0  501    0  0.00000000000E+00 -0.00000000000E+00 -0.12339456737E+04  0.12339456737E+04  0.00000000000E+00 0. -1.
          5    1    1    2  502    0  0.19510667707E+02  0.11961039198E+03 -0.21762501030E+03  0.24912934297E+03  0.41800000000E+01 0. -1.
         -5    1    1    2    0  502  0.92625024461E+02  0.10575762579E+03 -0.87051071014E+02  0.16540686786E+03  0.41800000000E+01 0. -1.
        -11    1    1    2    0    0 -0.55143190497E+02 -0.27789685572E+02 -0.21274371264E+03  0.22152409655E+03  0.00000000000E+00 0.  1.
         11    1    1    2    0    0 -0.56992501671E+02 -0.19757833220E+03 -0.64112034430E+03  0.67329090182E+03  0.00000000000E+00 0. -1.
</event>
<event>
 6    1  0.8259171E-006  0.1302649E+03  0.7561462E-02  0.1227063E+00
         -2   -1    0    0    0  501 -0.00000000000E+00  0.00000000000E+00  0.76015577521E+03  0.76015577521E+03  0.00000000000E+00 0.  1.
          2   -1    0    0  501    0  0.00000000000E+00 -0.00000000000E+00 -0.32504175805E+02  0.32504175805E+02  0.00000000000E+00 0. -1.
          5    1    1    2  502    0 -0.14792286841E+02  0.96113834563E+02  0.14309762291E+03  0.17306381201E+03  0.41800000000E+01 0.  1.
         -5    1    1    2    0  502  0.26088122925E+02  0.15685476302E+02  0.28851389697E+03  0.29014542125E+03  0.41800000000E+01 0.  1.
        -11    1    1    2    0    0 -0.35869076826E+02 -0.97838160555E+02  0.27539556413E+03  0.29445137642E+03  0.00000000000E+00 0.  1.
         11    1    1    2    0    0  0.24573240741E+02 -0.13961150310E+02  0.20644515394E+02  0.34999341342E+02  0.00000000000E+00 0. -1.
</event>
<event>
 6    1  0.8259171E-006  0.1011183E+03  0.7561462E-02  0.1277962E+00
         -2   -1    0    0    0  501 -0.00000000000E+00  0.00000000000E+00  0.68532170655E+02  0.68532170655E+02  0.00000000000E+00 0. -1.
          2   -1    0    0  501    0  0.00000000000E+00 -0.00000000000E+00 -0.18810313890E+03  0.18810313890E+03  0.00000000000E+00 0.  1.
          5    1    1    2  502    0 -0.20946653253E+02  0.46796856240E+02 -0.11066492421E+02  0.52617940771E+02  0.41800000000E+01 0. -1.
         -5    1    1    2    0  502  0.25303788108E+02 -0.71332457826E+02 -0.27142941277E+02  0.80515917018E+02  0.41800000000E+01 0. -1.
        -11    1    1    2    0    0  0.29714365212E+02  0.27894722742E+02 -0.66180795239E+01  0.41289926537E+02  0.00000000000E+00 0. -1.
         11    1    1    2    0    0 -0.34071500067E+02 -0.33591211565E+01 -0.74743455025E+02  0.82211525231E+02  0.00000000000E+00 0.  1.
</event>
<event>
 6    1  0.8259171E-006  0.1128796E+03  0.7561462E-02  0.1255328E+00
         -3   -1    0    0    0  501 -0.00000000000E+00  0.00000000000E+00  0.85621838856E+02  0.85621838856E+02  0.00000000000E+00 0.  1.
          3   -1    0    0  501    0  0.00000000000E+00 -0.00000000000E+00 -0.16570519249E+03  0.16570519249E+03  0.00000000000E+00 0. -1.
          5    1    1    2  502    0 -0.24328309203E+02  0.43351500699E+02  0.13467622258E+02  0.51672705472E+02  0.41800000000E+01 0. -1.
         -5    1    1    2    0  502 -0.39505848569E+01 -0.74677562225E+02 -0.32756898087E+02  0.81748591381E+02  0.41800000000E+01 0. -1.
        -11    1    1    2    0    0  0.58858635367E+02  0.37482844637E+02 -0.40284207589E+02  0.80573692856E+02  0.00000000000E+00 0.  1.
         11    1    1    2    0    0 -0.30579741307E+02 -0.61567831108E+01 -0.20509870220E+02  0.37332041641E+02  0.00000000000E+00 0. -1.
</event>
<event>
 6    1  0.8259171E-006  0.1022149E+03  0.7561462E-02  0.1275706E+00
          3   -1    0    0  501    0  0.00000000000E+00  0.00000000000E+00  0.79824738896E+02  0.79824738896E+02  0.00000000000E+00 0. -1.
         -3   -1    0    0    0  501 -0.00000000000E+00 -0.00000000000E+00 -0.17146050411E+03  0.17146050411E+03  0.00000000000E+00 0.  1.
          5    1    1    2  502    0 -0.16226943769E+02  0.51464954541E+02 -0.30306867557E+02  0.62031716654E+02  0.41800000000E+01 0.  1.
         -5    1    1    2    0  502  0.35309940737E+02 -0.61885123943E+02 -0.67499176953E+02  0.98235287802E+02  0.41800000000E+01 0.  1.
        -11    1    1    2    0    0 -0.40010483673E+02 -0.17807108524E+02 -0.19057529268E+02  0.47761086038E+02  0.00000000000E+00 0.  1.
         11    1    1    2    0    0  0.20927486705E+02  0.28227277925E+02  0.25227808561E+02  0.43257152514E+02  0.00000000000E+00 0. -1.
</event>
<event>
 6    1  0.8259171E-006  0.2048355E+03  0.7561462E-02  0.1145722E+00
         -1   -1    0    0    0  501 -0.00000000000E+00  0.00000000000E+00  0.15248757535E+03  0.15248757535E+03  0.00000000000E+00 0.  1.
          1   -1    0    0  501    0  0.00000000000E+00 -0.00000000000E+00 -0.59740659111E+03  0.59740659111E+03  0.00000000000E+00 0. -1.
          5    1    1    2  502    0 -0.15685864735E+02 -0.47385655365E+02 -0.33139401756E+02  0.60059462498E+02  0.41800000000E+01 0.  1.
         -5    1    1    2    0  502  0.90958322586E+02 -0.12465465192E+03  0.66283710632E+02  0.16799762316E+03  0.41800000000E+01 0.  1.
        -11    1    1    2    0    0 -0.62777891312E+02  0.44231122088E+02 -0.13198171405E+03  0.15269783444E+03  0.00000000000E+00 0.  1.
         11    1    1    2    0    0 -0.12494566539E+02  0.12780918519E+03 -0.34608161059E+03  0.36913924636E+03  0.00000000000E+00 0. -1.
</event>
<event>
 6    1  0.8259171E-006  0.2656828E+03  0.7561462E-02  0.1103776E+00
          1   -1    0    0  501    0  0.00000000000E+00  0.00000000000E+00  0.34652645632E+03  0.34652645632E+03  0.00000000000E+00 0. -1.
         -1   -1    0    0    0  501 -0.00000000000E+00 -0.00000000000E+00 -0.22664667649E+03  0.22664667649E+03  0.00000000000E+00 0.  1.
          5    1    1    2  502    0 -0.29065983431E+02 -0.12039968806E+02 -0.32769504886E+02  0.45619130769E+02  0.41800000000E+01 0.  1.
         -5    1    1    2    0  502 -0.12438337121E+03 -0.19537875390E+03  0.79506959870E+02  0.24491408611E+03  0.41800000000E+01 0.  1.
        -11    1    1    2    0    0  0.51495868782E+02  0.21224104472E+02  0.38110239041E+02  0.67488350343E+02  0.00000000000E+00 0.  1.
         11    1    1    2    0    0  0.10195348586E+03  0.18619461823E+03  0.35032085805E+02  0.21515156559E+03  0.00000000000E+00 0. -1.
</event>
<event>
 6    1  0.8259171E-006  0.1163496E+03  0.7561462E-02  0.1249243E+00
         -1   -1    0    0    0  501 -0.00000000000E+00  0.00000000000E+00  0.35733261572E+03  0.35733261572E+03  0.00000000000E+00 0.  1.
          1   -1    0    0  501    0  0.00000000000E+00 -0.00000000000E+00 -0.70171187957E+02  0.70171187957E+02  0.00000000000E+00 0. -1.
          5    1    1    2  502    0  0.64704202348E+02  0.21827345510E+01  0.16045233322E+03  0.17307172435E+03  0.41800000000E+01 0.  1.
         -5    1    1    2    0  502 -0.50341482282E+02 -0.44544001924E+02  0.13464244124E+03  0.15054730927E+03  0.41800000000E+01 0.  1.
        -11    1    1    2    0    0 -0.10949089462E+02  0.70895800522E+02  0.59235329844E+01  0.71980451060E+02  0.00000000000E+00 0.  1.
         11    1    1    2    0    0 -0.34136306040E+01 -0.28534533149E+02 -0.13856879688E+02  0.31904318996E+02  0.00000000000E+00 0. -1.
</event>
<event>
 6    1  0.8259171E-006  0.1207930E+03  0.7561462E-02  0.1241795E+00
          1   -1    0    0  501    0  0.00000000000E+00  0.00000000000E+00  0.58622216572E+03  0.58622216572E+03  0.00000000000E+00 0. -1.
         -1   -1    0    0    0  501 -0.00000000000E+00 -0.00000000000E+00 -0.30179709425E+02  0.30179709425E+02  0.00000000000E+00 0.  1.
          5    1    1    2  502    0 -0.49008981225E+02  0.83830700108E+02  0.24207240828E+03  0.26085626266E+03  0.41800000000E+01 0.  1.
         -5    1    1    2    0  502  0.32008603834E+02 -0.11000768441E+02  0.21468877244E+02  0.40298296686E+02  0.41800000000E+01 0.  1.
        -11    1    1    2    0    0 -0.15491766736E+02 -0.76072308795E+02  0.14825681579E+03  0.16735314288E+03  0.00000000000E+00 0.  1.
         11    1    1    2    0    0  0.32492144126E+02  0.32423771279E+01  0.14424435498E+03  0.14789417292E+03  0.00000000000E+00 0. -1.
</event>
<event>
 6    1  0.1270454E-005  0.1682376E+03  0.7561462E-02  0.1179698E+00
         -3   -1    0    0    0  501 -0.00000000000E+00  0.00000000000E+00  0.66407484478E+02  0.66407484478E+02  0.00000000000E+00 0.  1.
          3   -1    0    0  501    0  0.00000000000E+00 -0.00000000000E+00 -0.47528437317E+03  0.47528437317E+03  0.00000000000E+00 0. -1.
          5    1    1    2  502    0 -0.10177883605E+03 -0.13264566118E+02 -0.10644637091E+03  0.14792965376E+03  0.41800000000E+01 0. -1.
         -5    1    1    2    0  502 -0.15233377236E+02  0.72144601838E+02 -0.34190985934E+02  0.81384244639E+02  0.41800000000E+01 0. -1.
        -11    1    1    2    0    0  0.11155627431E+03 -0.11436837530E+02 -0.18104800894E+03  0.21296475091E+03  0.00000000000E+00 0.  1.
         11    1    1    2    0    0  0.54559389684E+01 -0.47443198190E+02 -0.87191522904E+02  0.99413208331E+02  0.00000000000E+00 0. -1.
</event>
<event>
 6    1  0.8259171E-006  0.1077936E+03  0.7561462E-02  0.1264711E+00
         -1   -1    0    0    0  501 -0.00000000000E+00  0.00000000000E+00  0.62322854245E+02  0.62322854245E+02  0.00000000000E+00 0. -1.
          1   -1    0    0  501    0  0.00000000000E+00 -0.00000000000E+00 -0.20218559420E+03  0.20218559420E+03  0.00000000000E+00 0.  1.
          5    1    1    2  502    0  0.17977146074E+02  0.55127946320E+02 -0.34016919110E+02  0.67356450561E+02  0.41800000000E+01 0.  1.
         -5    1    1    2    0  502 -0.37593869096E+02 -0.55335210685E+02 -0.17013221639E+02  0.69153500604E+02  0.41800000000E+01 0.  1.
        -11    1    1    2    0    0 -0.58212258499E+01 -0.41318128475E+02 -0.53428180040E+02  0.67791185514E+02  0.00000000000E+00 0.  1.
         11    1    1    2    0    0  0.25437948872E+02  0.41525392841E+02 -0.35404419161E+02  0.60207311761E+02  0.00000000000E+00 0. -1.
</event>
<event>
 6    1  0.8259171E-006  0.8936970E+02  0.7561462E-02  0.1304385E+00
          2   -1    0    0  501    0  0.00000000000E+00  0.00000000000E+00  0.51984950722E+03  0.51984950722E+03  0.00000000000E+00 0. -1.
         -2   -1    0    0    0  501 -0.00000000000E+00 -0.00000000000E+00 -0.34836151149E+02  0.34836151149E+02  0.00000000000E+00 0.  1.
          5    1    1    2  502    0  0.33627485564E+02 -0.32032651786E+02  0.13055580379E+03  0.13863328918E+03  0.41800000000E+01 0. -1.
         -5    1    1    2    0  502 -0.28068560125E+02  0.11998677667E+02 -0.13778089524E+02  0.33750859014E+02  0.41800000000E+01 0. -1.
        -11    1    1    2    0    0  0.22168942094E+01 -0.40352687650E+02  0.17929067405E+03  0.18378900898E+03  0.00000000000E+00 0. -1.
         11    1    1    2    0    0 -0.77758196482E+01  0.60386661769E+02  0.18894496775E+03  0.19851250119E+03  0.00000000000E+00 0.  1.
</event>
<event>
 6    1  0.8259171E-006  0.1581963E+03  0.7561462E-02  0.1190748E+00
         -3   -1    0    0    0  501 -0.00000000000E+00  0.00000000000E+00  0.74865842868E+02  0.74865842868E+02  0.00000000000E+00 0.  1.
          3   -1    0    0  501    0  0.00000000000E+00 -0.00000000000E+00 -0.34379665976E+03  0.34379665976E+03  0.00000000000E+00 0. -1.
          5    1    1    2  502    0 -0.25225343970E+01 -0.10832369623E+03 -0.79840343513E+02  0.13465637451E+03  0.41800000000E+01 0. -1.
         -5    1    1    2    0  502  0.55632342400E+02  0.84877010368E+02 -0.76826510345E+02  0.12735324692E+03  0.41800000000E+01 0.  1.
        -11    1    1    2    0    0  0.25284412050E+02  0.37830130546E+01 -0.13108512552E+02  0.28730572250E+02  0.00000000000E+00 0.  1.
         11    1    1    2    0    0 -0.78394220053E+02  0.19663672805E+02 -0.99155450485E+02  0.12792230895E+03  0.00000000000E+00 0. -1.
</event>
<event>
 6    1  0.8259171E-006  0.1047238E+03  0.7561462E-02  0.1270665E+00
          1   -1    0    0  501    0  0.00000000000E+00  0.00000000000E+00  0.33531058526E+02  0.33531058526E+02  0.00000000000E+00 0. -1.
         -1   -1    0    0    0  501 -0.00000000000E+00 -0.00000000000E+00 -0.43716843507E+03  0.43716843507E+03  0.00000000000E+00 0.  1.
          5    1    1    2  502    0  0.53771487451E+02  0.73406096796E+02 -0.17522345941E+03  0.19748559703E+03  0.41800000000E+01 0. -1.
         -5    1    1    2    0  502 -0.35894702395E+02 -0.24090693811E+02 -0.11306673216E+03  0.12112121825E+03  0.41800000000E+01 0. -1.
        -11    1    1    2    0    0  0.18490357243E+02 -0.25336233426E+02 -0.28963536977E+01  0.31499315864E+02  0.00000000000E+00 0. -1.
         11    1    1    2    0    0 -0.36367142300E+02 -0.23979169559E+02 -0.11245083128E+03  0.12059336245E+03  0.00000000000E+00 0.  1.
</event>
<event>
 6    1  0.8259171E-006  0.1083045E+03  0.7561462E-02  0.1263742E+00
         -1   -1    0    0    0  501 -0.00000000000E+00  0.00000000000E+00  0.65616189109E+03  0.65616189109E+03  0.00000000000E+00 0.  1.
          1   -1    0    0  501    0  0.00000000000E+00 -0.00000000000E+00 -0.26242749525E+02  0.26242749525E+02  0.00000000000E+00 0. -1.
          5    1    1    2  502    0 -0.45234415901E+02 -0.33224425755E+02  0.24762474616E+03  0.25393995778E+03  0.41800000000E+01 0. -1.
         -5    1    1    2    0  502  0.10925186540E+02  0.77832983622E+02  0.23814161725E+03  0.25081115467E+03  0.41800000000E+01 0. -1.
        -11    1    1    2    0    0  0.72431356075E+01  0.14722879189E+02  0.93903472479E+02  0.95326220573E+02  0.00000000000E+00 0.  1.
         11    1    1    2    0    0  0.27066093754E+02 -0.59331437057E+02  0.50249305685E+02  0.82327307597E+02  0.00000000000E+00 0. -1.
</event>
<event>
 6    1  0.8259171E-006  0.1474934E+03  0.7561462E-02  0.1203587E+00
          1   -1    0    0  501    0  0.00000000000E+00  0.00000000000E+00  0.13764073127E+03  0.13764073127E+03  0.00000000000E+00 0. -1.
         -1   -1    0    0    0  501 -0.00000000000E+00 -0.00000000000E+00 -0.25006736972E+03  0.25006736972E+03  0.00000000000E+00 0.  1.
          5    1    1    2  502    0  0.11320069027E+03 -0.84215431397E+01 -0.41150667295E+02  0.12081460377E+03  0.41800000000E+01 0.  1.
         -5    1    1    2    0  502  0.60675737772E+01 -0.46461175170E+02 -0.94794329267E+02  0.10582482464E+03  0.41800000000E+01 0.  1.
        -11    1    1    2    0    0 -0.10876662457E+03  0.39475308034E+02  0.52136469911E+02  0.12691213519E+03  0.00000000000E+00 0. -1.
         11    1    1    2    0    0 -0.10501639473E+02  0.15407410276E+02 -0.28618111802E+02  0.34156537386E+02  0.00000000000E+00 0.  1.
</event>
<event>
 6    1  0.8259171E-006  0.1203175E+03  0.7561462E-02  0.1242574E+00
          2   -1    0    0  501    0  0.00000000000E+00  0.00000000000E+00  0.88560644968E+02  0.88560644968E+02  0.00000000000E+00 0. -1.
         -2   -1    0    0    0  501 -0.00000000000E+00 -0.00000000000E+00 -0.19288735110E+03  0.19288735110E+03  0.00000000000E+00 0.  1.
          5    1    1    2  502    0  0.13111097241E+02  0.23306068613E+02  0.16986776763E+02  0.31954603579E+02  0.41800000000E+01 0. -1.
         -5    1    1    2    0  502 -0.42624941486E+02 -0.88829113391E+02 -0.73464827809E+02  0.12297174614E+03  0.41800000000E+01 0. -1.
        -11    1    1    2    0    0 -0.32154133984E+02  0.28888507166E+02 -0.29968147053E+02  0.52597756761E+02  0.00000000000E+00 0.  1.
         11    1    1    2    0    0  0.61667978228E+02  0.36634537612E+02 -0.17880508031E+02  0.73923889591E+02  0.00000000000E+00 0. -1.
</event>
<event>
 6    1  0.8259171E-006  0.1733432E+03  0.7561462E-02  0.1174406E+00
         -1   -1    0    0    0  501 -0.00000000000E+00  0.00000000000E+00  0.15992475366E+03  0.15992475366E+03  0.00000000000E+00 0.  1.
          1   -1    0    0  501    0  0.00000000000E+00 -0.00000000000E+00 -0.35695504872E+03  0.35695504872E+03  0.00000000000E+00 0. -1.
          5    1    1    2  502    0 -0.36528684506E+02  0.47804337760E+01  0.85756153007E+01  0.38055366463E+02  0.41800000000E+01 0. -1.
         -5    1    1    2    0  502  0.70412849688E+02  0.12815141606E+03  0.64239827973E+02  0.15976539906E+03  0.41800000000E+01 0.  1.
        -11    1    1    2    0    0 -0.17565315939E+02  0.94966511475E+01 -0.10099553149E+02  0.22376945298E+02  0.00000000000E+00 0.  1.
         11    1    1    2    0    0 -0.16318849243E+02 -0.14242850099E+03 -0.25974618519E+03  0.29668209156E+03  0.00000000000E+00 0. -1.
</event>
<event>
 6    1  0.8259171E-006  0.1308110E+03  0.7561462E-02  0.1226257E+00
          1   -1    0    0  501    0  0.00000000000E+00  0.00000000000E+00  0.37196874043E+03  0.37196874043E+03  0.00000000000E+00 0. -1.
         -1   -1    0    0    0  501 -0.00000000000E+00 -0.00000000000E+00 -0.52846261101E+02  0.52846261101E+02  0.00000000000E+00 0.  1.
          5    1    1    2  502    0  0.25785389348E+02  0.21757472629E+02  0.17226275523E+02  0.38111558449E+02  0.41800000000E+01 0.  1.
         -5    1    1    2    0  502 -0.11048765568E+03 -0.23421095925E+02  0.14017754901E+03  0.18006467571E+03  0.41800000000E+01 0.  1.
        -11    1    1    2    0    0  0.15550884325E+02  0.34657466210E+02  0.14470625241E+02  0.40649341474E+02  0.00000000000E+00 0.  1.
         11    1    1    2    0    0  0.69151382004E+02 -0.32993842915E+02  0.14724802956E+03  0.16598942591E+03  0.00000000000E+00 0. -1.
</event>
<event>
 6    1  0.8259171E-006  0.1129747E+03  0.7561462E-02  0.1255158E+00
         -3   -1    0    0    0  501 -0.00000000000E+00  0.00000000000E+00  0.12684772849E+03  0.12684772849E+03  0.00000000000E+00 0.  1.
          3   -1    0    0  501    0  0.00000000000E+00 -0.00000000000E+00 -0.10541935659E+03  0.10541935659E+03  0.00000000000E+00 0. -1.
          5    1    1    2  502    0  0.89863892641E+01 -0.43584677087E+02  0.22859077576E+02  0.50203476935E+02  0.41800000000E+01 0.  1.
         -5    1    1    2    0  502 -0.34178734070E+02  0.73703888851E+02 -0.80092748609E+01  0.81743929305E+02  0.41800000000E+01 0.  1.
        -11    1    1    2    0    0 -0.34984764965E+02 -0.89744124183E+01 -0.68141251042E+00  0.36123928094E+02  0.00000000000E+00 0. -1.
         11    1    1    2    0    0  0.60177109771E+02 -0.21144799346E+02  0.72599816872E+01  0.64195750746E+02  0.00000000000E+00 0.  1.
</event>
<event>
 6    1  0.8259171E-006  0.8677719E+02  0.7561462E-02  0.1310849E+00
          1   -1    0    0  501    0  0.00000000000E+00  0.00000000000E+00  0.31594721973E+03  0.31594721973E+03  0.00000000000E+00 0. -1.
         -1   -1    0    0    0  501 -0.00000000000E+00 -0.00000000000E+00 -0.38950128467E+02  0.38950128467E+02  0.00000000000E+00 0.  1.
          5    1    1    2  502    0  0.55353444568E+02 -0.40228184303E+02  0.48872034214E+02  0.84191797499E+02  0.41800000000E+01 0.  1.
         -5    1    1    2    0  502 -0.45786557198E+02  0.21305728394E+02  0.94705960978E+02  0.10741058759E+03  0.41800000000E+01 0.  1.
        -11    1    1    2    0    0  0.20341147106E+02  0.12035572484E+02  0.13032256566E+03  0.13244843672E+03  0.00000000000E+00 0. -1.
         11    1    1    2    0    0 -0.29908034476E+02  0.68868834247E+01  0.30965304188E+01  0.30846526387E+02  0.00000000000E+00 0.  1.
</event>
<event>
 6    1  0.8259171E-006  0.7849375E+02  0.7561462E-02  0.1333381E+00
          4   -1    0    0  501    0  0.00000000000E+00  0.00000000000E+00  0.91115474819E+02  0.91115474819E+02  0.00000000000E+00 0. -1.
         -4   -1    0    0    0  501 -0.00000000000E+00 -0.00000000000E+00 -0.14609813629E+03  0.14609813629E+03  0.00000000000E+00 0.  1.
          5    1    1    2  502    0 -0.40000447162E+02 -0.25717614031E+02 -0.30276499155E+02  0.56529375069E+02  0.41800000000E+01 0. -1.
         -5    1    1    2    0  502  0.53062020108E+02  0.35085687666E+02 -0.49940275845E+02  0.80982016574E+02  0.41800000000E+01 0.  1.
        -11    1    1    2    0    0 -0.27436747141E+02 -0.13450073650E+02  0.56957062330E+02  0.64635799091E+02  0.00000000000E+00 0. -1.
         11    1    1    2    0    0  0.14375174194E+02  0.40820000150E+01 -0.31722948798E+02  0.35066420372E+02  0.00000000000E+00 0.  1.
</event>
<event>
 6    1  0.8259171E-006  0.8646802E+02  0.7561462E-02  0.1311638E+00
         -2   -1    0    0    0  501 -0.00000000000E+00  0.00000000000E+00  0.43542509408E+03  0.43542509408E+03  0.00000000000E+00 0.  1.
          2   -1    0    0  501    0  0.00000000000E+00 -0.00000000000E+00 -0.38432814325E+02  0.38432814325E+02  0.00000000000E+00 0. -1.
          5    1    1    2  502    0  0.15525632145E+01  0.31896475848E+02 -0.64902880802E+01  0.32854099644E+02  0.41800000000E+01 0. -1.
         -5    1    1    2    0  502 -0.32716925322E+01  0.39015051536E+02  0.22708248980E+03  0.23047083935E+03  0.41800000000E+01 0. -1.
        -11    1    1    2    0    0 -0.34795523140E+02 -0.25799037169E+02  0.29025962561E+02  0.52142355643E+02  0.00000000000E+00 0. -1.
         11    1    1    2    0    0  0.36514652457E+02 -0.45112490215E+02  0.14737411548E+03  0.15839061377E+03  0.00000000000E+00 0.  1.
</event>
<event>
 6    1  0.8259171E-006  0.1248778E+03  0.7561462E-02  0.1235260E+00
         -2   -1    0    0    0  501 -0.00000000000E+00  0.00000000000E+00  0.17449068365E+02  0.17449068365E+02  0.00000000000E+00 0.  1.
          2   -1    0    0  501    0  0.00000000000E+00 -0.00000000000E+00 -0.93654644863E+03  0.93654644863E+03  0.00000000000E+00 0. -1.
          5    1    1    2  502    0 -0.83094314622E+02 -0.17293814235E+02 -0.36992488603E+03  0.37955979086E+03  0.41800000000E+01 0.  1.
         -5    1    1    2    0  502  0.39421816751E+02 -0.31873619811E+02 -0.11987128815E+03  0.13021753107E+03  0.41800000000E+01 0.  1.
        -11    1    1    2    0    0  0.55168970864E+02  0.70594225106E+02 -0.32534280425E+03  0.33745384906E+03  0.00000000000E+00 0.  1.
         11    1    1    2    0    0 -0.11496472993E+02 -0.21426791059E+02 -0.10395840183E+03  0.10676434601E+03  0.00000000000E+00 0. -1.
</event>
<event>
 6    1  0.8259171E-006  0.1231741E+03  0.7561462E-02  0.1237951E+00
          2   -1    0    0  501    0  0.00000000000E+00  0.00000000000E+00  0.56938926307E+03  0.56938926307E+03  0.00000000000E+00 0. -1.
         -2   -1    0    0    0  501 -0.00000000000E+00 -0.00000000000E+00 -0.40476321815E+02  0.40476321815E+02  0.00000000000E+00 0.  1.
          5    1    1    2  502    0 -0.64489121173E+02 -0.49122783817E+02  0.12535432491E+03  0.14934213676E+03  0.41800000000E+01 0. -1.
         -5    1    1    2    0  502  0.49368332872E+02 -0.33772301365E+02  0.29499207732E+02  0.66824219313E+02  0.41800000000E+01 0. -1.
        -11    1    1    2    0    0  0.39536473478E+02  0.42781663324E+02  0.30283801431E+03  0.30838979614E+03  0.00000000000E+00 0. -1.
         11    1    1    2    0    0 -0.24415685177E+02  0.40113421857E+02  0.71221394304E+02  0.85309432669E+02  0.00000000000E+00 0.  1.
</event>
<event>
 6    1  0.8259171E-006  0.1113206E+03  0.7561462E-02  0.1258144E+00
          2   -1    0    0  501    0  0.00000000000E+00  0.00000000000E+00  0.45396200077E+03  0.45396200077E+03  0.00000000000E+00 0. -1.
         -2   -1    0    0    0  501 -0.00000000000E+00 -0.00000000000E+00 -0.55281428414E+02  0.55281428414E+02  0.00000000000E+00 0.  1.
          5    1    1    2  502    0  0.35103042800E+02 -0.46705515532E+02  0.11718338454E+03  0.13100781201E+03  0.41800000000E+01 0. -1.
         -5    1    1    2    0  502  0.41532529240E+02  0.40916869420E+01 -0.23615080503E+02  0.48133536274E+02  0.41800000000E+01 0. -1.
        -11    1    1    2    0    0  0.21591372407E+01  0.43271996467E+02  0.14986750564E+03  0.15600447686E+03  0.00000000000E+00 0.  1.
         11    1    1    2    0    0 -0.78794709280E+02 -0.65816787714E+00  0.15524476268E+03  0.17409760405E+03  0.00000000000E+00 0. -1.
</event>
<event>
 6    1  0.8259171E-006  0.1574183E+03  0.7561462E-02  0.1191643E+00
          1   -1    0    0  501    0  0.00000000000E+00  0.00000000000E+00  0.29029861526E+03  0.29029861526E+03  0.00000000000E+00 0. -1.
         -1   -1    0    0    0  501 -0.00000000000E+00 -0.00000000000E+00 -0.10027809359E+03  0.10027809359E+03  0.00000000000E+00 0.  1.
          5    1    1    2  502    0 -0.36658534344E+02 -0.52667050529E+02  0.38690037505E+02  0.75047036942E+02  0.41800000000E+01 0. -1.
         -5    1    1    2    0  502  0.87575977960E+02 -0.58552736666E+02  0.63779143354E+01  0.10562255951E+03  0.41800000000E+01 0. -1.
        -11    1    1    2    0    0  0.14974787657E+02 -0.95560741299E+00 -0.17236184792E+00  0.15006237353E+02  0.00000000000E+00 0.  1.
         11    1    1    2    0    0 -0.65892231273E+02  0.11217539461E+03  0.14512493168E+03  0.19490087504E+03  0.00000000000E+00 0. -1.
</event>
<event>
 6    1  0.8259171E-006  0.5842745E+02  0.7561462E-02  0.1404552E+00
         -1   -1    0    0    0  501 -0.00000000000E+00  0.00000000000E+00  0.24980676462E+02  0.24980676462E+02  0.00000000000E+00 0.  1.
          1   -1    0    0  501    0  0.00000000000E+00 -0.00000000000E+00 -0.50568163004E+03  0.50568163004E+03  0.00000000000E+00 0. -1.
          5    1    1    2  502    0 -0.75336052273E+01 -0.49311035816E+01  0.13002415478E+02  0.16358673495E+02  0.41800000000E+01 0. -1.
         -5    1    1    2    0  502 -0.18488310743E+02 -0.86869153404E+01 -0.27162175605E+03  0.27242087089E+03  0.41800000000E+01 0. -1.
        -11    1    1    2    0    0  0.39442500633E+02 -0.23977098973E+02 -0.64444464603E+02  0.79269799731E+02  0.00000000000E+00 0.  1.
         11    1    1    2    0    0 -0.13420584663E+02  0.37595117895E+02 -0.15763714840E+03  0.16261296239E+03  0.00000000000E+00 0. -1.
</event>
<event>
 6    1  0.8259171E-006  0.1233467E+03  0.7561462E-02  0.1237676E+00
         -3   -1    0    0    0  501 -0.00000000000E+00  0.00000000000E+00  0.15352319033E+03  0.15352319033E+03  0.00000000000E+00 0.  1.
          3   -1    0    0  501    0  0.00000000000E+00 -0.00000000000E+00 -0.12618821869E+03  0.12618821869E+03  0.00000000000E+00 0. -1.
          5    1    1    2  502    0 -0.26738055350E+02 -0.53894172693E+01  0.49003070797E+02  0.56238267843E+02  0.41800000000E+01 0. -1.
         -5    1    1    2    0  502  0.57550196143E+02  0.81550579723E+02 -0.41838152696E+01  0.99987493415E+02  0.41800000000E+01 0. -1.
        -11    1    1    2    0    0  0.30067915366E+02 -0.32538663322E+02  0.66446523876E+01  0.44799503910E+02  0.00000000000E+00 0.  1.
         11    1    1    2    0    0 -0.60880056159E+02 -0.43622499132E+02 -0.24128936279E+02  0.78686143852E+02  0.00000000000E+00 0. -1.
</event>
<event>
 6    1  0.8259171E-006  0.1655851E+03  0.7561462E-02  0.1182532E+00
          1   -1    0    0  501    0  0.00000000000E+00  0.00000000000E+00  0.22057751711E+03  0.22057751711E+03  0.00000000000E+00 0. -1.
         -1   -1    0    0    0  501 -0.00000000000E+00 -0.00000000000E+00 -0.19535593108E+03  0.19535593108E+03  0.00000000000E+00 0.  1.
          5    1    1    2  502    0  0.89419503060E+02  0.65660030272E+02 -0.42699851176E+02  0.11894467955E+03  0.41800000000E+01 0.  1.
         -5    1    1    2    0  502 -0.35743418144E+02  0.51409697842E+02 -0.65338352387E+02  0.90593165666E+02  0.41800000000E+01 0.  1.
        -11    1    1    2    0    0  0.19734748352E+02 -0.62228586870E+00  0.13317780864E+02  0.23816188178E+02  0.00000000000E+00 0.  1.
         11    1    1    2    0    0 -0.73410833268E+02 -0.11644744224E+03  0.11994200873E+03  0.18257941479E+03  0.00000000000E+00 0. -1.
</event>
<event>
 6    1  0.8259171E-006  0.1063706E+03  0.7561462E-02  0.1267443E+00
          1   -1    0    0  501    0  0.00000000000E+00  0.00000000000E+00  0.21216570221E+03  0.21216570221E+03  0.00000000000E+00 0. -1.
         -1   -1    0    0    0  501 -0.00000000000E+00 -0.00000000000E+00 -0.57708227810E+02  0.57708227810E+02  0.00000000000E+00 0.  1.
          5    1    1    2  502    0  0.21253929677E+02 -0.48751743425E+02  0.49931452874E+02  0.73069038585E+02  0.41800000000E+01 0. -1.
         -5    1    1    2    0  502 -0.46325595280E+02  0.51255412461E+02  0.18128018944E+02  0.71549112890E+02  0.41800000000E+01 0. -1.
        -11    1    1    2    0    0  0.20686702748E+02  0.41281747658E+02  0.50851917597E+02  0.68687989369E+02  0.00000000000E+00 0.  1.
         11    1    1    2    0    0  0.43849628546E+01 -0.43785416693E+02  0.35546084982E+02  0.56567789172E+02  0.00000000000E+00 0. -1.
</event>
<event>
 6    1  0.8259171E-006  0.1876530E+03  0.7561462E-02  0.1160595E+00
          1   -1    0    0  501    0  0.00000000000E+00  0.00000000000E+00  0.56428629051E+03  0.56428629051E+03  0.00000000000E+00 0. -1.
         -1   -1    0    0    0  501 -0.00000000000E+00 -0.00000000000E+00 -0.70510970175E+02  0.70510970175E+02  0.00000000000E+00 0.  1.
          5    1    1    2  502    0 -0.39285947458E+02 -0.17416887263E+02  0.70464149623E+02  0.82640198522E+02  0.41800000000E+01 0.  1.
         -5    1    1    2    0  502  0.73949403933E+02 -0.14585176130E+03  0.15775472770E+03  0.22725597270E+03  0.41800000000E+01 0.  1.
        -11    1    1    2    0    0 -0.21032887657E+02  0.14008190599E+03  0.26190554101E+03  0.29775801443E+03  0.00000000000E+00 0. -1.
         11    1    1    2    0    0 -0.13630568817E+02  0.23186742564E+02  0.36509020134E+01  0.27143075038E+02  0.00000000000E+00 0.  1.
</event>
<event>
 6    1  0.8259171E-006  0.1458404E+03  0.7561462E-02  0.1205679E+00
         -2   -1    0    0    0  501 -0.00000000000E+00  0.00000000000E+00  0.83836929047E+02  0.83836929047E+02  0.00000000000E+00 0. -1.
          2   -1    0    0  501    0  0.00000000000E+00 -0.00000000000E+00 -0.27180287768E+03  0.27180287768E+03  0.00000000000E+00 0.  1.
          5    1    1    2  502    0  0.22247554566E+02  0.91778409704E+02 -0.71454175910E+02  0.11849642116E+03  0.41800000000E+01 0.  1.
         -5    1    1    2    0  502  0.59140391365E+02 -0.30445942470E+02 -0.17571067059E+02  0.68925728878E+02  0.41800000000E+01 0.  1.
        -11    1    1    2    0    0 -0.70039027055E+02 -0.19707619431E+01 -0.76528152433E+02  0.10375889036E+03  0.00000000000E+00 0.  1.
         11    1    1    2    0    0 -0.11348918877E+02 -0.59361705291E+02 -0.22412553226E+02  0.64458766331E+02  0.00000000000E+00 0. -1.
</event>
<event>
 6    1  0.8259171E-006  0.7656700E+02  0.7561462E-02  0.1339086E+00
          2   -1    0    0  501    0  0.00000000000E+00  0.00000000000E+00  0.39979644994E+02  0.39979644994E+02  0.00000000000E+00 0. -1.
         -2   -1    0    0    0  501 -0.00000000000E+00 -0.00000000000E+00 -0.22655335791E+03  0.22655335791E+03  0.00000000000E+00 0.  1.
          5    1    1    2  502    0  0.43582516974E+02  0.44632284313E+02 -0.10620898998E+02  0.63417288528E+02  0.41800000000E+01 0. -1.
         -5    1    1    2    0  502 -0.35358193143E+02 -0.48507595475E+02 -0.15415739015E+03  0.16548462762E+03  0.41800000000E+01 0.  1.
        -11    1    1    2    0    0  0.50835465829E+00  0.15718011328E+02 -0.89253648142E+01  0.18082489918E+02  0.00000000000E+00 0. -1.
         11    1    1    2    0    0 -0.87326784890E+01 -0.11842700166E+02 -0.12870058957E+02  0.19548596838E+02  0.00000000000E+00 0.  1.
</event>
<event>
 6    1  0.8259171E-006  0.1059709E+03  0.7561462E-02  0.1268218E+00
         -1   -1    0    0    0  501 -0.00000000000E+00  0.00000000000E+00  0.29974898096E+02  0.29974898096E+02  0.00000000000E+00 0.  1.
          1   -1    0    0  501    0  0.00000000000E+00 -0.00000000000E+00 -0.62509744651E+03  0.62509744651E+03  0.00000000000E+00 0. -1.
          5    1    1    2  502    0  0.61749106026E+02  0.16063617006E+02 -0.45806891227E+02  0.78655804428E+02  0.41800000000E+01 0. -1.
         -5    1    1    2    0  502 -0.53930955592E+02 -0.20662742024E+02 -0.82249570635E+02  0.10058807657E+03  0.41800000000E+01 0. -1.
        -11    1    1    2    0    0 -0.44246229955E+02  0.22352787779E+02 -0.28790566927E+03  0.29214217495E+03  0.00000000000E+00 0. -1.
         11    1    1    2    0    0  0.36428079520E+02 -0.17753662760E+02 -0.17916041728E+03  0.18368628866E+03  0.00000000000E+00 0.  1.
</event>
<event>
 6    1  0.8259171E-006  0.1412135E+03  0.7561462E-02  0.1211705E+00
          2   -1    0    0  501    0  0.00000000000E+00  0.00000000000E+00  0.75576293065E+03  0.75576293065E+03  0.00000000000E+00 0. -1.
         -2   -1    0    0    0  501 -0.00000000000E+00 -0.00000000000E+00 -0.27632889430E+02  0.27632889430E+02  0.00000000000E+00 0.  1.
          5    1    1    2  502    0  0.44768082583E+02 -0.10651659269E+02  0.86086616538E+02  0.97703720555E+02  0.41800000000E+01 0. -1.
         -5    1    1    2    0  502 -0.38047351793E+02  0.10102489390E+03  0.22998238761E+03  0.25409250516E+03  0.41800000000E+01 0. -1.
        -11    1    1    2    0    0  0.41514742159E+02 -0.52064101901E+02  0.22614458201E+03  0.23574460014E+03  0.00000000000E+00 0.  1.
         11    1    1    2    0    0 -0.48235472950E+02 -0.38309132728E+02  0.18591645507E+03  0.19585499423E+03  0.00000000000E+00 0. -1.
</event>
<event>
 6    1  0.8259171E-006  0.1910282E+03  0.7561462E-02  0.1157537E+00
          1   -1    0    0  501    0  0.00000000000E+00  0.00000000000E+00  0.25272762274E+03  0.25272762274E+03  0.00000000000E+00 0. -1.
         -1   -1    0    0    0  501 -0.00000000000E+00 -0.00000000000E+00 -0.28259417213E+03  0.28259417213E+03  0.00000000000E+00 0.  1.
          5    1    1    2  502    0  0.72821185669E+02  0.38888011679E+02 -0.11933479054E+03  0.14516703196E+03  0.41800000000E+01 0. -1.
         -5    1    1    2    0  502 -0.18441988259E+02  0.11383271527E+03 -0.78552968853E+02  0.13959238988E+03  0.41800000000E+01 0. -1.
        -11    1    1    2    0    0 -0.55358310161E+02 -0.33347746344E+02  0.42558811313E+02  0.77381309827E+02  0.00000000000E+00 0.  1.
         11    1    1    2    0    0  0.97911275078E+00 -0.11937298061E+03  0.12546239870E+03  0.17318106319E+03  0.00000000000E+00 0. -1.
</event>
<event>
 6    1  0.8259171E-006  0.2193293E+03  0.7561462E-02  0.1134384E+00
          1   -1    0    0  501    0  0.00000000000E+00  0.00000000000E+00  0.10905883506E+04  0.10905883506E+04  0.00000000000E+00 0. -1.
         -1   -1    0    0    0  501 -0.00000000000E+00 -0.00000000000E+00 -0.57741583670E+02  0.57741583670E+02  0.00000000000E+00 0.  1.
          5    1    1    2  502    0 -0.13001958524E+03 -0.20991515457E+01  0.12181764255E+03  0.17823161734E+03  0.41800000000E+01 0.  1.
         -5    1    1    2    0  502 -0.56305666158E+02 -0.83575348816E+02  0.19301512019E+03  0.21777850214E+03  0.41800000000E+01 0.  1.
        -11    1    1    2    0    0  0.76676501129E+02  0.17722630825E+02  0.14515173389E+03  0.16511330449E+03  0.00000000000E+00 0.  1.
         11    1    1    2    0    0  0.10964875027E+03  0.67951869537E+02  0.57286227026E+03  0.58720651026E+03  0.00000000000E+00 0. -1.
</event>
<event>
 6    1  0.8259171E-006  0.1064309E+03  0.7561462E-02  0.1267326E+00
         -1   -1    0    0    0  501 -0.00000000000E+00  0.00000000000E+00  0.16674309008E+03  0.16674309008E+03  0.00000000000E+00 0.  1.
          1   -1    0    0  501    0  0.00000000000E+00 -0.00000000000E+00 -0.79814213189E+02  0.79814213189E+02  0.00000000000E+00 0. -1.
          5    1    1    2  502    0  0.41491920266E+02 -0.24124808876E+02  0.39777557127E+02  0.62476493993E+02  0.41800000000E+01 0. -1.
         -5    1    1    2    0  502 -0.78581481086E+02  0.11722690493E+02  0.22822282675E+02  0.82769557378E+02  0.41800000000E+01 0. -1.
        -11    1    1    2    0    0  0.22358571792E+02  0.44503089129E+02  0.38808413103E+02  0.63138923036E+02  0.00000000000E+00 0.  1.
         11    1    1    2    0    0  0.14730989029E+02 -0.32100970747E+02 -0.14479376017E+02  0.38172328859E+02  0.00000000000E+00 0. -1.
</event>
<event>
 6    1  0.8259171E-006  0.1576578E+03  0.7561462E-02  0.1191367E+00
         -4   -1    0    0    0  501 -0.00000000000E+00  0.00000000000E+00  0.92070607423E+02  0.92070607423E+02  0.00000000000E+00 0.  1.
          4   -1    0    0  501    0  0.00000000000E+00 -0.00000000000E+00 -0.39492821633E+03  0.39492821633E+03  0.00000000000E+00 0. -1.
          5    1    1    2  502    0  0.46323627318E+02 -0.58880891143E+02 -0.12601849917E+03  0.14666619352E+03  0.41800000000E+01 0. -1.
         -5    1    1    2    0  502 -0.56204767792E+02 -0.69567202784E+02  0.15333817918E+02  0.90835951020E+02  0.41800000000E+01 0.  1.
        -11    1    1    2    0    0  0.81386065771E+01  0.13941047100E+03 -0.19315950874E+03  0.23835291514E+03  0.00000000000E+00 0. -1.
         11    1    1    2    0    0  0.17425338971E+01 -0.10962377071E+02  0.98658107811E+00  0.11143764070E+02  0.00000000000E+00 0.  1.
</event>
<event>
 6    1  0.8259171E-006  0.1253280E+03  0.7561462E-02  0.1234558E+00
         -3   -1    0    0    0  501 -0.00000000000E+00  0.00000000000E+00  0.71950698624E+03  0.71950698624E+03  0.00000000000E+00 0.  1.
          3   -1    0    0  501    0  0.00000000000E+00 -0.00000000000E+00 -0.23767849606E+02  0.23767849606E+02  0.00000000000E+00 0. -1.
          5    1    1    2  502    0 -0.51625324537E+02 -0.57235881495E+02  0.20406533253E+03  0.21817711292E+03  0.41800000000E+01 0.  1.
         -5    1    1    2    0  502  0.65775537450E+02 -0.14700299525E+02  0.20341887558E+03  0.21433439173E+03  0.41800000000E+01 0.  1.
        -11    1    1    2    0    0 -0.43429755675E+02  0.23610583270E+02  0.19962358861E+03  0.20565305845E+03  0.00000000000E+00 0.  1.
         11    1    1    2    0    0  0.29279542762E+02  0.48325597750E+02  0.88631339914E+02  0.10511027275E+03  0.00000000000E+00 0. -1.
</event>
<event>
 6    1  0.8259171E-006  0.1021238E+03  0.7561462E-02  0.1275892E+00
          1   -1    0    0  501    0  0.00000000000E+00  0.00000000000E+00  0.22374339936E+03  0.22374339936E+03  0.00000000000E+00 0. -1.
         -1   -1    0    0    0  501 -0.00000000000E+00 -0.00000000000E+00 -0.70342495603E+02  0.70342495603E+02  0.00000000000E+00 0.  1.
          5    1    1    2  502    0 -0.71670833421E+02  0.34993748968E+02  0.11022108008E+02  0.80624004459E+02  0.41800000000E+01 0. -1.
         -5    1    1    2    0  502  0.65539858254E+01 -0.41813852216E+02  0.70716175133E+02  0.82520317454E+02  0.41800000000E+01 0. -1.
        -11    1    1    2    0    0  0.15250339224E+02  0.24570683611E+02  0.72445599149E+02  0.78004206140E+02  0.00000000000E+00 0. -1.
         11    1    1    2    0    0  0.49866508371E+02 -0.17750580364E+02 -0.78297852827E+00  0.52937366914E+02  0.00000000000E+00 0.  1.
</event>
<event>
 6    1  0.8259171E-006  0.1153470E+03  0.7561462E-02  0.1250977E+00
          2   -1    0    0  501    0  0.00000000000E+00  0.00000000000E+00  0.11899475796E+03  0.11899475796E+03  0.00000000000E+00 0. -1.
         -2   -1    0    0    0  501 -0.00000000000E+00 -0.00000000000E+00 -0.15140724799E+03  0.15140724799E+03  0.00000000000E+00 0.  1.
          5    1    1    2  502    0 -0.31476192385E+02  0.86947617188E+02 -0.81180812863E+02  0.12311959876E+03  0.41800000000E+01 0. -1.
         -5    1    1    2    0  502  0.60111328488E+01 -0.31208125399E+02  0.96325360331E+01  0.33471464854E+02  0.41800000000E+01 0. -1.
        -11    1    1    2    0    0 -0.26751441203E+02 -0.45622153876E+02  0.12580433586E+02  0.54362559174E+02  0.00000000000E+00 0. -1.
         11    1    1    2    0    0  0.52216500739E+02 -0.10117337913E+02  0.26555353211E+02  0.59448383158E+02  0.00000000000E+00 0.  1.
</event>
<event>
 6    1  0.8259171E-006  0.1155711E+03  0.7561462E-02  0.1250587E+00
         -1   -1    0    0    0  501 -0.00000000000E+00  0.00000000000E+00  0.87447052768E+03  0.87447052768E+03  0.00000000000E+00 0.  1.
          1   -1    0    0  501    0  0.00000000000E+00 -0.00000000000E+00 -0.32675811430E+02  0.32675811430E+02  0.00000000000E+00 0. -1.
          5    1    1    2  502    0 -0.25080532932E+02  0.53932554989E+01  0.42985485167E+03  0.43063997288E+03  0.41800000000E+01 0. -1.
         -5    1    1    2    0  502  0.85339916576E+02  0.27058908298E+02  0.30385154606E+03  0.31679381358E+03  0.41800000000E+01 0. -1.
        -11    1    1    2    0    0 -0.67370920797E+01 -0.56463485688E+02  0.68092742048E+02  0.88713782161E+02  0.00000000000E+00 0.  1.
         11    1    1    2    0    0 -0.53522291564E+02  0.24011321891E+02  0.39995576463E+02  0.70998770481E+02  0.00000000000E+00 0. -1.
</event>
<event>
 6    1  0.8259171E-006  0.1124812E+03  0.7561462E-02  0.1256043E+00
         -1   -1    0    0    0  501 -0.00000000000E+00  0.00000000000E+00  0.74319574763E+02  0.74319574763E+02  0.00000000000E+00 0.  1.
          1   -1    0    0  501    0  0.00000000000E+00 -0.00000000000E+00 -0.38832917851E+03  0.38832917851E+03  0.00000000000E+00 0. -1.
          5    1    1    2  502    0 -0.96325755758E+01 -0.13472170531E+02  0.34174491219E+02  0.38205420311E+02  0.41800000000E+01 0.  1.
         -5    1    1    2    0  502  0.39045655578E+01 -0.96839014141E+02 -0.10537060778E+03  0.14322526899E+03  0.41800000000E+01 0.  1.
        -11    1    1    2    0    0  0.66121920492E+01  0.38963040242E+02 -0.14634382145E+02  0.42142671123E+02  0.00000000000E+00 0.  1.
         11    1    1    2    0    0 -0.88418203120E+00  0.71348144430E+02 -0.22817910504E+03  0.23907539285E+03  0.00000000000E+00 0. -1.
</event>
<event>
 6    1  0.8259171E-006  0.9345247E+02  0.7561462E-02  0.1294700E+00
          2   -1    0    0  501    0  0.00000000000E+00  0.00000000000E+00  0.11915732878E+03  0.11915732878E+03  0.00000000000E+00 0. -1.
         -2   -1    0    0    0  501 -0.00000000000E+00 -0.00000000000E+00 -0.12224218583E+03  0.12224218583E+03  0.00000000000E+00 0.  1.
          5    1    1    2  502    0  0.41908852584E+02  0.49830885426E+01  0.51884828304E+01  0.42726758014E+02  0.41800000000E+01 0.  1.
         -5    1    1    2    0  502 -0.89820324079E+02 -0.22015538837E+02  0.68937288649E+01  0.92829792984E+02  0.41800000000E+01 0.  1.
        -11    1    1    2    0    0  0.12714409366E+02  0.96404335862E+01 -0.51982346070E+02  0.54376083605E+02  0.00000000000E+00 0.  1.
         11    1    1    2    0    0  0.35197062128E+02  0.73920167078E+01  0.36815277326E+02  0.51466880011E+02  0.00000000000E+00 0. -1.
</event>
<event>
 6    1  0.8259171E-006  0.1448437E+03  0.7561462E-02  0.1206956E+00
         -2   -1    0    0    0  501 -0.00000000000E+00  0.00000000000E+00  0.23030604936E+02  0.23030604936E+02  0.00000000000E+00 0.  1.
          2   -1    0    0  501    0  0.00000000000E+00 -0.00000000000E+00 -0.10420117619E+04  0.10420117619E+04  0.00000000000E+00 0. -1.
          5    1    1    2  502    0 -0.35702990232E+02  0.24348311233E+02 -0.21885982218E+03  0.22312471386E+03  0.41800000000E+01 0.  1.
         -5    1    1    2    0  502  0.89052175431E+02  0.69897909743E+02 -0.26349802057E+03  0.28681821243E+03  0.41800000000E+01 0.  1.
        -11    1    1    2    0    0  0.14452843584E+02 -0.49943567492E+02 -0.31238984201E+03  0.31668700323E+03  0.00000000000E+00 0.  1.
         11    1    1    2    0    0 -0.67802028783E+02 -0.44302653485E+02 -0.22423347221E+03  0.23841243733E+03  0.00000000000E+00 0. -1.
</event>
<event>
 6    1  0.8259171E-006  0.1015895E+03  0.7561462E-02  0.1276989E+00
         -3   -1    0    0    0  501 -0.00000000000E+00  0.00000000000E+00  0.14575571847E+04  0.14575571847E+04  0.00000000000E+00 0.  1.
          3   -1    0    0  501    0  0.00000000000E+00 -0.00000000000E+00 -0.17336110415E+02  0.17336110415E+02  0.00000000000E+00 0. -1.
          5    1    1    2  502    0 -0.71003100261E+01 -0.70475012501E+02  0.39020197906E+03  0.39660080516E+03  0.41800000000E+01 0.  1.
         -5    1    1    2    0  502  0.13137503373E+02  0.27899983511E+02  0.86335369029E+03  0.86391438813E+03  0.41800000000E+01 0.  1.
        -11    1    1    2    0    0 -0.18030349643E+02 -0.25915682324E+02  0.89431716374E+02  0.94840645253E+02  0.00000000000E+00 0.  1.
         11    1    1    2    0    0  0.11993156296E+02  0.68490711313E+02  0.97233688573E+02  0.11953745659E+03  0.00000000000E+00 0. -1.
</event>
<event>
 6    1  0.8259171E-006  0.1314352E+03  0.7561462E-02  0.1225342E+00
         -2   -1    0    0    0  501 -0.00000000000E+00  0.00000000000E+00  0.35064601384E+02  0.35064601384E+02  0.00000000000E+00 0.  1.
          2   -1    0    0  501    0  0.00000000000E+00 -0.00000000000E+00 -0.61221007131E+03  0.61221007131E+03  0.00000000000E+00 0. -1.
          5    1    1    2  502    0  0.53010163695E+02 -0.86585360083E+02 -0.13492986382E+03  0.16891016129E+03  0.41800000000E+01 0. -1.
         -5    1    1    2    0  502 -0.26683609816E+02 -0.82561913765E+01 -0.19923088198E+03  0.20122275334E+03  0.41800000000E+01 0. -1.
        -11    1    1    2    0    0 -0.57757999053E+02  0.78881292003E+02 -0.18616340296E+03  0.21027376746E+03  0.00000000000E+00 0. -1.
         11    1    1    2    0    0  0.31431445173E+02  0.15960259456E+02 -0.56821321169E+02  0.66867990600E+02  0.00000000000E+00 0.  1.
</event>
<event>
 6    1  0.8259171E-006  0.1564888E+03  0.7561462E-02  0.1192719E+00
          1   -1    0    0  501    0  0.00000000000E+00  0.00000000000E+00  0.32640871562E+03  0.32640871562E+03  0.00000000000E+00 0. -1.
         -1   -1    0    0    0  501 -0.00000000000E+00 -0.00000000000E+00 -0.10589478078E+03  0.10589478078E+03  0.00000000000E+00 0.  1.
          5    1    1    2  502    0 -0.29439864069E+02 -0.32693303496E+02 -0.10505299336E+02  0.45424568287E+02  0.41800000000E+01 0.  1.
         -5    1    1    2    0  502 -0.54320546835E+02  0.11088880452E+03  0.13024114547E+02  0.12423424944E+03  0.41800000000E+01 0.  1.
        -11    1    1    2    0    0  0.49577094020E+02 -0.94989450582E+02  0.14479245677E+03  0.18012700938E+03  0.00000000000E+00 0.  1.
         11    1    1    2    0    0  0.34183316884E+02  0.16793949563E+02  0.73202662854E+02  0.82517669283E+02  0.00000000000E+00 0. -1.
</event>
<event>
 6    1  0.8259171E-006  0.8773628E+02  0.7561462E-02  0.1308428E+00
         -1   -1    0    0    0  501 -0.00000000000E+00  0.00000000000E+00  0.19066013839E+03  0.19066013839E+03  0.00000000000E+00 0.  1.
          1   -1    0    0  501    0  0.00000000000E+00 -0.00000000000E+00 -0.84173671519E+02  0.84173671519E+02  0.00000000000E+00 0. -1.
          5    1    1    2  502    0  0.57234328020E+02  0.15251346569E+02  0.13281877986E+03  0.14548770587E+03  0.41800000000E+01 0. -1.
         -5    1    1    2    0  502 -0.20241810364E+02 -0.19137322477E+02 -0.13589136391E+02  0.31274670682E+02  0.41800000000E+01 0. -1.
        -11    1    1    2    0    0  0.94672408737E+01  0.32169655109E+02  0.15319021098E+02  0.36867163804E+02  0.00000000000E+00 0.  1.
         11    1    1    2    0    0 -0.46459758529E+02 -0.28283679201E+02 -0.28062197696E+02  0.61204269551E+02  0.00000000000E+00 0. -1.
</event>
<event>
 6    1  0.8259171E-006  0.9835940E+02  0.7561462E-02  0.1283784E+00
         -1   -1    0    0    0  501 -0.00000000000E+00  0.00000000000E+00  0.28731124231E+03  0.28731124231E+03  0.00000000000E+00 0.  1.
          1   -1    0    0  501    0  0.00000000000E+00 -0.00000000000E+00 -0.69171279918E+02  0.69171279918E+02  0.00000000000E+00 0. -1.
          5    1    1    2  502    0 -0.67008806864E+02  0.20320420568E+02  0.16705442526E+03  0.18118430696E+03  0.41800000000E+01 0.  1.
         -5    1    1    2    0  502 -0.19306184533E+02 -0.74204914776E+01 -0.21162897544E+02  0.29885332312E+02  0.41800000000E+01 0.  1.
        -11    1    1    2    0    0  0.34538922001E+02 -0.35002505430E+02 -0.54367928125E+01  0.49473945017E+02  0.00000000000E+00 0. -1.
         11    1    1    2    0    0  0.51776069395E+02  0.22102576340E+02  0.77685227484E+02  0.95938937935E+02  0.00000000000E+00 0.  1.
</event>
<event>
 6    1  0.8259171E-006  0.2982667E+03  0.7561462E-02  0.1086110E+00
         -1   -1    0    0    0  501 -0.00000000000E+00  0.00000000000E+00  0.14506735532E+03  0.14506735532E+03  0.00000000000E+00 0.  1.
          1   -1    0    0  501    0  0.00000000000E+00 -0.00000000000E+00 -0.75948203296E+03  0.75948203296E+03  0.00000000000E+00 0. -1.
          5    1    1    2  502    0  0.42717307981E+02 -0.97285855968E+02  0.10764491390E+01  0.10633878556E+03  0.41800000000E+01 0.  1.
         -5    1    1    2    0  502  0.13385514369E+03 -0.13711762847E+03 -0.16204810235E+03  0.25098905037E+03  0.41800000000E+01 0.  1.
        -11    1    1    2    0    0 -0.15723239252E+03  0.17124088094E+03 -0.29524497839E+03  0.37578592553E+03  0.00000000000E+00 0.  1.
         11    1    1    2    0    0 -0.19340059154E+02  0.63162603502E+02 -0.15819804603E+03  0.17143562681E+03  0.00000000000E+00 0. -1.
</event>
<event>
 6    1  0.8259171E-006  0.1208141E+03  0.7561462E-02  0.1241760E+00
          3   -1    0    0  501    0  0.00000000000E+00  0.00000000000E+00  0.41867010154E+03  0.41867010154E+03  0.00000000000E+00 0.  1.
         -3   -1    0    0    0  501 -0.00000000000E+00 -0.00000000000E+00 -0.46788340661E+02  0.46788340661E+02  0.00000000000E+00 0. -1.
          5    1    1    2  502    0 -0.51897994700E+02 -0.49665497995E+02  0.10430471279E+03  0.12671625410E+03  0.41800000000E+01 0. -1.
         -5    1    1    2    0  502  0.51657409906E+02 -0.20564293431E+02  0.98615560591E+01  0.56622441226E+02  0.41800000000E+01 0. -1.
        -11    1    1    2    0    0 -0.43203206440E+02  0.20308730266E+02  0.91269796332E+02  0.10300066647E+03  0.00000000000E+00 0.  1.
         11    1    1    2    0    0  0.43443791233E+02  0.49921061160E+02  0.16644569570E+03  0.17911908039E+03  0.00000000000E+00 0. -1.
</event>
<event>
 6    1  0.8259171E-006  0.1707282E+03  0.7561462E-02  0.1177091E+00
         -2   -1    0    0    0  501 -0.00000000000E+00  0.00000000000E+00  0.29287067760E+03  0.29287067760E+03  0.00000000000E+00 0.  1.
          2   -1    0    0  501    0  0.00000000000E+00 -0.00000000000E+00 -0.11245122713E+03  0.11245122713E+03  0.00000000000E+00 0. -1.
          5    1    1    2  502    0 -0.27721884000E+02 -0.43498221393E+02  0.58888315631E+02  0.78395817712E+02  0.41800000000E+01 0. -1.
         -5    1    1    2    0  502 -0.91107187369E+02  0.96779058316E+02  0.10195652392E+03  0.16756882433E+03  0.41800000000E+01 0.  1.
        -11    1    1    2    0    0 -0.12932683042E+02 -0.14380368204E+02 -0.45566884968E+01  0.19869894072E+02  0.00000000000E+00 0.  1.
         11    1    1    2    0    0  0.13176175441E+03 -0.38900468719E+02  0.24131299422E+02  0.13948736862E+03  0.00000000000E+00 0. -1.
</event>
<event>
 6    1  0.8259171E-006  0.1389258E+03  0.7561462E-02  0.1214782E+00
         -2   -1    0    0    0  501 -0.00000000000E+00  0.00000000000E+00  0.61037915560E+03  0.61037915560E+03  0.00000000000E+00 0.  1.
          2   -1    0    0  501    0  0.00000000000E+00 -0.00000000000E+00 -0.80324360528E+02  0.80324360528E+02  0.00000000000E+00 0. -1.
          5    1    1    2  502    0  0.77357385671E+02 -0.51210547105E+02  0.19618145940E+03  0.21705142862E+03  0.41800000000E+01 0. -1.
         -5    1    1    2    0  502 -0.29054813329E+02 -0.43362656935E+02  0.32948901126E+03  0.33362401463E+03  0.41800000000E+01 0. -1.
        -11    1    1    2    0    0 -0.13038381224E+02  0.96430830241E+02 -0.16945976000E+02  0.98772822722E+02  0.00000000000E+00 0. -1.
         11    1    1    2    0    0 -0.35264191119E+02 -0.18576262013E+01  0.21330300414E+02  0.41255250164E+02  0.00000000000E+00 0.  1.
</event>
<event>
 6    1  0.8259171E-006  0.1391801E+03  0.7561462E-02  0.1214436E+00
          1   -1    0    0  501    0  0.00000000000E+00  0.00000000000E+00  0.16066094672E+03  0.16066094672E+03  0.00000000000E+00 0. -1.
         -1   -1    0    0    0  501 -0.00000000000E+00 -0.00000000000E+00 -0.15604656817E+03  0.15604656817E+03  0.00000000000E+00 0.  1.
          5    1    1    2  502    0 -0.65880632964E+02  0.31218764090E+02 -0.23224592963E+02  0.76627169786E+02  0.41800000000E+01 0. -1.
         -5    1    1    2    0  502 -0.29871452169E+02 -0.88012822218E+02 -0.48534246822E+01  0.93164310016E+02  0.41800000000E+01 0. -1.
        -11    1    1    2    0    0  0.28519875052E+02  0.25011055995E+02  0.57183027351E+02  0.68620950241E+02  0.00000000000E+00 0. -1.
         11    1    1    2    0    0  0.67232210082E+02  0.31783002133E+02 -0.24490631156E+02  0.78295084849E+02  0.00000000000E+00 0.  1.
</event>
<event>
 6    1  0.8259171E-006  0.1069101E+03  0.7561462E-02  0.1266401E+00
         -1   -1    0    0    0  501 -0.00000000000E+00  0.00000000000E+00  0.58881750668E+02  0.58881750668E+02  0.00000000000E+00 0.  1.
          1   -1    0    0  501    0  0.00000000000E+00 -0.00000000000E+00 -0.24748880091E+03  0.24748880091E+03  0.00000000000E+00 0. -1.
          5    1    1    2  502    0 -0.26276173869E+02  0.32759927885E+02 -0.10930273490E+00  0.42203489611E+02  0.41800000000E+01 0.  1.
         -5    1    1    2    0  502  0.92299443466E+00 -0.79978833391E+02 -0.92829880351E+02  0.12260638154E+03  0.41800000000E+01 0.  1.
        -11    1    1    2    0    0  0.36641360556E+02 -0.59922884716E+01 -0.74410925519E+02  0.83159381077E+02  0.00000000000E+00 0. -1.
         11    1    1    2    0    0 -0.11288181122E+02  0.53211193977E+02 -0.21256941637E+02  0.58401299346E+02  0.00000000000E+00 0.  1.
</event>
<event>
 6    1  0.8259171E-006  0.8369408E+02  0.7561462E-02  0.1318883E+00
          3   -1    0    0  501    0  0.00000000000E+00  0.00000000000E+00  0.20151725330E+03  0.20151725330E+03  0.00000000000E+00 0. -1.
         -3   -1    0    0    0  501 -0.00000000000E+00 -0.00000000000E+00 -0.61564982866E+02  0.61564982866E+02  0.00000000000E+00 0.  1.
          5    1    1    2  502    0  0.11458668663E+01 -0.50117648587E+02  0.93809081960E+00  0.50313458688E+02  0.41800000000E+01 0. -1.
         -5    1    1    2    0  502 -0.33975560682E-02  0.68977557660E+02  0.53428171727E+02  0.87349558707E+02  0.41800000000E+01 0. -1.
        -11    1    1    2    0    0 -0.18173218276E+02 -0.24078609819E+02 -0.71378998882E+01  0.30999918195E+02  0.00000000000E+00 0.  1.
         11    1    1    2    0    0  0.17030748965E+02  0.52187007459E+01  0.92723907778E+02  0.94419300577E+02  0.00000000000E+00 0. -1.
</event>
<event>
 6    1  0.8259171E-006  0.1034273E+03  0.7561462E-02  0.1273250E+00
          1   -1    0    0  501    0  0.00000000000E+00  0.00000000000E+00  0.21407219582E+03  0.21407219582E+03  0.00000000000E+00 0. -1.
         -1   -1    0    0    0  501 -0.00000000000E+00 -0.00000000000E+00 -0.63666635189E+02  0.63666635189E+02  0.00000000000E+00 0.  1.
          5    1    1    2  502    0 -0.44411908235E+02 -0.13001933981E+02 -0.97447833968E+01  0.47475268128E+02  0.41800000000E+01 0. -1.
         -5    1    1    2    0  502  0.53491368306E+02 -0.29242977042E+02  0.85261223961E+02  0.10489722065E+03  0.41800000000E+01 0. -1.
        -11    1    1    2    0    0 -0.23002008370E+01  0.70342573712E+02  0.43700732586E+02  0.82843965554E+02  0.00000000000E+00 0.  1.
         11    1    1    2    0    0 -0.67792592333E+01 -0.28097662689E+02  0.31188387486E+02  0.42522376678E+02  0.00000000000E+00 0. -1.
</event>
<event>
 6    1  0.8259171E-006  0.1045872E+03  0.7561462E-02  0.1270935E+00
          1   -1    0    0  501    0  0.00000000000E+00  0.00000000000E+00  0.70223314196E+02  0.70223314196E+02  0.00000000000E+00 0. -1.
         -1   -1    0    0    0  501 -0.00000000000E+00 -0.00000000000E+00 -0.21166650081E+03  0.21166650081E+03  0.00000000000E+00 0.  1.
          5    1    1    2  502    0 -0.84697145462E+02  0.35128813800E+02 -0.40577398573E+02  0.10035754921E+03  0.41800000000E+01 0. -1.
         -5    1    1    2    0  502  0.37070967389E+02 -0.77494959374E+01 -0.52854702002E+02  0.65156758929E+02  0.41800000000E+01 0. -1.
        -11    1    1    2    0    0  0.29526471883E+02  0.15060430789E+02 -0.60140525831E+02  0.68669585441E+02  0.00000000000E+00 0.  1.
         11    1    1    2    0    0  0.18099706191E+02 -0.42439748651E+02  0.12129439790E+02  0.47705921429E+02  0.00000000000E+00 0. -1.
</event>
<event>
 6    1  0.8259171E-006  0.7908044E+02  0.7561462E-02  0.1331681E+00
          2   -1    0    0  501    0  0.00000000000E+00  0.00000000000E+00  0.14565435676E+03  0.14565435676E+03  0.00000000000E+00 0. -1.
         -2   -1    0    0    0  501 -0.00000000000E+00 -0.00000000000E+00 -0.99229000396E+02  0.99229000396E+02  0.00000000000E+00 0.  1.
          5    1    1    2  502    0  0.27513896869E+02  0.19656270773E+02 -0.66254239321E+02  0.74501544478E+02  0.41800000000E+01 0. -1.
         -5    1    1    2    0  502 -0.22818294281E+02 -0.28709601492E+02  0.39247733736E+02  0.53877386491E+02  0.41800000000E+01 0. -1.
        -11    1    1    2    0    0  0.40254466448E+02  0.12355089170E+02  0.51070090211E+02  0.66190818181E+02  0.00000000000E+00 0.  1.
         11    1    1    2    0    0 -0.44950069035E+02 -0.33017584516E+01  0.22361771739E+02  0.50313608005E+02  0.00000000000E+00 0. -1.
</event>
<event>
 6    1  0.8259171E-006  0.2064159E+03  0.7561462E-02  0.1144436E+00
         -1   -1    0    0    0  501 -0.00000000000E+00  0.00000000000E+00  0.18897803485E+03  0.18897803485E+03  0.00000000000E+00 0.  1.
          1   -1    0    0  501    0  0.00000000000E+00 -0.00000000000E+00 -0.32699035245E+03  0.32699035245E+03  0.00000000000E+00 0. -1.
          5    1    1    2  502    0  0.21477196623E+02 -0.23602914611E+02 -0.21639177282E+01  0.32257130884E+02  0.41800000000E+01 0. -1.
         -5    1    1    2    0  502  0.10231992558E+03  0.15003845240E+03  0.72226918464E+02  0.19548683976E+03  0.41800000000E+01 0. -1.
        -11    1    1    2    0    0 -0.32777177886E+02  0.10630438761E+02 -0.43683888733E+02  0.55638401786E+02  0.00000000000E+00 0.  1.
         11    1    1    2    0    0 -0.91019944314E+02 -0.13706597654E+03 -0.16439142960E+03  0.23258601487E+03  0.00000000000E+00 0. -1.
</event>
<event>
 6    1  0.8259171E-006  0.1161431E+03  0.7561462E-02  0.1249599E+00
          1   -1    0    0  501    0  0.00000000000E+00  0.00000000000E+00  0.45161896256E+03  0.45161896256E+03  0.00000000000E+00 0. -1.
         -1   -1    0    0    0  501 -0.00000000000E+00 -0.00000000000E+00 -0.37442951262E+02  0.37442951262E+02  0.00000000000E+00 0.  1.
          5    1    1    2  502    0 -0.16414640770E+02 -0.82694709875E+02  0.86532527226E+02  0.12088509478E+03  0.41800000000E+01 0. -1.
         -5    1    1    2    0  502 -0.33143390073E+02  0.34134334273E+02  0.13128151708E+03  0.13969948535E+03  0.41800000000E+01 0. -1.
        -11    1    1    2    0    0  0.68323343797E+02  0.42172668201E+02  0.19209627720E+03  0.20820084766E+03  0.00000000000E+00 0. -1.
         11    1    1    2    0    0 -0.18765312954E+02  0.63877074007E+01  0.42656897907E+01  0.20276486024E+02  0.00000000000E+00 0.  1.
</event>
<event>
 6    1  0.8259171E-006  0.1104606E+03  0.7561462E-02  0.1259719E+00
          2   -1    0    0  501    0  0.00000000000E+00  0.00000000000E+00  0.26068534733E+03  0.26068534733E+03  0.00000000000E+00 0. -1.
         -2   -1    0    0    0  501 -0.00000000000E+00 -0.00000000000E+00 -0.61294169711E+02  0.61294169711E+02  0.00000000000E+00 0.  1.
          5    1    1    2  502    0 -0.92175196376E+02  0.17298207994E+02  0.48502793338E+02  0.10566687366E+03  0.41800000000E+01 0.  1.
         -5    1    1    2    0  502  0.35671293879E+02 -0.24682537004E+02  0.22664511720E+02  0.49120477720E+02  0.41800000000E+01 0.  1.
        -11    1    1    2    0    0 -0.10070427471E+02 -0.10481015593E+02  0.84105979735E+02  0.85352686100E+02  0.00000000000E+00 0. -1.
         11    1    1    2    0    0  0.66574329968E+02  0.17865344603E+02  0.44117892831E+02  0.81839479570E+02  0.00000000000E+00 0.  1.
</event>
<event>
 6    1  0.8259171E-006  0.1383363E+03  0.7561462E-02  0.1215585E+00
         -1   -1    0    0    0  501 -0.00000000000E+00  0.00000000000E+00  0.23182516821E+03  0.23182516821E+03  0.00000000000E+00 0.  1.
          1   -1    0    0  501    0  0.00000000000E+00 -0.00000000000E+00 -0.24591213881E+03  0.24591213881E+03  0.00000000000E+00 0. -1.
          5    1    1    2  502    0 -0.31614570029E+02  0.38802859979E+01  0.16798362912E+02  0.36251828286E+02  0.41800000000E+01 0. -1.
         -5    1    1    2    0  502  0.10629556976E+03  0.57616983736E+02  0.16692726946E+03  0.20615685935E+03  0.41800000000E+01 0. -1.
        -11    1    1    2    0    0 -0.89577436571E+02 -0.61526584083E+02 -0.18901508525E+03  0.21802830124E+03  0.00000000000E+00 0. -1.
         11    1    1    2    0    0  0.14896436838E+02  0.29314348606E-01 -0.87975177253E+01  0.17300318145E+02  0.00000000000E+00 0.  1.
</event>
<event>
 6    1  0.8259171E-006  0.1402482E+03  0.7561462E-02  0.1212995E+00
          2   -1    0    0  501    0  0.00000000000E+00  0.00000000000E+00  0.18737900269E+03  0.18737900269E+03  0.00000000000E+00 0. -1.
         -2   -1    0    0    0  501 -0.00000000000E+00 -0.00000000000E+00 -0.11256089819E+03  0.11256089819E+03  0.00000000000E+00 0.  1.
          5    1    1    2  502    0 -0.11967425850E+01  0.42262389175E+02  0.15030804335E+02  0.45065942912E+02  0.41800000000E+01 0.  1.
         -5    1    1    2    0  502  0.95372778241E+02 -0.63580318139E+02  0.14309756474E+02  0.11558834377E+03  0.41800000000E+01 0.  1.
        -11    1    1    2    0    0 -0.10002548953E+03 -0.12141387182E+01  0.54974893191E+02  0.11414381968E+03  0.00000000000E+00 0.  1.
         11    1    1    2    0    0  0.58494538757E+01  0.22532067682E+02 -0.94973494906E+01  0.25141794527E+02  0.00000000000E+00 0. -1.
</event>
<event>
 6    1  0.8259171E-006  0.9656547E+02  0.7561462E-02  0.1287689E+00
          1   -1    0    0  501    0  0.00000000000E+00  0.00000000000E+00  0.30932828329E+03  0.30932828329E+03  0.00000000000E+00 0. -1.
         -1   -1    0    0    0  501 -0.00000000000E+00 -0.00000000000E+00 -0.60015047421E+02  0.60015047421E+02  0.00000000000E+00 0.  1.
          5    1    1    2  502    0 -0.18447068162E+02 -0.40651790059E+02 -0.89628528537E+01  0.45723817536E+02  0.41800000000E+01 0. -1.
         -5    1    1    2    0  502  0.63781006326E+02 -0.24867644270E+02  0.12501676780E+03  0.14259411324E+03  0.41800000000E+01 0. -1.
        -11    1    1    2    0    0 -0.26458067530E+02  0.36174285539E+02  0.16268168801E+01  0.44847015562E+02  0.00000000000E+00 0.  1.
         11    1    1    2    0    0 -0.18875870634E+02  0.29345148790E+02  0.13163250404E+03  0.13617838437E+03  0.00000000000E+00 0. -1.
</event>
<event>
 6    1  0.8259171E-006  0.7666111E+02  0.7561462E-02  0.1338803E+00
          1   -1    0    0  501    0  0.00000000000E+00  0.00000000000E+00  0.18874523722E+03  0.18874523722E+03  0.00000000000E+00 0.  1.
         -1   -1    0    0    0  501 -0.00000000000E+00 -0.00000000000E+00 -0.84563298708E+02  0.84563298708E+02  0.00000000000E+00 0. -1.
          5    1    1    2  502    0  0.17040302178E+02  0.39210817355E+02 -0.50453883918E+02  0.66264069437E+02  0.41800000000E+01 0. -1.
         -5    1    1    2    0  502  0.19800746846E+02  0.59575919638E+00  0.68307632252E+02  0.71244856155E+02  0.41800000000E+01 0. -1.
        -11    1    1    2    0    0 -0.32306117294E+02  0.14650891511E+02  0.22769928315E+01  0.35546005866E+02  0.00000000000E+00 0. -1.
         11    1    1    2    0    0 -0.45349317296E+01 -0.54457468062E+02  0.84051197345E+02  0.10025360447E+03  0.00000000000E+00 0.  1.
</event>
<event>
 6    1  0.8259171E-006  0.1855438E+03  0.7561462E-02  0.1162543E+00
          2   -1    0    0  501    0  0.00000000000E+00  0.00000000000E+00  0.22727510127E+03  0.22727510127E+03  0.00000000000E+00 0. -1.
         -2   -1    0    0    0  501 -0.00000000000E+00 -0.00000000000E+00 -0.28949034339E+03  0.28949034339E+03  0.00000000000E+00 0.  1.
          5    1    1    2  502    0 -0.15739743946E+03  0.33035447691E+02 -0.92286137267E+02  0.18547101737E+03  0.41800000000E+01 0.  1.
         -5    1    1    2    0  502 -0.61142970457E+01  0.19212023339E+02 -0.96593105498E+02  0.98763287202E+02  0.41800000000E+01 0.  1.
        -11    1    1    2    0    0  0.29497627214E+02  0.21638996944E+02  0.47852257699E+01  0.36895183773E+02  0.00000000000E+00 0. -1.
         11    1    1    2    0    0  0.13401410929E+03 -0.73886467974E+02  0.12187877488E+03  0.19563595632E+03  0.00000000000E+00 0.  1.
</event>
<event>
 6    1  0.8259171E-006  0.6964063E+02  0.7561462E-02  0.1361319E+00
         -3   -1    0    0    0  501 -0.00000000000E+00  0.00000000000E+00  0.86353755938E+03  0.86353755938E+03  0.00000000000E+00 0.  1.
          3   -1    0    0  501    0  0.00000000000E+00 -0.00000000000E+00 -0.31603706483E+02  0.31603706483E+02  0.00000000000E+00 0. -1.
          5    1    1    2  502    0  0.29313924803E+02  0.22183395309E+02  0.67933523412E+03  0.68034200365E+03  0.41800000000E+01 0.  1.
         -5    1    1    2    0  502 -0.36711411831E+02 -0.24718638642E+02  0.10619278801E+03  0.11512219369E+03  0.41800000000E+01 0.  1.
        -11    1    1    2    0    0 -0.98395651838E+01  0.26523187494E+02  0.60620175585E+02  0.66896204719E+02  0.00000000000E+00 0.  1.
         11    1    1    2    0    0  0.17237052212E+02 -0.23987944160E+02 -0.14214344808E+02  0.32780863813E+02  0.00000000000E+00 0. -1.
</event>
<event>
 6    1  0.8259171E-006  0.7465755E+02  0.7561462E-02  0.1344935E+00
         -2   -1    0    0    0  501 -0.00000000000E+00  0.00000000000E+00  0.58081881303E+03  0.58081881303E+03  0.00000000000E+00 0.  1.
          2   -1    0    0  501    0  0.00000000000E+00 -0.00000000000E+00 -0.23482451872E+02  0.23482451872E+02  0.00000000000E+00 0. -1.
          5    1    1    2  502    0 -0.23559623352E+02 -0.11607714270E+02  0.29803193075E+01  0.26760971325E+02  0.41800000000E+01 0. -1.
         -5    1    1    2    0  502 -0.18296784889E+02  0.11715522010E+02  0.33984854189E+03  0.34056795155E+03  0.41800000000E+01 0. -1.
        -11    1    1    2    0    0 -0.19893973608E+02  0.26684204855E+02  0.76350368817E+02  0.83289830071E+02  0.00000000000E+00 0.  1.
         11    1    1    2    0    0  0.61750381850E+02 -0.26792012595E+02  0.13815713114E+03  0.15368251196E+03  0.00000000000E+00 0. -1.
</event>
<event>
 6    1  0.8259171E-006  0.8357372E+02  0.7561462E-02  0.1319205E+00
         -2   -1    0    0    0  501 -0.00000000000E+00  0.00000000000E+00  0.17166361511E+03  0.17166361511E+03  0.00000000000E+00 0.  1.
          2   -1    0    0  501    0  0.00000000000E+00 -0.00000000000E+00 -0.96467440167E+02  0.96467440167E+02  0.00000000000E+00 0. -1.
          5    1    1    2  502    0  0.58538633550E+02  0.58156803421E+02 -0.24453003193E+02  0.86164999665E+02  0.41800000000E+01 0. -1.
         -5    1    1    2    0  502 -0.54411769157E+01 -0.13460440530E+02  0.59130729368E+02  0.61030364747E+02  0.41800000000E+01 0. -1.
        -11    1    1    2    0    0 -0.28747683322E+02 -0.25015117037E+02  0.68861857126E+02  0.78702863630E+02  0.00000000000E+00 0.  1.
         11    1    1    2    0    0 -0.24349773313E+02 -0.19681245854E+02 -0.28343408359E+02  0.42232827234E+02  0.00000000000E+00 0. -1.
</event>
<event>
 6    1  0.8259171E-006  0.1377979E+03  0.7561462E-02  0.1216323E+00
         -1   -1    0    0    0  501 -0.00000000000E+00  0.00000000000E+00  0.45405143274E+03  0.45405143274E+03  0.00000000000E+00 0.  1.
          1   -1    0    0  501    0  0.00000000000E+00 -0.00000000000E+00 -0.46724167849E+02  0.46724167849E+02  0.00000000000E+00 0. -1.
          5    1    1    2  502    0 -0.87207811254E+02  0.17787623756E+02  0.10587542338E+03  0.13837875407E+03  0.41800000000E+01 0.  1.
         -5    1    1    2    0  502  0.31943776336E+02  0.59907182112E+02  0.90823155323E+02  0.11347067136E+03  0.41800000000E+01 0.  1.
        -11    1    1    2    0    0  0.21793852374E+02  0.10463774070E+02  0.80591827834E+01  0.25483582877E+02  0.00000000000E+00 0. -1.
         11    1    1    2    0    0  0.33470182545E+02 -0.88158579938E+02  0.20256950340E+03  0.22344259228E+03  0.00000000000E+00 0.  1.
</event>
<event>
 6    1  0.8259171E-006  0.1287439E+03  0.7561462E-02  0.1229332E+00
         -1   -1    0    0    0  501 -0.00000000000E+00  0.00000000000E+00  0.22894580993E+02  0.22894580993E+02  0.00000000000E+00 0.  1.
          1   -1    0    0  501    0  0.00000000000E+00 -0.00000000000E+00 -0.93027935938E+03  0.93027935938E+03  0.00000000000E+00 0. -1.
          5    1    1    2  502    0  0.32244792340E+02  0.15113424176E+02 -0.37771355407E+02  0.52079649698E+02  0.41800000000E+01 0. -1.
         -5    1    1    2    0  502 -0.85069642596E+02  0.63218058105E+02 -0.36586184375E+03  0.38092745776E+03  0.41800000000E+01 0. -1.
        -11    1    1    2    0    0  0.60798213032E+02 -0.32300436832E+02 -0.40635648401E+03  0.41214722251E+03  0.00000000000E+00 0. -1.
         11    1    1    2    0    0 -0.79733627759E+01 -0.46031045450E+02 -0.97395095228E+02  0.10801961041E+03  0.00000000000E+00 0.  1.
</event>
<event>
 6    1  0.8259171E-006  0.1528591E+03  0.7561462E-02  0.1197003E+00
          4   -1    0    0  501    0  0.00000000000E+00  0.00000000000E+00  0.31161890132E+02  0.31161890132E+02  0.00000000000E+00 0.  1.
         -4   -1    0    0    0  501 -0.00000000000E+00 -0.00000000000E+00 -0.79764048040E+03  0.79764048040E+03  0.00000000000E+00 0. -1.
          5    1    1    2  502    0  0.99006887005E+02 -0.45106823834E+02 -0.36738874372E+03  0.38318265963E+03  0.41800000000E+01 0.  1.
         -5    1    1    2    0  502 -0.33780129426E+02 -0.34298707544E+02 -0.92385780436E+02  0.10425978760E+03  0.41800000000E+01 0.  1.
        -11    1    1    2    0    0 -0.84622627265E+02  0.92305200979E+02 -0.27344705842E+03  0.30075660081E+03  0.00000000000E+00 0. -1.
         11    1    1    2    0    0  0.19395869686E+02 -0.12899669600E+02 -0.33257007694E+02  0.40603322492E+02  0.00000000000E+00 0.  1.
</event>
<event>
 6    1  0.8259171E-006  0.1041876E+03  0.7561462E-02  0.1271728E+00
          1   -1    0    0  501    0  0.00000000000E+00  0.00000000000E+00  0.13712651621E+03  0.13712651621E+03  0.00000000000E+00 0. -1.
         -1   -1    0    0    0  501 -0.00000000000E+00 -0.00000000000E+00 -0.11594378210E+03  0.11594378210E+03  0.00000000000E+00 0.  1.
          5    1    1    2  502    0  0.47799276662E+02 -0.31352765133E+02 -0.33380998532E+02  0.66328954416E+02  0.41800000000E+01 0. -1.
         -5    1    1    2    0  502 -0.71724841083E+02  0.27354477878E+02 -0.48266877207E+01  0.77029147748E+02  0.41800000000E+01 0. -1.
        -11    1    1    2    0    0  0.22692999579E+02  0.35782878574E+02  0.64823199202E+02  0.77443100298E+02  0.00000000000E+00 0. -1.
         11    1    1    2    0    0  0.12325648418E+01 -0.31784591320E+02 -0.54327788404E+01  0.32269095857E+02  0.00000000000E+00 0.  1.
</event>
<event>
 6    1  0.8259171E-006  0.2144453E+03  0.7561462E-02  0.1138093E+00
          2   -1    0    0  501    0  0.00000000000E+00  0.00000000000E+00  0.26690170566E+03  0.26690170566E+03  0.00000000000E+00 0. -1.
         -2   -1    0    0    0  501 -0.00000000000E+00 -0.00000000000E+00 -0.62607248293E+03  0.62607248293E+03  0.00000000000E+00 0.  1.
          5    1    1    2  502    0  0.26291990948E+01  0.49578042820E+02 -0.12398915547E+03  0.13362514020E+03  0.41800000000E+01 0. -1.
         -5    1    1    2    0  502 -0.18005632985E+03  0.16039059631E+02 -0.43885368273E+03  0.47464466773E+03  0.41800000000E+01 0.  1.
        -11    1    1    2    0    0  0.34162108218E+02 -0.40187055198E+02  0.64942498991E+02  0.83663476013E+02  0.00000000000E+00 0. -1.
         11    1    1    2    0    0  0.14326502253E+03 -0.25430047253E+02  0.13872956195E+03  0.20104090465E+03  0.00000000000E+00 0.  1.
</event>
<event>
 6    1  0.8259171E-006  0.2719472E+03  0.7561462E-02  0.1100170E+00
         -2   -1    0    0    0  501 -0.00000000000E+00  0.00000000000E+00  0.46378924060E+02  0.46378924060E+02  0.00000000000E+00 0.  1.
          2   -1    0    0  501    0  0.00000000000E+00 -0.00000000000E+00 -0.19194061683E+04  0.19194061683E+04  0.00000000000E+00 0. -1.
          5    1    1    2  502    0 -0.82582138979E+02  0.67148074079E+02 -0.32473775383E+03  0.34176125394E+03  0.41800000000E+01 0.  1.
         -5    1    1    2    0  502 -0.22803205955E+02  0.16557715206E+03 -0.27139351608E+03  0.31875961547E+03  0.41800000000E+01 0.  1.
        -11    1    1    2    0    0 -0.82209643914E+01 -0.76921502271E+02 -0.40116758382E+03  0.40855835822E+03  0.00000000000E+00 0. -1.
         11    1    1    2    0    0  0.11360630933E+03 -0.15580372387E+03 -0.87572839053E+03  0.89670586475E+03  0.00000000000E+00 0.  1.
</event>
<event>
 6    1  0.8259171E-006  0.7429648E+02  0.7561462E-02  0.1346064E+00
         -1   -1    0    0    0  501 -0.00000000000E+00  0.00000000000E+00  0.11298926132E+03  0.11298926132E+03  0.00000000000E+00 0.  1.
          1   -1    0    0  501    0  0.00000000000E+00 -0.00000000000E+00 -0.10802621415E+03  0.10802621415E+03  0.00000000000E+00 0. -1.
          5    1    1    2  502    0 -0.13677773350E+02 -0.38013890882E+02  0.53245467260E+02  0.66967824868E+02  0.41800000000E+01 0.  1.
         -5    1    1    2    0  502  0.33752721386E+02  0.26112668116E+02 -0.42955235575E+02  0.60693840712E+02  0.41800000000E+01 0.  1.
        -11    1    1    2    0    0 -0.21345522659E+02  0.35522974977E+02 -0.35808428305E+02  0.54770034020E+02  0.00000000000E+00 0. -1.
         11    1    1    2    0    0  0.12705746228E+01 -0.23621752211E+02  0.30481243792E+02  0.38583775871E+02  0.00000000000E+00 0.  1.
</event>
<event>
 6    1  0.8259171E-006  0.2296145E+03  0.7561462E-02  0.1126911E+00
          1   -1    0    0  501    0  0.00000000000E+00  0.00000000000E+00  0.13065596123E+04  0.13065596123E+04  0.00000000000E+00 0. -1.
         -1   -1    0    0    0  501 -0.00000000000E+00 -0.00000000000E+00 -0.65420576424E+02  0.65420576424E+02  0.00000000000E+00 0.  1.
          5    1    1    2  502    0  0.41434782283E+02 -0.36693779554E+02  0.12403766879E+02  0.56873548101E+02  0.41800000000E+01 0.  1.
         -5    1    1    2    0  502  0.17798489406E+03  0.23490566046E+02  0.24744438410E+03  0.30573947215E+03  0.41800000000E+01 0.  1.
        -11    1    1    2    0    0 -0.20514773877E+03  0.66288060913E+00  0.95583911498E+03  0.97760648927E+03  0.00000000000E+00 0. -1.
         11    1    1    2    0    0 -0.14271937575E+02  0.12540332899E+02  0.25451769884E+02  0.31760679174E+02  0.00000000000E+00 0.  1.
</event>
<event>
 6    1  0.8259171E-006  0.1010688E+03  0.7561462E-02  0.1278064E+00
         -1   -1    0    0    0  501 -0.00000000000E+00  0.00000000000E+00  0.48059379093E+02  0.48059379093E+02  0.00000000000E+00 0.  1.
          1   -1    0    0  501    0  0.00000000000E+00 -0.00000000000E+00 -0.31822082720E+03  0.31822082720E+03  0.00000000000E+00 0. -1.
          5    1    1    2  502    0 -0.30447901781E+02 -0.61217741436E+02 -0.66384796716E+02  0.95389203920E+02  0.41800000000E+01 0.  1.
         -5    1    1    2    0  502  0.76486662291E+00  0.52946092160E+02 -0.89936082132E+01  0.53872359190E+02  0.41800000000E+01 0.  1.
        -11    1    1    2    0    0 -0.24295173140E+02 -0.52938822021E+01 -0.15512830275E+02  0.29307482489E+02  0.00000000000E+00 0.  1.
         11    1    1    2    0    0  0.53978208299E+02  0.13565531477E+02 -0.17927021290E+03  0.18771116070E+03  0.00000000000E+00 0. -1.
</event>
<event>
 6    1  0.8259171E-006  0.1157498E+03  0.7561462E-02  0.1250278E+00
          2   -1    0    0  501    0  0.00000000000E+00  0.00000000000E+00  0.72579202691E+02  0.72579202691E+02  0.00000000000E+00 0. -1.
         -2   -1    0    0    0  501 -0.00000000000E+00 -0.00000000000E+00 -0.34512645870E+03  0.34512645870E+03  0.00000000000E+00 0.  1.
          5    1    1    2  502    0 -0.55652429380E+02 -0.29398710097E+02 -0.11792444918E+03  0.13373528019E+03  0.41800000000E+01 0. -1.
         -5    1    1    2    0  502  0.68698394677E+02 -0.51780041370E+02 -0.13327272329E+03  0.15868123168E+03  0.41800000000E+01 0. -1.
        -11    1    1    2    0    0 -0.80079781002E+01  0.39007232488E+02  0.36165060758E+02  0.53792225454E+02  0.00000000000E+00 0. -1.
         11    1    1    2    0    0 -0.50379871963E+01  0.42171518979E+02 -0.57515144296E+02  0.71496924069E+02  0.00000000000E+00 0.  1.
</event>
<event>
 6    1  0.8259171E-006  0.9397694E+02  0.7561462E-02  0.1293497E+00
         -2   -1    0    0    0  501 -0.00000000000E+00  0.00000000000E+00  0.13168030823E+03  0.13168030823E+03  0.00000000000E+00 0.  1.
          2   -1    0    0  501    0  0.00000000000E+00 -0.00000000000E+00 -0.96421733620E+02  0.96421733620E+02  0.00000000000E+00 0. -1.
          5    1    1    2  502    0 -0.18807088453E+02  0.54496022587E+02  0.59055674595E+02  0.82635150848E+02  0.41800000000E+01 0. -1.
         -5    1    1    2    0  502  0.25019952053E+02 -0.28764718884E+02 -0.29756915655E+02  0.48542285510E+02  0.41800000000E+01 0. -1.
        -11    1    1    2    0    0 -0.79238044694E+01  0.32546694199E+02 -0.12523421326E+02  0.35761852053E+02  0.00000000000E+00 0. -1.
         11    1    1    2    0    0  0.17109408694E+01 -0.58277997902E+02  0.18483236993E+02  0.61162753436E+02  0.00000000000E+00 0.  1.
</event>
<event>
 6    1  0.8259171E-006  0.1580612E+03  0.7561462E-02  0.1190903E+00
         -3   -1    0    0    0  501 -0.00000000000E+00  0.00000000000E+00  0.11735511619E+03  0.11735511619E+03  0.00000000000E+00 0.  1.
          3   -1    0    0  501    0  0.00000000000E+00 -0.00000000000E+00 -0.28675231301E+03  0.28675231301E+03  0.00000000000E+00 0. -1.
          5    1    1    2  502    0 -0.36063678263E+02  0.61727769514E+01 -0.74300351434E+02  0.82925910839E+02  0.41800000000E+01 0.  1.
         -5    1    1    2    0  502 -0.80858264711E+02 -0.96638845749E+02 -0.45165079858E+01  0.12615465399E+03  0.41800000000E+01 0.  1.
        -11    1    1    2    0    0  0.21635505273E+02 -0.28157541474E+00 -0.54419868710E+02  0.58563610575E+02  0.00000000000E+00 0. -1.
         11    1    1    2    0    0  0.95286437701E+02  0.90747644212E+02 -0.36160468692E+02  0.13646325379E+03  0.00000000000E+00 0.  1.
</event>
<event>
 6    1  0.8259171E-006  0.1142069E+03  0.7561462E-02  0.1252972E+00
         -4   -1    0    0    0  501 -0.00000000000E+00  0.00000000000E+00  0.27433988318E+03  0.27433988318E+03  0.00000000000E+00 0.  1.
          4   -1    0    0  501    0  0.00000000000E+00 -0.00000000000E+00 -0.90144853418E+02  0.90144853418E+02  0.00000000000E+00 0. -1.
          5    1    1    2  502    0  0.28143535576E+02  0.28192843799E+02  0.39311472312E+01  0.40247004296E+02  0.41800000000E+01 0.  1.
         -5    1    1    2    0  502  0.45672835036E+02 -0.60113557603E+02  0.18742121790E+03  0.20209857246E+03  0.41800000000E+01 0.  1.
        -11    1    1    2    0    0 -0.90176265899E+01  0.45631757155E+02 -0.25986770632E+02  0.53281207740E+02  0.00000000000E+00 0. -1.
         11    1    1    2    0    0 -0.64798744022E+02 -0.13711043351E+02  0.18829435263E+02  0.68857952111E+02  0.00000000000E+00 0.  1.
</event>
<event>
 6    1  0.8259171E-006  0.1015518E+03  0.7561462E-02  0.1277066E+00
          1   -1    0    0  501    0  0.00000000000E+00  0.00000000000E+00  0.29217377329E+03  0.29217377329E+03  0.00000000000E+00 0. -1.
         -1   -1    0    0    0  501 -0.00000000000E+00 -0.00000000000E+00 -0.69630343792E+02  0.69630343792E+02  0.00000000000E+00 0.  1.
          5    1    1    2  502    0 -0.42975494888E+02 -0.68362242179E+02 -0.85673443086E+01  0.81309046884E+02  0.41800000000E+01 0.  1.
         -5    1    1    2    0  502  0.24512934305E+02  0.37105541992E+02  0.21534861921E+02  0.49587577807E+02  0.41800000000E+01 0.  1.
        -11    1    1    2    0    0 -0.22795692039E+02  0.28124785757E+02  0.31189636137E+02  0.47785359178E+02  0.00000000000E+00 0.  1.
         11    1    1    2    0    0  0.41258252621E+02  0.31319144296E+01  0.17838627575E+03  0.18312213322E+03  0.00000000000E+00 0. -1.
</event>
<event>
 6    1  0.8259171E-006  0.1013423E+03  0.7561462E-02  0.1277498E+00
          2   -1    0    0  501    0  0.00000000000E+00  0.00000000000E+00  0.60757150738E+03  0.60757150738E+03  0.00000000000E+00 0.  1.
         -2   -1    0    0    0  501 -0.00000000000E+00 -0.00000000000E+00 -0.20521966061E+02  0.20521966061E+02  0.00000000000E+00 0. -1.
          5    1    1    2  502    0  0.49424625702E+02 -0.51252817536E+02  0.22146168098E+03  0.23266369178E+03  0.41800000000E+01 0. -1.
         -5    1    1    2    0  502 -0.43820306260E+02  0.27750419540E+02  0.91895679138E+02  0.10560583918E+03  0.41800000000E+01 0. -1.
        -11    1    1    2    0    0  0.24598062908E+02 -0.16189837160E+02  0.33920581319E+02  0.44919721316E+02  0.00000000000E+00 0.  1.
         11    1    1    2    0    0 -0.30202382350E+02  0.39692235156E+02  0.23977159988E+03  0.24490422116E+03  0.00000000000E+00 0. -1.
</event>
<event>
 6    1  0.8259171E-006  0.1177499E+03  0.7561462E-02  0.1246856E+00
         -2   -1    0    0    0  501 -0.00000000000E+00  0.00000000000E+00  0.55039017408E+03  0.55039017408E+03  0.00000000000E+00 0.  1.
          2   -1    0    0  501    0  0.00000000000E+00 -0.00000000000E+00 -0.30088449088E+02  0.30088449088E+02  0.00000000000E+00 0. -1.
          5    1    1    2  502    0 -0.54378037471E+02 -0.76746769027E+02  0.24162173185E+03  0.25931751043E+03  0.41800000000E+01 0. -1.
         -5    1    1    2    0  502  0.46465953851E+01  0.31167647523E+02  0.17667059891E+02  0.36367712411E+02  0.41800000000E+01 0. -1.
        -11    1    1    2    0    0  0.21386265435E+02 -0.25356336045E+02  0.11902860082E+03  0.12356425025E+03  0.00000000000E+00 0.  1.
         11    1    1    2    0    0  0.28345176651E+02  0.70935457549E+02  0.14198433243E+03  0.16122915007E+03  0.00000000000E+00 0. -1.
</event>
<event>
 6    1  0.8259171E-006  0.1112168E+03  0.7561462E-02  0.1258333E+00
          3   -1    0    0  501    0  0.00000000000E+00  0.00000000000E+00  0.14039934531E+03  0.14039934531E+03  0.00000000000E+00 0. -1.
         -3   -1    0    0    0  501 -0.00000000000E+00 -0.00000000000E+00 -0.12039417362E+03  0.12039417362E+03  0.00000000000E+00 0.  1.
          5    1    1    2  502    0 -0.68361648042E+01  0.98645882415E+02  0.69414116671E+01  0.99213904583E+02  0.41800000000E+01 0. -1.
         -5    1    1    2    0  502  0.25115435684E+02 -0.33011156332E+02 -0.11659479903E+02  0.43288998875E+02  0.41800000000E+01 0. -1.
        -11    1    1    2    0    0 -0.33144002933E+02 -0.51615461714E+02 -0.23678918438E+02  0.65752353546E+02  0.00000000000E+00 0.  1.
         11    1    1    2    0    0  0.14864732054E+02 -0.14019264369E+02  0.48402158357E+02  0.52538261925E+02  0.00000000000E+00 0. -1.
</event>
<event>
 6    1  0.8259171E-006  0.1058976E+03  0.7561462E-02  0.1268361E+00
         -3   -1    0    0    0  501 -0.00000000000E+00  0.00000000000E+00  0.34020234948E+02  0.34020234948E+02  0.00000000000E+00 0.  1.
          3   -1    0    0  501    0  0.00000000000E+00 -0.00000000000E+00 -0.35939801139E+03  0.35939801139E+03  0.00000000000E+00 0. -1.
          5    1    1    2  502    0 -0.25682349515E+01  0.64059616928E+02 -0.58390741934E+02  0.86816942445E+02  0.41800000000E+01 0. -1.
         -5    1    1    2    0  502  0.50685912465E+01 -0.56859660700E+02 -0.99237675713E+02  0.11456133865E+03  0.41800000000E+01 0. -1.
        -11    1    1    2    0    0  0.48933066350E+00 -0.48699960729E+02 -0.65282505008E+02  0.81447719916E+02  0.00000000000E+00 0.  1.
         11    1    1    2    0    0 -0.29896869585E+01  0.41500004500E+02 -0.10246685379E+03  0.11059224533E+03  0.00000000000E+00 0. -1.
</event>
<event>
 6    1  0.8259171E-006  0.2003794E+03  0.7561462E-02  0.1149419E+00
         -1   -1    0    0    0  501 -0.00000000000E+00  0.00000000000E+00  0.41886783720E+03  0.41886783720E+03  0.00000000000E+00 0.  1.
          1   -1    0    0  501    0  0.00000000000E+00 -0.00000000000E+00 -0.11044543614E+03  0.11044543614E+03  0.00000000000E+00 0. -1.
          5    1    1    2  502    0 -0.59803837021E+02 -0.16148749566E+00  0.93214180352E+01  0.60670307687E+02  0.41800000000E+01 0. -1.
         -5    1    1    2    0  502 -0.80268935775E+02 -0.11820805426E+03  0.18926093535E+03  0.23717803480E+03  0.41800000000E+01 0. -1.
        -11    1    1    2    0    0  0.12950331043E+02  0.53693313100E+02  0.56977849582E+02  0.79354636215E+02  0.00000000000E+00 0. -1.
         11    1    1    2    0    0  0.12712244175E+03  0.64676228654E+02  0.52862198091E+02  0.15211029465E+03  0.00000000000E+00 0.  1.
</event>
<event>
 6    1  0.8259171E-006  0.1109601E+03  0.7561462E-02  0.1258802E+00
         -1   -1    0    0    0  501 -0.00000000000E+00  0.00000000000E+00  0.23281117030E+02  0.23281117030E+02  0.00000000000E+00 0.  1.
          1   -1    0    0  501    0  0.00000000000E+00 -0.00000000000E+00 -0.66742746347E+03  0.66742746347E+03  0.00000000000E+00 0. -1.
          5    1    1    2  502    0  0.26690908148E+02 -0.82391434123E+02 -0.22944891919E+03  0.24528561294E+03  0.41800000000E+01 0. -1.
         -5    1    1    2    0  502 -0.12904777633E+02  0.34478829411E+02 -0.32659173110E+02  0.49390454053E+02  0.41800000000E+01 0. -1.
        -11    1    1    2    0    0 -0.47188245045E+02  0.11144650363E+02 -0.12180715838E+03  0.13110269843E+03  0.00000000000E+00 0.  1.
         11    1    1    2    0    0  0.33402114530E+02  0.36767954349E+02 -0.26023109575E+03  0.26492981508E+03  0.00000000000E+00 0. -1.
</event>
<event>
 6    1  0.8259171E-006  0.2145890E+03  0.7561462E-02  0.1137983E+00
          1   -1    0    0  501    0  0.00000000000E+00  0.00000000000E+00  0.10102859745E+04  0.10102859745E+04  0.00000000000E+00 0. -1.
         -1   -1    0    0    0  501 -0.00000000000E+00 -0.00000000000E+00 -0.56143847010E+02  0.56143847010E+02  0.00000000000E+00 0.  1.
          5    1    1    2  502    0  0.14734521463E+03 -0.13179160304E+03  0.35809215017E+03  0.40905635226E+03  0.41800000000E+01 0. -1.
         -5    1    1    2    0  502  0.12425491171E+02  0.78445303713E+01 -0.54827270545E+01  0.16231518214E+02  0.41800000000E+01 0. -1.
        -11    1    1    2    0    0 -0.12386198173E+03  0.49256820642E+02  0.29713141436E+03  0.32566102361E+03  0.00000000000E+00 0.  1.
         11    1    1    2    0    0 -0.35908724075E+02  0.74690252025E+02  0.30440129000E+03  0.31548092742E+03  0.00000000000E+00 0. -1.
</event>
<event>
 6    1  0.8259171E-006  0.1082603E+03  0.7561462E-02  0.1263826E+00
         -3   -1    0    0    0  501 -0.00000000000E+00  0.00000000000E+00  0.90042588054E+02  0.90042588054E+02  0.00000000000E+00 0.  1.
          3   -1    0    0  501    0  0.00000000000E+00 -0.00000000000E+00 -0.16279595824E+03  0.16279595824E+03  0.00000000000E+00 0. -1.
          5    1    1    2  502    0  0.43296183599E+02 -0.15377933681E+02 -0.51594718279E+02  0.69213638199E+02  0.41800000000E+01 0.  1.
         -5    1    1    2    0  502 -0.57301479237E+02 -0.35384417243E+02  0.19520415357E+02  0.70242690168E+02  0.41800000000E+01 0.  1.
        -11    1    1    2    0    0 -0.12672614250E+01  0.74593350618E+02 -0.17090250091E+02  0.76536596188E+02  0.00000000000E+00 0.  1.
         11    1    1    2    0    0  0.15272557063E+02 -0.23830999693E+02 -0.23588817177E+02  0.36845621740E+02  0.00000000000E+00 0. -1.
</event>
<event>
 6    1  0.8259171E-006  0.1653782E+03  0.7561462E-02  0.1182755E+00
          2   -1    0    0  501    0  0.00000000000E+00  0.00000000000E+00  0.51663419512E+03  0.51663419512E+03  0.00000000000E+00 0. -1.
         -2   -1    0    0    0  501 -0.00000000000E+00 -0.00000000000E+00 -0.78566639118E+02  0.78566639118E+02  0.00000000000E+00 0.  1.
          5    1    1    2  502    0 -0.65406011414E+02  0.28938623785E+02  0.18039062184E+00  0.71644226679E+02  0.41800000000E+01 0. -1.
         -5    1    1    2    0  502 -0.54009132824E+02 -0.85498910996E+02  0.71487690742E+02  0.12391534424E+03  0.41800000000E+01 0. -1.
        -11    1    1    2    0    0  0.70002310683E+01 -0.20462543497E+02  0.32859300906E+02  0.39337673767E+02  0.00000000000E+00 0.  1.
         11    1    1    2    0    0  0.11241491317E+03  0.77022830708E+02  0.33354017373E+03  0.36030358955E+03  0.00000000000E+00 0. -1.
</event>
<event>
 6    1  0.8259171E-006  0.9790396E+02  0.7561462E-02  0.1284766E+00
          1   -1    0    0  501    0  0.00000000000E+00  0.00000000000E+00  0.19719606296E+03  0.19719606296E+03  0.00000000000E+00 0. -1.
         -1   -1    0    0    0  501 -0.00000000000E+00 -0.00000000000E+00 -0.97434416463E+02  0.97434416463E+02  0.00000000000E+00 0.  1.
          5    1    1    2  502    0 -0.70582615402E+02 -0.10850725401E+02  0.62217691509E+02  0.94805893147E+02  0.41800000000E+01 0.  1.
         -5    1    1    2    0  502  0.23021157764E+01 -0.21846044543E+02 -0.47149843058E+02  0.52183613324E+02  0.41800000000E+01 0.  1.
        -11    1    1    2    0    0  0.43713309195E+02  0.53944036095E+02  0.15410207130E+02  0.71121634646E+02  0.00000000000E+00 0.  1.
         11    1    1    2    0    0  0.24567190431E+02 -0.21247266151E+02  0.69283590918E+02  0.76519338308E+02  0.00000000000E+00 0. -1.
</event>
<event>
 6    1  0.8259171E-006  0.9089872E+02  0.7561462E-02  0.1300690E+00
          2   -1    0    0  501    0  0.00000000000E+00  0.00000000000E+00  0.24976936400E+02  0.24976936400E+02  0.00000000000E+00 0. -1.
         -2   -1    0    0    0  501 -0.00000000000E+00 -0.00000000000E+00 -0.58966496864E+03  0.58966496864E+03  0.00000000000E+00 0.  1.
          5    1    1    2  502    0 -0.74318216047E+02  0.71421482068E+01 -0.34538239826E+03  0.35338460768E+03  0.41800000000E+01 0. -1.
         -5    1    1    2    0  502  0.39814606730E+02 -0.88122721932E-01 -0.58477767120E+02  0.70868415547E+02  0.41800000000E+01 0. -1.
        -11    1    1    2    0    0 -0.14048902084E+02  0.79830817203E+01  0.50253390476E+01  0.16922035223E+02  0.00000000000E+00 0. -1.
         11    1    1    2    0    0  0.48552511401E+02 -0.15037107205E+02 -0.16585320590E+03  0.17346684658E+03  0.00000000000E+00 0.  1.
</event>
<event>
 6    1  0.8259171E-006  0.1095878E+03  0.7561462E-02  0.1261335E+00
          2   -1    0    0  501    0  0.00000000000E+00  0.00000000000E+00  0.41375074838E+03  0.41375074838E+03  0.00000000000E+00 0.  1.
         -2   -1    0    0    0  501 -0.00000000000E+00 -0.00000000000E+00 -0.33446075515E+02  0.33446075515E+02  0.00000000000E+00 0. -1.
          5    1    1    2  502    0 -0.70921773618E+02 -0.45432774375E+02  0.17997744980E+03  0.19875459692E+03  0.41800000000E+01 0.  1.
         -5    1    1    2    0  502  0.35652508991E+02  0.18074868441E+02  0.31910401140E+02  0.51318109547E+02  0.41800000000E+01 0.  1.
        -11    1    1    2    0    0  0.58951993350E+02  0.36423802674E+02  0.15162503310E+03  0.16670987249E+03  0.00000000000E+00 0.  1.
         11    1    1    2    0    0 -0.23682728723E+02 -0.90658967407E+01  0.16791788823E+02  0.30414244942E+02  0.00000000000E+00 0. -1.
</event>
<event>
 6    1  0.8259171E-006  0.1389884E+03  0.7561462E-02  0.1214697E+00
          1   -1    0    0  501    0  0.00000000000E+00  0.00000000000E+00  0.38452236666E+02  0.38452236666E+02  0.00000000000E+00 0. -1.
         -1   -1    0    0    0  501 -0.00000000000E+00 -0.00000000000E+00 -0.74502050231E+03  0.74502050231E+03  0.00000000000E+00 0.  1.
          5    1    1    2  502    0 -0.24737106469E+02 -0.58751901298E+02 -0.61919917115E+02  0.88967740660E+02  0.41800000000E+01 0. -1.
         -5    1    1    2    0  502 -0.60577319009E+02 -0.32685322135E+02 -0.39552621851E+03  0.40149271947E+03  0.41800000000E+01 0. -1.
        -11    1    1    2    0    0 -0.13201870599E+02  0.17682858016E+02 -0.10313207321E+02  0.24358470809E+02  0.00000000000E+00 0. -1.
         11    1    1    2    0    0  0.98516296077E+02  0.73754365417E+02 -0.23880892270E+03  0.26865380803E+03  0.00000000000E+00 0.  1.
</event>
<event>
 6    1  0.8259171E-006  0.9583402E+02  0.7561462E-02  0.1289309E+00
          4   -1    0    0  501    0  0.00000000000E+00  0.00000000000E+00  0.89851949590E+02  0.89851949590E+02  0.00000000000E+00 0. -1.
         -4   -1    0    0    0  501 -0.00000000000E+00 -0.00000000000E+00 -0.31968456363E+03  0.31968456363E+03  0.00000000000E+00 0.  1.
          5    1    1    2  502    0  0.56724519474E+02  0.55356839769E+01 -0.26336867539E+03  0.26949739606E+03  0.41800000000E+01 0.  1.
         -5    1    1    2    0  502 -0.19667824030E+02  0.13164057982E+02  0.10644176239E+01  0.24056622986E+02  0.41800000000E+01 0.  1.
        -11    1    1    2    0    0 -0.54340870584E+02  0.27685527441E+02  0.25037779569E+02  0.65926542843E+02  0.00000000000E+00 0. -1.
         11    1    1    2    0    0  0.17284175139E+02 -0.46385269400E+02  0.74338641542E+01  0.50055951333E+02  0.00000000000E+00 0.  1.
</event>
<event>
 6    1  0.8259171E-006  0.2373166E+03  0.7561462E-02  0.1121593E+00
          2   -1    0    0  501    0  0.00000000000E+00  0.00000000000E+00  0.12360181586E+04  0.12360181586E+04  0.00000000000E+00 0. -1.
         -2   -1    0    0    0  501 -0.00000000000E+00 -0.00000000000E+00 -0.51373387957E+02  0.51373387957E+02  0.00000000000E+00 0.  1.
          5    1    1    2  502    0 -0.15903482634E+03  0.11396185341E+03  0.50850316658E+03  0.54485991121E+03  0.41800000000E+01 0. -1.
         -5    1    1    2    0  502  0.14538705520E+03 -0.13216793381E+03  0.32111921202E+03  0.37648476632E+03  0.41800000000E+01 0.  1.
        -11    1    1    2    0    0  0.38334704368E+02 -0.14885995438E+02  0.24706928259E+03  0.25046830702E+03  0.00000000000E+00 0.  1.
         11    1    1    2    0    0 -0.24686933226E+02  0.33092075838E+02  0.10795310942E+03  0.11557856198E+03  0.00000000000E+00 0. -1.
</event>
<event>
 6    1  0.8259171E-006  0.2563816E+03  0.7561462E-02  0.1109337E+00
         -1   -1    0    0    0  501 -0.00000000000E+00  0.00000000000E+00  0.36987017097E+02  0.36987017097E+02  0.00000000000E+00 0.  1.
          1   -1    0    0  501    0  0.00000000000E+00 -0.00000000000E+00 -0.21589224498E+04  0.21589224498E+04  0.00000000000E+00 0. -1.
          5    1    1    2  502    0  0.15379777732E+02  0.12651866764E+02 -0.25516645553E+03  0.25597656088E+03  0.41800000000E+01 0. -1.
         -5    1    1    2    0  502  0.11731765768E+03  0.20122753199E+03 -0.57118274924E+03  0.61686559141E+03  0.41800000000E+01 0. -1.
        -11    1    1    2    0    0 -0.69780935442E+01 -0.61527503065E+02 -0.18599623917E+03  0.19603297786E+03  0.00000000000E+00 0.  1.
         11    1    1    2    0    0 -0.12571934187E+03 -0.15235189568E+03 -0.11095899887E+04  0.11270343367E+04  0.00000000000E+00 0. -1.
</event>
<event>
 6    1  0.8259171E-006  0.1107305E+03  0.7561462E-02  0.1259223E+00
          1   -1    0    0  501    0  0.00000000000E+00  0.00000000000E+00  0.32417598790E+03  0.32417598790E+03  0.00000000000E+00 0. -1.
         -1   -1    0    0    0  501 -0.00000000000E+00 -0.00000000000E+00 -0.40965466476E+02  0.40965466476E+02  0.00000000000E+00 0.  1.
          5    1    1    2  502    0 -0.41348218795E+02  0.35011402027E+02  0.46834931633E+02  0.71738808817E+02  0.41800000000E+01 0. -1.
         -5    1    1    2    0  502  0.55012256106E+02 -0.43529433582E+02  0.93079620124E+02  0.11662953310E+03  0.41800000000E+01 0. -1.
        -11    1    1    2    0    0  0.26848288848E+02  0.38151191094E+02  0.10054724653E+03  0.11084264874E+03  0.00000000000E+00 0. -1.
         11    1    1    2    0    0 -0.40512326159E+02 -0.29633159539E+02  0.42748723139E+02  0.65930463711E+02  0.00000000000E+00 0.  1.
</event>
<event>
 6    1  0.8259171E-006  0.1738196E+03  0.7561462E-02  0.1173922E+00
         -1   -1    0    0    0  501 -0.00000000000E+00  0.00000000000E+00  0.89175689050E+02  0.89175689050E+02  0.00000000000E+00 0.  1.
          1   -1    0    0  501    0  0.00000000000E+00 -0.00000000000E+00 -0.36330189218E+03  0.36330189218E+03  0.00000000000E+00 0. -1.
          5    1    1    2  502    0  0.14954017229E+03 -0.17942724184E+02 -0.85771872468E+02  0.17337384747E+03  0.41800000000E+01 0.  1.
         -5    1    1    2    0  502 -0.20259789144E+02 -0.27463773052E+02 -0.12573613689E+02  0.36609917340E+02  0.41800000000E+01 0.  1.
        -11    1    1    2    0    0 -0.36938381640E+02  0.58635636815E+02 -0.10315190356E+03  0.12426945381E+03  0.00000000000E+00 0.  1.
         11    1    1    2    0    0 -0.92342001506E+02 -0.13229139578E+02 -0.72628813410E+02  0.11822436261E+03  0.00000000000E+00 0. -1.
</event>
<event>
 6    1  0.8259171E-006  0.1796543E+03  0.7561462E-02  0.1168138E+00
         -2   -1    0    0    0  501 -0.00000000000E+00  0.00000000000E+00  0.22598483328E+03  0.22598483328E+03  0.00000000000E+00 0.  1.
          2   -1    0    0  501    0  0.00000000000E+00 -0.00000000000E+00 -0.21918696825E+03  0.21918696825E+03  0.00000000000E+00 0. -1.
          5    1    1    2  502    0  0.91333303124E+02  0.42694422282E+02  0.39194817417E+02  0.10825106035E+03  0.41800000000E+01 0.  1.
         -5    1    1    2    0  502 -0.16160756209E+02  0.86871596156E+02  0.87479190929E+02  0.12441031109E+03  0.41800000000E+01 0.  1.
        -11    1    1    2    0    0 -0.62090427620E+02 -0.29001398059E+02 -0.23062785231E+02  0.72306253907E+02  0.00000000000E+00 0.  1.
         11    1    1    2    0    0 -0.13082119295E+02 -0.10056462038E+03 -0.96813358082E+02  0.14020417619E+03  0.00000000000E+00 0. -1.
</event>
<event>
 6    1  0.8259171E-006  0.6331848E+02  0.7561462E-02  0.1384411E+00
         -2   -1    0    0    0  501 -0.00000000000E+00  0.00000000000E+00  0.18245031252E+03  0.18245031252E+03  0.00000000000E+00 0.  1.
          2   -1    0    0  501    0  0.00000000000E+00 -0.00000000000E+00 -0.78304514877E+02  0.78304514877E+02  0.00000000000E+00 0. -1.
          5    1    1    2  502    0  0.40036429580E+02 -0.84966972446E+00  0.12493295886E+03  0.13126063477E+03  0.41800000000E+01 0. -1.
         -5    1    1    2    0  502 -0.37337856721E+02 -0.23423179271E+01 -0.96925962040E+01  0.38871851241E+02  0.41800000000E+01 0. -1.
        -11    1    1    2    0    0 -0.22503556346E+02  0.13663688398E+02 -0.43726501130E+02  0.51040310833E+02  0.00000000000E+00 0.  1.
         11    1    1    2    0    0  0.19804983486E+02 -0.10471700747E+02  0.32631936114E+02  0.39582030544E+02  0.00000000000E+00 0. -1.
</event>
<event>
 6    1  0.8259171E-006  0.1550948E+03  0.7561462E-02  0.1194349E+00
         -1   -1    0    0    0  501 -0.00000000000E+00  0.00000000000E+00  0.64656028886E+02  0.64656028886E+02  0.00000000000E+00 0.  1.
          1   -1    0    0  501    0  0.00000000000E+00 -0.00000000000E+00 -0.46243969896E+03  0.46243969896E+03  0.00000000000E+00 0. -1.
          5    1    1    2  502    0 -0.57275770162E+02 -0.78764037332E+02 -0.46864627231E+02  0.10815753839E+03  0.41800000000E+01 0.  1.
         -5    1    1    2    0  502 -0.52023893110E+02  0.47006270216E+02 -0.55668501315E+02  0.89624379120E+02  0.41800000000E+01 0.  1.
        -11    1    1    2    0    0  0.67572067623E+02 -0.24981734543E+02 -0.11395208323E+03  0.13481523896E+03  0.00000000000E+00 0. -1.
         11    1    1    2    0    0  0.41727595648E+02  0.56739501659E+02 -0.18129845829E+03  0.19449857137E+03  0.00000000000E+00 0.  1.
</event>
<event>
 6    1  0.8259171E-006  0.3018624E+03  0.7561462E-02  0.1084313E+00
         -2   -1    0    0    0  501 -0.00000000000E+00  0.00000000000E+00  0.30291345079E+03  0.30291345079E+03  0.00000000000E+00 0.  1.
          2   -1    0    0  501    0  0.00000000000E+00 -0.00000000000E+00 -0.33939706124E+03  0.33939706124E+03  0.00000000000E+00 0. -1.
          5    1    1    2  502    0  0.25790794320E+03  0.74869978176E+02 -0.11125604458E+02  0.26881828857E+03  0.41800000000E+01 0.  1.
         -5    1    1    2    0  502  0.21921057254E+02  0.24188809108E+02  0.44046856627E+02  0.54983899606E+02  0.41800000000E+01 0.  1.
        -11    1    1    2    0    0 -0.25576687456E+03 -0.71359169497E+02 -0.34322712625E+02  0.26774404530E+03  0.00000000000E+00 0.  1.
         11    1    1    2    0    0 -0.24062125892E+02 -0.27699617787E+02 -0.35082150001E+02  0.50764278550E+02  0.00000000000E+00 0. -1.
</event>
<event>
 6    1  0.8259171E-006  0.1136850E+03  0.7561462E-02  0.1253894E+00
         -2   -1    0    0    0  501 -0.00000000000E+00  0.00000000000E+00  0.13892728628E+03  0.13892728628E+03  0.00000000000E+00 0.  1.
          2   -1    0    0  501    0  0.00000000000E+00 -0.00000000000E+00 -0.23932286906E+03  0.23932286906E+03  0.00000000000E+00 0. -1.
          5    1    1    2  502    0 -0.35827554315E+02 -0.49594715087E+02  0.46289715518E+02  0.76833974097E+02  0.41800000000E+01 0. -1.
         -5    1    1    2    0  502 -0.88155086576E+01  0.64916176443E+02  0.48230603782E+02  0.81458496782E+02  0.41800000000E+01 0.  1.
        -11    1    1    2    0    0 -0.19561132040E+02 -0.28782041396E+02 -0.86529867444E+02  0.93265544300E+02  0.00000000000E+00 0.  1.
         11    1    1    2    0    0  0.64204195013E+02  0.13460580040E+02 -0.10838603464E+03  0.12669214016E+03  0.00000000000E+00 0. -1.
</event>
<event>
 6    1  0.8259171E-006  0.8689519E+02  0.7561462E-02  0.1310550E+00
         -2   -1    0    0    0  501 -0.00000000000E+00  0.00000000000E+00  0.31145272413E+02  0.31145272413E+02  0.00000000000E+00 0.  1.
          2   -1    0    0  501    0  0.00000000000E+00 -0.00000000000E+00 -0.52155851205E+03  0.52155851205E+03  0.00000000000E+00 0. -1.
          5    1    1    2  502    0 -0.44117759617E+02  0.21976168681E+02 -0.19851779287E+02  0.53300039816E+02  0.41800000000E+01 0. -1.
         -5    1    1    2    0  502 -0.15887843814E+02  0.85720696106E+01 -0.25889780216E+03  0.25956010541E+03  0.41800000000E+01 0. -1.
        -11    1    1    2    0    0  0.65475199082E+01 -0.48852888969E+02 -0.14099519902E+03  0.14936238122E+03  0.00000000000E+00 0. -1.
         11    1    1    2    0    0  0.53458083522E+02  0.18304650677E+02 -0.70668459177E+02  0.90481258019E+02  0.00000000000E+00 0.  1.
</event>
<event>
 6    1  0.8259171E-006  0.1665664E+03  0.7561462E-02  0.1181477E+00
          3   -1    0    0  501    0  0.00000000000E+00  0.00000000000E+00  0.65605830434E+03  0.65605830434E+03  0.00000000000E+00 0. -1.
         -3   -1    0    0    0  501 -0.00000000000E+00 -0.00000000000E+00 -0.58232467242E+02  0.58232467242E+02  0.00000000000E+00 0.  1.
          5    1    1    2  502    0  0.38259843821E+02  0.38257192394E+02  0.11270276992E+02  0.55424903812E+02  0.41800000000E+01 0.  1.
         -5    1    1    2    0  502  0.11696634397E+03 -0.53243692576E+01  0.23933186991E+03  0.26647080682E+03  0.41800000000E+01 0.  1.
        -11    1    1    2    0    0 -0.54892322195E+02  0.33916785401E+01  0.42429132907E+02  0.69461513362E+02  0.00000000000E+00 0.  1.
         11    1    1    2    0    0 -0.10033386560E+03 -0.36324501677E+02  0.30479455729E+03  0.32293354759E+03  0.00000000000E+00 0. -1.
</event>
<event>
 6    1  0.8259171E-006  0.1142771E+03  0.7561462E-02  0.1252848E+00
          2   -1    0    0  501    0  0.00000000000E+00  0.00000000000E+00  0.35304260399E+03  0.35304260399E+03  0.00000000000E+00 0.  1.
         -2   -1    0    0    0  501 -0.00000000000E+00 -0.00000000000E+00 -0.41126368133E+02  0.41126368133E+02  0.00000000000E+00 0. -1.
          5    1    1    2  502    0 -0.18917906114E+02  0.74855026441E+02  0.65636321610E+02  0.10142367214E+03  0.41800000000E+01 0.  1.
         -5    1    1    2    0  502 -0.26290057871E+02 -0.48517556015E+02  0.83027666065E+02  0.99780690100E+02  0.41800000000E+01 0.  1.
        -11    1    1    2    0    0  0.42532082811E+02  0.21722043835E+02  0.11629716446E+03  0.12572134154E+03  0.00000000000E+00 0.  1.
         11    1    1    2    0    0  0.26758811742E+01 -0.48059514261E+02  0.46955083725E+02  0.67243268353E+02  0.00000000000E+00 0. -1.
</event>
<event>
 6    1  0.8259171E-006  0.1745387E+03  0.7561462E-02  0.1173196E+00
         -1   -1    0    0    0  501 -0.00000000000E+00  0.00000000000E+00  0.14175823670E+03  0.14175823670E+03  0.00000000000E+00 0.  1.
          1   -1    0    0  501    0  0.00000000000E+00 -0.00000000000E+00 -0.26489433750E+03  0.26489433750E+03  0.00000000000E+00 0. -1.
          5    1    1    2  502    0 -0.86460290066E+02  0.68026370594E+02 -0.61664373029E+02  0.12618611713E+03  0.41800000000E+01 0. -1.
         -5    1    1    2    0  502 -0.68308201389E+02 -0.36005148569E+02  0.19466284036E+02  0.79742019755E+02  0.41800000000E+01 0. -1.
        -11    1    1    2    0    0  0.54106477398E+02  0.51458925169E+01 -0.75833040898E+02  0.93298666646E+02  0.00000000000E+00 0. -1.
         11    1    1    2    0    0  0.10066201406E+03 -0.37167114542E+02 -0.51049709111E+01  0.10742577068E+03  0.00000000000E+00 0.  1.
</event>
<event>
 6    1  0.8259171E-006  0.9637708E+02  0.7561462E-02  0.1288104E+00
          1   -1    0    0  501    0  0.00000000000E+00  0.00000000000E+00  0.95468617896E+01  0.95468617896E+01  0.00000000000E+00 0. -1.
         -1   -1    0    0    0  501 -0.00000000000E+00 -0.00000000000E+00 -0.13237760183E+04  0.13237760183E+04  0.00000000000E+00 0.  1.
          5    1    1    2  502    0 -0.46357829255E+02  0.54780686839E+01 -0.69663958147E+03  0.69821431985E+03  0.41800000000E+01 0. -1.
         -5    1    1    2    0  502  0.54328501009E+02  0.48116516590E+01 -0.20579290363E+03  0.21293879308E+03  0.41800000000E+01 0. -1.
        -11    1    1    2    0    0 -0.41916610422E+02  0.19306996047E+02 -0.24990737057E+03  0.25413275309E+03  0.00000000000E+00 0. -1.
         11    1    1    2    0    0  0.33945938669E+02 -0.29596716390E+02 -0.16188930083E+03  0.16803701406E+03  0.00000000000E+00 0.  1.
</event>
<event>
 6    1  0.8259171E-006  0.1137478E+03  0.7561462E-02  0.1253783E+00
         -2   -1    0    0    0  501 -0.00000000000E+00  0.00000000000E+00  0.19418476415E+02  0.19418476415E+02  0.00000000000E+00 0.  1.
          2   -1    0    0  501    0  0.00000000000E+00 -0.00000000000E+00 -0.85739379770E+03  0.85739379770E+03  0.00000000000E+00 0. -1.
          5    1    1    2  502    0 -0.57260863825E+02 -0.22506661978E+02 -0.95282320023E+02  0.11349691303E+03  0.41800000000E+01 0. -1.
         -5    1    1    2    0  502 -0.38673150545E+01  0.55572210232E+02 -0.34399166706E+03  0.34849815794E+03  0.41800000000E+01 0. -1.
        -11    1    1    2    0    0 -0.20094724814E+02 -0.18763024464E+02 -0.56719672390E+02  0.63031502349E+02  0.00000000000E+00 0.  1.
         11    1    1    2    0    0  0.81222903694E+02 -0.14302523791E+02 -0.34198166181E+03  0.35178570080E+03  0.00000000000E+00 0. -1.
</event>
<event>
 6    1  0.8259171E-006  0.1067339E+03  0.7561462E-02  0.1266741E+00
          2   -1    0    0  501    0  0.00000000000E+00  0.00000000000E+00  0.32758260506E+02  0.32758260506E+02  0.00000000000E+00 0. -1.
         -2   -1    0    0    0  501 -0.00000000000E+00 -0.00000000000E+00 -0.74562693718E+03  0.74562693718E+03  0.00000000000E+00 0.  1.
          5    1    1    2  502    0  0.15242946852E+02 -0.18894360075E+02 -0.29656912347E+02  0.38553198588E+02  0.41800000000E+01 0. -1.
         -5    1    1    2    0  502 -0.68814554299E+02  0.80663662092E+02 -0.54379518115E+03  0.55405120766E+03  0.41800000000E+01 0. -1.
        -11    1    1    2    0    0  0.12050700341E+02 -0.22753155506E+02  0.86251038689E+01  0.27153597937E+02  0.00000000000E+00 0. -1.
         11    1    1    2    0    0  0.41520907106E+02 -0.39016146511E+02 -0.14804168705E+03  0.15862719350E+03  0.00000000000E+00 0.  1.
</event>
<event>
 6    1  0.8259171E-006  0.1856236E+03  0.7561462E-02  0.1162469E+00
         -2   -1    0    0    0  501 -0.00000000000E+00  0.00000000000E+00  0.47324321956E+03  0.47324321956E+03  0.00000000000E+00 0.  1.
          2   -1    0    0  501    0  0.00000000000E+00 -0.00000000000E+00 -0.76539340432E+02  0.76539340432E+02  0.00000000000E+00 0. -1.
          5    1    1    2  502    0 -0.11234589636E+01  0.10008527903E+03  0.10585590063E+03  0.14574384836E+03  0.41800000000E+01 0. -1.
         -5    1    1    2    0  502  0.93599535076E+02  0.11038703282E+02  0.14440784785E+03  0.17249297046E+03  0.41800000000E+01 0.  1.
        -11    1    1    2    0    0 -0.55313927805E+02 -0.12528993662E+03  0.12891234665E+03  0.18808400237E+03  0.00000000000E+00 0.  1.
         11    1    1    2    0    0 -0.37162148308E+02  0.14165954308E+02  0.17527783996E+02  0.43461738807E+02  0.00000000000E+00 0. -1.
</event>
<event>
 6    1  0.8259171E-006  0.1527925E+03  0.7561462E-02  0.1197083E+00
         -1   -1    0    0    0  501 -0.00000000000E+00  0.00000000000E+00  0.59437680474E+02  0.59437680474E+02  0.00000000000E+00 0.  1.
          1   -1    0    0  501    0  0.00000000000E+00 -0.00000000000E+00 -0.55054331418E+03  0.55054331418E+03  0.00000000000E+00 0. -1.
          5    1    1    2  502    0 -0.76495368388E+02 -0.25492724401E+02 -0.69894384257E+02  0.10679006383E+03  0.41800000000E+01 0.  1.
         -5    1    1    2    0  502  0.32776082996E+02 -0.80098696309E+02 -0.42285941017E+02  0.96413930397E+02  0.41800000000E+01 0.  1.
        -11    1    1    2    0    0  0.54641317490E+02  0.31020353851E+02 -0.24675061010E+03  0.25462482109E+03  0.00000000000E+00 0. -1.
         11    1    1    2    0    0 -0.10922032099E+02  0.74571066859E+02 -0.13217469833E+03  0.15215217933E+03  0.00000000000E+00 0.  1.
</event>
<event>
 6    1  0.8259171E-006  0.1154087E+03  0.7561462E-02  0.1250869E+00
         -2   -1    0    0    0  501 -0.00000000000E+00  0.00000000000E+00  0.10615978878E+03  0.10615978878E+03  0.00000000000E+00 0.  1.
          2   -1    0    0  501    0  0.00000000000E+00 -0.00000000000E+00 -0.18827795802E+03  0.18827795802E+03  0.00000000000E+00 0. -1.
          5    1    1    2  502    0 -0.67446278677E+01 -0.77794742766E+02 -0.92406580037E+02  0.12105354370E+03  0.41800000000E+01 0.  1.
         -5    1    1    2    0  502  0.25602962772E+02 -0.85385384067E+01  0.33339317666E+02  0.43097573519E+02  0.41800000000E+01 0.  1.
        -11    1    1    2    0    0 -0.50058788437E+02  0.78560659915E+02 -0.47178500160E+01  0.93273349328E+02  0.00000000000E+00 0.  1.
         11    1    1    2    0    0  0.31200453532E+02  0.77726212578E+01 -0.18333056852E+02  0.37013280257E+02  0.00000000000E+00 0. -1.
</event>
<event>
 6    1  0.8259171E-006  0.1490830E+03  0.7561462E-02  0.1201604E+00
          1   -1    0    0  501    0  0.00000000000E+00  0.00000000000E+00  0.11088004614E+03  0.11088004614E+03  0.00000000000E+00 0. -1.
         -1   -1    0    0    0  501 -0.00000000000E+00 -0.00000000000E+00 -0.23256068131E+03  0.23256068131E+03  0.00000000000E+00 0.  1.
          5    1    1    2  502    0 -0.20463113373E+02 -0.11373211926E+01  0.18918306537E+02  0.28202964926E+02  0.41800000000E+01 0. -1.
         -5    1    1    2    0  502  0.71273142987E+02  0.10690799622E+03 -0.92771614349E+02  0.15853461892E+03  0.41800000000E+01 0. -1.
        -11    1    1    2    0    0  0.22078168027E+02 -0.56644785741E+02 -0.26090984195E+02  0.66157514398E+02  0.00000000000E+00 0.  1.
         11    1    1    2    0    0 -0.72888197641E+02 -0.49125889289E+02 -0.21736343168E+02  0.90545629205E+02  0.00000000000E+00 0. -1.
</event>
<event>
 6    1  0.2697477E-005  0.1301545E+03  0.7561462E-02  0.1227227E+00
         -1   -1    0    0    0  501 -0.00000000000E+00  0.00000000000E+00  0.24057576523E+02  0.24057576523E+02  0.00000000000E+00 0.  1.
          1   -1    0    0  501    0  0.00000000000E+00 -0.00000000000E+00 -0.96831590925E+03  0.96831590925E+03  0.00000000000E+00 0. -1.
          5    1    1    2  502    0 -0.91963562781E+01  0.21697634113E+02 -0.11118002827E+02  0.26390200487E+02  0.41800000000E+01 0.  1.
         -5    1    1    2    0  502 -0.68150847498E+02 -0.88997031315E+02 -0.39901149136E+03  0.41447877176E+03  0.41800000000E+01 0.  1.
        -11    1    1    2    0    0  0.39344443804E+02 -0.77317707945E+01 -0.78175669810E+02  0.87858982968E+02  0.00000000000E+00 0.  1.
         11    1    1    2    0    0  0.38002759972E+02  0.75031167997E+02 -0.45595316873E+03  0.46364553056E+03  0.00000000000E+00 0. -1.
</event>
<event>
 6    1  0.8259171E-006  0.6462767E+02  0.7561462E-02  0.1379378E+00
         -2   -1    0    0    0  501 -0.00000000000E+00  0.00000000000E+00  0.75233619999E+02  0.75233619999E+02  0.00000000000E+00 0. -1.
          2   -1    0    0  501    0  0.00000000000E+00 -0.00000000000E+00 -0.25481771614E+03  0.25481771614E+03  0.00000000000E+00 0.  1.
          5    1    1    2  502    0 -0.11588695674E+02 -0.30460307554E+02 -0.56375071489E+02  0.65251431319E+02  0.41800000000E+01 0.  1.
         -5    1    1    2    0  502 -0.51740215950E+01  0.20890027784E+02  0.57268744043E+02  0.61321653635E+02  0.41800000000E+01 0.  1.
        -11    1    1    2    0    0  0.19432246407E+02  0.39713826078E+02 -0.39495789201E+02  0.59285053317E+02  0.00000000000E+00 0. -1.
         11    1    1    2    0    0 -0.26695291376E+01 -0.30143546308E+02 -0.14098197950E+03  0.14419319787E+03  0.00000000000E+00 0.  1.
</event>
<event>
 6    1  0.8259171E-006  0.1662792E+03  0.7561462E-02  0.1181784E+00
         -2   -1    0    0    0  501 -0.00000000000E+00  0.00000000000E+00  0.31350379998E+02  0.31350379998E+02  0.00000000000E+00 0.  1.
          2   -1    0    0  501    0  0.00000000000E+00 -0.00000000000E+00 -0.11593263109E+04  0.11593263109E+04  0.00000000000E+00 0. -1.
          5    1    1    2  502    0 -0.90935500616E+01  0.14371529630E+02 -0.25232321348E+03  0.25293024726E+03  0.41800000000E+01 0. -1.
         -5    1    1    2    0  502  0.15581969630E+03  0.16102790360E+02 -0.47805306845E+03  0.50308178884E+03  0.41800000000E+01 0. -1.
        -11    1    1    2    0    0 -0.81387952045E+02 -0.42636548113E+02 -0.31779299740E+03  0.33080849924E+03  0.00000000000E+00 0. -1.
         11    1    1    2    0    0 -0.65338194190E+02  0.12162228123E+02 -0.79806651591E+02  0.10385615558E+03  0.00000000000E+00 0.  1.
</event>
<event>
 6    1  0.8259171E-006  0.8012050E+02  0.7561462E-02  0.1328710E+00
          3   -1    0    0  501    0  0.00000000000E+00  0.00000000000E+00  0.44639368469E+03  0.44639368469E+03  0.00000000000E+00 0. -1.
         -3   -1    0    0    0  501 -0.00000000000E+00 -0.00000000000E+00 -0.40773099872E+02  0.40773099872E+02  0.00000000000E+00 0.  1.
          5    1    1    2  502    0 -0.25141934624E+02 -0.71207451859E+01  0.18061678481E+03  0.18254511016E+03  0.41800000000E+01 0. -1.
         -5    1    1    2    0  502 -0.51603697650E+02  0.73176962975E+01  0.28050661680E+01  0.52362496946E+02  0.41800000000E+01 0. -1.
        -11    1    1    2    0    0  0.58042583630E+02 -0.12141399948E+02  0.22229388426E+03  0.23006722080E+03  0.00000000000E+00 0. -1.
         11    1    1    2    0    0  0.18703048644E+02  0.11944448836E+02 -0.95150419657E-01  0.22191956655E+02  0.00000000000E+00 0.  1.
</event>
<event>
 6    1  0.8259171E-006  0.1027572E+03  0.7561462E-02  0.1274602E+00
         -1   -1    0    0    0  501 -0.00000000000E+00  0.00000000000E+00  0.29892316564E+03  0.29892316564E+03  0.00000000000E+00 0.  1.
          1   -1    0    0  501    0  0.00000000000E+00 -0.00000000000E+00 -0.48323516778E+02  0.48323516778E+02  0.00000000000E+00 0. -1.
          5    1    1    2  502    0 -0.68879412033E+02  0.45231466641E+02  0.14183001133E+03  0.16408376973E+03  0.41800000000E+01 0. -1.
         -5    1    1    2    0  502  0.19706911764E+02 -0.37556056619E+02  0.21989121279E+02  0.47956371992E+02  0.41800000000E+01 0. -1.
        -11    1    1    2    0    0  0.55484706726E+02  0.14486086511E+02  0.94811341272E+02  0.11080428609E+03  0.00000000000E+00 0.  1.
         11    1    1    2    0    0 -0.63122064574E+01 -0.22161496533E+02 -0.80308250189E+01  0.24402254598E+02  0.00000000000E+00 0. -1.
</event>
<event>
 6    1  0.8259171E-006  0.1185281E+03  0.7561462E-02  0.1245545E+00
          1   -1    0    0  501    0  0.00000000000E+00  0.00000000000E+00  0.49317933697E+03  0.49317933697E+03  0.00000000000E+00 0. -1.
         -1   -1    0    0    0  501 -0.00000000000E+00 -0.00000000000E+00 -0.48454378121E+02  0.48454378121E+02  0.00000000000E+00 0.  1.
          5    1    1    2  502    0  0.57911075316E+02  0.35810446093E+02  0.14266762417E+03  0.15813792739E+03  0.41800000000E+01 0. -1.
         -5    1    1    2    0  502 -0.11433935430E+02  0.43284513327E+02 -0.99079927459E+01  0.46042639950E+02  0.41800000000E+01 0. -1.
        -11    1    1    2    0    0 -0.67257652528E+02 -0.36599620729E+02  0.14577587883E+03  0.16466247572E+03  0.00000000000E+00 0.  1.
         11    1    1    2    0    0  0.20780512642E+02 -0.42495338691E+02  0.16618944859E+03  0.17279067203E+03  0.00000000000E+00 0. -1.
</event>
<event>
 6    1  0.8259171E-006  0.1002396E+03  0.7561462E-02  0.1279793E+00
          2   -1    0    0  501    0  0.00000000000E+00  0.00000000000E+00  0.10960299942E+03  0.10960299942E+03  0.00000000000E+00 0. -1.
         -2   -1    0    0    0  501 -0.00000000000E+00 -0.00000000000E+00 -0.13601601887E+03  0.13601601887E+03  0.00000000000E+00 0.  1.
          5    1    1    2  502    0  0.18523957795E+02 -0.30375270384E+02  0.32416145299E+02  0.48312244197E+02  0.41800000000E+01 0. -1.
         -5    1    1    2    0  502 -0.71485763800E+02  0.14303556807E+02 -0.52513753680E+02  0.89944276577E+02  0.41800000000E+01 0. -1.
        -11    1    1    2    0    0  0.58524817850E+02  0.37491390867E+02  0.20623734633E+02  0.72498945673E+02  0.00000000000E+00 0. -1.
         11    1    1    2    0    0 -0.55630118451E+01 -0.21419677289E+02 -0.26939145701E+02  0.34863551843E+02  0.00000000000E+00 0.  1.
</event>
<event>
 6    1  0.8259171E-006  0.9389400E+02  0.7561462E-02  0.1293687E+00
         -1   -1    0    0    0  501 -0.00000000000E+00  0.00000000000E+00  0.32666584378E+03  0.32666584378E+03  0.00000000000E+00 0.  1.
          1   -1    0    0  501    0  0.00000000000E+00 -0.00000000000E+00 -0.43182240426E+02  0.43182240426E+02  0.00000000000E+00 0. -1.
          5    1    1    2  502    0  0.16026780463E+02  0.65573374964E+02  0.36128247600E+02  0.76677557804E+02  0.41800000000E+01 0.  1.
         -5    1    1    2    0  502 -0.27679661108E+01 -0.20202907373E+02  0.15612958303E+03  0.15751107326E+03  0.41800000000E+01 0.  1.
        -11    1    1    2    0    0 -0.20185843242E+02 -0.70468740416E+02  0.58158460378E+02  0.93571994511E+02  0.00000000000E+00 0.  1.
         11    1    1    2    0    0  0.69270288899E+01  0.25098272825E+02  0.33067312342E+02  0.42087458626E+02  0.00000000000E+00 0. -1.
</event>
<event>
 6    1  0.8259171E-006  0.2728723E+03  0.7561462E-02  0.1099647E+00
         -3   -1    0    0    0  501 -0.00000000000E+00  0.00000000000E+00  0.36661581331E+03  0.36661581331E+03  0.00000000000E+00 0.  1.
          3   -1    0    0  501    0  0.00000000000E+00 -0.00000000000E+00 -0.28780205785E+03  0.28780205785E+03  0.00000000000E+00 0. -1.
          5    1    1    2  502    0  0.13815252775E+03 -0.16005841798E+03  0.19017536859E+03  0.28440984742E+03  0.41800000000E+01 0.  1.
         -5    1    1    2    0  502  0.66692519286E+02 -0.60343965038E+01  0.61935948871E+01  0.67380554224E+02  0.41800000000E+01 0.  1.
        -11    1    1    2    0    0 -0.68046659714E+02  0.30527321817E+02 -0.74223493781E+02  0.10522068383E+03  0.00000000000E+00 0.  1.
         11    1    1    2    0    0 -0.13679838733E+03  0.13556549267E+03 -0.43331714241E+02  0.19740678569E+03  0.00000000000E+00 0. -1.
</event>
<event>
 6    1  0.8259171E-006  0.7907019E+02  0.7561462E-02  0.1331711E+00
         -1   -1    0    0    0  501 -0.00000000000E+00  0.00000000000E+00  0.10153807564E+03  0.10153807564E+03  0.00000000000E+00 0.  1.
          1   -1    0    0  501    0  0.00000000000E+00 -0.00000000000E+00 -0.15136054842E+03  0.15136054842E+03  0.00000000000E+00 0. -1.
          5    1    1    2  502    0  0.23702887882E+02  0.73096320527E+02 -0.50066575583E+02  0.91809767232E+02  0.41800000000E+01 0.  1.
         -5    1    1    2    0  502 -0.33063061884E+01 -0.19156187424E+02  0.41691324150E+02  0.46190151403E+02  0.41800000000E+01 0.  1.
        -11    1    1    2    0    0 -0.19950358528E+02 -0.23374686066E+02  0.26380443407E+02  0.40500870959E+02  0.00000000000E+00 0.  1.
         11    1    1    2    0    0 -0.44622316571E+00 -0.30565447037E+02 -0.67827664753E+02  0.74397834468E+02  0.00000000000E+00 0. -1.
</event>
<event>
 6    1  0.8259171E-006  0.9931063E+02  0.7561462E-02  0.1281752E+00
          1   -1    0    0  501    0  0.00000000000E+00  0.00000000000E+00  0.98687202339E+02  0.98687202339E+02  0.00000000000E+00 0. -1.
         -1   -1    0    0    0  501 -0.00000000000E+00 -0.00000000000E+00 -0.21765920767E+03  0.21765920767E+03  0.00000000000E+00 0.  1.
          5    1    1    2  502    0 -0.20533297850E+02  0.67686544609E+02  0.46196090332E+01  0.71006322460E+02  0.41800000000E+01 0. -1.
         -5    1    1    2    0  502  0.23313131739E+02  0.21362927467E+02 -0.11182730831E+03  0.11628712768E+03  0.41800000000E+01 0. -1.
        -11    1    1    2    0    0 -0.18387513097E+02 -0.34041220789E+02  0.37275016003E+02  0.53724595565E+02  0.00000000000E+00 0. -1.
         11    1    1    2    0    0  0.15607679207E+02 -0.55008251287E+02 -0.49039322054E+02  0.75328364296E+02  0.00000000000E+00 0.  1.
</event>
<event>
 6    1  0.8259171E-006  0.1027322E+03  0.7561462E-02  0.1274653E+00
          2   -1    0    0  501    0  0.00000000000E+00  0.00000000000E+00  0.32391773186E+03  0.32391773186E+03  0.00000000000E+00 0. -1.
         -2   -1    0    0    0  501 -0.00000000000E+00 -0.00000000000E+00 -0.88767332092E+02  0.88767332092E+02  0.00000000000E+00 0.  1.
          5    1    1    2  502    0  0.40303602615E+02  0.14195884432E+02  0.17876241397E+02  0.46507374954E+02  0.41800000000E+01 0.  1.
         -5    1    1    2    0  502 -0.68372018187E+02 -0.19906241408E+02 -0.45973207728E+02  0.84864595367E+02  0.41800000000E+01 0.  1.
        -11    1    1    2    0    0  0.54659067284E+02 -0.15907590479E+02  0.21311464088E+03  0.22058675216E+03  0.00000000000E+00 0. -1.
         11    1    1    2    0    0 -0.26590651713E+02  0.21617947455E+02  0.50132725216E+02  0.60726341470E+02  0.00000000000E+00 0.  1.
</event>
<event>
 6    1  0.8259171E-006  0.9454332E+02  0.7561462E-02  0.1292208E+00
          1   -1    0    0  501    0  0.00000000000E+00  0.00000000000E+00  0.64908868049E+02  0.64908868049E+02  0.00000000000E+00 0. -1.
         -1   -1    0    0    0  501 -0.00000000000E+00 -0.00000000000E+00 -0.25065761644E+03  0.25065761644E+03  0.00000000000E+00 0.  1.
          5    1    1    2  502    0  0.58998843538E+02 -0.50405672558E+02 -0.45874801304E+02  0.90241704104E+02  0.41800000000E+01 0.  1.
         -5    1    1    2    0  502 -0.29840599851E+02  0.10158710978E+02 -0.11603268453E+03  0.12031091841E+03  0.41800000000E+01 0.  1.
        -11    1    1    2    0    0  0.15779857582E+02  0.29370752767E+02 -0.43470231218E+02  0.54784176781E+02  0.00000000000E+00 0.  1.
         11    1    1    2    0    0 -0.44938101270E+02  0.10876208814E+02  0.19628968666E+02  0.50229685195E+02  0.00000000000E+00 0. -1.
</event>
<event>
 6    1  0.8259171E-006  0.4596270E+03  0.7561462E-02  0.1024889E+00
          2   -1    0    0  501    0  0.00000000000E+00  0.00000000000E+00  0.59913363765E+03  0.59913363765E+03  0.00000000000E+00 0. -1.
         -2   -1    0    0    0  501 -0.00000000000E+00 -0.00000000000E+00 -0.40157664951E+03  0.40157664951E+03  0.00000000000E+00 0.  1.
          5    1    1    2  502    0  0.18317574518E+03 -0.22208091248E+03 -0.76164538062E+02  0.29781167635E+03  0.41800000000E+01 0. -1.
         -5    1    1    2    0  502  0.53535855164E+02 -0.16649451371E+03  0.25462130567E+02  0.17678321011E+03  0.41800000000E+01 0. -1.
        -11    1    1    2    0    0 -0.19498984350E+03  0.29103459979E+03  0.14850910448E+03  0.38049590202E+03  0.00000000000E+00 0.  1.
         11    1    1    2    0    0 -0.41721756841E+02  0.97540826408E+02  0.99750291158E+02  0.14561949868E+03  0.00000000000E+00 0. -1.
</event>
<event>
 6    1  0.8259171E-006  0.1134382E+03  0.7561462E-02  0.1254332E+00
          1   -1    0    0  501    0  0.00000000000E+00  0.00000000000E+00  0.41296777916E+03  0.41296777916E+03  0.00000000000E+00 0. -1.
         -1   -1    0    0    0  501 -0.00000000000E+00 -0.00000000000E+00 -0.49975669312E+02  0.49975669312E+02  0.00000000000E+00 0.  1.
          5    1    1    2  502    0 -0.96730411678E+01  0.10414417989E+02 -0.15298859397E+02  0.21296838411E+02  0.41800000000E+01 0. -1.
         -5    1    1    2    0  502 -0.83766214514E+02 -0.19863484459E+02  0.22035467273E+03  0.23661147669E+03  0.41800000000E+01 0. -1.
        -11    1    1    2    0    0  0.10217584500E+03 -0.11838852845E+02  0.10342336834E+03  0.14586450856E+03  0.00000000000E+00 0.  1.
         11    1    1    2    0    0 -0.87365893220E+01  0.21287919316E+02  0.54512928169E+02  0.59170624801E+02  0.00000000000E+00 0. -1.
</event>
<event>
 6    1  0.8259171E-006  0.1523817E+03  0.7561462E-02  0.1197577E+00
         -1   -1    0    0    0  501 -0.00000000000E+00  0.00000000000E+00  0.34405096777E+02  0.34405096777E+02  0.00000000000E+00 0. -1.
          1   -1    0    0  501    0  0.00000000000E+00 -0.00000000000E+00 -0.91884900775E+03  0.91884900775E+03  0.00000000000E+00 0.  1.
          5    1    1    2  502    0 -0.72124305330E+02 -0.92189754989E+02 -0.24130636854E+03  0.26822957004E+03  0.41800000000E+01 0.  1.
         -5    1    1    2    0  502 -0.43034207362E+02  0.17828586971E+02 -0.30913441568E+03  0.31265214037E+03  0.41800000000E+01 0.  1.
        -11    1    1    2    0    0  0.74311120542E+02  0.28846943774E+02 -0.87369610226E+02  0.11826976618E+03  0.00000000000E+00 0. -1.
         11    1    1    2    0    0  0.40847392150E+02  0.45514224244E+02 -0.24663351653E+03  0.25410262795E+03  0.00000000000E+00 0.  1.
</event>
<event>
 6    1  0.8259171E-006  0.1527644E+03  0.7561462E-02  0.1197117E+00
          2   -1    0    0  501    0  0.00000000000E+00  0.00000000000E+00  0.50799379446E+03  0.50799379446E+03  0.00000000000E+00 0. -1.
         -2   -1    0    0    0  501 -0.00000000000E+00 -0.00000000000E+00 -0.51710422991E+02  0.51710422991E+02  0.00000000000E+00 0.  1.
          5    1    1    2  502    0 -0.82757038210E+02  0.53213638495E+02  0.94708665618E+02  0.13662950793E+03  0.41800000000E+01 0.  1.
         -5    1    1    2    0  502  0.35455894487E+02  0.56468404704E+02  0.13794012091E+03  0.15326692579E+03  0.41800000000E+01 0.  1.
        -11    1    1    2    0    0  0.39147764441E+02 -0.10236549115E+02  0.25118193188E+02  0.47626232556E+02  0.00000000000E+00 0.  1.
         11    1    1    2    0    0  0.81533792819E+01 -0.99445494084E+02  0.19851639175E+03  0.22218155117E+03  0.00000000000E+00 0. -1.
</event>
<event>
 6    1  0.8259171E-006  0.4404142E+03  0.7561462E-02  0.1030620E+00
         -2   -1    0    0    0  501 -0.00000000000E+00  0.00000000000E+00  0.42778185252E+03  0.42778185252E+03  0.00000000000E+00 0.  1.
          2   -1    0    0  501    0  0.00000000000E+00 -0.00000000000E+00 -0.49324867506E+03  0.49324867506E+03  0.00000000000E+00 0. -1.
          5    1    1    2  502    0  0.15653207976E+03 -0.20501909816E+03  0.92809678216E+02  0.27416460635E+03  0.41800000000E+01 0.  1.
         -5    1    1    2    0  502 -0.14157539110E+02  0.24860101389E+00 -0.88457620315E+01  0.17210973884E+02  0.41800000000E+01 0.  1.
        -11    1    1    2    0    0  0.10684725117E+03  0.31717554809E+03 -0.11599765812E+03  0.35422043994E+03  0.00000000000E+00 0. -1.
         11    1    1    2    0    0 -0.24922179181E+03 -0.11240505094E+03 -0.33433080610E+02  0.27543450740E+03  0.00000000000E+00 0.  1.
</event>
<event>
 6    1  0.8259171E-006  0.8890353E+02  0.7561462E-02  0.1305529E+00
         -2   -1    0    0    0  501 -0.00000000000E+00  0.00000000000E+00  0.93058350474E+02  0.93058350474E+02  0.00000000000E+00 0.  1.
          2   -1    0    0  501    0  0.00000000000E+00 -0.00000000000E+00 -0.13649467425E+03  0.13649467425E+03  0.00000000000E+00 0. -1.
          5    1    1    2  502    0 -0.11604467317E+02 -0.30228151321E+02  0.37161847829E+02  0.49465949177E+02  0.41800000000E+01 0. -1.
         -5    1    1    2    0  502 -0.14320609365E+02  0.49830573223E+02 -0.64058595812E+02  0.82517525276E+02  0.41800000000E+01 0. -1.
        -11    1    1    2    0    0  0.66965119788E+00  0.33938441999E+02 -0.17859012063E+02  0.38356363096E+02  0.00000000000E+00 0.  1.
         11    1    1    2    0    0  0.25255425484E+02 -0.53540863901E+02  0.13194362667E+01  0.59213187178E+02  0.00000000000E+00 0. -1.
</event>
<event>
 6    1  0.8259171E-006  0.3846639E+03  0.7561462E-02  0.1049223E+00
          1   -1    0    0  501    0  0.00000000000E+00  0.00000000000E+00  0.41413875669E+03  0.41413875669E+03  0.00000000000E+00 0. -1.
         -1   -1    0    0    0  501 -0.00000000000E+00 -0.00000000000E+00 -0.38878013517E+03  0.38878013517E+03  0.00000000000E+00 0.  1.
          5    1    1    2  502    0  0.22616894910E+02  0.80646662354E+01 -0.30563032269E+02  0.39091356057E+02  0.41800000000E+01 0. -1.
         -5    1    1    2    0  502  0.35312238660E+03  0.62878595531E+02  0.81126792086E+02  0.36776101817E+03  0.41800000000E+01 0.  1.
        -11    1    1    2    0    0 -0.16779803969E+03 -0.59367045259E+02  0.30258986665E+02  0.18054427286E+03  0.00000000000E+00 0. -1.
         11    1    1    2    0    0 -0.20794124182E+03 -0.11576216508E+02 -0.55464124969E+02  0.21552224478E+03  0.00000000000E+00 0.  1.
</event>
<event>
 6    1  0.8259171E-006  0.1086680E+03  0.7561462E-02  0.1263057E+00
          1   -1    0    0  501    0  0.00000000000E+00  0.00000000000E+00  0.44009643661E+03  0.44009643661E+03  0.00000000000E+00 0. -1.
         -1   -1    0    0    0  501 -0.00000000000E+00 -0.00000000000E+00 -0.31464842568E+02  0.31464842568E+02  0.00000000000E+00 0.  1.
          5    1    1    2  502    0  0.28520609768E+02  0.57422191572E+02  0.11875454238E+03  0.13502165382E+03  0.41800000000E+01 0. -1.
         -5    1    1    2    0  502  0.20057712311E+01 -0.58121551386E+02  0.47124556448E+02  0.74968887374E+02  0.41800000000E+01 0. -1.
        -11    1    1    2    0    0 -0.25107567686E+02  0.44258240782E+02  0.16001359853E+03  0.16790930155E+03  0.00000000000E+00 0. -1.
         11    1    1    2    0    0 -0.54188133128E+01 -0.43558880969E+02  0.82738896694E+02  0.93661436435E+02  0.00000000000E+00 0.  1.
</event>
<event>
 6    1  0.8259171E-006  0.2295100E+03  0.7561462E-02  0.1126985E+00
         -1   -1    0    0    0  501 -0.00000000000E+00  0.00000000000E+00  0.29215837762E+03  0.29215837762E+03  0.00000000000E+00 0.  1.
          1   -1    0    0  501    0  0.00000000000E+00 -0.00000000000E+00 -0.24739364655E+03  0.24739364655E+03  0.00000000000E+00 0. -1.
          5    1    1    2  502    0  0.57322834122E+02  0.20741995284E+02 -0.23237797430E+02  0.65372817819E+02  0.41800000000E+01 0.  1.
         -5    1    1    2    0  502  0.16309017697E+03  0.27049442987E+02  0.14452038586E+03  0.21962170321E+03  0.41800000000E+01 0.  1.
        -11    1    1    2    0    0 -0.14826014913E+03 -0.43483156325E+01 -0.12658931314E+02  0.14886311904E+03  0.00000000000E+00 0.  1.
         11    1    1    2    0    0 -0.72152861960E+02 -0.43443122638E+02 -0.63858926045E+02  0.10569438409E+03  0.00000000000E+00 0. -1.
</event>
<event>
 6    1  0.8259171E-006  0.1221027E+03  0.7561462E-02  0.1239668E+00
         -3   -1    0    0    0  501 -0.00000000000E+00  0.00000000000E+00  0.23768829937E+03  0.23768829937E+03  0.00000000000E+00 0.  1.
          3   -1    0    0  501    0  0.00000000000E+00 -0.00000000000E+00 -0.84338539538E+02  0.84338539538E+02  0.00000000000E+00 0. -1.
          5    1    1    2  502    0 -0.10338266796E+02 -0.44251296560E+02  0.47576685155E+02  0.65924732672E+02  0.41800000000E+01 0.  1.
         -5    1    1    2    0  502  0.84997950734E+02  0.52923962735E+02  0.94364233446E+02  0.13765056634E+03  0.41800000000E+01 0.  1.
        -11    1    1    2    0    0 -0.42001066720E+02  0.27047080787E+02 -0.26888607817E+02  0.56732983484E+02  0.00000000000E+00 0.  1.
         11    1    1    2    0    0 -0.32658617219E+02 -0.35719746962E+02  0.38297449050E+02  0.61718556411E+02  0.00000000000E+00 0. -1.
</event>
<event>
 6    1  0.8259171E-006  0.8453149E+02  0.7561462E-02  0.1316662E+00
         -2   -1    0    0    0  501 -0.00000000000E+00  0.00000000000E+00  0.74326056550E+03  0.74326056550E+03  0.00000000000E+00 0.  1.
          2   -1    0    0  501    0  0.00000000000E+00 -0.00000000000E+00 -0.62263005935E+02  0.62263005935E+02  0.00000000000E+00 0. -1.
          5    1    1    2  502    0  0.47473137316E+02  0.68944073721E+02  0.11865980715E+03  0.14527424514E+03  0.41800000000E+01 0. -1.
         -5    1    1    2    0  502 -0.37004096409E+02 -0.47015319980E+02  0.60617278049E+03  0.60913270777E+03  0.41800000000E+01 0.  1.
        -11    1    1    2    0    0 -0.21802383855E+01 -0.12632430947E+02 -0.29259305611E+02  0.31944306470E+02  0.00000000000E+00 0. -1.
         11    1    1    2    0    0 -0.82888025218E+01 -0.92963227942E+01 -0.14575722458E+02  0.19172312065E+02  0.00000000000E+00 0.  1.
</event>
<event>
 6    1  0.8259171E-006  0.1207564E+03  0.7561462E-02  0.1241854E+00
         -1   -1    0    0    0  501 -0.00000000000E+00  0.00000000000E+00  0.37838504162E+03  0.37838504162E+03  0.00000000000E+00 0.  1.
          1   -1    0    0  501    0  0.00000000000E+00 -0.00000000000E+00 -0.54301765312E+02  0.54301765312E+02  0.00000000000E+00 0. -1.
          5    1    1    2  502    0  0.63262534865E+02 -0.68010870545E+02  0.18909984145E+03  0.21072220877E+03  0.41800000000E+01 0. -1.
         -5    1    1    2    0  502 -0.37961260399E+02 -0.20941939174E+02  0.15355448224E+02  0.46183160325E+02  0.41800000000E+01 0. -1.
        -11    1    1    2    0    0 -0.40459404966E+02  0.61422134888E+02  0.27639020940E+02  0.78571989811E+02  0.00000000000E+00 0.  1.
         11    1    1    2    0    0  0.15158130500E+02  0.27530674832E+02  0.91988965690E+02  0.97209448026E+02  0.00000000000E+00 0. -1.
</event>
<event>
 6    1  0.8259171E-006  0.1282429E+03  0.7561462E-02  0.1230087E+00
          2   -1    0    0  501    0  0.00000000000E+00  0.00000000000E+00  0.16890333537E+03  0.16890333537E+03  0.00000000000E+00 0. -1.
         -2   -1    0    0    0  501 -0.00000000000E+00 -0.00000000000E+00 -0.12980367894E+03  0.12980367894E+03  0.00000000000E+00 0.  1.
          5    1    1    2  502    0 -0.10916504857E+03  0.57245622518E+01 -0.15091718517E+02  0.11043102286E+03  0.41800000000E+01 0. -1.
         -5    1    1    2    0  502  0.31945233878E+02  0.16709481128E+02 -0.23377980408E+02  0.43170674017E+02  0.41800000000E+01 0. -1.
        -11    1    1    2    0    0  0.74409568402E+01 -0.38484146162E+02 -0.46469887987E+00  0.39199659305E+02  0.00000000000E+00 0.  1.
         11    1    1    2    0    0  0.69778857850E+02  0.16050102783E+02  0.78034054238E+02  0.10590565813E+03  0.00000000000E+00 0. -1.
</event>
<event>
 6    1  0.8259171E-006  0.9783535E+02  0.7561462E-02  0.1284915E+00
         -2   -1    0    0    0  501 -0.00000000000E+00  0.00000000000E+00  0.21604616167E+02  0.21604616167E+02  0.00000000000E+00 0.  1.
          2   -1    0    0  501    0  0.00000000000E+00 -0.00000000000E+00 -0.58062976196E+03  0.58062976196E+03  0.00000000000E+00 0. -1.
          5    1    1    2  502    0 -0.49412162805E+02 -0.10788592627E+02 -0.19091031962E+03  0.19754032019E+03  0.41800000000E+01 0.  1.
         -5    1    1    2    0  502  0.54279822122E+02  0.17442622972E+02 -0.59592568733E+02  0.82578997536E+02  0.41800000000E+01 0.  1.
        -11    1    1    2    0    0  0.52616650058E+01  0.39832314177E+02 -0.91399041682E+02  0.99840288419E+02  0.00000000000E+00 0. -1.
         11    1    1    2    0    0 -0.10129324323E+02 -0.46486344522E+02 -0.21712321576E+03  0.22227477199E+03  0.00000000000E+00 0.  1.
</event>
<event>
 6    1  0.8259171E-006  0.1119090E+03  0.7561462E-02  0.1257075E+00
          1   -1    0    0  501    0  0.00000000000E+00  0.00000000000E+00  0.13072629815E+02  0.13072629815E+02  0.00000000000E+00 0. -1.
         -1   -1    0    0    0  501 -0.00000000000E+00 -0.00000000000E+00 -0.13263306216E+04  0.13263306216E+04  0.00000000000E+00 0.  1.
          5    1    1    2  502    0 -0.69367331619E+02 -0.34185754570E+01 -0.74579595101E+03  0.74903443599E+03  0.41800000000E+01 0.  1.
         -5    1    1    2    0  502  0.35879827784E+02  0.40210653761E+02 -0.24769841837E+03  0.25352758742E+03  0.41800000000E+01 0.  1.
        -11    1    1    2    0    0 -0.18728128703E+02 -0.43674349460E+02 -0.20699973256E+03  0.21238427646E+03  0.00000000000E+00 0.  1.
         11    1    1    2    0    0  0.52215632537E+02  0.68822711553E+01 -0.11276388984E+03  0.12445695155E+03  0.00000000000E+00 0. -1.
</event>
<event>
 6    1  0.8259171E-006  0.7510018E+02  0.7561462E-02  0.1343561E+00
          1   -1    0    0  501    0  0.00000000000E+00  0.00000000000E+00  0.79866550040E+02  0.79866550040E+02  0.00000000000E+00 0. -1.
         -1   -1    0    0    0  501 -0.00000000000E+00 -0.00000000000E+00 -0.13626452469E+03  0.13626452469E+03  0.00000000000E+00 0.  1.
          5    1    1    2  502    0 -0.31507355946E+02  0.12731455547E+02 -0.76447970169E+02  0.83764956766E+02  0.41800000000E+01 0. -1.
         -5    1    1    2    0  502  0.34359685467E+02 -0.17728510018E+02  0.17946732618E+02  0.42830429189E+02  0.41800000000E+01 0.  1.
        -11    1    1    2    0    0 -0.39878646847E+02  0.30576459461E+01  0.23834968084E+02  0.46559224400E+02  0.00000000000E+00 0. -1.
         11    1    1    2    0    0  0.37026317326E+02  0.19394085247E+01 -0.21731705189E+02  0.42976464380E+02  0.00000000000E+00 0.  1.
</event>
<event>
 6    1  0.8259171E-006  0.1161987E+03  0.7561462E-02  0.1249503E+00
         -1   -1    0    0    0  501 -0.00000000000E+00  0.00000000000E+00  0.25313245856E+03  0.25313245856E+03  0.00000000000E+00 0.  1.
          1   -1    0    0  501    0  0.00000000000E+00 -0.00000000000E+00 -0.67490375690E+02  0.67490375690E+02  0.00000000000E+00 0. -1.
          5    1    1    2  502    0  0.24816295426E+02  0.35169513288E+02  0.36182800381E+02  0.56386262751E+02  0.41800000000E+01 0. -1.
         -5    1    1    2    0  502 -0.69410969787E+02 -0.53460304363E+02  0.13604853214E+03  0.16187205554E+03  0.41800000000E+01 0. -1.
        -11    1    1    2    0    0  0.63027104175E+02 -0.13718287322E+02  0.99524631565E+01  0.65266061553E+02  0.00000000000E+00 0.  1.
         11    1    1    2    0    0 -0.18432429814E+02  0.32009078397E+02  0.34582871964E+01  0.37098454402E+02  0.00000000000E+00 0. -1.
</event>
<event>
 6    1  0.8259171E-006  0.1222081E+03  0.7561462E-02  0.1239498E+00
         -1   -1    0    0    0  501 -0.00000000000E+00  0.00000000000E+00  0.12473791220E+02  0.12473791220E+02  0.00000000000E+00 0.  1.
          1   -1    0    0  501    0  0.00000000000E+00 -0.00000000000E+00 -0.12327406181E+04  0.12327406181E+04  0.00000000000E+00 0. -1.
          5    1    1    2  502    0 -0.38804209561E+02  0.80311153525E+02 -0.46418046307E+03  0.47269083211E+03  0.41800000000E+01 0.  1.
         -5    1    1    2    0  502 -0.12562924569E+02 -0.46051548174E+02 -0.16813751547E+03  0.17483211568E+03  0.41800000000E+01 0.  1.
        -11    1    1    2    0    0  0.21024423059E+02 -0.62385887836E+02 -0.34010181538E+03  0.34641488160E+03  0.00000000000E+00 0.  1.
         11    1    1    2    0    0  0.30342711070E+02  0.28126282485E+02 -0.24784703291E+03  0.25127657989E+03  0.00000000000E+00 0. -1.
</event>
<event>
 6    1  0.8259171E-006  0.9470325E+02  0.7561462E-02  0.1291846E+00
         -2   -1    0    0    0  501 -0.00000000000E+00  0.00000000000E+00  0.21013482570E+02  0.21013482570E+02  0.00000000000E+00 0.  1.
          2   -1    0    0  501    0  0.00000000000E+00 -0.00000000000E+00 -0.75273452895E+03  0.75273452895E+03  0.00000000000E+00 0. -1.
          5    1    1    2  502    0  0.23839389869E+02  0.39249537104E+02 -0.35265444335E+02  0.58051413733E+02  0.41800000000E+01 0.  1.
         -5    1    1    2    0  502 -0.26061459138E+02  0.22797650774E+02 -0.35018743227E+03  0.35191993785E+03  0.41800000000E+01 0.  1.
        -11    1    1    2    0    0  0.44010704412E+02 -0.17568637092E+02 -0.19467686003E+03  0.20036137089E+03  0.00000000000E+00 0. -1.
         11    1    1    2    0    0 -0.41788635143E+02 -0.44478550786E+02 -0.15159130974E+03  0.16341528905E+03  0.00000000000E+00 0.  1.
</event>
<event>
 6    1  0.8259171E-006  0.1593942E+03  0.7561462E-02  0.1189382E+00
         -2   -1    0    0    0  501 -0.00000000000E+00  0.00000000000E+00  0.98233299266E+02  0.98233299266E+02  0.00000000000E+00 0.  1.
          2   -1    0    0  501    0  0.00000000000E+00 -0.00000000000E+00 -0.52215356695E+03  0.52215356695E+03  0.00000000000E+00 0. -1.
          5    1    1    2  502    0  0.72699984634E+02 -0.73427075314E+02  0.30488985686E+02  0.10781407052E+03  0.41800000000E+01 0.  1.
         -5    1    1    2    0  502  0.56973076976E+02  0.25073812943E+01 -0.68986410279E+02  0.89603658766E+02  0.41800000000E+01 0.  1.
        -11    1    1    2    0    0 -0.71785021679E+02  0.70049148888E+02 -0.32123504553E+03  0.33652923658E+03  0.00000000000E+00 0.  1.
         11    1    1    2    0    0 -0.57888039931E+02  0.87054513193E+00 -0.64187797570E+02  0.86439900351E+02  0.00000000000E+00 0. -1.
</event>
<event>
 6    1  0.8259171E-006  0.1062221E+03  0.7561462E-02  0.1267730E+00
         -2   -1    0    0    0  501 -0.00000000000E+00  0.00000000000E+00  0.24696046836E+03  0.24696046836E+03  0.00000000000E+00 0.  1.
          2   -1    0    0  501    0  0.00000000000E+00 -0.00000000000E+00 -0.58747864287E+02  0.58747864287E+02  0.00000000000E+00 0. -1.
          5    1    1    2  502    0  0.30195891803E+02  0.33311155388E+02  0.35415583518E+02  0.57386068962E+02  0.41800000000E+01 0.  1.
         -5    1    1    2    0  502 -0.28619647913E+02 -0.85735305376E+02  0.69746980588E+02  0.11424421445E+03  0.41800000000E+01 0.  1.
        -11    1    1    2    0    0 -0.28793933892E+02  0.24407419534E+02 -0.46891970404E+01  0.38036841696E+02  0.00000000000E+00 0. -1.
         11    1    1    2    0    0  0.27217690003E+02  0.28016730454E+02  0.87739237008E+02  0.96041207537E+02  0.00000000000E+00 0.  1.
</event>
<event>
 6    1  0.8259171E-006  0.6540648E+02  0.7561462E-02  0.1376449E+00
         -2   -1    0    0    0  501 -0.00000000000E+00  0.00000000000E+00  0.39804343553E+02  0.39804343553E+02  0.00000000000E+00 0.  1.
          2   -1    0    0  501    0  0.00000000000E+00 -0.00000000000E+00 -0.31124666548E+03  0.31124666548E+03  0.00000000000E+00 0. -1.
          5    1    1    2  502    0  0.91341322798E+01 -0.15445871546E+02 -0.13924558228E+03  0.14045928914E+03  0.41800000000E+01 0. -1.
         -5    1    1    2    0  502 -0.31707708513E+02  0.19650953803E+02  0.12040379064E+02  0.39420577019E+02  0.41800000000E+01 0. -1.
        -11    1    1    2    0    0  0.40620378728E+02  0.19499845937E+02 -0.13106941258E+03  0.13859816042E+03  0.00000000000E+00 0. -1.
         11    1    1    2    0    0 -0.18046802495E+02 -0.23704928194E+02 -0.13167706133E+02  0.32572982452E+02  0.00000000000E+00 0.  1.
</event>
<event>
 6    1  0.8259171E-006  0.1082591E+03  0.7561462E-02  0.1263828E+00
         -2   -1    0    0    0  501 -0.00000000000E+00  0.00000000000E+00  0.15410143838E+02  0.15410143838E+02  0.00000000000E+00 0.  1.
          2   -1    0    0  501    0  0.00000000000E+00 -0.00000000000E+00 -0.11699433898E+04  0.11699433898E+04  0.00000000000E+00 0. -1.
          5    1    1    2  502    0 -0.80823766210E+02 -0.50122123834E+02 -0.75054217039E+03  0.75655517341E+03  0.41800000000E+01 0. -1.
         -5    1    1    2    0  502  0.53134418364E+01  0.22723728109E+02 -0.31163201242E+02  0.39156327650E+02  0.41800000000E+01 0. -1.
        -11    1    1    2    0    0  0.22241902621E+00  0.22142428889E+02 -0.23639255380E+02  0.32390600831E+02  0.00000000000E+00 0.  1.
         11    1    1    2    0    0  0.75287905347E+02  0.52559668362E+01 -0.34918861892E+03  0.35725143171E+03  0.00000000000E+00 0. -1.
</event>
<event>
 6    1  0.8259171E-006  0.9265703E+02  0.7561462E-02  0.1296542E+00
         -2   -1    0    0    0  501 -0.00000000000E+00  0.00000000000E+00  0.19235634229E+03  0.19235634229E+03  0.00000000000E+00 0.  1.
          2   -1    0    0  501    0  0.00000000000E+00 -0.00000000000E+00 -0.83256251505E+02  0.83256251505E+02  0.00000000000E+00 0. -1.
          5    1    1    2  502    0  0.63261550191E+01 -0.88400672703E+02  0.85344618544E+02  0.12310920147E+03  0.41800000000E+01 0. -1.
         -5    1    1    2    0  502 -0.21224131107E+02  0.35983692768E+02  0.94549776295E+01  0.43036715586E+02  0.41800000000E+01 0. -1.
        -11    1    1    2    0    0  0.90142658476E+01  0.25365929123E+02  0.54425035373E+02  0.60718793008E+02  0.00000000000E+00 0.  1.
         11    1    1    2    0    0  0.58837102406E+01  0.27051050813E+02 -0.40124540766E+02  0.48747883728E+02  0.00000000000E+00 0. -1.
</event>
<event>
 6    1  0.2014969E-005  0.1462432E+03  0.7561462E-02  0.1205167E+00
          2   -1    0    0  501    0  0.00000000000E+00  0.00000000000E+00  0.18271656682E+04  0.18271656682E+04  0.00000000000E+00 0. -1.
         -2   -1    0    0    0  501 -0.00000000000E+00 -0.00000000000E+00 -0.15896579637E+02  0.15896579637E+02  0.00000000000E+00 0.  1.
          5    1    1    2  502    0  0.26564966979E+02 -0.57072984694E+01  0.63826987259E+03  0.63886162303E+03  0.41800000000E+01 0. -1.
         -5    1    1    2    0  502  0.84353058918E+02 -0.63063665624E+02  0.33973106770E+03  0.35570652965E+03  0.41800000000E+01 0. -1.
        -11    1    1    2    0    0 -0.91809856815E+02  0.38207420169E+01  0.51009305834E+03  0.51830355589E+03  0.00000000000E+00 0.  1.
         11    1    1    2    0    0 -0.19108169082E+02  0.64950222076E+02  0.32317508995E+03  0.33019053929E+03  0.00000000000E+00 0. -1.
</event>
<event>
 6    1  0.8259171E-006  0.1023167E+03  0.7561462E-02  0.1275498E+00
          1   -1    0    0  501    0  0.00000000000E+00  0.00000000000E+00  0.24443544537E+03  0.24443544537E+03  0.00000000000E+00 0. -1.
         -1   -1    0    0    0  501 -0.00000000000E+00 -0.00000000000E+00 -0.67721331857E+02  0.67721331857E+02  0.00000000000E+00 0.  1.
          5    1    1    2  502    0  0.36691849198E+02 -0.44011106110E+02  0.28315593367E+02  0.64050874204E+02  0.41800000000E+01 0. -1.
         -5    1    1    2    0  502 -0.51227559001E+02  0.88903464833E+01 -0.18008438341E+02  0.55182219176E+02  0.41800000000E+01 0.  1.
        -11    1    1    2    0    0  0.19757494261E+02  0.63325579522E+02  0.13482006972E+03  0.15025624380E+03  0.00000000000E+00 0.  1.
         11    1    1    2    0    0 -0.52217844590E+01 -0.28204819896E+02  0.31586888773E+02  0.42667440053E+02  0.00000000000E+00 0. -1.
</event>
<event>
 6    1  0.8259171E-006  0.1120632E+03  0.7561462E-02  0.1256796E+00
         -4   -1    0    0    0  501 -0.00000000000E+00  0.00000000000E+00  0.26943012935E+03  0.26943012935E+03  0.00000000000E+00 0.  1.
          4   -1    0    0  501    0  0.00000000000E+00 -0.00000000000E+00 -0.49005938326E+02  0.49005938326E+02  0.00000000000E+00 0. -1.
          5    1    1    2  502    0 -0.25722947764E+02  0.47264386978E+02  0.26889782665E+02  0.60300291292E+02  0.41800000000E+01 0. -1.
         -5    1    1    2    0  502  0.61917851883E+02 -0.36156102201E+02  0.89068047933E+02  0.11441885190E+03  0.41800000000E+01 0. -1.
        -11    1    1    2    0    0 -0.62828445809E+02 -0.25793094222E+02  0.77739064826E+02  0.10322819146E+03  0.00000000000E+00 0. -1.
         11    1    1    2    0    0  0.26633541690E+02  0.14684809445E+02  0.26727295596E+02  0.40488733016E+02  0.00000000000E+00 0.  1.
</event>
<event>
 6    1  0.8259171E-006  0.1111475E+03  0.7561462E-02  0.1258460E+00
         -2   -1    0    0    0  501 -0.00000000000E+00  0.00000000000E+00  0.74538871935E+03  0.74538871935E+03  0.00000000000E+00 0.  1.
          2   -1    0    0  501    0  0.00000000000E+00 -0.00000000000E+00 -0.18962587714E+02  0.18962587714E+02  0.00000000000E+00 0. -1.
          5    1    1    2  502    0  0.68974289808E+02  0.49688582330E+02  0.36987292486E+03  0.37953901092E+03  0.41800000000E+01 0. -1.
         -5    1    1    2    0  502 -0.33866536848E+02 -0.24679297729E+02  0.97632088293E+02  0.10632735828E+03  0.41800000000E+01 0. -1.
        -11    1    1    2    0    0  0.61302017365E+01 -0.47639287603E+02  0.18277763665E+03  0.18898345313E+03  0.00000000000E+00 0.  1.
         11    1    1    2    0    0 -0.41237954696E+02  0.22630003003E+02  0.76143481825E+02  0.89501484724E+02  0.00000000000E+00 0. -1.
</event>
<event>
 6    1  0.8259171E-006  0.2461424E+03  0.7561462E-02  0.1115767E+00
         -1   -1    0    0    0  501 -0.00000000000E+00  0.00000000000E+00  0.46885993212E+03  0.46885993212E+03  0.00000000000E+00 0.  1.
          1   -1    0    0  501    0  0.00000000000E+00 -0.00000000000E+00 -0.18025516485E+03  0.18025516485E+03  0.00000000000E+00 0. -1.
          5    1    1    2  502    0  0.17780099170E+02  0.92477756071E+02  0.40687803904E+02  0.10267052684E+03  0.41800000000E+01 0. -1.
         -5    1    1    2    0  502 -0.56227975512E+02  0.14127072163E+03  0.24995276111E+03  0.29259674846E+03  0.41800000000E+01 0. -1.
        -11    1    1    2    0    0  0.54324841569E+02 -0.12904890286E+03 -0.32334168874E+02  0.14370214410E+03  0.00000000000E+00 0. -1.
         11    1    1    2    0    0 -0.15876965227E+02 -0.10469957484E+03  0.30298371124E+02  0.11014567758E+03  0.00000000000E+00 0.  1.
</event>
<event>
 6    1  0.8259171E-006  0.9382899E+02  0.7561462E-02  0.1293835E+00
          2   -1    0    0  501    0  0.00000000000E+00  0.00000000000E+00  0.85174333088E+02  0.85174333088E+02  0.00000000000E+00 0. -1.
         -2   -1    0    0    0  501 -0.00000000000E+00 -0.00000000000E+00 -0.14589456250E+03  0.14589456250E+03  0.00000000000E+00 0.  1.
          5    1    1    2  502    0  0.35075698595E+02 -0.42397919690E+02 -0.15343581063E+01  0.55206112711E+02  0.41800000000E+01 0.  1.
         -5    1    1    2    0  502 -0.28203271170E+02  0.53031661092E+02 -0.59133570017E+02  0.84392138768E+02  0.41800000000E+01 0.  1.
        -11    1    1    2    0    0  0.29702513242E+02  0.86225212677E+01  0.27833967538E+02  0.41609096539E+02  0.00000000000E+00 0. -1.
         11    1    1    2    0    0 -0.36574940666E+02 -0.19256262670E+02 -0.27886268823E+02  0.49861547565E+02  0.00000000000E+00 0.  1.
</event>
<event>
 6    1  0.8259171E-006  0.9117638E+02  0.7561462E-02  0.1300028E+00
          2   -1    0    0  501    0  0.00000000000E+00  0.00000000000E+00  0.47494550229E+03  0.47494550229E+03  0.00000000000E+00 0. -1.
         -2   -1    0    0    0  501 -0.00000000000E+00 -0.00000000000E+00 -0.22395461226E+02  0.22395461226E+02  0.00000000000E+00 0.  1.
          5    1    1    2  502    0  0.15254593434E+02 -0.56697281644E+02  0.12414947935E+03  0.13739668842E+03  0.41800000000E+01 0. -1.
         -5    1    1    2    0  502 -0.19764952823E+02  0.51322515525E+02  0.96290568095E+02  0.11096846338E+03  0.41800000000E+01 0.  1.
        -11    1    1    2    0    0 -0.22656097991E+02  0.25808202339E+02  0.35289449988E+02  0.49241317657E+02  0.00000000000E+00 0.  1.
         11    1    1    2    0    0  0.27166457380E+02 -0.20433436220E+02  0.19682054363E+03  0.19973449406E+03  0.00000000000E+00 0. -1.
</event>
<event>
 6    1  0.8259171E-006  0.1151654E+03  0.7561462E-02  0.1251293E+00
          1   -1    0    0  501    0  0.00000000000E+00  0.00000000000E+00  0.61339093798E+03  0.61339093798E+03  0.00000000000E+00 0. -1.
         -1   -1    0    0    0  501 -0.00000000000E+00 -0.00000000000E+00 -0.29642508872E+02  0.29642508872E+02  0.00000000000E+00 0.  1.
          5    1    1    2  502    0 -0.14065606704E+02 -0.92934856793E+01 -0.26459105911E+01  0.17569388460E+02  0.41800000000E+01 0. -1.
         -5    1    1    2    0  502  0.66823811694E+02  0.69963496240E+02  0.29397996783E+03  0.30951899215E+03  0.41800000000E+01 0. -1.
        -11    1    1    2    0    0 -0.34500843437E+02 -0.81453525771E+02  0.18553699847E+03  0.20554552503E+03  0.00000000000E+00 0.  1.
         11    1    1    2    0    0 -0.18257361553E+02  0.20783515209E+02  0.10687737339E+03  0.11039954121E+03  0.00000000000E+00 0. -1.
</event>
<event>
 6    1  0.8259171E-006  0.2031703E+03  0.7561462E-02  0.1147091E+00
         -2   -1    0    0    0  501 -0.00000000000E+00  0.00000000000E+00  0.62429835369E+03  0.62429835369E+03  0.00000000000E+00 0.  1.
          2   -1    0    0  501    0  0.00000000000E+00 -0.00000000000E+00 -0.73403821464E+02  0.73403821464E+02  0.00000000000E+00 0. -1.
          5    1    1    2  502    0 -0.97263887738E+02 -0.13748929903E+02  0.13606156484E+03  0.16786756315E+03  0.41800000000E+01 0. -1.
         -5    1    1    2    0  502 -0.59790849025E+02  0.10743940147E+03  0.18977015393E+03  0.22616001932E+03  0.41800000000E+01 0. -1.
        -11    1    1    2    0    0  0.11700949834E+03 -0.83271522718E+02  0.21894837708E+03  0.26184682740E+03  0.00000000000E+00 0.  1.
         11    1    1    2    0    0  0.40045238428E+02 -0.10418948851E+02  0.61144363761E+01  0.41827765278E+02  0.00000000000E+00 0. -1.
</event>
<event>
 6    1  0.8259171E-006  0.1807112E+03  0.7561462E-02  0.1167117E+00
         -2   -1    0    0    0  501 -0.00000000000E+00  0.00000000000E+00  0.23941059742E+03  0.23941059742E+03  0.00000000000E+00 0.  1.
          2   -1    0    0  501    0  0.00000000000E+00 -0.00000000000E+00 -0.36484032911E+03  0.36484032911E+03  0.00000000000E+00 0. -1.
          5    1    1    2  502    0  0.94247358814E+02 -0.58945064298E+02  0.29088241680E+02  0.11498123087E+03  0.41800000000E+01 0. -1.
         -5    1    1    2    0  502  0.69603150753E+02  0.17856510336E+02  0.13012877261E+03  0.14870919076E+03  0.41800000000E+01 0. -1.
        -11    1    1    2    0    0 -0.15589628475E+03  0.21895012271E+02 -0.27663608751E+03  0.31829321085E+03  0.00000000000E+00 0. -1.
         11    1    1    2    0    0 -0.79542248223E+01  0.19193541691E+02 -0.80106584664E+01  0.22267294048E+02  0.00000000000E+00 0.  1.
</event>
<event>
 6    1  0.8259171E-006  0.1395195E+03  0.7561462E-02  0.1213977E+00
          3   -1    0    0  501    0  0.00000000000E+00  0.00000000000E+00  0.16446600731E+03  0.16446600731E+03  0.00000000000E+00 0. -1.
         -3   -1    0    0    0  501 -0.00000000000E+00 -0.00000000000E+00 -0.17741713253E+03  0.17741713253E+03  0.00000000000E+00 0.  1.
          5    1    1    2  502    0 -0.43827882833E+02  0.55270009350E+02 -0.83359484363E+02  0.10927915300E+03  0.41800000000E+01 0. -1.
         -5    1    1    2    0  502  0.21274476555E+02  0.65034414462E+02  0.28336706523E+02  0.74178971102E+02  0.41800000000E+01 0. -1.
        -11    1    1    2    0    0 -0.23960189493E+02 -0.31519238087E+02  0.42646892138E+02  0.58192013706E+02  0.00000000000E+00 0. -1.
         11    1    1    2    0    0  0.46513595772E+02 -0.88785185726E+02 -0.57523951742E+00  0.10023300203E+03  0.00000000000E+00 0.  1.
</event>
<event>
 6    1  0.8259171E-006  0.7448143E+02  0.7561462E-02  0.1345484E+00
         -2   -1    0    0    0  501 -0.00000000000E+00  0.00000000000E+00  0.13588960113E+02  0.13588960113E+02  0.00000000000E+00 0.  1.
          2   -1    0    0  501    0  0.00000000000E+00 -0.00000000000E+00 -0.81948059260E+03  0.81948059260E+03  0.00000000000E+00 0. -1.
          5    1    1    2  502    0 -0.50873638598E+01  0.26000723033E+02 -0.34041696211E+03  0.34147195985E+03  0.41800000000E+01 0. -1.
         -5    1    1    2    0  502  0.21895555091E+02 -0.15041765185E+02 -0.14268552902E+02  0.30442306656E+02  0.41800000000E+01 0.  1.
        -11    1    1    2    0    0 -0.51696807786E+02 -0.25267472882E+02 -0.27766342174E+03  0.28356301045E+03  0.00000000000E+00 0.  1.
         11    1    1    2    0    0  0.34888616555E+02  0.14308515034E+02 -0.17354269573E+03  0.17759227576E+03  0.00000000000E+00 0. -1.
</event>
<event>
 6    1  0.8259171E-006  0.1678195E+03  0.7561462E-02  0.1180141E+00
          2   -1    0    0  501    0  0.00000000000E+00  0.00000000000E+00  0.84326822015E+03  0.84326822015E+03  0.00000000000E+00 0.  1.
         -2   -1    0    0    0  501 -0.00000000000E+00 -0.00000000000E+00 -0.36970279077E+02  0.36970279077E+02  0.00000000000E+00 0. -1.
          5    1    1    2  502    0  0.94235431605E+02  0.11216717163E+02  0.18050806525E+03  0.20397736476E+03  0.41800000000E+01 0.  1.
         -5    1    1    2    0  502  0.14141862358E+02 -0.83681128148E+02  0.13138175405E+03  0.15646456844E+03  0.41800000000E+01 0.  1.
        -11    1    1    2    0    0 -0.12281892280E+03  0.60446590374E+02  0.38104523531E+03  0.40488732932E+03  0.00000000000E+00 0.  1.
         11    1    1    2    0    0  0.14441628837E+02  0.12017820612E+02  0.11336288646E+03  0.11490923672E+03  0.00000000000E+00 0. -1.
</event>
<event>
 6    1  0.8259171E-006  0.1261481E+03  0.7561462E-02  0.1233286E+00
          2   -1    0    0  501    0  0.00000000000E+00  0.00000000000E+00  0.36044383665E+03  0.36044383665E+03  0.00000000000E+00 0. -1.
         -2   -1    0    0    0  501 -0.00000000000E+00 -0.00000000000E+00 -0.13724843639E+03  0.13724843639E+03  0.00000000000E+00 0.  1.
          5    1    1    2  502    0  0.10936520673E+01 -0.15520690104E+02 -0.71355723422E+02  0.73151893763E+02  0.41800000000E+01 0. -1.
         -5    1    1    2    0  502  0.77224342346E+02 -0.73990317741E+02  0.15764162552E+02  0.10818570789E+03  0.41800000000E+01 0. -1.
        -11    1    1    2    0    0 -0.56788499058E+01  0.41943599553E+02  0.17965477812E+03  0.18457343845E+03  0.00000000000E+00 0. -1.
         11    1    1    2    0    0 -0.72639144507E+02  0.47567408292E+02  0.99132183006E+02  0.13178123293E+03  0.00000000000E+00 0.  1.
</event>
<event>
 6    1  0.8259171E-006  0.1271978E+03  0.7561462E-02  0.1231674E+00
         -2   -1    0    0    0  501 -0.00000000000E+00  0.00000000000E+00  0.79876721554E+03  0.79876721554E+03  0.00000000000E+00 0.  1.
          2   -1    0    0  501    0  0.00000000000E+00 -0.00000000000E+00 -0.23725190325E+02  0.23725190325E+02  0.00000000000E+00 0. -1.
          5    1    1    2  502    0 -0.59616906346E+02  0.65890542145E+02  0.43802503294E+03  0.44696659936E+03  0.41800000000E+01 0. -1.
         -5    1    1    2    0  502  0.45535531203E+02  0.81222386161E+01  0.95691928701E+02  0.10636669112E+03  0.41800000000E+01 0. -1.
        -11    1    1    2    0    0 -0.18445940927E+02 -0.83181239501E+02  0.17971388852E+03  0.19888804154E+03  0.00000000000E+00 0. -1.
         11    1    1    2    0    0  0.32527316069E+02  0.91684587404E+01  0.61611175061E+02  0.70271073841E+02  0.00000000000E+00 0.  1.
</event>
<event>
 6    1  0.8259171E-006  0.1115709E+03  0.7561462E-02  0.1257688E+00
         -2   -1    0    0    0  501 -0.00000000000E+00  0.00000000000E+00  0.25912660177E+02  0.25912660177E+02  0.00000000000E+00 0. -1.
          2   -1    0    0  501    0  0.00000000000E+00 -0.00000000000E+00 -0.59652921985E+03  0.59652921985E+03  0.00000000000E+00 0.  1.
          5    1    1    2  502    0  0.21358986552E+02  0.36846484048E+02 -0.35187807784E+02  0.55403284288E+02  0.41800000000E+01 0.  1.
         -5    1    1    2    0  502 -0.22272755708E+02 -0.76948698853E+02 -0.17417857641E+03  0.19176242276E+03  0.41800000000E+01 0.  1.
        -11    1    1    2    0    0  0.41743126837E+02 -0.15941126534E+01 -0.11982040097E+03  0.12689349204E+03  0.00000000000E+00 0. -1.
         11    1    1    2    0    0 -0.40829357681E+02  0.41696327458E+02 -0.24142977451E+03  0.24838268095E+03  0.00000000000E+00 0.  1.
</event>
<event>
 6    1  0.8259171E-006  0.1356273E+03  0.7561462E-02  0.1219337E+00
          1   -1    0    0  501    0  0.00000000000E+00  0.00000000000E+00  0.22892428286E+03  0.22892428286E+03  0.00000000000E+00 0. -1.
         -1   -1    0    0    0  501 -0.00000000000E+00 -0.00000000000E+00 -0.12547426683E+03  0.12547426683E+03  0.00000000000E+00 0.  1.
          5    1    1    2  502    0  0.29868622226E+02 -0.82189664391E+01 -0.41248218168E+02  0.51754940875E+02  0.41800000000E+01 0.  1.
         -5    1    1    2    0  502 -0.90520080383E+01  0.11159003823E+03  0.18090757514E+02  0.11348578496E+03  0.41800000000E+01 0.  1.
        -11    1    1    2    0    0 -0.47424107819E+02 -0.77437479513E+02  0.12145451490E+03  0.15164698621E+03  0.00000000000E+00 0. -1.
         11    1    1    2    0    0  0.26607493632E+02 -0.25933592273E+02  0.51529617796E+01  0.37510837643E+02  0.00000000000E+00 0.  1.
</event>
<event>
 6    1  0.8259171E-006  0.8866850E+02  0.7561462E-02  0.1306109E+00
         -2   -1    0    0    0  501 -0.00000000000E+00  0.00000000000E+00  0.23244526603E+03  0.23244526603E+03  0.00000000000E+00 0.  1.
          2   -1    0    0  501    0  0.00000000000E+00 -0.00000000000E+00 -0.66720815881E+02  0.66720815881E+02  0.00000000000E+00 0. -1.
          5    1    1    2  502    0  0.20948300684E+02  0.32894696331E+02  0.10826864408E+03  0.11515408825E+03  0.41800000000E+01 0.  1.
         -5    1    1    2    0  502  0.37850701081E+02 -0.17740596013E+02 -0.23061154652E+02  0.47923830951E+02  0.41800000000E+01 0.  1.
        -11    1    1    2    0    0 -0.33924694052E+01  0.26544302183E+02  0.56820664688E+02  0.62806820988E+02  0.00000000000E+00 0.  1.
         11    1    1    2    0    0 -0.55406532359E+02 -0.41698402501E+02  0.23696296028E+02  0.73281341722E+02  0.00000000000E+00 0. -1.
</event>
<event>
 6    1  0.8259171E-006  0.1108910E+03  0.7561462E-02  0.1258929E+00
          2   -1    0    0  501    0  0.00000000000E+00  0.00000000000E+00  0.13835246079E+03  0.13835246079E+03  0.00000000000E+00 0. -1.
         -2   -1    0    0    0  501 -0.00000000000E+00 -0.00000000000E+00 -0.36832435304E+03  0.36832435304E+03  0.00000000000E+00 0.  1.
          5    1    1    2  502    0 -0.57468862121E+02  0.30651426227E+02 -0.16977442974E+03  0.18188735370E+03  0.41800000000E+01 0. -1.
         -5    1    1    2    0  502  0.33060527852E+02 -0.50539200347E+02 -0.16910044825E+03  0.17960969704E+03  0.41800000000E+01 0.  1.
        -11    1    1    2    0    0  0.19013489838E+02  0.56168690922E+02  0.65590533038E+02  0.88422580035E+02  0.00000000000E+00 0. -1.
         11    1    1    2    0    0  0.53948444311E+01 -0.36280916802E+02  0.43312452691E+02  0.56757183056E+02  0.00000000000E+00 0.  1.
</event>
<event>
 6    1  0.8259171E-006  0.1330782E+03  0.7561462E-02  0.1222958E+00
          1   -1    0    0  501    0  0.00000000000E+00  0.00000000000E+00  0.58543491688E+03  0.58543491688E+03  0.00000000000E+00 0. -1.
         -1   -1    0    0    0  501 -0.00000000000E+00 -0.00000000000E+00 -0.34401663801E+02  0.34401663801E+02  0.00000000000E+00 0.  1.
          5    1    1    2  502    0  0.32668552874E+01 -0.42505949394E+02  0.52836889858E+02  0.68019389936E+02  0.41800000000E+01 0. -1.
         -5    1    1    2    0  502 -0.76579367961E+02  0.71560068853E+02  0.14623542655E+03  0.17996531729E+03  0.41800000000E+01 0. -1.
        -11    1    1    2    0    0 -0.11498375119E+02  0.18058806301E+02  0.43313559370E+02  0.48315603491E+02  0.00000000000E+00 0.  1.
         11    1    1    2    0    0  0.84810887793E+02 -0.47112925761E+02  0.30864737730E+03  0.32353626996E+03  0.00000000000E+00 0. -1.
</event>
<event>
 6    1  0.8259171E-006  0.8809909E+02  0.7561462E-02  0.1307521E+00
          1   -1    0    0  501    0  0.00000000000E+00  0.00000000000E+00  0.35112930296E+03  0.35112930296E+03  0.00000000000E+00 0. -1.
         -1   -1    0    0    0  501 -0.00000000000E+00 -0.00000000000E+00 -0.53044817591E+02  0.53044817591E+02  0.00000000000E+00 0.  1.
          5    1    1    2  502    0 -0.12734756623E+02 -0.25368578767E+02 -0.27841847430E+02  0.39979740910E+02  0.41800000000E+01 0.  1.
         -5    1    1    2    0  502  0.33173247781E+02  0.48261038428E+02  0.79419463549E+02  0.98764952230E+02  0.41800000000E+01 0.  1.
        -11    1    1    2    0    0  0.42611177104E+01 -0.51113896587E+02  0.82144974326E+02  0.96843091419E+02  0.00000000000E+00 0.  1.
         11    1    1    2    0    0 -0.24699608868E+02  0.28221436926E+02  0.16436189492E+03  0.16858633599E+03  0.00000000000E+00 0. -1.
</event>
<event>
 6    1  0.8259171E-006  0.8554576E+02  0.7561462E-02  0.1314011E+00
          2   -1    0    0  501    0  0.00000000000E+00  0.00000000000E+00  0.22248897475E+03  0.22248897475E+03  0.00000000000E+00 0. -1.
         -2   -1    0    0    0  501 -0.00000000000E+00 -0.00000000000E+00 -0.69779761055E+02  0.69779761055E+02  0.00000000000E+00 0.  1.
          5    1    1    2  502    0  0.25996133212E+01  0.50018695794E+02  0.10948212703E+03  0.12046757430E+03  0.41800000000E+01 0.  1.
         -5    1    1    2    0  502 -0.34194966853E+00  0.11572296568E+02 -0.35369893554E+02  0.37450457240E+02  0.41800000000E+01 0.  1.
        -11    1    1    2    0    0  0.28531320092E+02 -0.70843622623E+02  0.49677239463E+02  0.91108085334E+02  0.00000000000E+00 0.  1.
         11    1    1    2    0    0 -0.30788983745E+02  0.92526302612E+01  0.28919740761E+02  0.43242618936E+02  0.00000000000E+00 0. -1.
</event>
<event>
 6    1  0.8259171E-006  0.2332524E+03  0.7561462E-02  0.1124371E+00
         -1   -1    0    0    0  501 -0.00000000000E+00  0.00000000000E+00  0.42069695078E+02  0.42069695078E+02  0.00000000000E+00 0.  1.
          1   -1    0    0  501    0  0.00000000000E+00 -0.00000000000E+00 -0.13860307903E+04  0.13860307903E+04  0.00000000000E+00 0. -1.
          5    1    1    2  502    0  0.33385067349E+02  0.11665651468E+03 -0.31483790965E+03  0.33743693765E+03  0.41800000000E+01 0. -1.
         -5    1    1    2    0  502 -0.87535657996E+02  0.91398732798E+02 -0.38491161627E+03  0.40520444780E+03  0.41800000000E+01 0. -1.
        -11    1    1    2    0    0  0.20486847978E+02 -0.24895172900E+02 -0.31512644998E+02  0.45083559848E+02  0.00000000000E+00 0.  1.
         11    1    1    2    0    0  0.33663742668E+02 -0.18316007457E+03 -0.61269892432E+03  0.64037554009E+03  0.00000000000E+00 0. -1.
</event>
<event>
 6    1  0.8259171E-006  0.7071308E+02  0.7561462E-02  0.1357685E+00
          2   -1    0    0  501    0  0.00000000000E+00  0.00000000000E+00  0.11866376519E+03  0.11866376519E+03  0.00000000000E+00 0. -1.
         -2   -1    0    0    0  501 -0.00000000000E+00 -0.00000000000E+00 -0.11370980130E+03  0.11370980130E+03  0.00000000000E+00 0.  1.
          5    1    1    2  502    0  0.32126832785E+02  0.74447592172E+01 -0.60514619045E+02  0.69043821901E+02  0.41800000000E+01 0. -1.
         -5    1    1    2    0  502 -0.50704444160E+02  0.14848851878E+02  0.32793112159E+02  0.62324069706E+02  0.41800000000E+01 0. -1.
        -11    1    1    2    0    0 -0.41691968272E+01  0.12745472994E+02  0.52913674473E+02  0.54586502271E+02  0.00000000000E+00 0. -1.
         11    1    1    2    0    0  0.22746808202E+02 -0.35039084089E+02 -0.20238203693E+02  0.46419172611E+02  0.00000000000E+00 0.  1.
</event>
<event>
 6    1  0.8259171E-006  0.1101522E+03  0.7561462E-02  0.1260288E+00
         -2   -1    0    0    0  501 -0.00000000000E+00  0.00000000000E+00  0.40553164621E+02  0.40553164621E+02  0.00000000000E+00 0.  1.
          2   -1    0    0  501    0  0.00000000000E+00 -0.00000000000E+00 -0.33022763277E+03  0.33022763277E+03  0.00000000000E+00 0. -1.
          5    1    1    2  502    0  0.12600105456E+02  0.51842248085E+02 -0.96547665486E+02  0.11038707105E+03  0.41800000000E+01 0. -1.
         -5    1    1    2    0  502  0.14673420439E+02 -0.67816724954E+02 -0.54961225850E+02  0.88615044986E+02  0.41800000000E+01 0. -1.
        -11    1    1    2    0    0 -0.57182358774E+01  0.53605869436E+02 -0.50014495617E+02  0.73537318630E+02  0.00000000000E+00 0.  1.
         11    1    1    2    0    0 -0.21555290017E+02 -0.37631392568E+02 -0.88151081198E+02  0.98241362728E+02  0.00000000000E+00 0. -1.
</event>
<event>
 6    1  0.8259171E-006  0.1214033E+03  0.7561462E-02  0.1240800E+00
          2   -1    0    0  501    0  0.00000000000E+00  0.00000000000E+00  0.25671884832E+03  0.25671884832E+03  0.00000000000E+00 0. -1.
         -2   -1    0    0    0  501 -0.00000000000E+00 -0.00000000000E+00 -0.68013730610E+02  0.68013730610E+02  0.00000000000E+00 0.  1.
          5    1    1    2  502    0 -0.47993015716E+02  0.28684936957E+02  0.24363096009E+01  0.56120969077E+02  0.41800000000E+01 0. -1.
         -5    1    1    2    0  502 -0.16820447729E+02 -0.68223452152E+02  0.10084837217E+03  0.12298468789E+03  0.41800000000E+01 0. -1.
        -11    1    1    2    0    0  0.72784853735E+02  0.60039111248E+02  0.77982526721E+02  0.12240753362E+03  0.00000000000E+00 0.  1.
         11    1    1    2    0    0 -0.79713902903E+01 -0.20500596052E+02  0.74379092170E+01  0.23219388346E+02  0.00000000000E+00 0. -1.
</event>
<event>
 6    1  0.8259171E-006  0.1522110E+03  0.7561462E-02  0.1197782E+00
         -1   -1    0    0    0  501 -0.00000000000E+00  0.00000000000E+00  0.36044639856E+02  0.36044639856E+02  0.00000000000E+00 0.  1.
          1   -1    0    0  501    0  0.00000000000E+00 -0.00000000000E+00 -0.73416132712E+03  0.73416132712E+03  0.00000000000E+00 0. -1.
          5    1    1    2  502    0 -0.12628464889E+02 -0.10547737517E+03 -0.21732373856E+03  0.24193394665E+03  0.41800000000E+01 0. -1.
         -5    1    1    2    0  502  0.67592164098E+02  0.35179349581E+02 -0.98714683325E+02  0.12477318778E+03  0.41800000000E+01 0.  1.
        -11    1    1    2    0    0  0.11616364218E+02 -0.11486586896E+02 -0.17352681704E+02  0.23832690961E+02  0.00000000000E+00 0.  1.
         11    1    1    2    0    0 -0.66580063426E+02  0.81784612482E+02 -0.36472558367E+03  0.37966614159E+03  0.00000000000E+00 0. -1.
</event>
<event>
 6    1  0.8259171E-006  0.1137000E+03  0.7561462E-02  0.1253868E+00
          3   -1    0    0  501    0  0.00000000000E+00  0.00000000000E+00  0.47470592449E+02  0.47470592449E+02  0.00000000000E+00 0. -1.
         -3   -1    0    0    0  501 -0.00000000000E+00 -0.00000000000E+00 -0.31576415986E+03  0.31576415986E+03  0.00000000000E+00 0.  1.
          5    1    1    2  502    0  0.74917397364E+02  0.38383052575E+02 -0.16751658306E+03  0.18752374024E+03  0.41800000000E+01 0. -1.
         -5    1    1    2    0  502 -0.35242467679E+02 -0.21844463881E+02 -0.35309042182E+02  0.54620627881E+02  0.41800000000E+01 0. -1.
        -11    1    1    2    0    0 -0.48850021202E+02  0.27773319215E+02 -0.41706565186E+02  0.69979421342E+02  0.00000000000E+00 0.  1.
         11    1    1    2    0    0  0.91750915172E+01 -0.44311907909E+02 -0.23761376982E+02  0.51110962845E+02  0.00000000000E+00 0. -1.
</event>
<event>
 6    1  0.8259171E-006  0.1003010E+03  0.7561462E-02  0.1279664E+00
          3   -1    0    0  501    0  0.00000000000E+00  0.00000000000E+00  0.89537163702E+02  0.89537163702E+02  0.00000000000E+00 0. -1.
         -3   -1    0    0    0  501 -0.00000000000E+00 -0.00000000000E+00 -0.26099559975E+03  0.26099559975E+03  0.00000000000E+00 0.  1.
          5    1    1    2  502    0  0.25062600211E+01  0.40402504087E+02 -0.25590404123E+02  0.48072703887E+02  0.41800000000E+01 0. -1.
         -5    1    1    2    0  502 -0.46142337065E+02 -0.75535140127E+02 -0.15632230085E+03  0.17969086456E+03  0.41800000000E+01 0. -1.
        -11    1    1    2    0    0  0.25906596598E+02  0.44312090524E+02 -0.42204663270E+02  0.66452589985E+02  0.00000000000E+00 0.  1.
         11    1    1    2    0    0  0.17729480445E+02 -0.91794544850E+01  0.52658932192E+02  0.56316605022E+02  0.00000000000E+00 0. -1.
</event>
<event>
 6    1  0.8259171E-006  0.9792654E+02  0.7561462E-02  0.1284718E+00
         -2   -1    0    0    0  501 -0.00000000000E+00  0.00000000000E+00  0.23453213358E+03  0.23453213358E+03  0.00000000000E+00 0.  1.
          2   -1    0    0  501    0  0.00000000000E+00 -0.00000000000E+00 -0.11175642363E+03  0.11175642363E+03  0.00000000000E+00 0. -1.
          5    1    1    2  502    0 -0.20602947621E+02  0.36045732440E+02  0.56839009611E+01  0.42113601223E+02  0.41800000000E+01 0. -1.
         -5    1    1    2    0  502 -0.42033690597E+02 -0.51640135666E+02  0.17175363192E+03  0.18425611858E+03  0.41800000000E+01 0. -1.
        -11    1    1    2    0    0  0.46138196842E+02 -0.18361092787E+02 -0.64023516274E+02  0.81023907412E+02  0.00000000000E+00 0. -1.
         11    1    1    2    0    0  0.16498441375E+02  0.33955496013E+02  0.93616933427E+01  0.38894929998E+02  0.00000000000E+00 0.  1.
</event>
<event>
 6    1  0.8259171E-006  0.9263853E+02  0.7561462E-02  0.1296585E+00
         -1   -1    0    0    0  501 -0.00000000000E+00  0.00000000000E+00  0.15465198403E+03  0.15465198403E+03  0.00000000000E+00 0.  1.
          1   -1    0    0  501    0  0.00000000000E+00 -0.00000000000E+00 -0.97848995168E+02  0.97848995168E+02  0.00000000000E+00 0. -1.
          5    1    1    2  502    0  0.52506641079E+02 -0.40554871644E+02  0.96992912673E+01  0.67180306806E+02  0.41800000000E+01 0. -1.
         -5    1    1    2    0  502 -0.41658780525E+02  0.32380157159E+02  0.73743090959E+02  0.90771385561E+02  0.41800000000E+01 0.  1.
        -11    1    1    2    0    0 -0.21874109538E+02  0.32493753716E+02 -0.46845267492E+02  0.61063899196E+02  0.00000000000E+00 0.  1.
         11    1    1    2    0    0  0.11026248984E+02 -0.24319039230E+02  0.20205874127E+02  0.33485387634E+02  0.00000000000E+00 0. -1.
</event>
<event>
 6    1  0.8259171E-006  0.1007117E+03  0.7561462E-02  0.1278806E+00
          1   -1    0    0  501    0  0.00000000000E+00  0.00000000000E+00  0.43367326078E+03  0.43367326078E+03  0.00000000000E+00 0. -1.
         -1   -1    0    0    0  501 -0.00000000000E+00 -0.00000000000E+00 -0.42201727748E+02  0.42201727748E+02  0.00000000000E+00 0.  1.
          5    1    1    2  502    0 -0.34383889233E+02  0.29105229140E+02  0.16344753276E+03  0.16959343904E+03  0.41800000000E+01 0. -1.
         -5    1    1    2    0  502 -0.30015584627E+02 -0.70927605058E+02  0.59870130116E+02  0.97639978287E+02  0.41800000000E+01 0. -1.
        -11    1    1    2    0    0  0.26327697215E+02  0.28290284228E+02  0.16345816668E+03  0.16796446076E+03  0.00000000000E+00 0. -1.
         11    1    1    2    0    0  0.38071776645E+02  0.13532091689E+02  0.46957034716E+01  0.40677110437E+02  0.00000000000E+00 0.  1.
</event>
<event>
 6    1  0.8259171E-006  0.1068120E+03  0.7561462E-02  0.1266590E+00
          4   -1    0    0  501    0  0.00000000000E+00  0.00000000000E+00  0.73070084024E+02  0.73070084024E+02  0.00000000000E+00 0. -1.
         -4   -1    0    0    0  501 -0.00000000000E+00 -0.00000000000E+00 -0.20054757031E+03  0.20054757031E+03  0.00000000000E+00 0.  1.
          5    1    1    2  502    0  0.17636551796E+02 -0.45146863440E+02 -0.23470913414E+02  0.54015214654E+02  0.41800000000E+01 0.  1.
         -5    1    1    2    0  502 -0.40087759334E+02  0.62755648402E+02 -0.93480401114E+02  0.11958828390E+03  0.41800000000E+01 0.  1.
        -11    1    1    2    0    0  0.39042626912E+02  0.23839110044E+02 -0.26176506268E+02  0.52705211927E+02  0.00000000000E+00 0.  1.
         11    1    1    2    0    0 -0.16591419374E+02 -0.41447895007E+02  0.15650334513E+02  0.47308943845E+02  0.00000000000E+00 0. -1.
</event>
<event>
 6    1  0.8259171E-006  0.1061356E+03  0.7561462E-02  0.1267898E+00
         -1   -1    0    0    0  501 -0.00000000000E+00  0.00000000000E+00  0.97339972386E+02  0.97339972386E+02  0.00000000000E+00 0.  1.
          1   -1    0    0  501    0  0.00000000000E+00 -0.00000000000E+00 -0.18944085287E+03  0.18944085287E+03  0.00000000000E+00 0. -1.
          5    1    1    2  502    0 -0.77411638925E+01  0.74881306514E+02  0.45648164454E+02  0.88138317443E+02  0.41800000000E+01 0.  1.
         -5    1    1    2    0  502 -0.20443710977E+02 -0.32751296854E+02 -0.28148731285E+02  0.47962654608E+02  0.41800000000E+01 0.  1.
        -11    1    1    2    0    0 -0.24142159922E+02 -0.38685664104E+02 -0.75257056157E+02  0.87994596392E+02  0.00000000000E+00 0. -1.
         11    1    1    2    0    0  0.52327034792E+02 -0.34443455568E+01 -0.34343257500E+02  0.62685256816E+02  0.00000000000E+00 0.  1.
</event>
<event>
 6    1  0.8259171E-006  0.1272463E+03  0.7561462E-02  0.1231600E+00
         -1   -1    0    0    0  501 -0.00000000000E+00  0.00000000000E+00  0.32217295241E+02  0.32217295241E+02  0.00000000000E+00 0.  1.
          1   -1    0    0  501    0  0.00000000000E+00 -0.00000000000E+00 -0.77585461527E+03  0.77585461527E+03  0.00000000000E+00 0. -1.
          5    1    1    2  502    0 -0.97526795895E+02 -0.15756994719E+02 -0.42209678450E+03  0.43352384789E+03  0.41800000000E+01 0.  1.
         -5    1    1    2    0  502 -0.13820623136E+02  0.38184159104E+02 -0.34900040459E+02  0.53707772756E+02  0.41800000000E+01 0.  1.
        -11    1    1    2    0    0  0.46025059698E+02 -0.97624581513E+00 -0.22113686283E+03  0.22587777951E+03  0.00000000000E+00 0. -1.
         11    1    1    2    0    0  0.65322359333E+02 -0.21450918570E+02 -0.65503632242E+02  0.94962510356E+02  0.00000000000E+00 0.  1.
</event>
<event>
 6    1  0.8259171E-006  0.1212152E+03  0.7561462E-02  0.1241106E+00
          1   -1    0    0  501    0  0.00000000000E+00  0.00000000000E+00  0.25480101772E+03  0.25480101772E+03  0.00000000000E+00 0. -1.
         -1   -1    0    0    0  501 -0.00000000000E+00 -0.00000000000E+00 -0.61967865643E+02  0.61967865643E+02  0.00000000000E+00 0.  1.
          5    1    1    2  502    0 -0.33287381738E+02  0.93509615267E+02  0.81259891950E+02  0.12834617396E+03  0.41800000000E+01 0.  1.
         -5    1    1    2    0  502  0.29073977549E+02 -0.29024493837E+02  0.28596979754E+02  0.50229245107E+02  0.41800000000E+01 0.  1.
        -11    1    1    2    0    0 -0.35096472454E+02 -0.47274858795E+02  0.20390910000E+02  0.62309420343E+02  0.00000000000E+00 0.  1.
         11    1    1    2    0    0  0.39309876644E+02 -0.17210262635E+02  0.62585370371E+02  0.75884043950E+02  0.00000000000E+00 0. -1.
</event>
<event>
 6    1  0.8259171E-006  0.1087087E+03  0.7561462E-02  0.1262980E+00
         -3   -1    0    0    0  501 -0.00000000000E+00  0.00000000000E+00  0.10716582840E+03  0.10716582840E+03  0.00000000000E+00 0. -1.
          3   -1    0    0  501    0  0.00000000000E+00 -0.00000000000E+00 -0.19544984246E+03  0.19544984246E+03  0.00000000000E+00 0.  1.
          5    1    1    2  502    0  0.34298202076E+02 -0.51732797868E+02  0.95204119188E+01  0.62934566686E+02  0.41800000000E+01 0. -1.
         -5    1    1    2    0  502 -0.77280165884E+02  0.60351071517E+01  0.17683123035E+02  0.79616655278E+02  0.41800000000E+01 0. -1.
        -11    1    1    2    0    0  0.25358575028E+02 -0.32400381238E+01  0.74066758720E+01  0.26616048204E+02  0.00000000000E+00 0. -1.
         11    1    1    2    0    0  0.17623388780E+02  0.48937728840E+02 -0.12289422489E+03  0.13344840069E+03  0.00000000000E+00 0.  1.
</event>
<event>
 6    1  0.8259171E-006  0.9969932E+02  0.7561462E-02  0.1280929E+00
          1   -1    0    0  501    0  0.00000000000E+00  0.00000000000E+00  0.29348223068E+02  0.29348223068E+02  0.00000000000E+00 0. -1.
         -1   -1    0    0    0  501 -0.00000000000E+00 -0.00000000000E+00 -0.44442363310E+03  0.44442363310E+03  0.00000000000E+00 0.  1.
          5    1    1    2  502    0  0.46482808381E+02 -0.10361433736E+02 -0.98616296848E+02  0.10959314389E+03  0.41800000000E+01 0. -1.
         -5    1    1    2    0  502 -0.75974900551E+02  0.31632377878E+02 -0.15811010108E+03  0.17829489423E+03  0.41800000000E+01 0. -1.
        -11    1    1    2    0    0  0.18862405484E+02  0.19455489453E+02 -0.13511642015E+03  0.13780694251E+03  0.00000000000E+00 0.  1.
         11    1    1    2    0    0  0.10629686686E+02 -0.40726433594E+02 -0.23232591952E+02  0.48076875534E+02  0.00000000000E+00 0. -1.
</event>
<event>
 6    1  0.1060229E-005  0.2242192E+03  0.7561462E-02  0.1130776E+00
          1   -1    0    0  501    0  0.00000000000E+00  0.00000000000E+00  0.19905862787E+04  0.19905862787E+04  0.00000000000E+00 0. -1.
         -1   -1    0    0    0  501 -0.00000000000E+00 -0.00000000000E+00 -0.29616320620E+02  0.29616320620E+02  0.00000000000E+00 0.  1.
          5    1    1    2  502    0 -0.74189761616E+01  0.13921105174E+03  0.78580166563E+03  0.79808300837E+03  0.41800000000E+01 0. -1.
         -5    1    1    2    0  502  0.51865773891E+01  0.76531603586E+02  0.12935079457E+03  0.15044297055E+03  0.41800000000E+01 0. -1.
        -11    1    1    2    0    0  0.43776160996E+02 -0.12178797614E+03  0.51517594462E+03  0.53118256496E+03  0.00000000000E+00 0. -1.
         11    1    1    2    0    0 -0.41543762224E+02 -0.93954679184E+02  0.53064155325E+03  0.54049405544E+03  0.00000000000E+00 0.  1.
</event>
<event>
 6    1  0.8259171E-006  0.1063636E+03  0.7561462E-02  0.1267456E+00
         -1   -1    0    0    0  501 -0.00000000000E+00  0.00000000000E+00  0.97972243106E+02  0.97972243106E+02  0.00000000000E+00 0.  1.
          1   -1    0    0  501    0  0.00000000000E+00 -0.00000000000E+00 -0.29318467233E+03  0.29318467233E+03  0.00000000000E+00 0. -1.
          5    1    1    2  502    0  0.12533793002E+02 -0.21802281493E+02 -0.18195973599E+02  0.31320940288E+02  0.41800000000E+01 0. -1.
         -5    1    1    2    0  502 -0.87996294984E+02  0.35383981363E+02  0.47889749367E+02  0.10633096709E+03  0.41800000000E+01 0.  1.
        -11    1    1    2    0    0  0.38297940055E+02  0.19110018536E+02 -0.29637326901E+02  0.52060504865E+02  0.00000000000E+00 0.  1.
         11    1    1    2    0    0  0.37164561927E+02 -0.32691718406E+02 -0.19526887809E+03  0.20144450319E+03  0.00000000000E+00 0. -1.
</event>
<event>
 6    1  0.8259171E-006  0.1180608E+03  0.7561462E-02  0.1246331E+00
          1   -1    0    0  501    0  0.00000000000E+00  0.00000000000E+00  0.10860799092E+04  0.10860799092E+04  0.00000000000E+00 0. -1.
         -1   -1    0    0    0  501 -0.00000000000E+00 -0.00000000000E+00 -0.14620175655E+02  0.14620175655E+02  0.00000000000E+00 0.  1.
          5    1    1    2  502    0  0.46610018982E+02 -0.13860255258E+02  0.10139057926E+03  0.11252609701E+03  0.41800000000E+01 0.  1.
         -5    1    1    2    0  502 -0.26682248459E+02  0.71900432240E+02  0.43130159999E+03  0.43808692870E+03  0.41800000000E+01 0.  1.
        -11    1    1    2    0    0  0.34448453206E+02 -0.54771222228E+01  0.19545786857E+03  0.19854589692E+03  0.00000000000E+00 0. -1.
         11    1    1    2    0    0 -0.54376223729E+02 -0.52563054760E+02  0.34330968567E+03  0.35154116219E+03  0.00000000000E+00 0.  1.
</event>
<event>
 6    1  0.8259171E-006  0.1563829E+03  0.7561462E-02  0.1192842E+00
          1   -1    0    0  501    0  0.00000000000E+00  0.00000000000E+00  0.24969140947E+03  0.24969140947E+03  0.00000000000E+00 0. -1.
         -1   -1    0    0    0  501 -0.00000000000E+00 -0.00000000000E+00 -0.13588906438E+03  0.13588906438E+03  0.00000000000E+00 0.  1.
          5    1    1    2  502    0  0.11732113351E+03 -0.63308812709E+02  0.40256491788E+02  0.13932089457E+03  0.41800000000E+01 0.  1.
         -5    1    1    2    0  502 -0.56380575204E+01 -0.14125067622E+02 -0.42573357261E+02  0.45401193557E+02  0.41800000000E+01 0.  1.
        -11    1    1    2    0    0 -0.75681778699E+02 -0.27375711197E+01  0.59576495350E+02  0.96356549963E+02  0.00000000000E+00 0. -1.
         11    1    1    2    0    0 -0.36001297288E+02  0.80171451450E+02  0.56542715213E+02  0.10450183576E+03  0.00000000000E+00 0.  1.
</event>
<event>
 6    1  0.8259171E-006  0.2768687E+03  0.7561462E-02  0.1097412E+00
          1   -1    0    0  501    0  0.00000000000E+00  0.00000000000E+00  0.12804741714E+03  0.12804741714E+03  0.00000000000E+00 0. -1.
         -1   -1    0    0    0  501 -0.00000000000E+00 -0.00000000000E+00 -0.67054759202E+03  0.67054759202E+03  0.00000000000E+00 0.  1.
          5    1    1    2  502    0 -0.11691726672E+03 -0.18613199110E+03 -0.32293076545E+03  0.39066164010E+03  0.41800000000E+01 0. -1.
         -5    1    1    2    0  502 -0.39303110772E+02 -0.33260954615E+02 -0.52281059110E+01  0.51921393564E+02  0.41800000000E+01 0. -1.
        -11    1    1    2    0    0  0.11431179021E+03  0.21028517679E+03 -0.16538950827E+03  0.29093080002E+03  0.00000000000E+00 0. -1.
         11    1    1    2    0    0  0.41908587283E+02  0.91077689335E+01 -0.48951795254E+02  0.65081175478E+02  0.00000000000E+00 0.  1.
</event>
<event>
 6    1  0.8259171E-006  0.1274003E+03  0.7561462E-02  0.1231365E+00
         -1   -1    0    0    0  501 -0.00000000000E+00  0.00000000000E+00  0.48588092065E+02  0.48588092065E+02  0.00000000000E+00 0.  1.
          1   -1    0    0  501    0  0.00000000000E+00 -0.00000000000E+00 -0.37767941775E+03  0.37767941775E+03  0.00000000000E+00 0. -1.
          5    1    1    2  502    0 -0.46503179833E+02  0.54005019845E+02 -0.82562454773E+02  0.10914723653E+03  0.41800000000E+01 0. -1.
         -5    1    1    2    0  502 -0.28296362922E+02 -0.68034484989E+02 -0.58433804470E+02  0.94134782133E+02  0.41800000000E+01 0. -1.
        -11    1    1    2    0    0  0.21902227485E+02 -0.32477843433E+02 -0.11494870156E+03  0.12144019875E+03  0.00000000000E+00 0. -1.
         11    1    1    2    0    0  0.52897315270E+02  0.46507308576E+02 -0.73146364880E+02  0.10154529240E+03  0.00000000000E+00 0.  1.
</event>
<event>
 6    1  0.8259171E-006  0.1698909E+03  0.7561462E-02  0.1177962E+00
          4   -1    0    0  501    0  0.00000000000E+00  0.00000000000E+00  0.27280001791E+02  0.27280001791E+02  0.00000000000E+00 0. -1.
         -4   -1    0    0    0  501 -0.00000000000E+00 -0.00000000000E+00 -0.12064991774E+04  0.12064991774E+04  0.00000000000E+00 0.  1.
          5    1    1    2  502    0 -0.19402378024E+02 -0.50490846751E+02 -0.36157093501E+03  0.36561836842E+03  0.41800000000E+01 0. -1.
         -5    1    1    2    0  502 -0.85151790174E+02  0.11080863573E+03 -0.43238419553E+03  0.45442595223E+03  0.41800000000E+01 0.  1.
        -11    1    1    2    0    0 -0.13920558087E+02 -0.92125746677E+01 -0.89625625412E+02  0.91166913955E+02  0.00000000000E+00 0.  1.
         11    1    1    2    0    0  0.11847472628E+03 -0.51105214312E+02 -0.29563841969E+03  0.32256794462E+03  0.00000000000E+00 0. -1.
</event>
<event>
 6    1  0.8259171E-006  0.9816394E+02  0.7561462E-02  0.1284205E+00
          2   -1    0    0  501    0  0.00000000000E+00  0.00000000000E+00  0.35755725097E+03  0.35755725097E+03  0.00000000000E+00 0.  1.
         -2   -1    0    0    0  501 -0.00000000000E+00 -0.00000000000E+00 -0.50324727881E+02  0.50324727881E+02  0.00000000000E+00 0. -1.
          5    1    1    2  502    0 -0.41011899837E+02  0.86329661078E+01  0.71235438302E+02  0.82755447568E+02  0.41800000000E+01 0.  1.
         -5    1    1    2    0  502  0.55445574392E+02  0.25211862604E+02 -0.90273959667E+01  0.61715605916E+02  0.41800000000E+01 0.  1.
        -11    1    1    2    0    0 -0.40585765192E+02 -0.48450451687E+02  0.12999538575E+03  0.14454567071E+03  0.00000000000E+00 0.  1.
         11    1    1    2    0    0  0.26152090637E+02  0.14605622975E+02  0.11502909500E+03  0.11886525465E+03  0.00000000000E+00 0. -1.
</event>
<event>
 6    1  0.8259171E-006  0.1533641E+03  0.7561462E-02  0.1196399E+00
          1   -1    0    0  501    0  0.00000000000E+00  0.00000000000E+00  0.36505778831E+03  0.36505778831E+03  0.00000000000E+00 0. -1.
         -1   -1    0    0    0  501 -0.00000000000E+00 -0.00000000000E+00 -0.72613518423E+02  0.72613518423E+02  0.00000000000E+00 0.  1.
          5    1    1    2  502    0 -0.10662898774E+03  0.28253782061E+02  0.45298987147E+02  0.11932094478E+03  0.41800000000E+01 0.  1.
         -5    1    1    2    0  502 -0.10510145863E+02 -0.48596786263E+02  0.78704636965E+02  0.93187998589E+02  0.41800000000E+01 0.  1.
        -11    1    1    2    0    0  0.41553126738E+02  0.50207599959E+02  0.97545369717E+02  0.11731395735E+03  0.00000000000E+00 0.  1.
         11    1    1    2    0    0  0.75586006864E+02 -0.29864595757E+02  0.70895276062E+02  0.10784840602E+03  0.00000000000E+00 0. -1.
</event>
<event>
 6    1  0.8259171E-006  0.7459322E+02  0.7561462E-02  0.1345135E+00
          2   -1    0    0  501    0  0.00000000000E+00  0.00000000000E+00  0.94217812817E+03  0.94217812817E+03  0.00000000000E+00 0.  1.
         -2   -1    0    0    0  501 -0.00000000000E+00 -0.00000000000E+00 -0.13516919012E+02  0.13516919012E+02  0.00000000000E+00 0. -1.
          5    1    1    2  502    0  0.23857298408E+02 -0.47419743517E+01  0.16016227387E+02  0.29421912715E+02  0.41800000000E+01 0. -1.
         -5    1    1    2    0  502 -0.43332592227E+01  0.31263942602E+02  0.56161433328E+03  0.56251608242E+03  0.41800000000E+01 0. -1.
        -11    1    1    2    0    0 -0.36091949707E+02 -0.51382746781E+02  0.27476431205E+03  0.28184790700E+03  0.00000000000E+00 0.  1.
         11    1    1    2    0    0  0.16567910521E+02  0.24860778530E+02  0.76266336446E+02  0.81909145052E+02  0.00000000000E+00 0. -1.
</event>
<event>
 6    1  0.8259171E-006  0.1234845E+03  0.7561462E-02  0.1237457E+00
         -3   -1    0    0    0  501 -0.00000000000E+00  0.00000000000E+00  0.12577444717E+03  0.12577444717E+03  0.00000000000E+00 0.  1.
          3   -1    0    0  501    0  0.00000000000E+00 -0.00000000000E+00 -0.16512245726E+03  0.16512245726E+03  0.00000000000E+00 0. -1.
          5    1    1    2  502    0  0.53444321948E+02  0.16152911371E+02 -0.35489302500E+02  0.66288574326E+02  0.41800000000E+01 0.  1.
         -5    1    1    2    0  502 -0.32099002350E+02  0.71976181256E+02  0.39517628897E+02  0.88261158013E+02  0.41800000000E+01 0.  1.
        -11    1    1    2    0    0  0.10870314721E+02  0.61082265318E+01 -0.34119067914E+02  0.36326092122E+02  0.00000000000E+00 0.  1.
         11    1    1    2    0    0 -0.32215634318E+02 -0.94237319159E+02 -0.92572685655E+01  0.10002107997E+03  0.00000000000E+00 0. -1.
</event>
<event>
 6    1  0.8259171E-006  0.9381472E+02  0.7561462E-02  0.1293868E+00
         -1   -1    0    0    0  501 -0.00000000000E+00  0.00000000000E+00  0.68199214419E+02  0.68199214419E+02  0.00000000000E+00 0.  1.
          1   -1    0    0  501    0  0.00000000000E+00 -0.00000000000E+00 -0.21531097398E+03  0.21531097398E+03  0.00000000000E+00 0. -1.
          5    1    1    2  502    0  0.23286336528E+02 -0.62301646660E+01  0.22028059937E+02  0.32920757057E+02  0.41800000000E+01 0. -1.
         -5    1    1    2    0  502 -0.74626803361E+02 -0.15412882287E+02 -0.96255864392E+02  0.12283883975E+03  0.41800000000E+01 0. -1.
        -11    1    1    2    0    0 -0.12399980505E+02  0.19454132569E+02  0.82938841035E+01  0.24515531894E+02  0.00000000000E+00 0.  1.
         11    1    1    2    0    0  0.63740447338E+02  0.21889143834E+01 -0.81177839210E+02  0.10323505970E+03  0.00000000000E+00 0. -1.
</event>
<event>
 6    1  0.8259171E-006  0.1709321E+03  0.7561462E-02  0.1176879E+00
          1   -1    0    0  501    0  0.00000000000E+00  0.00000000000E+00  0.87211604652E+03  0.87211604652E+03  0.00000000000E+00 0. -1.
         -1   -1    0    0    0  501 -0.00000000000E+00 -0.00000000000E+00 -0.40296185071E+02  0.40296185071E+02  0.00000000000E+00 0.  1.
          5    1    1    2  502    0  0.14617068602E+03  0.83640080636E+01  0.31780492014E+03  0.34993323042E+03  0.41800000000E+01 0.  1.
         -5    1    1    2    0  502 -0.54795086850E+01  0.34061254126E+02  0.22864855015E+02  0.41598894732E+02  0.41800000000E+01 0.  1.
        -11    1    1    2    0    0 -0.96928939668E+02 -0.59425251237E+02  0.42377069243E+03  0.43875754078E+03  0.00000000000E+00 0. -1.
         11    1    1    2    0    0 -0.43762237671E+02  0.16999989047E+02  0.67379393860E+02  0.82122565660E+02  0.00000000000E+00 0.  1.
</event>
<event>
 6    1  0.8259171E-006  0.7831435E+02  0.7561462E-02  0.1333904E+00
          1   -1    0    0  501    0  0.00000000000E+00  0.00000000000E+00  0.80262748428E+02  0.80262748428E+02  0.00000000000E+00 0. -1.
         -1   -1    0    0    0  501 -0.00000000000E+00 -0.00000000000E+00 -0.20425047329E+03  0.20425047329E+03  0.00000000000E+00 0.  1.
          5    1    1    2  502    0 -0.44080048707E+02  0.61850695827E+00 -0.11959690239E+03  0.12753166158E+03  0.41800000000E+01 0.  1.
         -5    1    1    2    0  502  0.57511596415E+02 -0.87253327223E+01 -0.22708229510E+02  0.62584752462E+02  0.41800000000E+01 0.  1.
        -11    1    1    2    0    0  0.16018599103E+02  0.16906637826E+02 -0.29479745843E+02  0.37569739616E+02  0.00000000000E+00 0.  1.
         11    1    1    2    0    0 -0.29450146811E+02 -0.87998120619E+01  0.47797152885E+02  0.56827068053E+02  0.00000000000E+00 0. -1.
</event>
<event>
 6    1  0.8259171E-006  0.1247541E+03  0.7561462E-02  0.1235454E+00
          1   -1    0    0  501    0  0.00000000000E+00  0.00000000000E+00  0.51344741167E+03  0.51344741167E+03  0.00000000000E+00 0. -1.
         -1   -1    0    0    0  501 -0.00000000000E+00 -0.00000000000E+00 -0.44978553987E+02  0.44978553987E+02  0.00000000000E+00 0.  1.
          5    1    1    2  502    0 -0.69154702688E+01 -0.31771255827E+02 -0.23570479348E+00  0.32783599293E+02  0.41800000000E+01 0. -1.
         -5    1    1    2    0  502  0.10314113702E+03  0.58888332471E+01  0.18202383765E+03  0.20933925188E+03  0.41800000000E+01 0. -1.
        -11    1    1    2    0    0 -0.59694309418E+02  0.42419839797E+02  0.25467954377E+03  0.26499910076E+03  0.00000000000E+00 0. -1.
         11    1    1    2    0    0 -0.36531357329E+02 -0.16537417217E+02  0.32001181052E+02  0.51304013734E+02  0.00000000000E+00 0.  1.
</event>
<event>
 6    1  0.8259171E-006  0.7286550E+02  0.7561462E-02  0.1350611E+00
         -3   -1    0    0    0  501 -0.00000000000E+00  0.00000000000E+00  0.14193755115E+03  0.14193755115E+03  0.00000000000E+00 0.  1.
          3   -1    0    0  501    0  0.00000000000E+00 -0.00000000000E+00 -0.10320974350E+03  0.10320974350E+03  0.00000000000E+00 0. -1.
          5    1    1    2  502    0  0.35968683500E+02  0.14926956807E+02  0.93882409857E+02  0.10172482250E+03  0.41800000000E+01 0. -1.
         -5    1    1    2    0  502 -0.11372680542E+02  0.18766620510E+02 -0.35935339178E+02  0.42312467547E+02  0.41800000000E+01 0. -1.
        -11    1    1    2    0    0  0.26295931803E+02 -0.11016156980E+02 -0.33105398720E+02  0.43689806230E+02  0.00000000000E+00 0. -1.
         11    1    1    2    0    0 -0.50891934761E+02 -0.22677420337E+02  0.13886135696E+02  0.57420198375E+02  0.00000000000E+00 0.  1.
</event>
<event>
 6    1  0.8259171E-006  0.9258914E+02  0.7561462E-02  0.1296700E+00
         -2   -1    0    0    0  501 -0.00000000000E+00  0.00000000000E+00  0.84056962798E+02  0.84056962798E+02  0.00000000000E+00 0.  1.
          2   -1    0    0  501    0  0.00000000000E+00 -0.00000000000E+00 -0.15836182108E+03  0.15836182108E+03  0.00000000000E+00 0. -1.
          5    1    1    2  502    0 -0.20426319522E+02  0.60112451214E+02 -0.60848422059E+02  0.88038310906E+02  0.41800000000E+01 0. -1.
         -5    1    1    2    0  502  0.15220463804E+02 -0.23563672148E+02  0.34867354210E+02  0.44945677802E+02  0.41800000000E+01 0. -1.
        -11    1    1    2    0    0  0.42453067243E+02 -0.36433983718E+02 -0.11611472159E+02  0.57136016431E+02  0.00000000000E+00 0.  1.
         11    1    1    2    0    0 -0.37247211525E+02 -0.11479534820E+00 -0.36712318272E+02  0.52298778736E+02  0.00000000000E+00 0. -1.
</event>
<event>
 6    1  0.8259171E-006  0.8713885E+02  0.7561462E-02  0.1309932E+00
         -2   -1    0    0    0  501 -0.00000000000E+00  0.00000000000E+00  0.17752586620E+02  0.17752586620E+02  0.00000000000E+00 0. -1.
          2   -1    0    0  501    0  0.00000000000E+00 -0.00000000000E+00 -0.82254773951E+03  0.82254773951E+03  0.00000000000E+00 0.  1.
          5    1    1    2  502    0 -0.11080297929E+01  0.41324867868E+02 -0.56187393717E+02  0.69881814853E+02  0.41800000000E+01 0. -1.
         -5    1    1    2    0  502  0.50608804524E+02 -0.28478034250E+02 -0.46137409850E+03  0.46503309635E+03  0.41800000000E+01 0. -1.
        -11    1    1    2    0    0 -0.50634658375E+02 -0.28974368625E+02 -0.28261195866E+03  0.28857044520E+03  0.00000000000E+00 0.  1.
         11    1    1    2    0    0  0.11338836439E+01  0.16127535006E+02 -0.46217020094E+01  0.16814969728E+02  0.00000000000E+00 0. -1.
</event>
<event>
 6    1  0.8259171E-006  0.1151326E+03  0.7561462E-02  0.1251350E+00
         -2   -1    0    0    0  501 -0.00000000000E+00  0.00000000000E+00  0.63189928178E+02  0.63189928178E+02  0.00000000000E+00 0. -1.
          2   -1    0    0  501    0  0.00000000000E+00 -0.00000000000E+00 -0.23271077833E+03  0.23271077833E+03  0.00000000000E+00 0.  1.
          5    1    1    2  502    0 -0.24835194385E+02 -0.79815537410E+02 -0.28047465763E+02  0.88269131796E+02  0.41800000000E+01 0.  1.
         -5    1    1    2    0  502 -0.69922265854E+01  0.47620135978E+02 -0.30034272944E+02  0.56886716679E+02  0.41800000000E+01 0.  1.
        -11    1    1    2    0    0  0.11759314812E+00  0.57616731763E+02 -0.46066780153E+02  0.73768894805E+02  0.00000000000E+00 0. -1.
         11    1    1    2    0    0  0.31709827822E+02 -0.25421330330E+02 -0.65372331290E+02  0.76975963226E+02  0.00000000000E+00 0.  1.
</event>
<event>
 6    1  0.8259171E-006  0.2264480E+03  0.7561462E-02  0.1129165E+00
         -2   -1    0    0    0  501 -0.00000000000E+00  0.00000000000E+00  0.77111022786E+02  0.77111022786E+02  0.00000000000E+00 0.  1.
          2   -1    0    0  501    0  0.00000000000E+00 -0.00000000000E+00 -0.82215655894E+03  0.82215655894E+03  0.00000000000E+00 0. -1.
          5    1    1    2  502    0  0.57513981731E+02  0.24190503174E+02 -0.73809366423E+01  0.62968159923E+02  0.41800000000E+01 0. -1.
         -5    1    1    2    0  502  0.14918772349E+03  0.10473241771E+02 -0.25297474774E+03  0.29390536066E+03  0.41800000000E+01 0. -1.
        -11    1    1    2    0    0  0.15701693045E+02 -0.28789240907E+00 -0.15705228477E+02  0.22209913283E+02  0.00000000000E+00 0.  1.
         11    1    1    2    0    0 -0.22240339826E+03 -0.34375852536E+02 -0.46898462330E+03  0.52018414786E+03  0.00000000000E+00 0. -1.
</event>
<event>
 6    1  0.8259171E-006  0.1407071E+03  0.7561462E-02  0.1212381E+00
         -1   -1    0    0    0  501 -0.00000000000E+00  0.00000000000E+00  0.10264314032E+03  0.10264314032E+03  0.00000000000E+00 0.  1.
          1   -1    0    0  501    0  0.00000000000E+00 -0.00000000000E+00 -0.28691316841E+03  0.28691316841E+03  0.00000000000E+00 0. -1.
          5    1    1    2  502    0 -0.10919527744E+02  0.28745355835E+02  0.37386775883E+02  0.48587806898E+02  0.41800000000E+01 0. -1.
         -5    1    1    2    0  502  0.33342835652E+02  0.96453756083E+02 -0.93389134226E+02  0.13839824617E+03  0.41800000000E+01 0. -1.
        -11    1    1    2    0    0 -0.42518890416E+02 -0.32846700579E+02 -0.80204981688E+02  0.96538079889E+02  0.00000000000E+00 0. -1.
         11    1    1    2    0    0  0.20095582509E+02 -0.92352411339E+02 -0.48062688062E+02  0.10603217578E+03  0.00000000000E+00 0.  1.
</event>
<event>
 6    1  0.8259171E-006  0.1455582E+03  0.7561462E-02  0.1206040E+00
          1   -1    0    0  501    0  0.00000000000E+00  0.00000000000E+00  0.18902121223E+03  0.18902121223E+03  0.00000000000E+00 0. -1.
         -1   -1    0    0    0  501 -0.00000000000E+00 -0.00000000000E+00 -0.15279312827E+03  0.15279312827E+03  0.00000000000E+00 0.  1.
          5    1    1    2  502    0  0.26628838735E+02 -0.92852038568E+01 -0.58252056825E+01  0.29098375973E+02  0.41800000000E+01 0. -1.
         -5    1    1    2    0  502 -0.80275083504E+02  0.96648875939E+02 -0.62388175769E+02  0.14033834518E+03  0.41800000000E+01 0.  1.
        -11    1    1    2    0    0 -0.16031135651E+02 -0.59893733636E+02  0.42285290008E+02  0.75048666812E+02  0.00000000000E+00 0.  1.
         11    1    1    2    0    0  0.69677380420E+02 -0.27469938446E+02  0.62156175401E+02  0.97328952531E+02  0.00000000000E+00 0. -1.
</event>
<event>
 6    1  0.8259171E-006  0.1131396E+03  0.7561462E-02  0.1254864E+00
          2   -1    0    0  501    0  0.00000000000E+00  0.00000000000E+00  0.43041818658E+03  0.43041818658E+03  0.00000000000E+00 0. -1.
         -2   -1    0    0    0  501 -0.00000000000E+00 -0.00000000000E+00 -0.40487750624E+02  0.40487750624E+02  0.00000000000E+00 0.  1.
          5    1    1    2  502    0  0.69135514520E+02 -0.10862196180E+02  0.55495959043E+02  0.89414655084E+02  0.41800000000E+01 0. -1.
         -5    1    1    2    0  502 -0.35381279728E+02  0.48246732485E+02  0.48471701026E+02  0.77113943947E+02  0.41800000000E+01 0.  1.
        -11    1    1    2    0    0 -0.58892678493E+02 -0.39586239574E+02  0.14808055208E+03  0.16420495683E+03  0.00000000000E+00 0.  1.
         11    1    1    2    0    0  0.25138443701E+02  0.22017032688E+01  0.13788222381E+03  0.14017238135E+03  0.00000000000E+00 0. -1.
</event>
<event>
 6    1  0.8259171E-006  0.1024483E+03  0.7561462E-02  0.1275230E+00
          4   -1    0    0  501    0  0.00000000000E+00  0.00000000000E+00  0.28870354459E+03  0.28870354459E+03  0.00000000000E+00 0. -1.
         -4   -1    0    0    0  501 -0.00000000000E+00 -0.00000000000E+00 -0.67950835706E+02  0.67950835706E+02  0.00000000000E+00 0.  1.
          5    1    1    2  502    0 -0.68666724046E+01  0.53019418923E+02  0.38043077599E+02  0.65749206277E+02  0.41800000000E+01 0. -1.
         -5    1    1    2    0  502 -0.38442825098E+02 -0.56162986963E+02 -0.13670824871E+02  0.69544919000E+02  0.41800000000E+01 0. -1.
        -11    1    1    2    0    0 -0.36567349716E+01  0.27952621741E+02  0.15159788498E+02  0.32008435766E+02  0.00000000000E+00 0.  1.
         11    1    1    2    0    0  0.48966232474E+02 -0.24809053701E+02  0.18122066766E+03  0.18935181925E+03  0.00000000000E+00 0. -1.
</event>
<event>
 6    1  0.8259171E-006  0.1024494E+03  0.7561462E-02  0.1275228E+00
         -2   -1    0    0    0  501 -0.00000000000E+00  0.00000000000E+00  0.21540740897E+03  0.21540740897E+03  0.00000000000E+00 0.  1.
          2   -1    0    0  501    0  0.00000000000E+00 -0.00000000000E+00 -0.87894752899E+02  0.87894752899E+02  0.00000000000E+00 0. -1.
          5    1    1    2  502    0  0.54596783264E+02  0.47158084564E+02  0.37933581842E+01  0.72364049422E+02  0.41800000000E+01 0.  1.
         -5    1    1    2    0  502 -0.25768235151E+02  0.24424959814E+02  0.10380816218E+03  0.10979156406E+03  0.41800000000E+01 0.  1.
        -11    1    1    2    0    0 -0.14347478983E+02  0.77044863556E+01  0.35496930879E+02  0.39054338620E+02  0.00000000000E+00 0.  1.
         11    1    1    2    0    0 -0.14481069130E+02 -0.79287530733E+02 -0.15585795170E+02  0.82092209764E+02  0.00000000000E+00 0. -1.
</event>
<event>
 6    1  0.8259171E-006  0.1083768E+03  0.7561462E-02  0.1263606E+00
         -1   -1    0    0    0  501 -0.00000000000E+00  0.00000000000E+00  0.16458257877E+03  0.16458257877E+03  0.00000000000E+00 0.  1.
          1   -1    0    0  501    0  0.00000000000E+00 -0.00000000000E+00 -0.92978512992E+02  0.92978512992E+02  0.00000000000E+00 0. -1.
          5    1    1    2  502    0 -0.42360315680E+02  0.78258105721E+01  0.98894487065E+01  0.44394968761E+02  0.41800000000E+01 0. -1.
         -5    1    1    2    0  502  0.88539352634E+02  0.38841455659E+02  0.51550064164E+02  0.10964833404E+03  0.41800000000E+01 0. -1.
        -11    1    1    2    0    0 -0.27547282656E+02 -0.50640935632E+02  0.38536844182E+02  0.69342955683E+02  0.00000000000E+00 0.  1.
         11    1    1    2    0    0 -0.18631754299E+02  0.39736694003E+01 -0.28372291279E+02  0.34174833272E+02  0.00000000000E+00 0. -1.
</event>
<event>
 6    1  0.8259171E-006  0.1848420E+03  0.7561462E-02  0.1163198E+00
          3   -1    0    0  501    0  0.00000000000E+00  0.00000000000E+00  0.62736282765E+03  0.62736282765E+03  0.00000000000E+00 0. -1.
         -3   -1    0    0    0  501 -0.00000000000E+00 -0.00000000000E+00 -0.97497998583E+02  0.97497998583E+02  0.00000000000E+00 0.  1.
          5    1    1    2  502    0  0.11964900318E+03 -0.79527675135E+02  0.11058747120E+03  0.18134937623E+03  0.41800000000E+01 0.  1.
         -5    1    1    2    0  502  0.36664810807E+02 -0.66865228573E+01 -0.33070058003E+02  0.50001190744E+02  0.41800000000E+01 0.  1.
        -11    1    1    2    0    0 -0.84983362693E+02  0.12538095775E+02  0.28082492994E+03  0.29366991173E+03  0.00000000000E+00 0. -1.
         11    1    1    2    0    0 -0.71330451291E+02  0.73676102218E+02  0.17152248594E+03  0.19984034753E+03  0.00000000000E+00 0.  1.
</event>
<event>
 6    1  0.8259171E-006  0.1292423E+03  0.7561462E-02  0.1228584E+00
         -1   -1    0    0    0  501 -0.00000000000E+00  0.00000000000E+00  0.33314695189E+03  0.33314695189E+03  0.00000000000E+00 0.  1.
          1   -1    0    0  501    0  0.00000000000E+00 -0.00000000000E+00 -0.71073322669E+02  0.71073322669E+02  0.00000000000E+00 0. -1.
          5    1    1    2  502    0 -0.49659389557E+02  0.35197141046E+02  0.16267858823E+03  0.17374317016E+03  0.41800000000E+01 0.  1.
         -5    1    1    2    0  502  0.61069892032E+02  0.43705406682E+02  0.73857684575E+02  0.10541406100E+03  0.41800000000E+01 0.  1.
        -11    1    1    2    0    0  0.40111666385E+02 -0.46432848664E+02  0.95349791381E+01  0.62095660415E+02  0.00000000000E+00 0. -1.
         11    1    1    2    0    0 -0.51522168860E+02 -0.32469699065E+02  0.16002377281E+02  0.62967382986E+02  0.00000000000E+00 0.  1.
</event>
<event>
 6    1  0.8259171E-006  0.1052376E+03  0.7561462E-02  0.1269652E+00
          1   -1    0    0  501    0  0.00000000000E+00  0.00000000000E+00  0.20310405553E+03  0.20310405553E+03  0.00000000000E+00 0. -1.
         -1   -1    0    0    0  501 -0.00000000000E+00 -0.00000000000E+00 -0.69672523741E+02  0.69672523741E+02  0.00000000000E+00 0.  1.
          5    1    1    2  502    0 -0.63121642368E+02 -0.15133165953E+02 -0.75353508081E+01  0.65479831695E+02  0.41800000000E+01 0.  1.
         -5    1    1    2    0  502  0.41959676596E+02 -0.22390143649E+02  0.60411104972E+02  0.76999396079E+02  0.41800000000E+01 0.  1.
        -11    1    1    2    0    0  0.52315334096E+02  0.48460233764E+01  0.23542334886E+02  0.57572733616E+02  0.00000000000E+00 0.  1.
         11    1    1    2    0    0 -0.31153368323E+02  0.32677286225E+02  0.57013442743E+02  0.72724617884E+02  0.00000000000E+00 0. -1.
</event>
<event>
 6    1  0.8259171E-006  0.1310321E+03  0.7561462E-02  0.1225932E+00
         -1   -1    0    0    0  501 -0.00000000000E+00  0.00000000000E+00  0.10420226294E+03  0.10420226294E+03  0.00000000000E+00 0.  1.
          1   -1    0    0  501    0  0.00000000000E+00 -0.00000000000E+00 -0.22822512454E+03  0.22822512454E+03  0.00000000000E+00 0. -1.
          5    1    1    2  502    0 -0.48422179907E+02 -0.25982154722E+02 -0.22267557444E+02  0.59439855194E+02  0.41800000000E+01 0. -1.
         -5    1    1    2    0  502  0.68103914725E+02 -0.69425960515E+02  0.19614115182E+02  0.99299008598E+02  0.41800000000E+01 0. -1.
        -11    1    1    2    0    0 -0.35706254691E+02  0.49867347941E+02 -0.25643749877E+02  0.66477747573E+02  0.00000000000E+00 0.  1.
         11    1    1    2    0    0  0.16024519873E+02  0.45540767296E+02 -0.95725669458E+02  0.10721077612E+03  0.00000000000E+00 0. -1.
</event>
<event>
 6    1  0.8259171E-006  0.1519217E+03  0.7561462E-02  0.1198131E+00
          1   -1    0    0  501    0  0.00000000000E+00  0.00000000000E+00  0.57263911609E+03  0.57263911609E+03  0.00000000000E+00 0. -1.
         -1   -1    0    0    0  501 -0.00000000000E+00 -0.00000000000E+00 -0.75252180146E+02  0.75252180146E+02  0.00000000000E+00 0.  1.
          5    1    1    2  502    0 -0.21328463847E+01  0.13619810516E+02  0.54500657983E+02  0.56372354863E+02  0.41800000000E+01 0.  1.
         -5    1    1    2    0  502  0.75453986088E+02 -0.12667268153E+03  0.53624951304E+02  0.15694706134E+03  0.41800000000E+01 0.  1.
        -11    1    1    2    0    0 -0.32684145663E+02  0.15329810945E+02  0.55407880031E+01  0.36523373517E+02  0.00000000000E+00 0.  1.
         11    1    1    2    0    0 -0.40636994040E+02  0.97723060065E+02  0.38372053865E+03  0.39804850651E+03  0.00000000000E+00 0. -1.
</event>
<event>
 6    1  0.8259171E-006  0.9866453E+02  0.7561462E-02  0.1283130E+00
         -2   -1    0    0    0  501 -0.00000000000E+00  0.00000000000E+00  0.21849946950E+02  0.21849946950E+02  0.00000000000E+00 0.  1.
          2   -1    0    0  501    0  0.00000000000E+00 -0.00000000000E+00 -0.75034542864E+03  0.75034542864E+03  0.00000000000E+00 0. -1.
          5    1    1    2  502    0 -0.34219887769E+02  0.30736815035E+02 -0.31509694481E+02  0.55911409960E+02  0.41800000000E+01 0. -1.
         -5    1    1    2    0  502  0.24435721099E+02  0.33883923999E+02 -0.32214246283E+03  0.32486683969E+03  0.41800000000E+01 0. -1.
        -11    1    1    2    0    0 -0.37342192313E+02 -0.44020545783E+02 -0.14899637565E+03  0.15978788357E+03  0.00000000000E+00 0.  1.
         11    1    1    2    0    0  0.47126358983E+02 -0.20600193251E+02 -0.22584694873E+03  0.23162924237E+03  0.00000000000E+00 0. -1.
</event>
<event>
 6    1  0.8259171E-006  0.6688136E+02  0.7561462E-02  0.1371031E+00
         -1   -1    0    0    0  501 -0.00000000000E+00  0.00000000000E+00  0.30817140264E+02  0.30817140264E+02  0.00000000000E+00 0.  1.
          1   -1    0    0  501    0  0.00000000000E+00 -0.00000000000E+00 -0.46234967721E+03  0.46234967721E+03  0.00000000000E+00 0. -1.
          5    1    1    2  502    0 -0.25645687742E+02  0.36532075700E+02 -0.35741645654E+01  0.44972668445E+02  0.41800000000E+01 0. -1.
         -5    1    1    2    0  502  0.24501981834E+00 -0.24923387525E+01 -0.18615364489E+03  0.18621740975E+03  0.41800000000E+01 0. -1.
        -11    1    1    2    0    0  0.91962862543E+01  0.22995928422E+02 -0.18443381762E+02  0.30879487296E+02  0.00000000000E+00 0.  1.
         11    1    1    2    0    0  0.16204381670E+02 -0.57035665369E+02 -0.22336134573E+03  0.23109725198E+03  0.00000000000E+00 0. -1.
</event>
<event>
 6    1  0.8259171E-006  0.7564593E+02  0.7561462E-02  0.1341882E+00
         -1   -1    0    0    0  501 -0.00000000000E+00  0.00000000000E+00  0.14906915962E+03  0.14906915962E+03  0.00000000000E+00 0.  1.
          1   -1    0    0  501    0  0.00000000000E+00 -0.00000000000E+00 -0.99994875772E+02  0.99994875772E+02  0.00000000000E+00 0. -1.
          5    1    1    2  502    0 -0.57414371169E+01 -0.11732182710E+02  0.95056367348E+02  0.96040583009E+02  0.41800000000E+01 0.  1.
         -5    1    1    2    0  502 -0.30002904874E+02 -0.18829889130E+02 -0.35450408291E+02  0.50288595860E+02  0.41800000000E+01 0.  1.
        -11    1    1    2    0    0 -0.21064552356E+02 -0.17586752348E+02  0.54879324135E+00  0.27446500654E+02  0.00000000000E+00 0.  1.
         11    1    1    2    0    0  0.56808894347E+02  0.48148824188E+02 -0.11080468454E+02  0.75288355865E+02  0.00000000000E+00 0. -1.
</event>
<event>
 6    1  0.8259171E-006  0.1241919E+03  0.7561462E-02  0.1236338E+00
          2   -1    0    0  501    0  0.00000000000E+00  0.00000000000E+00  0.83872269396E+02  0.83872269396E+02  0.00000000000E+00 0. -1.
         -2   -1    0    0    0  501 -0.00000000000E+00 -0.00000000000E+00 -0.24523805056E+03  0.24523805056E+03  0.00000000000E+00 0.  1.
          5    1    1    2  502    0 -0.58600781485E+02  0.30646068685E+02 -0.11152593009E+03  0.12972562815E+03  0.41800000000E+01 0. -1.
         -5    1    1    2    0  502  0.56876612801E+02  0.36116188285E+02 -0.43165780629E+02  0.80125433898E+02  0.41800000000E+01 0. -1.
        -11    1    1    2    0    0  0.40296990494E+02 -0.64404777502E+02  0.10999839623E+02  0.76764700740E+02  0.00000000000E+00 0. -1.
         11    1    1    2    0    0 -0.38572821810E+02 -0.23574794682E+01 -0.17673910068E+02  0.42494557168E+02  0.00000000000E+00 0.  1.
</event>
<event>
 6    1  0.8259171E-006  0.1091796E+03  0.7561462E-02  0.1262097E+00
          1   -1    0    0  501    0  0.00000000000E+00  0.00000000000E+00  0.80833894787E+02  0.80833894787E+02  0.00000000000E+00 0. -1.
         -1   -1    0    0    0  501 -0.00000000000E+00 -0.00000000000E+00 -0.15087806030E+03  0.15087806030E+03  0.00000000000E+00 0.  1.
          5    1    1    2  502    0  0.58171874158E+02 -0.24481317281E+02 -0.33554363937E+02  0.71600765206E+02  0.41800000000E+01 0.  1.
         -5    1    1    2    0  502 -0.64340424218E+02 -0.34131795378E+02 -0.11634801163E+02  0.73874966276E+02  0.41800000000E+01 0.  1.
        -11    1    1    2    0    0  0.30809453610E+02  0.21360978447E+02 -0.15691932394E+02  0.40641734390E+02  0.00000000000E+00 0.  1.
         11    1    1    2    0    0 -0.24640903551E+02  0.37252134212E+02 -0.91630680197E+01  0.45594489214E+02  0.00000000000E+00 0. -1.
</event>
<event>
 6    1  0.8259171E-006  0.1557432E+03  0.7561462E-02  0.1193588E+00
          1   -1    0    0  501    0  0.00000000000E+00  0.00000000000E+00  0.33561145365E+03  0.33561145365E+03  0.00000000000E+00 0. -1.
         -1   -1    0    0    0  501 -0.00000000000E+00 -0.00000000000E+00 -0.99383900649E+02  0.99383900649E+02  0.00000000000E+00 0.  1.
          5    1    1    2  502    0 -0.29377640646E+02  0.26049842797E+02 -0.11769227354E+02  0.41202271688E+02  0.41800000000E+01 0.  1.
         -5    1    1    2    0  502  0.11542752081E+03  0.58090188702E+02  0.34941797155E+02  0.13392678661E+03  0.41800000000E+01 0.  1.
        -11    1    1    2    0    0 -0.80154724903E+02 -0.98616049628E+02  0.20741275626E+03  0.24324875463E+03  0.00000000000E+00 0. -1.
         11    1    1    2    0    0 -0.58951552601E+01  0.14476018129E+02  0.56422269394E+01  0.16617541372E+02  0.00000000000E+00 0.  1.
</event>
<event>
 6    1  0.8259171E-006  0.8577489E+02  0.7561462E-02  0.1313418E+00
          3   -1    0    0  501    0  0.00000000000E+00  0.00000000000E+00  0.92527059291E+02  0.92527059291E+02  0.00000000000E+00 0. -1.
         -3   -1    0    0    0  501 -0.00000000000E+00 -0.00000000000E+00 -0.18786393661E+03  0.18786393661E+03  0.00000000000E+00 0.  1.
          5    1    1    2  502    0  0.18323950962E+02 -0.17465236586E+02 -0.11064034636E+03  0.11357623128E+03  0.41800000000E+01 0. -1.
         -5    1    1    2    0  502 -0.55408773682E+02 -0.99679021370E+01  0.47986034052E+01  0.56656776016E+02  0.41800000000E+01 0. -1.
        -11    1    1    2    0    0  0.36443125158E+02 -0.20291032400E+02 -0.26801175127E+02  0.49579535651E+02  0.00000000000E+00 0.  1.
         11    1    1    2    0    0  0.64169756190E+00  0.47724171122E+02  0.37306040766E+02  0.60578452957E+02  0.00000000000E+00 0. -1.
</event>
<event>
 6    1  0.8259171E-006  0.1313165E+03  0.7561462E-02  0.1225515E+00
          1   -1    0    0  501    0  0.00000000000E+00  0.00000000000E+00  0.22718620692E+02  0.22718620692E+02  0.00000000000E+00 0. -1.
         -1   -1    0    0    0  501 -0.00000000000E+00 -0.00000000000E+00 -0.87837627051E+03  0.87837627051E+03  0.00000000000E+00 0.  1.
          5    1    1    2  502    0 -0.69026535814E+02 -0.21633051291E+02 -0.15365034469E+03  0.16987805149E+03  0.41800000000E+01 0. -1.
         -5    1    1    2    0  502  0.77503832238E+02  0.51206187824E+02 -0.46193334666E+03  0.47119932814E+03  0.41800000000E+01 0.  1.
        -11    1    1    2    0    0  0.39587957530E+02 -0.29081107647E+02 -0.15117696969E+03  0.15895720609E+03  0.00000000000E+00 0.  1.
         11    1    1    2    0    0 -0.48065253954E+02 -0.49202888618E+00 -0.88896988777E+02  0.10106030548E+03  0.00000000000E+00 0. -1.
</event>
<event>
 6    1  0.8259171E-006  0.1666391E+03  0.7561462E-02  0.1181399E+00
          2   -1    0    0  501    0  0.00000000000E+00  0.00000000000E+00  0.57306613530E+02  0.57306613530E+02  0.00000000000E+00 0. -1.
         -2   -1    0    0    0  501 -0.00000000000E+00 -0.00000000000E+00 -0.51722003505E+03  0.51722003505E+03  0.00000000000E+00 0.  1.
          5    1    1    2  502    0 -0.56288716348E+01  0.72627073381E+02 -0.14435852292E+03  0.16175052248E+03  0.41800000000E+01 0.  1.
         -5    1    1    2    0  502  0.10442296494E+03  0.77894129538E+01 -0.16674680260E+03  0.19694364458E+03  0.41800000000E+01 0.  1.
        -11    1    1    2    0    0 -0.11591911341E+03 -0.68373485076E+02 -0.12065174104E+03  0.18074572452E+03  0.00000000000E+00 0.  1.
         11    1    1    2    0    0  0.17125020104E+02 -0.12043001259E+02 -0.28156354958E+02  0.35086757009E+02  0.00000000000E+00 0. -1.
</event>
<event>
 6    1  0.8259171E-006  0.9503652E+02  0.7561462E-02  0.1291094E+00
         -1   -1    0    0    0  501 -0.00000000000E+00  0.00000000000E+00  0.29247948848E+03  0.29247948848E+03  0.00000000000E+00 0.  1.
          1   -1    0    0  501    0  0.00000000000E+00 -0.00000000000E+00 -0.41287116967E+02  0.41287116967E+02  0.00000000000E+00 0. -1.
          5    1    1    2  502    0  0.32366074149E+02  0.29579719776E+02  0.12933659409E+03  0.13663070500E+03  0.41800000000E+01 0. -1.
         -5    1    1    2    0  502 -0.50485262481E+02 -0.21711958231E+02  0.18711655658E+02  0.58204547206E+02  0.41800000000E+01 0. -1.
        -11    1    1    2    0    0  0.44280676632E+02  0.23449164466E+02  0.71421101293E+02  0.87244572021E+02  0.00000000000E+00 0.  1.
         11    1    1    2    0    0 -0.26161488301E+02 -0.31316926011E+02  0.31723020466E+02  0.51686781215E+02  0.00000000000E+00 0. -1.
</event>
<event>
 6    1  0.8259171E-006  0.2290397E+03  0.7561462E-02  0.1127317E+00
         -2   -1    0    0    0  501 -0.00000000000E+00  0.00000000000E+00  0.76253411219E+02  0.76253411219E+02  0.00000000000E+00 0. -1.
          2   -1    0    0  501    0  0.00000000000E+00 -0.00000000000E+00 -0.72172188809E+03  0.72172188809E+03  0.00000000000E+00 0.  1.
          5    1    1    2  502    0  0.86669079529E+02  0.20141317032E+03 -0.28503050480E+03  0.35963683848E+03  0.41800000000E+01 0.  1.
         -5    1    1    2    0  502 -0.11142642801E+02 -0.98356958705E+01 -0.27339773258E+01  0.15679490868E+02  0.41800000000E+01 0.  1.
        -11    1    1    2    0    0 -0.58616061742E+02 -0.40349918935E+02 -0.13996378995E+03  0.15701535323E+03  0.00000000000E+00 0.  1.
         11    1    1    2    0    0 -0.16910374986E+02 -0.15122755551E+03 -0.21774020480E+03  0.26564361674E+03  0.00000000000E+00 0. -1.
</event>
<event>
 6    1  0.8259171E-006  0.7201756E+02  0.7561462E-02  0.1353364E+00
         -1   -1    0    0    0  501 -0.00000000000E+00  0.00000000000E+00  0.90613728772E+02  0.90613728772E+02  0.00000000000E+00 0.  1.
          1   -1    0    0  501    0  0.00000000000E+00 -0.00000000000E+00 -0.23186877249E+03  0.23186877249E+03  0.00000000000E+00 0. -1.
          5    1    1    2  502    0  0.16813956987E+02  0.20664327130E+02 -0.50034940581E+02  0.56839169982E+02  0.41800000000E+01 0. -1.
         -5    1    1    2    0  502 -0.33386772006E+02  0.22019524265E+02  0.66048404893E+02  0.77326581347E+02  0.41800000000E+01 0. -1.
        -11    1    1    2    0    0  0.35736278312E+02 -0.70915510948E+01 -0.13306372477E+02  0.38786998247E+02  0.00000000000E+00 0. -1.
         11    1    1    2    0    0 -0.19163463293E+02 -0.35592300300E+02 -0.14396213556E+03  0.14952975169E+03  0.00000000000E+00 0.  1.
</event>
<event>
 6    1  0.8259171E-006  0.1325477E+03  0.7561462E-02  0.1223724E+00
         -2   -1    0    0    0  501 -0.00000000000E+00  0.00000000000E+00  0.23999290281E+02  0.23999290281E+02  0.00000000000E+00 0.  1.
          2   -1    0    0  501    0  0.00000000000E+00 -0.00000000000E+00 -0.10645626327E+04  0.10645626327E+04  0.00000000000E+00 0. -1.
          5    1    1    2  502    0  0.55234687882E+02 -0.10333240352E+02 -0.30817906378E+03  0.31328813312E+03  0.41800000000E+01 0. -1.
         -5    1    1    2    0  502  0.37956663487E+02  0.61670353455E+02 -0.78881327538E+02  0.10716191969E+03  0.41800000000E+01 0. -1.
        -11    1    1    2    0    0 -0.10436855353E+03 -0.61469614196E+02 -0.61384736823E+03  0.62568354615E+03  0.00000000000E+00 0. -1.
         11    1    1    2    0    0  0.11177202159E+02  0.10132501094E+02 -0.39655582883E+02  0.42428324034E+02  0.00000000000E+00 0.  1.
</event>
<event>
 6    1  0.8259171E-006  0.1099663E+03  0.7561462E-02  0.1260632E+00
          1   -1    0    0  501    0  0.00000000000E+00  0.00000000000E+00  0.11370047663E+03  0.11370047663E+03  0.00000000000E+00 0. -1.
         -1   -1    0    0    0  501 -0.00000000000E+00 -0.00000000000E+00 -0.15531378283E+03  0.15531378283E+03  0.00000000000E+00 0.  1.
          5    1    1    2  502    0 -0.92979526885E+02 -0.41195310893E+02 -0.24622379741E+02  0.10471857545E+03  0.41800000000E+01 0.  1.
         -5    1    1    2    0  502  0.35042339451E+02 -0.21234696361E+01  0.18552932760E+02  0.39926913123E+02  0.41800000000E+01 0.  1.
        -11    1    1    2    0    0  0.60607507668E+02  0.27155564375E+02 -0.63551931436E+02  0.91921393873E+02  0.00000000000E+00 0.  1.
         11    1    1    2    0    0 -0.26703202341E+01  0.16163216153E+02  0.28008072210E+02  0.32447377020E+02  0.00000000000E+00 0. -1.
</event>
<event>
 6    1  0.8259171E-006  0.1525341E+03  0.7561462E-02  0.1197393E+00
         -2   -1    0    0    0  501 -0.00000000000E+00  0.00000000000E+00  0.44620171174E+02  0.44620171174E+02  0.00000000000E+00 0.  1.
          2   -1    0    0  501    0  0.00000000000E+00 -0.00000000000E+00 -0.67418663838E+03  0.67418663838E+03  0.00000000000E+00 0. -1.
          5    1    1    2  502    0  0.24016460072E+02 -0.31047127958E+01 -0.58587529629E+02  0.63532673672E+02  0.41800000000E+01 0.  1.
         -5    1    1    2    0  502 -0.13534835956E+03  0.13833839357E+02 -0.11910458255E+03  0.18086991881E+03  0.41800000000E+01 0.  1.
        -11    1    1    2    0    0  0.35608838510E+02 -0.48169779351E+02 -0.17952813144E+03  0.18925820194E+03  0.00000000000E+00 0. -1.
         11    1    1    2    0    0  0.75723060973E+02  0.37440652790E+02 -0.27234622359E+03  0.28514601513E+03  0.00000000000E+00 0.  1.
</event>
<event>
 6    1  0.8259171E-006  0.1024918E+03  0.7561462E-02  0.1275142E+00
         -2   -1    0    0    0  501 -0.00000000000E+00  0.00000000000E+00  0.31323413657E+02  0.31323413657E+02  0.00000000000E+00 0. -1.
          2   -1    0    0  501    0  0.00000000000E+00 -0.00000000000E+00 -0.54949910486E+03  0.54949910486E+03  0.00000000000E+00 0.  1.
          5    1    1    2  502    0 -0.10928093093E+02  0.31975946612E+02 -0.15388373409E+03  0.15760571182E+03  0.41800000000E+01 0.  1.
         -5    1    1    2    0  502 -0.48057094681E+02 -0.58095182869E+02 -0.51601727202E+02  0.91458981363E+02  0.41800000000E+01 0.  1.
        -11    1    1    2    0    0  0.73767524843E+01  0.41042248647E+02 -0.57827293636E+02  0.71294309314E+02  0.00000000000E+00 0. -1.
         11    1    1    2    0    0  0.51608435290E+02 -0.14923012391E+02 -0.25486293627E+03  0.26046351602E+03  0.00000000000E+00 0.  1.
</event>
<event>
 6    1  0.8259171E-006  0.1037924E+03  0.7561462E-02  0.1272517E+00
         -1   -1    0    0    0  501 -0.00000000000E+00  0.00000000000E+00  0.18915443768E+02  0.18915443768E+02  0.00000000000E+00 0.  1.
          1   -1    0    0  501    0  0.00000000000E+00 -0.00000000000E+00 -0.61068133531E+03  0.61068133531E+03  0.00000000000E+00 0. -1.
          5    1    1    2  502    0 -0.47596466875E+02 -0.31804654963E+02 -0.22736758620E+03  0.23450042940E+03  0.41800000000E+01 0.  1.
         -5    1    1    2    0  502  0.49244086237E+02  0.34948198602E+02 -0.11398679129E+03  0.12906129398E+03  0.41800000000E+01 0.  1.
        -11    1    1    2    0    0 -0.26189843459E+02  0.35357163575E+02 -0.13102934735E+03  0.13821984946E+03  0.00000000000E+00 0.  1.
         11    1    1    2    0    0  0.24542224097E+02 -0.38500707214E+02 -0.11938216670E+03  0.12781520624E+03  0.00000000000E+00 0. -1.
</event>
<event>
 6    1  0.8259171E-006  0.1877101E+03  0.7561462E-02  0.1160543E+00
          2   -1    0    0  501    0  0.00000000000E+00  0.00000000000E+00  0.16781537875E+03  0.16781537875E+03  0.00000000000E+00 0.  1.
         -2   -1    0    0    0  501 -0.00000000000E+00 -0.00000000000E+00 -0.31907065764E+03  0.31907065764E+03  0.00000000000E+00 0. -1.
          5    1    1    2  502    0  0.14735790563E+03  0.56435078242E+02 -0.11498058488E+03  0.19528767935E+03  0.41800000000E+01 0. -1.
         -5    1    1    2    0  502  0.16750542808E+02 -0.31744575694E+02 -0.88358902502E+02  0.95462384329E+02  0.41800000000E+01 0. -1.
        -11    1    1    2    0    0 -0.11233437472E+03 -0.50988073675E+02  0.60599751772E+02  0.13744499015E+03  0.00000000000E+00 0.  1.
         11    1    1    2    0    0 -0.51774073717E+02  0.26297571127E+02 -0.85155432781E+01  0.58690982559E+02  0.00000000000E+00 0. -1.
</event>
<event>
 6    1  0.8259171E-006  0.9560620E+02  0.7561462E-02  0.1289817E+00
         -2   -1    0    0    0  501 -0.00000000000E+00  0.00000000000E+00  0.22897070694E+02  0.22897070694E+02  0.00000000000E+00 0.  1.
          2   -1    0    0  501    0  0.00000000000E+00 -0.00000000000E+00 -0.56384263225E+03  0.56384263225E+03  0.00000000000E+00 0. -1.
          5    1    1    2  502    0  0.41790850302E+02  0.18825981756E+02 -0.15672640825E+03  0.16334482606E+03  0.41800000000E+01 0.  1.
         -5    1    1    2    0  502 -0.74632454563E+02 -0.30495951342E+02 -0.16797929881E+03  0.18637200313E+03  0.41800000000E+01 0.  1.
        -11    1    1    2    0    0  0.10196387199E+02  0.32270032434E+02 -0.19906440234E+03  0.20192067151E+03  0.00000000000E+00 0. -1.
         11    1    1    2    0    0  0.22645217062E+02 -0.20600062848E+02 -0.17175452149E+02  0.35102202234E+02  0.00000000000E+00 0.  1.
</event>
<event>
 6    1  0.8259171E-006  0.1123485E+03  0.7561462E-02  0.1256282E+00
          2   -1    0    0  501    0  0.00000000000E+00  0.00000000000E+00  0.28978187810E+02  0.28978187810E+02  0.00000000000E+00 0.  1.
         -2   -1    0    0    0  501 -0.00000000000E+00 -0.00000000000E+00 -0.81217309731E+03  0.81217309731E+03  0.00000000000E+00 0. -1.
          5    1    1    2  502    0  0.53362781142E+02  0.44111799967E+02 -0.47625000445E+03  0.48127432556E+03  0.41800000000E+01 0.  1.
         -5    1    1    2    0  502 -0.58506756243E+02  0.11227711383E+02 -0.20168357746E+03  0.21033981993E+03  0.41800000000E+01 0.  1.
        -11    1    1    2    0    0 -0.51319677142E+01 -0.74072001721E+02 -0.47985409601E+02  0.88405871220E+02  0.00000000000E+00 0.  1.
         11    1    1    2    0    0  0.10275942816E+02  0.18732490371E+02 -0.57275917988E+02  0.61131268412E+02  0.00000000000E+00 0. -1.
</event>
<event>
 6    1  0.8259171E-006  0.1161849E+03  0.7561462E-02  0.1249527E+00
          1   -1    0    0  501    0  0.00000000000E+00  0.00000000000E+00  0.16715332853E+02  0.16715332853E+02  0.00000000000E+00 0. -1.
         -1   -1    0    0    0  501 -0.00000000000E+00 -0.00000000000E+00 -0.90032889547E+03  0.90032889547E+03  0.00000000000E+00 0.  1.
          5    1    1    2  502    0  0.51911250449E+02  0.53868025119E+02 -0.27089794548E+03  0.28106887291E+03  0.41800000000E+01 0. -1.
         -5    1    1    2    0  502 -0.29650160447E+02 -0.63449317597E+02 -0.39835056550E+03  0.40448188260E+03  0.41800000000E+01 0.  1.
        -11    1    1    2    0    0 -0.53535068897E+02  0.14877580232E+02 -0.14187338170E+03  0.15236601469E+03  0.00000000000E+00 0.  1.
         11    1    1    2    0    0  0.31273978895E+02 -0.52962877538E+01 -0.72491669940E+02  0.79127458132E+02  0.00000000000E+00 0. -1.
</event>
<event>
 6    1  0.8259171E-006  0.9261492E+02  0.7561462E-02  0.1296640E+00
          2   -1    0    0  501    0  0.00000000000E+00  0.00000000000E+00  0.12103370328E+03  0.12103370328E+03  0.00000000000E+00 0. -1.
         -2   -1    0    0    0  501 -0.00000000000E+00 -0.00000000000E+00 -0.12260965581E+03  0.12260965581E+03  0.00000000000E+00 0.  1.
          5    1    1    2  502    0 -0.29546815133E+02 -0.11911820958E+02 -0.60416336473E+02  0.68428881884E+02  0.41800000000E+01 0.  1.
         -5    1    1    2    0  502  0.37828182564E+02 -0.36198526751E+02  0.41811038420E+02  0.67133747614E+02  0.41800000000E+01 0.  1.
        -11    1    1    2    0    0  0.40015988038E+02  0.21104076045E+02  0.25761777592E+02  0.52060834694E+02  0.00000000000E+00 0. -1.
         11    1    1    2    0    0 -0.48297355469E+02  0.27006271665E+02 -0.87324320628E+01  0.56019894897E+02  0.00000000000E+00 0.  1.
</event>
<event>
 6    1  0.8259171E-006  0.8681458E+02  0.7561462E-02  0.1310754E+00
         -2   -1    0    0    0  501 -0.00000000000E+00  0.00000000000E+00  0.96956570848E+02  0.96956570848E+02  0.00000000000E+00 0.  1.
          2   -1    0    0  501    0  0.00000000000E+00 -0.00000000000E+00 -0.16976447958E+03  0.16976447958E+03  0.00000000000E+00 0. -1.
          5    1    1    2  502    0 -0.77359314643E+01  0.59251147262E+02  0.31463667604E+02  0.67660755734E+02  0.41800000000E+01 0. -1.
         -5    1    1    2    0  502  0.14276192081E+01 -0.22581548090E+01 -0.77181268265E+02  0.77340532263E+02  0.41800000000E+01 0. -1.
        -11    1    1    2    0    0  0.41986041680E+02 -0.54390836212E+00 -0.34748894822E+02  0.54503295530E+02  0.00000000000E+00 0. -1.
         11    1    1    2    0    0 -0.35677729424E+02 -0.56449084091E+02  0.76585867521E+01  0.67216466900E+02  0.00000000000E+00 0.  1.
</event>
<event>
 6    1  0.8259171E-006  0.9819143E+02  0.7561462E-02  0.1284146E+00
          4   -1    0    0  501    0  0.00000000000E+00  0.00000000000E+00  0.15037180159E+03  0.15037180159E+03  0.00000000000E+00 0. -1.
         -4   -1    0    0    0  501 -0.00000000000E+00 -0.00000000000E+00 -0.14575475052E+03  0.14575475052E+03  0.00000000000E+00 0.  1.
          5    1    1    2  502    0  0.27720452636E+02  0.77328297068E+01  0.17307105600E+02  0.33841224178E+02  0.41800000000E+01 0. -1.
         -5    1    1    2    0  502 -0.68409360837E+02  0.15534318583E+02 -0.10361985017E+03  0.12520264156E+03  0.41800000000E+01 0. -1.
        -11    1    1    2    0    0  0.67386665108E+02 -0.14527366030E+02  0.42172529186E+02  0.80811689848E+02  0.00000000000E+00 0. -1.
         11    1    1    2    0    0 -0.26697756908E+02 -0.87397822601E+01  0.48757266453E+02  0.56270996524E+02  0.00000000000E+00 0.  1.
</event>
<event>
 6    1  0.8259171E-006  0.1108387E+03  0.7561462E-02  0.1259025E+00
         -1   -1    0    0    0  501 -0.00000000000E+00  0.00000000000E+00  0.14718610775E+03  0.14718610775E+03  0.00000000000E+00 0.  1.
          1   -1    0    0  501    0  0.00000000000E+00 -0.00000000000E+00 -0.14589751254E+03  0.14589751254E+03  0.00000000000E+00 0. -1.
          5    1    1    2  502    0  0.58228441194E+02  0.36812290244E+02  0.11302839358E+02  0.69935131761E+02  0.41800000000E+01 0.  1.
         -5    1    1    2    0  502 -0.57247865399E+02  0.29680030332E+02  0.62084456579E+02  0.89611240600E+02  0.41800000000E+01 0.  1.
        -11    1    1    2    0    0  0.27205362362E+02 -0.20359036806E+02  0.98353807186E+01  0.35374522397E+02  0.00000000000E+00 0.  1.
         11    1    1    2    0    0 -0.28185938157E+02 -0.46133283770E+02 -0.81934081449E+02  0.98162725533E+02  0.00000000000E+00 0. -1.
</event>
<event>
 6    1  0.8259171E-006  0.1172497E+03  0.7561462E-02  0.1247704E+00
          1   -1    0    0  501    0  0.00000000000E+00  0.00000000000E+00  0.12858006699E+03  0.12858006699E+03  0.00000000000E+00 0.  1.
         -1   -1    0    0    0  501 -0.00000000000E+00 -0.00000000000E+00 -0.13867683481E+03  0.13867683481E+03  0.00000000000E+00 0. -1.
          5    1    1    2  502    0 -0.26971972903E+01 -0.47885665386E+02 -0.54231226084E+01  0.48447853218E+02  0.41800000000E+01 0. -1.
         -5    1    1    2    0  502 -0.49743205186E+02  0.69412838811E+02 -0.54529499833E+02  0.10140743270E+03  0.41800000000E+01 0. -1.
        -11    1    1    2    0    0  0.73605025385E+01 -0.48012153946E+02  0.55869850533E+01  0.48893336214E+02  0.00000000000E+00 0. -1.
         11    1    1    2    0    0  0.45079899938E+02  0.26484980521E+02  0.44268869568E+02  0.68508279678E+02  0.00000000000E+00 0.  1.
</event>
<event>
 6    1  0.8259171E-006  0.1277597E+03  0.7561462E-02  0.1230818E+00
         -1   -1    0    0    0  501 -0.00000000000E+00  0.00000000000E+00  0.21370724119E+03  0.21370724119E+03  0.00000000000E+00 0.  1.
          1   -1    0    0  501    0  0.00000000000E+00 -0.00000000000E+00 -0.11704512862E+03  0.11704512862E+03  0.00000000000E+00 0. -1.
          5    1    1    2  502    0  0.64564083954E+02 -0.45163316079E+02  0.25610234992E+01  0.78944773718E+02  0.41800000000E+01 0.  1.
         -5    1    1    2    0  502  0.39188677807E+02  0.35903136653E+02  0.10036757617E+03  0.11364818712E+03  0.41800000000E+01 0.  1.
        -11    1    1    2    0    0 -0.86110575487E+02 -0.20673543296E+02 -0.32804607288E+02  0.94438174816E+02  0.00000000000E+00 0. -1.
         11    1    1    2    0    0 -0.17642186273E+02  0.29933722723E+02  0.26538120191E+02  0.43721234153E+02  0.00000000000E+00 0.  1.
</event>
<event>
 6    1  0.8259171E-006  0.1956649E+03  0.7561462E-02  0.1153449E+00
         -2   -1    0    0    0  501 -0.00000000000E+00  0.00000000000E+00  0.88247730658E+03  0.88247730658E+03  0.00000000000E+00 0.  1.
          2   -1    0    0  501    0  0.00000000000E+00 -0.00000000000E+00 -0.73315003969E+02  0.73315003969E+02  0.00000000000E+00 0. -1.
          5    1    1    2  502    0 -0.56346477010E+02  0.13082782197E+03  0.55151234093E+03  0.56962635040E+03  0.41800000000E+01 0.  1.
         -5    1    1    2    0  502  0.50930357823E+02  0.37728680222E+02  0.15752675116E+03  0.16985141857E+03  0.41800000000E+01 0.  1.
        -11    1    1    2    0    0 -0.33201460867E+02 -0.11201048186E+03  0.35352142819E+02  0.12205924403E+03  0.00000000000E+00 0. -1.
         11    1    1    2    0    0  0.38617580053E+02 -0.56546020333E+02  0.64771067705E+02  0.94255297550E+02  0.00000000000E+00 0.  1.
</event>
<event>
 6    1  0.8259171E-006  0.1143660E+03  0.7561462E-02  0.1252692E+00
         -2   -1    0    0    0  501 -0.00000000000E+00  0.00000000000E+00  0.41844725956E+03  0.41844725956E+03  0.00000000000E+00 0.  1.
          2   -1    0    0  501    0  0.00000000000E+00 -0.00000000000E+00 -0.69275650957E+02  0.69275650957E+02  0.00000000000E+00 0. -1.
          5    1    1    2  502    0  0.63991557030E+02 -0.69566275646E+02 -0.11075888675E+02  0.95260347408E+02  0.41800000000E+01 0. -1.
         -5    1    1    2    0  502 -0.47550021595E+02  0.93169788869E+02  0.34237049137E+03  0.35801765302E+03  0.41800000000E+01 0.  1.
        -11    1    1    2    0    0 -0.54913166492E+01 -0.13331184813E+02  0.82992346025E+01  0.16635875151E+02  0.00000000000E+00 0.  1.
         11    1    1    2    0    0 -0.10950218786E+02 -0.10272328410E+02  0.95777713108E+01  0.17809034946E+02  0.00000000000E+00 0. -1.
</event>
<event>
 6    1  0.8259171E-006  0.2595360E+03  0.7561462E-02  0.1107422E+00
          1   -1    0    0  501    0  0.00000000000E+00  0.00000000000E+00  0.89054719178E+03  0.89054719178E+03  0.00000000000E+00 0. -1.
         -1   -1    0    0    0  501 -0.00000000000E+00 -0.00000000000E+00 -0.91390156819E+02  0.91390156819E+02  0.00000000000E+00 0.  1.
          5    1    1    2  502    0  0.22060285450E+03 -0.56642071779E+02  0.23636229922E+03  0.32826597844E+03  0.41800000000E+01 0. -1.
         -5    1    1    2    0  502  0.14509561611E+02  0.39416276979E+02  0.24039894941E+03  0.24407641744E+03  0.41800000000E+01 0.  1.
        -11    1    1    2    0    0 -0.20809849008E+03  0.42133693457E+02  0.24693933460E+03  0.32566741420E+03  0.00000000000E+00 0.  1.
         11    1    1    2    0    0 -0.27013926031E+02 -0.24907898657E+02  0.75456451720E+02  0.83927538515E+02  0.00000000000E+00 0. -1.
</event>
<event>
 6    1  0.8259171E-006  0.1473970E+03  0.7561462E-02  0.1203708E+00
         -3   -1    0    0    0  501 -0.00000000000E+00  0.00000000000E+00  0.61359395058E+02  0.61359395058E+02  0.00000000000E+00 0.  1.
          3   -1    0    0  501    0  0.00000000000E+00 -0.00000000000E+00 -0.40542321022E+03  0.40542321022E+03  0.00000000000E+00 0. -1.
          5    1    1    2  502    0 -0.71667146424E+02 -0.11153234710E+03 -0.17756612236E+03  0.22163674004E+03  0.41800000000E+01 0. -1.
         -5    1    1    2    0  502  0.23329291291E+02  0.10510255827E+02 -0.50204400408E+01  0.26408304147E+02  0.41800000000E+01 0. -1.
        -11    1    1    2    0    0  0.52774501105E+01  0.92102792795E+02 -0.14483240986E+03  0.17171838244E+03  0.00000000000E+00 0.  1.
         11    1    1    2    0    0  0.43060405023E+02  0.89192984804E+01 -0.16644842902E+02  0.47019178654E+02  0.00000000000E+00 0. -1.
</event>
<event>
 6    1  0.8259171E-006  0.1888568E+03  0.7561462E-02  0.1159496E+00
          2   -1    0    0  501    0  0.00000000000E+00  0.00000000000E+00  0.16315068486E+04  0.16315068486E+04  0.00000000000E+00 0. -1.
         -2   -1    0    0    0  501 -0.00000000000E+00 -0.00000000000E+00 -0.24262719793E+02  0.24262719793E+02  0.00000000000E+00 0.  1.
          5    1    1    2  502    0 -0.41335143017E+02  0.18247025782E+03  0.78458702215E+03  0.80659671259E+03  0.41800000000E+01 0. -1.
         -5    1    1    2    0  502  0.55184541741E+01 -0.19908445807E+02  0.86053221945E+02  0.88597003098E+02  0.41800000000E+01 0. -1.
        -11    1    1    2    0    0 -0.53303537304E+01 -0.36535218629E+02  0.55299130474E+02  0.66492320627E+02  0.00000000000E+00 0.  1.
         11    1    1    2    0    0  0.41147042573E+02 -0.12602659338E+03  0.68130475425E+03  0.69408353209E+03  0.00000000000E+00 0. -1.
</event>
<event>
 6    1  0.8259171E-006  0.9086367E+02  0.7561462E-02  0.1300774E+00
          4   -1    0    0  501    0  0.00000000000E+00  0.00000000000E+00  0.11907391704E+02  0.11907391704E+02  0.00000000000E+00 0. -1.
         -4   -1    0    0    0  501 -0.00000000000E+00 -0.00000000000E+00 -0.12605749884E+04  0.12605749884E+04  0.00000000000E+00 0.  1.
          5    1    1    2  502    0 -0.64183215340E+02 -0.13523493274E+02 -0.76806700710E+03  0.77087402979E+03  0.41800000000E+01 0. -1.
         -5    1    1    2    0  502  0.11201403886E+02  0.22454515815E+02 -0.32941094823E+02  0.41620486033E+02  0.41800000000E+01 0. -1.
        -11    1    1    2    0    0  0.71412703254E+02 -0.99558371624E+01 -0.42344381561E+03  0.42953877340E+03  0.00000000000E+00 0.  1.
         11    1    1    2    0    0 -0.18430891800E+02  0.10248146220E+01 -0.24215679114E+02  0.30449090832E+02  0.00000000000E+00 0. -1.
</event>
<event>
 6    1  0.8259171E-006  0.8756346E+02  0.7561462E-02  0.1308862E+00
         -2   -1    0    0    0  501 -0.00000000000E+00  0.00000000000E+00  0.21568070677E+02  0.21568070677E+02  0.00000000000E+00 0.  1.
          2   -1    0    0  501    0  0.00000000000E+00 -0.00000000000E+00 -0.70630764156E+03  0.70630764156E+03  0.00000000000E+00 0. -1.
          5    1    1    2  502    0  0.52611013895E+02 -0.20345078272E+02 -0.40094306480E+03  0.40491314452E+03  0.41800000000E+01 0. -1.
         -5    1    1    2    0  502  0.51894149793E+01  0.78135790720E+01  0.71288982977E+01  0.12501025425E+02  0.41800000000E+01 0. -1.
        -11    1    1    2    0    0 -0.79656198589E+02 -0.56632848362E+01 -0.20864338363E+03  0.22340376967E+03  0.00000000000E+00 0.  1.
         11    1    1    2    0    0  0.21855769714E+02  0.18194784036E+02 -0.82282020741E+02  0.87057772618E+02  0.00000000000E+00 0. -1.
</event>
<event>
 6    1  0.8259171E-006  0.1080484E+03  0.7561462E-02  0.1264227E+00
          2   -1    0    0  501    0  0.00000000000E+00  0.00000000000E+00  0.49387181957E+03  0.49387181957E+03  0.00000000000E+00 0. -1.
         -2   -1    0    0    0  501 -0.00000000000E+00 -0.00000000000E+00 -0.25416372768E+02  0.25416372768E+02  0.00000000000E+00 0.  1.
          5    1    1    2  502    0 -0.17309392332E+02 -0.64889956124E+02  0.15941930135E+03  0.17303845674E+03  0.41800000000E+01 0.  1.
         -5    1    1    2    0  502 -0.13916703138E+02  0.59926794780E+02  0.13581648052E+03  0.14915925764E+03  0.41800000000E+01 0.  1.
        -11    1    1    2    0    0  0.24475468741E+02 -0.37153220064E+02  0.12516055070E+03  0.13283287915E+03  0.00000000000E+00 0.  1.
         11    1    1    2    0    0  0.67506267299E+01  0.42116381408E+02  0.48059114243E+02  0.64257598819E+02  0.00000000000E+00 0. -1.
</event>
<event>
 6    1  0.8259171E-006  0.1030143E+03  0.7561462E-02  0.1274082E+00
         -2   -1    0    0    0  501 -0.00000000000E+00  0.00000000000E+00  0.10935961750E+03  0.10935961750E+03  0.00000000000E+00 0.  1.
          2   -1    0    0  501    0  0.00000000000E+00 -0.00000000000E+00 -0.12605008098E+03  0.12605008098E+03  0.00000000000E+00 0. -1.
          5    1    1    2  502    0  0.54825780202E+02  0.49612942453E+02 -0.17665602483E+02  0.76137087839E+02  0.41800000000E+01 0. -1.
         -5    1    1    2    0  502 -0.24638061264E+02 -0.24251978151E+02  0.41031693766E+02  0.53816956439E+02  0.41800000000E+01 0.  1.
        -11    1    1    2    0    0  0.70330543501E+01 -0.51299078720E+02 -0.16544913702E+02  0.54358012293E+02  0.00000000000E+00 0. -1.
         11    1    1    2    0    0 -0.37220773287E+02  0.25938114418E+02 -0.23511641063E+02  0.51097641914E+02  0.00000000000E+00 0.  1.
</event>
<event>
 6    1  0.8259171E-006  0.3303130E+03  0.7561462E-02  0.1070998E+00
          2   -1    0    0  501    0  0.00000000000E+00  0.00000000000E+00  0.60708875522E+03  0.60708875522E+03  0.00000000000E+00 0. -1.
         -2   -1    0    0    0  501 -0.00000000000E+00 -0.00000000000E+00 -0.19056375990E+03  0.19056375990E+03  0.00000000000E+00 0.  1.
          5    1    1    2  502    0 -0.20706002436E+03  0.82499466255E+01  0.13249906177E+03  0.24599875829E+03  0.41800000000E+01 0. -1.
         -5    1    1    2    0  502 -0.10511362186E+03 -0.67329831365E+02  0.14447812408E+02  0.12573142557E+03  0.41800000000E+01 0. -1.
        -11    1    1    2    0    0  0.97486051588E+02 -0.20283681771E+02  0.64809853154E+02  0.11880772309E+03  0.00000000000E+00 0.  1.
         11    1    1    2    0    0  0.21468759464E+03  0.79363566510E+02  0.20476826798E+03  0.30711460817E+03  0.00000000000E+00 0. -1.
</event>
<event>
 6    1  0.8259171E-006  0.7872688E+02  0.7561462E-02  0.1332704E+00
          2   -1    0    0  501    0  0.00000000000E+00  0.00000000000E+00  0.22462383757E+03  0.22462383757E+03  0.00000000000E+00 0. -1.
         -2   -1    0    0    0  501 -0.00000000000E+00 -0.00000000000E+00 -0.65722911618E+02  0.65722911618E+02  0.00000000000E+00 0.  1.
          5    1    1    2  502    0  0.29354818087E+02  0.38434142040E+02 -0.31900320269E+02  0.58086069350E+02  0.41800000000E+01 0.  1.
         -5    1    1    2    0  502 -0.14473049881E+02  0.11322280348E+01  0.81616362923E+02  0.83002736160E+02  0.41800000000E+01 0.  1.
        -11    1    1    2    0    0  0.17914478448E+01 -0.64108906433E+02  0.44404022728E+02  0.78005630591E+02  0.00000000000E+00 0.  1.
         11    1    1    2    0    0 -0.16673216050E+02  0.24542536358E+02  0.64780860573E+02  0.71252313092E+02  0.00000000000E+00 0. -1.
</event>
<event>
 6    1  0.8259171E-006  0.1032049E+03  0.7561462E-02  0.1273697E+00
         -2   -1    0    0    0  501 -0.00000000000E+00  0.00000000000E+00  0.82064063363E+02  0.82064063363E+02  0.00000000000E+00 0. -1.
          2   -1    0    0  501    0  0.00000000000E+00 -0.00000000000E+00 -0.29403290691E+03  0.29403290691E+03  0.00000000000E+00 0.  1.
          5    1    1    2  502    0 -0.49728686468E+02  0.44285894742E+02 -0.33892386373E+01  0.66806751675E+02  0.41800000000E+01 0. -1.
         -5    1    1    2    0  502  0.37535824859E+02 -0.41397613776E+02  0.22321497093E+02  0.60319335264E+02  0.41800000000E+01 0. -1.
        -11    1    1    2    0    0  0.16059032277E+02  0.38691975820E+02 -0.17028702418E+03  0.17536428404E+03  0.00000000000E+00 0.  1.
         11    1    1    2    0    0 -0.38661706689E+01 -0.41580256785E+02 -0.60614077816E+02  0.73606599293E+02  0.00000000000E+00 0. -1.
</event>
<event>
 6    1  0.8259171E-006  0.9469826E+02  0.7561462E-02  0.1291857E+00
         -1   -1    0    0    0  501 -0.00000000000E+00  0.00000000000E+00  0.88469108460E+02  0.88469108460E+02  0.00000000000E+00 0.  1.
          1   -1    0    0  501    0  0.00000000000E+00 -0.00000000000E+00 -0.24412754739E+03  0.24412754739E+03  0.00000000000E+00 0. -1.
          5    1    1    2  502    0  0.20028533462E+02  0.53823809084E+02  0.13102458841E+02  0.59053292919E+02  0.41800000000E+01 0.  1.
         -5    1    1    2    0  502 -0.10248608246E+02 -0.67738262678E+02  0.12934673665E+02  0.69844716224E+02  0.41800000000E+01 0.  1.
        -11    1    1    2    0    0  0.17531161704E+02  0.27548327325E+02 -0.18210303333E+02  0.37388061150E+02  0.00000000000E+00 0.  1.
         11    1    1    2    0    0 -0.27311086920E+02 -0.13633873730E+02 -0.16348526811E+03  0.16631058556E+03  0.00000000000E+00 0. -1.
</event>
<event>
 6    1  0.8259171E-006  0.1202185E+03  0.7561462E-02  0.1242737E+00
          1   -1    0    0  501    0  0.00000000000E+00  0.00000000000E+00  0.54205028386E+02  0.54205028386E+02  0.00000000000E+00 0. -1.
         -1   -1    0    0    0  501 -0.00000000000E+00 -0.00000000000E+00 -0.38277646225E+03  0.38277646225E+03  0.00000000000E+00 0.  1.
          5    1    1    2  502    0  0.24059813675E+02  0.11430379592E+02 -0.12289049404E+03  0.12581364845E+03  0.41800000000E+01 0. -1.
         -5    1    1    2    0  502  0.24830938075E+02 -0.92216955769E+02 -0.51223999017E+02  0.10845235310E+03  0.41800000000E+01 0. -1.
        -11    1    1    2    0    0 -0.34345289593E+02 -0.14423784623E+01 -0.99000060662E+01  0.35772747909E+02  0.00000000000E+00 0. -1.
         11    1    1    2    0    0 -0.14545462158E+02  0.82228954640E+02 -0.14455693475E+03  0.16694274118E+03  0.00000000000E+00 0.  1.
</event>
<event>
 6    1  0.8259171E-006  0.1106622E+03  0.7561462E-02  0.1259348E+00
          1   -1    0    0  501    0  0.00000000000E+00  0.00000000000E+00  0.58222782148E+03  0.58222782148E+03  0.00000000000E+00 0. -1.
         -1   -1    0    0    0  501 -0.00000000000E+00 -0.00000000000E+00 -0.41311846906E+02  0.41311846906E+02  0.00000000000E+00 0.  1.
          5    1    1    2  502    0  0.59731347566E+02 -0.65031199720E+02  0.37547896285E+02  0.96042739104E+02  0.41800000000E+01 0. -1.
         -5    1    1    2    0  502 -0.13025859694E+02  0.74850241892E+01  0.11006622072E+03  0.11116539008E+03  0.41800000000E+01 0. -1.
        -11    1    1    2    0    0 -0.55300900016E+01  0.73105627288E+02  0.33690898157E+03  0.34479367236E+03  0.00000000000E+00 0. -1.
         11    1    1    2    0    0 -0.41175397871E+02 -0.15559451757E+02  0.56392875996E+02  0.71537866839E+02  0.00000000000E+00 0.  1.
</event>
<event>
 6    1  0.8259171E-006  0.1119333E+03  0.7561462E-02  0.1257031E+00
         -2   -1    0    0    0  501 -0.00000000000E+00  0.00000000000E+00  0.15391662547E+03  0.15391662547E+03  0.00000000000E+00 0.  1.
          2   -1    0    0  501    0  0.00000000000E+00 -0.00000000000E+00 -0.99138603187E+02  0.99138603187E+02  0.00000000000E+00 0. -1.
          5    1    1    2  502    0  0.43054979778E+02 -0.87382748206E+01  0.26980957788E+01  0.44213582204E+02  0.41800000000E+01 0. -1.
         -5    1    1    2    0  502 -0.68539981761E+02  0.60752820734E+02  0.40632372586E+02  0.10028507580E+03  0.41800000000E+01 0. -1.
        -11    1    1    2    0    0 -0.18501023878E+02 -0.37355724043E+02 -0.25851474865E+02  0.49051368544E+02  0.00000000000E+00 0. -1.
         11    1    1    2    0    0  0.43986025861E+02 -0.14658821870E+02  0.37299028787E+02  0.59505202110E+02  0.00000000000E+00 0.  1.
</event>
<event>
 6    1  0.8259171E-006  0.2082212E+03  0.7561462E-02  0.1142982E+00
         -1   -1    0    0    0  501 -0.00000000000E+00  0.00000000000E+00  0.67028435586E+02  0.67028435586E+02  0.00000000000E+00 0.  1.
          1   -1    0    0  501    0  0.00000000000E+00 -0.00000000000E+00 -0.72035347169E+03  0.72035347169E+03  0.00000000000E+00 0. -1.
          5    1    1    2  502    0 -0.31926803556E+02  0.53791446142E+02 -0.18232573490E+03  0.19280297318E+03  0.41800000000E+01 0. -1.
         -5    1    1    2    0  502  0.69857128207E+02  0.13257461026E+03 -0.16991767286E+03  0.22659552864E+03  0.41800000000E+01 0. -1.
        -11    1    1    2    0    0 -0.14509695031E+02 -0.17856397474E+03 -0.22275689998E+03  0.28586056184E+03  0.00000000000E+00 0.  1.
         11    1    1    2    0    0 -0.23420629620E+02 -0.78020816625E+01 -0.78324728361E+02  0.82122843612E+02  0.00000000000E+00 0. -1.
</event>
<event>
 6    1  0.8259171E-006  0.2188765E+03  0.7561462E-02  0.1134723E+00
         -1   -1    0    0    0  501 -0.00000000000E+00  0.00000000000E+00  0.44438056170E+02  0.44438056170E+02  0.00000000000E+00 0.  1.
          1   -1    0    0  501    0  0.00000000000E+00 -0.00000000000E+00 -0.14318650830E+04  0.14318650830E+04  0.00000000000E+00 0. -1.
          5    1    1    2  502    0  0.95277571590E+02 -0.10483659111E+03 -0.17899589060E+03  0.22831015688E+03  0.41800000000E+01 0. -1.
         -5    1    1    2    0  502  0.61273154512E+02 -0.45334921250E+02 -0.33306959419E+03  0.34170525533E+03  0.41800000000E+01 0. -1.
        -11    1    1    2    0    0 -0.78117070615E+02  0.51161226878E+02 -0.53822913868E+03  0.54626948805E+03  0.00000000000E+00 0. -1.
         11    1    1    2    0    0 -0.78433655488E+02  0.99010285478E+02 -0.33713240333E+03  0.36001823887E+03  0.00000000000E+00 0.  1.
</event>
<event>
 6    1  0.8259171E-006  0.1254528E+03  0.7561462E-02  0.1234363E+00
          2   -1    0    0  501    0  0.00000000000E+00  0.00000000000E+00  0.24885969172E+03  0.24885969172E+03  0.00000000000E+00 0. -1.
         -2   -1    0    0    0  501 -0.00000000000E+00 -0.00000000000E+00 -0.10158304164E+03  0.10158304164E+03  0.00000000000E+00 0.  1.
          5    1    1    2  502    0 -0.10942527015E+02 -0.71866035942E+02 -0.26883583064E+02  0.77618718476E+02  0.41800000000E+01 0.  1.
         -5    1    1    2    0  502  0.19983277563E+02 -0.42679763578E+02  0.93587217285E+02  0.10486626360E+03  0.41800000000E+01 0.  1.
        -11    1    1    2    0    0 -0.11588872062E+02 -0.39598515894E+01  0.41316289072E+02  0.43093133130E+02  0.00000000000E+00 0. -1.
         11    1    1    2    0    0  0.25481215140E+01  0.11850565111E+03  0.39256726788E+02  0.12486461815E+03  0.00000000000E+00 0.  1.
</event>
<event>
 6    1  0.9422258E-006  0.1404953E+03  0.7561462E-02  0.1212664E+00
          1   -1    0    0  501    0  0.00000000000E+00  0.00000000000E+00  0.28484114998E+03  0.28484114998E+03  0.00000000000E+00 0. -1.
         -1   -1    0    0    0  501 -0.00000000000E+00 -0.00000000000E+00 -0.74188040804E+02  0.74188040804E+02  0.00000000000E+00 0.  1.
          5    1    1    2  502    0 -0.21572335816E+02 -0.97519064598E+02  0.66266988736E+02  0.11993381437E+03  0.41800000000E+01 0.  1.
         -5    1    1    2    0  502  0.57063923034E+02  0.78601594369E+01  0.30822196330E+02  0.65464139840E+02  0.41800000000E+01 0.  1.
        -11    1    1    2    0    0  0.22201631544E+02  0.86677271791E+01  0.50606297994E+02  0.55937816675E+02  0.00000000000E+00 0.  1.
         11    1    1    2    0    0 -0.57693218762E+02  0.80991177982E+02  0.62957626117E+02  0.11769341990E+03  0.00000000000E+00 0. -1.
</event>
<event>
 6    1  0.8259171E-006  0.1339328E+03  0.7561462E-02  0.1221734E+00
          1   -1    0    0  501    0  0.00000000000E+00  0.00000000000E+00  0.62105829449E+02  0.62105829449E+02  0.00000000000E+00 0. -1.
         -1   -1    0    0    0  501 -0.00000000000E+00 -0.00000000000E+00 -0.56651488945E+03  0.56651488945E+03  0.00000000000E+00 0.  1.
          5    1    1    2  502    0 -0.63689986005E+02  0.81202857090E+02 -0.36923483733E+03  0.38340860165E+03  0.41800000000E+01 0. -1.
         -5    1    1    2    0  502  0.39908218576E+02  0.11448689633E+01 -0.10631535321E+03  0.11364155650E+03  0.41800000000E+01 0.  1.
        -11    1    1    2    0    0  0.28469159031E+02 -0.10113959181E+03 -0.11743873320E+02  0.10572430472E+03  0.00000000000E+00 0.  1.
         11    1    1    2    0    0 -0.46873916012E+01  0.18791865754E+02 -0.17114996144E+02  0.25846256045E+02  0.00000000000E+00 0. -1.
</event>
<event>
 6    1  0.8259171E-006  0.1713846E+03  0.7561462E-02  0.1176412E+00
          1   -1    0    0  501    0  0.00000000000E+00  0.00000000000E+00  0.43010393071E+03  0.43010393071E+03  0.00000000000E+00 0. -1.
         -1   -1    0    0    0  501 -0.00000000000E+00 -0.00000000000E+00 -0.91571709999E+02  0.91571709999E+02  0.00000000000E+00 0.  1.
          5    1    1    2  502    0 -0.94449843747E+01 -0.36117628787E+02 -0.17964036757E+02  0.41639762915E+02  0.41800000000E+01 0.  1.
         -5    1    1    2    0  502  0.71205002704E+02 -0.11445044401E+03  0.15353301156E+03  0.20434998063E+03  0.41800000000E+01 0.  1.
        -11    1    1    2    0    0 -0.45006361474E+02  0.14628764051E+03  0.20746974858E+03  0.25781649077E+03  0.00000000000E+00 0. -1.
         11    1    1    2    0    0 -0.16753656855E+02  0.42804322901E+01 -0.45065026683E+01  0.17869406395E+02  0.00000000000E+00 0.  1.
</event>
<event>
 6    1  0.8259171E-006  0.1850099E+03  0.7561462E-02  0.1163041E+00
          2   -1    0    0  501    0  0.00000000000E+00  0.00000000000E+00  0.76141142052E+03  0.76141142052E+03  0.00000000000E+00 0.  1.
         -2   -1    0    0    0  501 -0.00000000000E+00 -0.00000000000E+00 -0.69093345530E+02  0.69093345530E+02  0.00000000000E+00 0. -1.
          5    1    1    2  502    0  0.78860257398E+01 -0.87905436556E+02  0.48346630007E+02  0.10071953242E+03  0.41800000000E+01 0. -1.
         -5    1    1    2    0  502 -0.10832067131E+03 -0.39657749062E+02  0.93595249069E+02  0.14860567937E+03  0.41800000000E+01 0. -1.
        -11    1    1    2    0    0  0.75477825240E+02  0.11677846666E+03  0.52789765270E+03  0.54590296217E+03  0.00000000000E+00 0.  1.
         11    1    1    2    0    0  0.24956820333E+02  0.10784718955E+02  0.22478543213E+02  0.35276592083E+02  0.00000000000E+00 0. -1.
</event>
<event>
 6    1  0.8259171E-006  0.1248777E+03  0.7561462E-02  0.1235261E+00
         -2   -1    0    0    0  501 -0.00000000000E+00  0.00000000000E+00  0.10905912174E+03  0.10905912174E+03  0.00000000000E+00 0.  1.
          2   -1    0    0  501    0  0.00000000000E+00 -0.00000000000E+00 -0.15098136703E+03  0.15098136703E+03  0.00000000000E+00 0. -1.
          5    1    1    2  502    0  0.43972526740E+02  0.73516719009E+02 -0.33908158906E+02  0.92225412561E+02  0.41800000000E+01 0.  1.
         -5    1    1    2    0  502 -0.50806204926E+02 -0.14026948194E+02 -0.18056949497E+02  0.55870847136E+02  0.41800000000E+01 0.  1.
        -11    1    1    2    0    0  0.49881129809E+02 -0.24140299360E+02  0.41750138022E+00  0.55417104504E+02  0.00000000000E+00 0.  1.
         11    1    1    2    0    0 -0.43047451623E+02 -0.35349471455E+02  0.96253617316E+01  0.56527124567E+02  0.00000000000E+00 0. -1.
</event>
<event>
 6    1  0.8259171E-006  0.1725955E+03  0.7561462E-02  0.1175168E+00
          2   -1    0    0  501    0  0.00000000000E+00  0.00000000000E+00  0.52119905168E+03  0.52119905168E+03  0.00000000000E+00 0. -1.
         -2   -1    0    0    0  501 -0.00000000000E+00 -0.00000000000E+00 -0.69209338337E+02  0.69209338337E+02  0.00000000000E+00 0.  1.
          5    1    1    2  502    0  0.15849133032E+03  0.19859753941E+02  0.14154445365E+03  0.21346244722E+03  0.41800000000E+01 0.  1.
         -5    1    1    2    0  502 -0.10474563095E+02  0.24201102275E+02  0.79149127583E+02  0.83531231408E+02  0.41800000000E+01 0.  1.
        -11    1    1    2    0    0 -0.44630533405E+02  0.37735504763E+01  0.14132856054E+03  0.14825615070E+03  0.00000000000E+00 0. -1.
         11    1    1    2    0    0 -0.10338623382E+03 -0.47834406692E+02  0.89967571569E+02  0.14515856069E+03  0.00000000000E+00 0.  1.
</event>
<event>
 6    1  0.8259171E-006  0.1616929E+03  0.7561462E-02  0.1186799E+00
         -1   -1    0    0    0  501 -0.00000000000E+00  0.00000000000E+00  0.18186979980E+02  0.18186979980E+02  0.00000000000E+00 0.  1.
          1   -1    0    0  501    0  0.00000000000E+00 -0.00000000000E+00 -0.17336386285E+04  0.17336386285E+04  0.00000000000E+00 0. -1.
          5    1    1    2  502    0  0.17770275834E+02 -0.72337076508E+02 -0.70659593362E+03  0.71052355425E+03  0.41800000000E+01 0.  1.
         -5    1    1    2    0  502 -0.54530511490E+02 -0.63251327101E+02 -0.22884654965E+03  0.24364425450E+03  0.41800000000E+01 0.  1.
        -11    1    1    2    0    0  0.62138117036E+02  0.63966177084E+02 -0.47713790993E+03  0.48540024978E+03  0.00000000000E+00 0. -1.
         11    1    1    2    0    0 -0.25377881380E+02  0.71622226525E+02 -0.30287125528E+03  0.31225754990E+03  0.00000000000E+00 0.  1.
</event>
<event>
 6    1  0.8259171E-006  0.1441363E+03  0.7561462E-02  0.1207869E+00
         -1   -1    0    0    0  501 -0.00000000000E+00  0.00000000000E+00  0.10996297006E+03  0.10996297006E+03  0.00000000000E+00 0.  1.
          1   -1    0    0  501    0  0.00000000000E+00 -0.00000000000E+00 -0.25499284806E+03  0.25499284806E+03  0.00000000000E+00 0. -1.
          5    1    1    2  502    0 -0.42099477032E+02  0.21119484122E+01  0.11851747937E+02  0.43985936635E+02  0.41800000000E+01 0.  1.
         -5    1    1    2    0  502  0.49196362035E+02  0.11310742917E+03 -0.31440068083E+02  0.12735589053E+03  0.41800000000E+01 0.  1.
        -11    1    1    2    0    0 -0.24276963630E+02 -0.62404211366E+02 -0.13009241716E+02  0.68212146494E+02  0.00000000000E+00 0.  1.
         11    1    1    2    0    0  0.17180078627E+02 -0.52815166218E+02 -0.11243231613E+03  0.12540184446E+03  0.00000000000E+00 0. -1.
</event>
<event>
 6    1  0.8259171E-006  0.4821779E+02  0.7561462E-02  0.1455198E+00
          2   -1    0    0  501    0  0.00000000000E+00  0.00000000000E+00  0.18060301547E+03  0.18060301547E+03  0.00000000000E+00 0. -1.
         -2   -1    0    0    0  501 -0.00000000000E+00 -0.00000000000E+00 -0.82851702225E+02  0.82851702225E+02  0.00000000000E+00 0.  1.
          5    1    1    2  502    0 -0.19912243824E+02  0.11003070170E+02  0.63381823652E+02  0.67470682350E+02  0.41800000000E+01 0. -1.
         -5    1    1    2    0  502 -0.68652237450E+01  0.44844735933E+01 -0.60721126709E+02  0.61414732998E+02  0.41800000000E+01 0. -1.
        -11    1    1    2    0    0 -0.31416336784E+01 -0.30475759674E+02  0.96328268960E+02  0.10108302128E+03  0.00000000000E+00 0. -1.
         11    1    1    2    0    0  0.29919101248E+02  0.14988215911E+02 -0.12376526586E+01  0.33486281068E+02  0.00000000000E+00 0.  1.
</event>
<event>
 6    1  0.8259171E-006  0.7281897E+02  0.7561462E-02  0.1350761E+00
          3   -1    0    0  501    0  0.00000000000E+00  0.00000000000E+00  0.76687339357E+02  0.76687339357E+02  0.00000000000E+00 0. -1.
         -3   -1    0    0    0  501 -0.00000000000E+00 -0.00000000000E+00 -0.16892443899E+03  0.16892443899E+03  0.00000000000E+00 0.  1.
          5    1    1    2  502    0  0.45590037252E+02 -0.54370282963E+02 -0.71681069154E+02  0.10094665542E+03  0.41800000000E+01 0.  1.
         -5    1    1    2    0  502 -0.31019828649E+02  0.37089980890E+02 -0.82294389662E+01  0.49224917649E+02  0.41800000000E+01 0.  1.
        -11    1    1    2    0    0 -0.30308085519E+01  0.13573653427E+02 -0.52067088460E+02  0.53892592891E+02  0.00000000000E+00 0.  1.
         11    1    1    2    0    0 -0.11539400051E+02  0.37066486461E+01  0.39740496943E+02  0.41547612387E+02  0.00000000000E+00 0. -1.
</event>
<event>
 6    1  0.8259171E-006  0.1662330E+03  0.7561462E-02  0.1181834E+00
          1   -1    0    0  501    0  0.00000000000E+00  0.00000000000E+00  0.59771084286E+03  0.59771084286E+03  0.00000000000E+00 0. -1.
         -1   -1    0    0    0  501 -0.00000000000E+00 -0.00000000000E+00 -0.49434544455E+02  0.49434544455E+02  0.00000000000E+00 0.  1.
          5    1    1    2  502    0  0.19327975718E+02 -0.28789653283E+02  0.40470947381E+02  0.53458252528E+02  0.41800000000E+01 0. -1.
         -5    1    1    2    0  502  0.54156494576E+02  0.13275918823E+03  0.18695743447E+03  0.23564482314E+03  0.41800000000E+01 0. -1.
        -11    1    1    2    0    0 -0.45970116677E+02  0.59493478325E+00  0.59357558098E+02  0.75079459761E+02  0.00000000000E+00 0.  1.
         11    1    1    2    0    0 -0.27514353617E+02 -0.10456446973E+03  0.26149035845E+03  0.28296285189E+03  0.00000000000E+00 0. -1.
</event>
<event>
 6    1  0.8259171E-006  0.1735357E+03  0.7561462E-02  0.1174210E+00
          1   -1    0    0  501    0  0.00000000000E+00  0.00000000000E+00  0.75905882851E+03  0.75905882851E+03  0.00000000000E+00 0. -1.
         -1   -1    0    0    0  501 -0.00000000000E+00 -0.00000000000E+00 -0.46235526774E+02  0.46235526774E+02  0.00000000000E+00 0.  1.
          5    1    1    2  502    0 -0.61131537289E+02  0.37708662317E+02  0.23388883209E+03  0.24470485537E+03  0.41800000000E+01 0.  1.
         -5    1    1    2    0  502 -0.12610391605E+01  0.99627745472E+02  0.92632357368E+02  0.13610842707E+03  0.41800000000E+01 0.  1.
        -11    1    1    2    0    0 -0.79063216130E+01 -0.90688061515E+02  0.21704244505E+03  0.23535984656E+03  0.00000000000E+00 0.  1.
         11    1    1    2    0    0  0.70298898063E+02 -0.46648346274E+02  0.16925966723E+03  0.18912122628E+03  0.00000000000E+00 0. -1.
</event>
<event>
 6    1  0.8259171E-006  0.6892330E+02  0.7561462E-02  0.1363793E+00
         -1   -1    0    0    0  501 -0.00000000000E+00  0.00000000000E+00  0.86064409373E+02  0.86064409373E+02  0.00000000000E+00 0.  1.
          1   -1    0    0  501    0  0.00000000000E+00 -0.00000000000E+00 -0.23319818403E+03  0.23319818403E+03  0.00000000000E+00 0. -1.
          5    1    1    2  502    0 -0.21890341905E+02  0.10592927393E+02  0.59833736485E+02  0.64722064254E+02  0.41800000000E+01 0. -1.
         -5    1    1    2    0  502  0.32455308284E+02 -0.36224377513E+02 -0.42305442712E+02  0.64597023500E+02  0.41800000000E+01 0. -1.
        -11    1    1    2    0    0 -0.34762002385E+02  0.16664290914E+02 -0.20835362887E+02  0.43820175126E+02  0.00000000000E+00 0.  1.
         11    1    1    2    0    0  0.24197036006E+02  0.89671592061E+01 -0.14382670554E+03  0.14612333052E+03  0.00000000000E+00 0. -1.
</event>
<event>
 6    1  0.8259171E-006  0.1038993E+03  0.7561462E-02  0.1272304E+00
         -4   -1    0    0    0  501 -0.00000000000E+00  0.00000000000E+00  0.25872085165E+03  0.25872085165E+03  0.00000000000E+00 0.  1.
          4   -1    0    0  501    0  0.00000000000E+00 -0.00000000000E+00 -0.66240648153E+02  0.66240648153E+02  0.00000000000E+00 0. -1.
          5    1    1    2  502    0 -0.30994547602E+02 -0.20287698075E+02  0.87711266233E+01  0.38296967719E+02  0.41800000000E+01 0.  1.
         -5    1    1    2    0  502  0.33473039551E+02  0.89861267639E+02  0.12528481311E+03  0.15782664095E+03  0.41800000000E+01 0.  1.
        -11    1    1    2    0    0  0.81570646752E+01 -0.58918750374E+02  0.81735932004E+02  0.10108768189E+03  0.00000000000E+00 0.  1.
         11    1    1    2    0    0 -0.10635556625E+02 -0.10654819190E+02 -0.23311668240E+02  0.27750209239E+02  0.00000000000E+00 0. -1.
</event>
<event>
 6    1  0.8259171E-006  0.2808762E+03  0.7561462E-02  0.1095211E+00
         -2   -1    0    0    0  501 -0.00000000000E+00  0.00000000000E+00  0.58207516343E+03  0.58207516343E+03  0.00000000000E+00 0.  1.
          2   -1    0    0  501    0  0.00000000000E+00 -0.00000000000E+00 -0.22592996484E+03  0.22592996484E+03  0.00000000000E+00 0. -1.
          5    1    1    2  502    0  0.18710508866E+02  0.85351983764E+02  0.15598260242E+03  0.17883816409E+03  0.41800000000E+01 0. -1.
         -5    1    1    2    0  502  0.21502371885E+03 -0.62814576053E+02  0.28436986923E+03  0.36202840436E+03  0.41800000000E+01 0.  1.
        -11    1    1    2    0    0 -0.53146986411E+02 -0.43157936788E+02 -0.42736042042E+02  0.80706746693E+02  0.00000000000E+00 0.  1.
         11    1    1    2    0    0 -0.18058724131E+03  0.20620529077E+02 -0.41471231028E+02  0.18643181313E+03  0.00000000000E+00 0. -1.
</event>
<event>
 6    1  0.8259171E-006  0.1353823E+03  0.7561462E-02  0.1219681E+00
          1   -1    0    0  501    0  0.00000000000E+00  0.00000000000E+00  0.58847442080E+02  0.58847442080E+02  0.00000000000E+00 0. -1.
         -1   -1    0    0    0  501 -0.00000000000E+00 -0.00000000000E+00 -0.10214438531E+04  0.10214438531E+04  0.00000000000E+00 0.  1.
          5    1    1    2  502    0 -0.20388292748E+02 -0.19223117629E+02 -0.98926899556E+02  0.10290390949E+03  0.41800000000E+01 0.  1.
         -5    1    1    2    0  502  0.77883590128E+02  0.10025321032E+03 -0.82848483874E+03  0.83816535374E+03  0.41800000000E+01 0.  1.
        -11    1    1    2    0    0 -0.28694052947E+02  0.75603612798E+00 -0.43498015702E+02  0.52115234195E+02  0.00000000000E+00 0.  1.
         11    1    1    2    0    0 -0.28801244433E+02 -0.81786128817E+02  0.83133429556E+01  0.87106797777E+02  0.00000000000E+00 0. -1.
</event>
<event>
 6    1  0.8259171E-006  0.1029154E+03  0.7561462E-02  0.1274282E+00
          4   -1    0    0  501    0  0.00000000000E+00  0.00000000000E+00  0.65998615265E+02  0.65998615265E+02  0.00000000000E+00 0. -1.
         -4   -1    0    0    0  501 -0.00000000000E+00 -0.00000000000E+00 -0.21365783417E+03  0.21365783417E+03  0.00000000000E+00 0.  1.
          5    1    1    2  502    0  0.47979450323E+02  0.22985384657E+02 -0.24074390994E+02  0.58544036954E+02  0.41800000000E+01 0. -1.
         -5    1    1    2    0  502 -0.67728285029E+02  0.25059831253E+01 -0.97735096811E+02  0.11900849589E+03  0.41800000000E+01 0. -1.
        -11    1    1    2    0    0 -0.29640377832E+02 -0.17809229434E+02 -0.37261718970E+02  0.50834597978E+02  0.00000000000E+00 0.  1.
         11    1    1    2    0    0  0.49389212538E+02 -0.76821383485E+01  0.11411987866E+02  0.51269318620E+02  0.00000000000E+00 0. -1.
</event>
<event>
 6    1  0.8259171E-006  0.1614328E+03  0.7561462E-02  0.1187089E+00
         -1   -1    0    0    0  501 -0.00000000000E+00  0.00000000000E+00  0.22337763804E+03  0.22337763804E+03  0.00000000000E+00 0.  1.
          1   -1    0    0  501    0  0.00000000000E+00 -0.00000000000E+00 -0.14473541064E+03  0.14473541064E+03  0.00000000000E+00 0. -1.
          5    1    1    2  502    0  0.13708450460E+03 -0.10039097536E+02  0.75258938838E+02  0.15676200163E+03  0.41800000000E+01 0. -1.
         -5    1    1    2    0  502 -0.83439252703E+02 -0.39472193223E+02 -0.12668625277E+02  0.93263762501E+02  0.41800000000E+01 0.  1.
        -11    1    1    2    0    0 -0.48747509966E+02  0.62388030708E+02 -0.18138549169E+02  0.81225569062E+02  0.00000000000E+00 0. -1.
         11    1    1    2    0    0 -0.48977419329E+01 -0.12876739949E+02  0.34190463011E+02  0.36861715488E+02  0.00000000000E+00 0.  1.
</event>
<event>
 6    1  0.8259171E-006  0.1202088E+03  0.7561462E-02  0.1242753E+00
         -2   -1    0    0    0  501 -0.00000000000E+00  0.00000000000E+00  0.61176978456E+02  0.61176978456E+02  0.00000000000E+00 0.  1.
          2   -1    0    0  501    0  0.00000000000E+00 -0.00000000000E+00 -0.42330263916E+03  0.42330263916E+03  0.00000000000E+00 0. -1.
          5    1    1    2  502    0  0.31174038041E+02  0.40473327843E+02 -0.52276503885E+02  0.73213497204E+02  0.41800000000E+01 0. -1.
         -5    1    1    2    0  502 -0.37065054557E+02 -0.83547150416E+02 -0.10025009601E+02  0.92043021623E+02  0.41800000000E+01 0.  1.
        -11    1    1    2    0    0  0.42070161152E+02  0.87480650771E+00 -0.20528973024E+03  0.20955795639E+03  0.00000000000E+00 0.  1.
         11    1    1    2    0    0 -0.36179144636E+02  0.42199016066E+02 -0.94534416986E+02  0.10966514240E+03  0.00000000000E+00 0. -1.
</event>
<event>
 6    1  0.8259171E-006  0.1106038E+03  0.7561462E-02  0.1259456E+00
         -2   -1    0    0    0  501 -0.00000000000E+00  0.00000000000E+00  0.65679134108E+03  0.65679134108E+03  0.00000000000E+00 0.  1.
          2   -1    0    0  501    0  0.00000000000E+00 -0.00000000000E+00 -0.27177393655E+02  0.27177393655E+02  0.00000000000E+00 0. -1.
          5    1    1    2  502    0 -0.30589276051E+02  0.19864544524E+02  0.58271428013E+02  0.68871878594E+02  0.41800000000E+01 0.  1.
         -5    1    1    2    0  502  0.85521750316E+02 -0.53341556225E+01  0.42368442244E+03  0.43228276072E+03  0.41800000000E+01 0.  1.
        -11    1    1    2    0    0 -0.70607243866E+02  0.82136614972E+01  0.13469563365E+03  0.15230154578E+03  0.00000000000E+00 0.  1.
         11    1    1    2    0    0  0.15674769602E+02 -0.22744050399E+02  0.12962463320E+02  0.30512549646E+02  0.00000000000E+00 0. -1.
</event>
<event>
 6    1  0.8259171E-006  0.1224108E+03  0.7561462E-02  0.1239172E+00
          2   -1    0    0  501    0  0.00000000000E+00  0.00000000000E+00  0.55550052619E+02  0.55550052619E+02  0.00000000000E+00 0. -1.
         -2   -1    0    0    0  501 -0.00000000000E+00 -0.00000000000E+00 -0.36101825415E+03  0.36101825415E+03  0.00000000000E+00 0.  1.
          5    1    1    2  502    0  0.26191726773E+02  0.97500221444E+02 -0.16310049872E+03  0.19186334933E+03  0.41800000000E+01 0.  1.
         -5    1    1    2    0  502 -0.83806284765E+01 -0.35907725186E+02 -0.95765970503E+02  0.10270439702E+03  0.41800000000E+01 0.  1.
        -11    1    1    2    0    0  0.34638504599E+02 -0.24132453734E+02 -0.38325917222E+02  0.57018218624E+02  0.00000000000E+00 0.  1.
         11    1    1    2    0    0 -0.52449602895E+02 -0.37460042524E+02 -0.82758150896E+01  0.64982341795E+02  0.00000000000E+00 0. -1.
</event>
<event>
 6    1  0.8259171E-006  0.1222086E+03  0.7561462E-02  0.1239497E+00
          1   -1    0    0  501    0  0.00000000000E+00  0.00000000000E+00  0.43612635638E+02  0.43612635638E+02  0.00000000000E+00 0. -1.
         -1   -1    0    0    0  501 -0.00000000000E+00 -0.00000000000E+00 -0.47572086137E+03  0.47572086137E+03  0.00000000000E+00 0.  1.
          5    1    1    2  502    0  0.42734604145E+02 -0.17305957132E+02 -0.95834818202E+02  0.10643085701E+03  0.41800000000E+01 0. -1.
         -5    1    1    2    0  502 -0.88482190804E+02 -0.25552999981E+02 -0.26565968083E+03  0.28120204892E+03  0.41800000000E+01 0. -1.
        -11    1    1    2    0    0  0.49831084173E+02  0.65849557344E+02 -0.70138492198E+02  0.10834532403E+03  0.00000000000E+00 0.  1.
         11    1    1    2    0    0 -0.40834975139E+01 -0.22990600231E+02 -0.47523450001E+00  0.23355267045E+02  0.00000000000E+00 0. -1.
</event>
<event>
 6    1  0.8259171E-006  0.1831723E+03  0.7561462E-02  0.1164768E+00
          2   -1    0    0  501    0  0.00000000000E+00  0.00000000000E+00  0.49157956030E+02  0.49157956030E+02  0.00000000000E+00 0. -1.
         -2   -1    0    0    0  501 -0.00000000000E+00 -0.00000000000E+00 -0.74552184652E+03  0.74552184652E+03  0.00000000000E+00 0.  1.
          5    1    1    2  502    0 -0.12190912782E+03  0.12091908788E+03 -0.31362601548E+03  0.35757797925E+03  0.41800000000E+01 0. -1.
         -5    1    1    2    0  502  0.27883034550E+02  0.44635866744E+01 -0.60658126376E+02  0.67039301288E+02  0.41800000000E+01 0. -1.
        -11    1    1    2    0    0 -0.54772876509E+00 -0.35706553999E+02 -0.15003307685E+03  0.15422445381E+03  0.00000000000E+00 0.  1.
         11    1    1    2    0    0  0.94573822037E+02 -0.89676120550E+02 -0.17204667179E+03  0.21583806820E+03  0.00000000000E+00 0. -1.
</event>
<event>
 6    1  0.8259171E-006  0.1338331E+03  0.7561462E-02  0.1221876E+00
         -1   -1    0    0    0  501 -0.00000000000E+00  0.00000000000E+00  0.21380323889E+02  0.21380323889E+02  0.00000000000E+00 0.  1.
          1   -1    0    0  501    0  0.00000000000E+00 -0.00000000000E+00 -0.94357035721E+03  0.94357035721E+03  0.00000000000E+00 0. -1.
          5    1    1    2  502    0  0.54382797515E+02  0.72369160567E+02 -0.19886969516E+03  0.21854384485E+03  0.41800000000E+01 0. -1.
         -5    1    1    2    0  502  0.30278679378E+02 -0.37709422770E+02 -0.29813504616E+03  0.30206088317E+03  0.41800000000E+01 0. -1.
        -11    1    1    2    0    0 -0.69249483489E+02  0.19703074858E+02 -0.25876506734E+03  0.26859460567E+03  0.00000000000E+00 0. -1.
         11    1    1    2    0    0 -0.15411993405E+02 -0.54362812655E+02 -0.16642022466E+03  0.17575134741E+03  0.00000000000E+00 0.  1.
</event>
<event>
 6    1  0.8259171E-006  0.1700589E+03  0.7561462E-02  0.1177786E+00
         -1   -1    0    0    0  501 -0.00000000000E+00  0.00000000000E+00  0.11734287127E+03  0.11734287127E+03  0.00000000000E+00 0.  1.
          1   -1    0    0  501    0  0.00000000000E+00 -0.00000000000E+00 -0.28332790131E+03  0.28332790131E+03  0.00000000000E+00 0. -1.
          5    1    1    2  502    0  0.81718989408E+01  0.75706824665E+02 -0.77437146263E+02  0.10868434687E+03  0.41800000000E+01 0. -1.
         -5    1    1    2    0  502 -0.81607232023E+02  0.49923827688E+02  0.63154870875E+01  0.95966070393E+02  0.41800000000E+01 0. -1.
        -11    1    1    2    0    0  0.40264379914E+02 -0.12863738513E+03 -0.59189323080E+02  0.14721471771E+03  0.00000000000E+00 0. -1.
         11    1    1    2    0    0  0.33170953168E+02  0.30067327811E+01 -0.35674047787E+02  0.48805637600E+02  0.00000000000E+00 0.  1.
</event>
<event>
 6    1  0.8259171E-006  0.1086946E+03  0.7561462E-02  0.1263007E+00
          1   -1    0    0  501    0  0.00000000000E+00  0.00000000000E+00  0.26817896960E+02  0.26817896960E+02  0.00000000000E+00 0. -1.
         -1   -1    0    0    0  501 -0.00000000000E+00 -0.00000000000E+00 -0.56210605656E+03  0.56210605656E+03  0.00000000000E+00 0.  1.
          5    1    1    2  502    0 -0.15571485311E+02 -0.49433003245E+02 -0.13937606827E+03  0.14875904602E+03  0.41800000000E+01 0. -1.
         -5    1    1    2    0  502 -0.44667828691E+01  0.75866346352E+02 -0.27656274505E+03  0.28684504355E+03  0.41800000000E+01 0. -1.
        -11    1    1    2    0    0 -0.32213729499E+02 -0.16115088315E+02 -0.77921433131E+02  0.85843870957E+02  0.00000000000E+00 0. -1.
         11    1    1    2    0    0  0.52251997679E+02 -0.10318254792E+02 -0.41427913139E+02  0.67475992993E+02  0.00000000000E+00 0.  1.
</event>
<event>
 6    1  0.8259171E-006  0.9320355E+02  0.7561462E-02  0.1295274E+00
         -1   -1    0    0    0  501 -0.00000000000E+00  0.00000000000E+00  0.39590573673E+03  0.39590573673E+03  0.00000000000E+00 0.  1.
          1   -1    0    0  501    0  0.00000000000E+00 -0.00000000000E+00 -0.61442266063E+02  0.61442266063E+02  0.00000000000E+00 0. -1.
          5    1    1    2  502    0  0.24639698192E+02 -0.75564166816E+02  0.28995793198E+03  0.30068277761E+03  0.41800000000E+01 0.  1.
         -5    1    1    2    0  502  0.21058939043E+02  0.21187252962E+02  0.96523719142E+01  0.31670479713E+02  0.41800000000E+01 0.  1.
        -11    1    1    2    0    0 -0.29379308844E+02  0.12909388145E+02  0.64105034886E+02  0.71688573624E+02  0.00000000000E+00 0.  1.
         11    1    1    2    0    0 -0.16319328390E+02  0.41467525710E+02 -0.29251868120E+02  0.53306171839E+02  0.00000000000E+00 0. -1.
</event>
<event>
 6    1  0.8259171E-006  0.7038996E+02  0.7561462E-02  0.1358772E+00
          2   -1    0    0  501    0  0.00000000000E+00  0.00000000000E+00  0.14578657344E+03  0.14578657344E+03  0.00000000000E+00 0. -1.
         -2   -1    0    0    0  501 -0.00000000000E+00 -0.00000000000E+00 -0.86507018944E+02  0.86507018944E+02  0.00000000000E+00 0.  1.
          5    1    1    2  502    0  0.50089936679E+02 -0.44345492446E+01 -0.37898561938E+02  0.63106579534E+02  0.41800000000E+01 0.  1.
         -5    1    1    2    0  502 -0.47475981462E+02  0.11412155932E+02  0.38312086163E+02  0.62205260750E+02  0.41800000000E+01 0.  1.
        -11    1    1    2    0    0 -0.59529633710E+01  0.16530463378E+02  0.75805255908E+02  0.77814721073E+02  0.00000000000E+00 0. -1.
         11    1    1    2    0    0  0.33390081543E+01 -0.23508070065E+02 -0.16939225638E+02  0.29167031026E+02  0.00000000000E+00 0.  1.
</event>
<event>
 6    1  0.1512011E-005  0.1770730E+03  0.7561462E-02  0.1170666E+00
          1   -1    0    0  501    0  0.00000000000E+00  0.00000000000E+00  0.79559685191E+03  0.79559685191E+03  0.00000000000E+00 0. -1.
         -1   -1    0    0    0  501 -0.00000000000E+00 -0.00000000000E+00 -0.57365474342E+02  0.57365474342E+02  0.00000000000E+00 0.  1.
          5    1    1    2  502    0  0.73080111524E+01  0.94925490792E+01  0.12319683011E+03  0.12384848349E+03  0.41800000000E+01 0. -1.
         -5    1    1    2    0  502  0.16466685146E+03  0.23291254901E+02  0.15078952976E+03  0.22452752439E+03  0.41800000000E+01 0. -1.
        -11    1    1    2    0    0 -0.64948352605E+02 -0.13920588418E+02  0.73759270346E+02  0.99259766522E+02  0.00000000000E+00 0.  1.
         11    1    1    2    0    0 -0.10702651000E+03 -0.18863215562E+02  0.39048574736E+03  0.40532655185E+03  0.00000000000E+00 0. -1.
</event>
<event>
 6    1  0.8259171E-006  0.1069528E+03  0.7561462E-02  0.1266319E+00
          2   -1    0    0  501    0  0.00000000000E+00  0.00000000000E+00  0.63480892123E+03  0.63480892123E+03  0.00000000000E+00 0. -1.
         -2   -1    0    0    0  501 -0.00000000000E+00 -0.00000000000E+00 -0.29546885521E+02  0.29546885521E+02  0.00000000000E+00 0.  1.
          5    1    1    2  502    0 -0.46798435403E+00 -0.84279659986E+02  0.89880617084E+02  0.12328535121E+03  0.41800000000E+01 0. -1.
         -5    1    1    2    0  502 -0.35452310045E+01  0.19834375551E+01  0.22845556349E+03  0.22852990959E+03  0.41800000000E+01 0. -1.
        -11    1    1    2    0    0  0.48002928544E+02  0.37557142273E+02  0.13200768108E+03  0.14539892691E+03  0.00000000000E+00 0. -1.
         11    1    1    2    0    0 -0.43989713185E+02  0.44739080157E+02  0.15491817405E+03  0.16714161903E+03  0.00000000000E+00 0.  1.
</event>
<event>
 6    1  0.8259171E-006  0.4525933E+03  0.7561462E-02  0.1026952E+00
         -1   -1    0    0    0  501 -0.00000000000E+00  0.00000000000E+00  0.30940715764E+03  0.30940715764E+03  0.00000000000E+00 0.  1.
          1   -1    0    0  501    0  0.00000000000E+00 -0.00000000000E+00 -0.75885503624E+03  0.75885503624E+03  0.00000000000E+00 0. -1.
          5    1    1    2  502    0  0.56754704837E+01 -0.21053192962E+03 -0.23983154104E+02  0.21201077434E+03  0.41800000000E+01 0. -1.
         -5    1    1    2    0  502 -0.12364132885E+03 -0.21348953194E+03 -0.14676956194E+02  0.24717978050E+03  0.41800000000E+01 0. -1.
        -11    1    1    2    0    0 -0.10925832085E+02  0.12717250381E+02 -0.27853948926E+02  0.32510686471E+02  0.00000000000E+00 0.  1.
         11    1    1    2    0    0  0.12889169045E+03  0.41130421118E+03 -0.38293381937E+03  0.57656095256E+03  0.00000000000E+00 0. -1.
</event>
<event>
 6    1  0.8421054E-006  0.2208419E+03  0.7561462E-02  0.1133257E+00
          2   -1    0    0  501    0  0.00000000000E+00  0.00000000000E+00  0.13248544999E+04  0.13248544999E+04  0.00000000000E+00 0. -1.
         -2   -1    0    0    0  501 -0.00000000000E+00 -0.00000000000E+00 -0.45706258682E+02  0.45706258682E+02  0.00000000000E+00 0.  1.
          5    1    1    2  502    0  0.10272306365E+03 -0.84598378293E+02  0.24636396299E+03  0.28003854749E+03  0.41800000000E+01 0.  1.
         -5    1    1    2    0  502  0.87050846430E+02  0.40170886990E+02  0.12438897760E+03  0.15710391521E+03  0.41800000000E+01 0.  1.
        -11    1    1    2    0    0 -0.55853055172E+02 -0.25616598295E+02  0.32548494368E+03  0.33123439200E+03  0.00000000000E+00 0. -1.
         11    1    1    2    0    0 -0.13392085491E+03  0.70044089598E+02  0.58291035697E+03  0.60218390392E+03  0.00000000000E+00 0.  1.
</event>
<event>
 6    1  0.8259171E-006  0.8121346E+02  0.7561462E-02  0.1325643E+00
         -1   -1    0    0    0  501 -0.00000000000E+00  0.00000000000E+00  0.58459150631E+02  0.58459150631E+02  0.00000000000E+00 0.  1.
          1   -1    0    0  501    0  0.00000000000E+00 -0.00000000000E+00 -0.29579389012E+03  0.29579389012E+03  0.00000000000E+00 0. -1.
          5    1    1    2  502    0  0.15039863143E+02  0.19441711758E+02 -0.10558923828E+03  0.10849302871E+03  0.41800000000E+01 0.  1.
         -5    1    1    2    0  502  0.52784847490E+02 -0.40024739277E+02  0.56550228082E+01  0.66615850679E+02  0.41800000000E+01 0.  1.
        -11    1    1    2    0    0 -0.27444967940E+02  0.11333846002E+02 -0.13436587614E+03  0.13760767058E+03  0.00000000000E+00 0. -1.
         11    1    1    2    0    0 -0.40379742692E+02  0.92491815168E+01 -0.30346478789E+01  0.41536490781E+02  0.00000000000E+00 0.  1.
</event>
<event>
 6    1  0.8259171E-006  0.4770650E+02  0.7561462E-02  0.1458120E+00
         -1   -1    0    0    0  501 -0.00000000000E+00  0.00000000000E+00  0.42708793042E+03  0.42708793042E+03  0.00000000000E+00 0.  1.
          1   -1    0    0  501    0  0.00000000000E+00 -0.00000000000E+00 -0.43984266478E+02  0.43984266478E+02  0.00000000000E+00 0. -1.
          5    1    1    2  502    0 -0.19863860389E+01 -0.27996817975E+01 -0.12719553760E+02  0.13821844867E+02  0.41800000000E+01 0. -1.
         -5    1    1    2    0  502  0.48499717712E+01 -0.43322127765E+02  0.29662131278E+03  0.29983662981E+03  0.41800000000E+01 0. -1.
        -11    1    1    2    0    0 -0.10890888272E+01  0.19664699197E+02 -0.24196375931E+02  0.31198575563E+02  0.00000000000E+00 0. -1.
         11    1    1    2    0    0 -0.17744969051E+01  0.26457110366E+02  0.12339828086E+03  0.12621514666E+03  0.00000000000E+00 0.  1.
</event>
<event>
 6    1  0.8259171E-006  0.9882951E+02  0.7561462E-02  0.1282777E+00
          2   -1    0    0  501    0  0.00000000000E+00  0.00000000000E+00  0.48808028311E+03  0.48808028311E+03  0.00000000000E+00 0.  1.
         -2   -1    0    0    0  501 -0.00000000000E+00 -0.00000000000E+00 -0.34183776849E+02  0.34183776849E+02  0.00000000000E+00 0. -1.
          5    1    1    2  502    0 -0.26314811215E+02  0.40980188732E+02  0.15393977294E+03  0.16151399707E+03  0.41800000000E+01 0. -1.
         -5    1    1    2    0  502  0.72827507587E+02  0.70365868313E+01  0.57802584729E+02  0.93337937715E+02  0.41800000000E+01 0. -1.
        -11    1    1    2    0    0 -0.10627489428E+02 -0.36175128478E+02  0.22082295841E+03  0.22401866533E+03  0.00000000000E+00 0.  1.
         11    1    1    2    0    0 -0.35885206944E+02 -0.11841647086E+02  0.21331190184E+02  0.43393459850E+02  0.00000000000E+00 0. -1.
</event>
<event>
 6    1  0.8259171E-006  0.9452730E+02  0.7561462E-02  0.1292244E+00
          1   -1    0    0  501    0  0.00000000000E+00  0.00000000000E+00  0.15111828700E+03  0.15111828700E+03  0.00000000000E+00 0. -1.
         -1   -1    0    0    0  501 -0.00000000000E+00 -0.00000000000E+00 -0.96543551164E+02  0.96543551164E+02  0.00000000000E+00 0.  1.
          5    1    1    2  502    0 -0.52337367757E+02 -0.48735635348E+02  0.22210245811E+02  0.75000864231E+02  0.41800000000E+01 0.  1.
         -5    1    1    2    0  502  0.46169565135E+02  0.98724836034E+01 -0.30599388419E+02  0.56417104222E+02  0.41800000000E+01 0.  1.
        -11    1    1    2    0    0  0.31924816156E+02  0.16641799056E+02 -0.85923717916E+01  0.37013135715E+02  0.00000000000E+00 0.  1.
         11    1    1    2    0    0 -0.25757013534E+02  0.22221352688E+02  0.71556250233E+02  0.79230733992E+02  0.00000000000E+00 0. -1.
</event>
<event>
 6    1  0.8259171E-006  0.2039015E+03  0.7561462E-02  0.1146488E+00
          1   -1    0    0  501    0  0.00000000000E+00  0.00000000000E+00  0.19328569083E+03  0.19328569083E+03  0.00000000000E+00 0. -1.
         -1   -1    0    0    0  501 -0.00000000000E+00 -0.00000000000E+00 -0.28520416389E+03  0.28520416389E+03  0.00000000000E+00 0.  1.
          5    1    1    2  502    0 -0.11370166535E+01 -0.69818848575E+02 -0.11352833484E+03  0.13334961431E+03  0.41800000000E+01 0.  1.
         -5    1    1    2    0  502 -0.75838987444E+02 -0.10466337374E+03 -0.19777028423E+02  0.13082269326E+03  0.41800000000E+01 0.  1.
        -11    1    1    2    0    0 -0.15448680843E+02  0.56965910160E+02  0.24326580683E+02  0.63840106421E+02  0.00000000000E+00 0. -1.
         11    1    1    2    0    0  0.92424684940E+02  0.11751631215E+03  0.17060309521E+02  0.15047744073E+03  0.00000000000E+00 0.  1.
</event>
<event>
 6    1  0.8259171E-006  0.2650346E+03  0.7561462E-02  0.1104155E+00
         -2   -1    0    0    0  501 -0.00000000000E+00  0.00000000000E+00  0.96992558238E+02  0.96992558238E+02  0.00000000000E+00 0.  1.
          2   -1    0    0  501    0  0.00000000000E+00 -0.00000000000E+00 -0.73589708996E+03  0.73589708996E+03  0.00000000000E+00 0. -1.
          5    1    1    2  502    0 -0.12416770513E+03 -0.16845208358E+03 -0.20894187184E+03  0.29574972809E+03  0.41800000000E+01 0. -1.
         -5    1    1    2    0  502  0.84350853336E+02  0.20026096355E+03 -0.29136662724E+03  0.36349897366E+03  0.41800000000E+01 0.  1.
        -11    1    1    2    0    0  0.67321836817E+02 -0.94721343572E+01 -0.10301899690E+03  0.12342959436E+03  0.00000000000E+00 0. -1.
         11    1    1    2    0    0 -0.27504985027E+02 -0.22336745612E+02 -0.35577035737E+02  0.50211352080E+02  0.00000000000E+00 0.  1.
</event>
<event>
 6    1  0.8259171E-006  0.9501460E+02  0.7561462E-02  0.1291143E+00
         -2   -1    0    0    0  501 -0.00000000000E+00  0.00000000000E+00  0.62306970582E+02  0.62306970582E+02  0.00000000000E+00 0.  1.
          2   -1    0    0  501    0  0.00000000000E+00 -0.00000000000E+00 -0.29721682067E+03  0.29721682067E+03  0.00000000000E+00 0. -1.
          5    1    1    2  502    0 -0.15039538978E+02  0.62093685741E+02 -0.65813522344E+02  0.91818874231E+02  0.41800000000E+01 0.  1.
         -5    1    1    2    0  502  0.52951533519E+02 -0.17505433696E+02  0.10575106302E+02  0.56917575354E+02  0.41800000000E+01 0.  1.
        -11    1    1    2    0    0 -0.40989360553E+02 -0.20567830301E+02 -0.18081840249E+03  0.18654344802E+03  0.00000000000E+00 0. -1.
         11    1    1    2    0    0  0.30773660119E+01 -0.24020421745E+02  0.11469684438E+01  0.24243893643E+02  0.00000000000E+00 0.  1.
</event>
<event>
 6    1  0.8259171E-006  0.1002991E+03  0.7561462E-02  0.1279668E+00
         -2   -1    0    0    0  501 -0.00000000000E+00  0.00000000000E+00  0.92413380320E+02  0.92413380320E+02  0.00000000000E+00 0. -1.
          2   -1    0    0  501    0  0.00000000000E+00 -0.00000000000E+00 -0.20915901297E+03  0.20915901297E+03  0.00000000000E+00 0.  1.
          5    1    1    2  502    0  0.69294819461E+01  0.48247981606E+02  0.53599057406E+02  0.72568704025E+02  0.41800000000E+01 0.  1.
         -5    1    1    2    0  502 -0.38745758126E+02  0.76073993884E+01 -0.55307136973E+02  0.68084198595E+02  0.41800000000E+01 0.  1.
        -11    1    1    2    0    0  0.61735017114E+02 -0.53956857002E+02 -0.91040143863E+02  0.12251882529E+03  0.00000000000E+00 0.  1.
         11    1    1    2    0    0 -0.29918740933E+02 -0.18985239924E+01 -0.23997409216E+02  0.38400665378E+02  0.00000000000E+00 0. -1.
</event>
<event>
 6    1  0.8259171E-006  0.1318733E+03  0.7561462E-02  0.1224702E+00
         -2   -1    0    0    0  501 -0.00000000000E+00  0.00000000000E+00  0.26966872891E+03  0.26966872891E+03  0.00000000000E+00 0.  1.
          2   -1    0    0  501    0  0.00000000000E+00 -0.00000000000E+00 -0.88236007875E+02  0.88236007875E+02  0.00000000000E+00 0. -1.
          5    1    1    2  502    0  0.83418129784E+02  0.63449579826E+02  0.21816238090E+02  0.10713474787E+03  0.41800000000E+01 0. -1.
         -5    1    1    2    0  502  0.22742734777E+02 -0.39554316940E+02  0.66396866598E+02  0.80670888602E+02  0.41800000000E+01 0. -1.
        -11    1    1    2    0    0 -0.81451249092E+02 -0.44090499295E+01  0.11307900584E+02  0.82350557470E+02  0.00000000000E+00 0. -1.
         11    1    1    2    0    0 -0.24709615469E+02 -0.19486212957E+02  0.81911715765E+02  0.87748542846E+02  0.00000000000E+00 0.  1.
</event>
<event>
 6    1  0.8259171E-006  0.2822185E+03  0.7561462E-02  0.1094483E+00
          1   -1    0    0  501    0  0.00000000000E+00  0.00000000000E+00  0.59464199726E+03  0.59464199726E+03  0.00000000000E+00 0. -1.
         -1   -1    0    0    0  501 -0.00000000000E+00 -0.00000000000E+00 -0.15480144978E+03  0.15480144978E+03  0.00000000000E+00 0.  1.
          5    1    1    2  502    0  0.99345666296E+02 -0.20710350363E+03  0.16959950645E+03  0.28555715298E+03  0.41800000000E+01 0.  1.
         -5    1    1    2    0  502 -0.82443207433E+01 -0.55160492825E+02 -0.12178516186E+02  0.57240173390E+02  0.41800000000E+01 0.  1.
        -11    1    1    2    0    0 -0.58284029349E+02  0.20088567966E+03  0.15115133245E+03  0.25806745178E+03  0.00000000000E+00 0.  1.
         11    1    1    2    0    0 -0.32817316203E+02  0.61378316802E+02  0.13126822476E+03  0.14857866889E+03  0.00000000000E+00 0. -1.
</event>
<event>
 6    1  0.8259171E-006  0.1955288E+03  0.7561462E-02  0.1153567E+00
          2   -1    0    0  501    0  0.00000000000E+00  0.00000000000E+00  0.49784034552E+03  0.49784034552E+03  0.00000000000E+00 0. -1.
         -2   -1    0    0    0  501 -0.00000000000E+00 -0.00000000000E+00 -0.11011223716E+03  0.11011223716E+03  0.00000000000E+00 0.  1.
          5    1    1    2  502    0  0.43545211542E+01  0.83772687025E+02  0.54514028654E+02  0.10013029844E+03  0.41800000000E+01 0. -1.
         -5    1    1    2    0  502  0.11899932585E+03  0.45933345212E+02  0.12197439592E+02  0.12820671467E+03  0.41800000000E+01 0. -1.
        -11    1    1    2    0    0 -0.20352032064E+02 -0.15033007616E+02  0.20839679445E+01  0.25387781500E+02  0.00000000000E+00 0.  1.
         11    1    1    2    0    0 -0.10300181494E+03 -0.11467302462E+03  0.31893267217E+03  0.35422778806E+03  0.00000000000E+00 0. -1.
</event>
<event>
 6    1  0.8259171E-006  0.2742807E+03  0.7561462E-02  0.1098854E+00
         -2   -1    0    0    0  501 -0.00000000000E+00  0.00000000000E+00  0.42630501445E+02  0.42630501445E+02  0.00000000000E+00 0.  1.
          2   -1    0    0  501    0  0.00000000000E+00 -0.00000000000E+00 -0.19566557984E+04  0.19566557984E+04  0.00000000000E+00 0. -1.
          5    1    1    2  502    0  0.23402365456E+03 -0.11455398780E+03 -0.11114529141E+04  0.11415930710E+04  0.41800000000E+01 0.  1.
         -5    1    1    2    0  502 -0.52923014718E+01 -0.15148909154E+02 -0.16692788199E+02  0.23529119857E+02  0.41800000000E+01 0.  1.
        -11    1    1    2    0    0 -0.11196007959E+03  0.10181937768E+03 -0.33539380385E+03  0.36795549833E+03  0.00000000000E+00 0.  1.
         11    1    1    2    0    0 -0.11677127350E+03  0.27883519273E+02 -0.45048579078E+03  0.46620861066E+03  0.00000000000E+00 0. -1.
</event>
<event>
 6    1  0.8259171E-006  0.1330653E+03  0.7561462E-02  0.1222977E+00
          2   -1    0    0  501    0  0.00000000000E+00  0.00000000000E+00  0.25069424066E+03  0.25069424066E+03  0.00000000000E+00 0. -1.
         -2   -1    0    0    0  501 -0.00000000000E+00 -0.00000000000E+00 -0.11455866542E+03  0.11455866542E+03  0.00000000000E+00 0.  1.
          5    1    1    2  502    0 -0.50310819765E+02  0.79955017598E+01  0.31598600189E+02  0.60092017504E+02  0.41800000000E+01 0.  1.
         -5    1    1    2    0  502 -0.98394617002E+01 -0.87261165416E+02 -0.49120028727E+02  0.10070539022E+03  0.41800000000E+01 0.  1.
        -11    1    1    2    0    0 -0.13522042687E+02  0.42829922360E+02  0.23949235783E+02  0.50900037155E+02  0.00000000000E+00 0.  1.
         11    1    1    2    0    0  0.73672324151E+02  0.36435741296E+02  0.12970776800E+03  0.15355546121E+03  0.00000000000E+00 0. -1.
</event>
<event>
 6    1  0.8259171E-006  0.1572874E+03  0.7561462E-02  0.1191794E+00
          2   -1    0    0  501    0  0.00000000000E+00  0.00000000000E+00  0.10713929604E+04  0.10713929604E+04  0.00000000000E+00 0. -1.
         -2   -1    0    0    0  501 -0.00000000000E+00 -0.00000000000E+00 -0.34183603637E+02  0.34183603637E+02  0.00000000000E+00 0.  1.
          5    1    1    2  502    0  0.37082126529E+00  0.21544842152E+01  0.17828045207E+03  0.17834284763E+03  0.41800000000E+01 0. -1.
         -5    1    1    2    0  502 -0.10387413789E+03  0.10866073445E+03  0.23009025314E+03  0.27487449632E+03  0.41800000000E+01 0. -1.
        -11    1    1    2    0    0  0.54021283972E+02 -0.23070721592E+02  0.11952957469E+03  0.13318361965E+03  0.00000000000E+00 0.  1.
         11    1    1    2    0    0  0.49482032655E+02 -0.87744497073E+02  0.50930907685E+03  0.51917560043E+03  0.00000000000E+00 0. -1.
</event>
<event>
 6    1  0.8259171E-006  0.9965590E+02  0.7561462E-02  0.1281021E+00
          2   -1    0    0  501    0  0.00000000000E+00  0.00000000000E+00  0.11627603894E+03  0.11627603894E+03  0.00000000000E+00 0. -1.
         -2   -1    0    0    0  501 -0.00000000000E+00 -0.00000000000E+00 -0.16373608223E+03  0.16373608223E+03  0.00000000000E+00 0.  1.
          5    1    1    2  502    0 -0.61959307659E+02 -0.47396517393E+02 -0.76372747109E+02  0.10925042136E+03  0.41800000000E+01 0.  1.
         -5    1    1    2    0  502 -0.52028254235E+01 -0.62336481332E+01  0.44842516744E+02  0.45762992356E+02  0.41800000000E+01 0.  1.
        -11    1    1    2    0    0 -0.46859596547E+00 -0.15407355085E+02 -0.23449795936E+02  0.28062414406E+02  0.00000000000E+00 0.  1.
         11    1    1    2    0    0  0.67630729048E+02  0.69037520610E+02  0.75199830104E+01  0.96936293039E+02  0.00000000000E+00 0. -1.
</event>
<event>
 6    1  0.8259171E-006  0.1327008E+03  0.7561462E-02  0.1223502E+00
         -4   -1    0    0    0  501 -0.00000000000E+00  0.00000000000E+00  0.18346549494E+03  0.18346549494E+03  0.00000000000E+00 0.  1.
          4   -1    0    0  501    0  0.00000000000E+00 -0.00000000000E+00 -0.12060599394E+03  0.12060599394E+03  0.00000000000E+00 0. -1.
          5    1    1    2  502    0 -0.26536129809E+02  0.45129397753E+02  0.71817777432E+02  0.88972435518E+02  0.41800000000E+01 0.  1.
         -5    1    1    2    0  502 -0.51964647278E+02 -0.50258606751E+02 -0.62668516487E+01  0.72684234527E+02  0.41800000000E+01 0.  1.
        -11    1    1    2    0    0  0.24081163249E+01 -0.47747100890E+02  0.10136071034E+02  0.48870488064E+02  0.00000000000E+00 0.  1.
         11    1    1    2    0    0  0.76092660762E+02  0.52876309888E+02 -0.12827495818E+02  0.93544330765E+02  0.00000000000E+00 0. -1.
</event>
<event>
 6    1  0.8259171E-006  0.2410766E+03  0.7561462E-02  0.1119078E+00
         -2   -1    0    0    0  501 -0.00000000000E+00  0.00000000000E+00  0.99967856901E+02  0.99967856901E+02  0.00000000000E+00 0.  1.
          2   -1    0    0  501    0  0.00000000000E+00 -0.00000000000E+00 -0.65735361980E+03  0.65735361980E+03  0.00000000000E+00 0. -1.
          5    1    1    2  502    0  0.34952413118E+02  0.16155609611E+03 -0.29397658342E+03  0.33728585409E+03  0.41800000000E+01 0. -1.
         -5    1    1    2    0  502 -0.18343138511E+02  0.68773074135E+02 -0.24230849269E+02  0.75304800064E+02  0.41800000000E+01 0. -1.
        -11    1    1    2    0    0  0.25678898583E+02 -0.16942935180E+03 -0.14234661741E+03  0.22277403478E+03  0.00000000000E+00 0.  1.
         11    1    1    2    0    0 -0.42288173190E+02 -0.60899818442E+02 -0.96831712804E+02  0.12195678777E+03  0.00000000000E+00 0. -1.
</event>
<event>
 6    1  0.8259171E-006  0.1224536E+03  0.7561462E-02  0.1239103E+00
         -1   -1    0    0    0  501 -0.00000000000E+00  0.00000000000E+00  0.51085847005E+03  0.51085847005E+03  0.00000000000E+00 0.  1.
          1   -1    0    0  501    0  0.00000000000E+00 -0.00000000000E+00 -0.52629913775E+02  0.52629913775E+02  0.00000000000E+00 0. -1.
          5    1    1    2  502    0 -0.11486807811E+02 -0.28505012657E+02  0.26248143316E+03  0.26430750586E+03  0.41800000000E+01 0. -1.
         -5    1    1    2    0  502 -0.40506326214E+02 -0.79514826640E+02  0.81870051603E+02  0.12117569009E+03  0.41800000000E+01 0. -1.
        -11    1    1    2    0    0  0.88894304330E+01  0.57340907376E+02  0.16966546235E+02  0.60455482160E+02  0.00000000000E+00 0. -1.
         11    1    1    2    0    0  0.43103703592E+02  0.50678931921E+02  0.96910525270E+02  0.11754970571E+03  0.00000000000E+00 0.  1.
</event>
<event>
 6    1  0.8265129E-006  0.1969436E+03  0.7561462E-02  0.1152344E+00
          2   -1    0    0  501    0  0.00000000000E+00  0.00000000000E+00  0.10582962824E+04  0.10582962824E+04  0.00000000000E+00 0. -1.
         -2   -1    0    0    0  501 -0.00000000000E+00 -0.00000000000E+00 -0.51242824149E+02  0.51242824149E+02  0.00000000000E+00 0.  1.
          5    1    1    2  502    0 -0.86048138027E+02  0.27603011683E+01  0.49846524102E+02  0.99569321005E+02  0.41800000000E+01 0.  1.
         -5    1    1    2    0  502 -0.10342895445E+03  0.30940873249E+02  0.29992491636E+03  0.31879039212E+03  0.41800000000E+01 0.  1.
        -11    1    1    2    0    0  0.11300988052E+03  0.66285007531E+01  0.24441180317E+03  0.26935534085E+03  0.00000000000E+00 0.  1.
         11    1    1    2    0    0  0.76467211962E+02 -0.40329675170E+02  0.41287021457E+03  0.42182405252E+03  0.00000000000E+00 0. -1.
</event>
<event>
 6    1  0.8259171E-006  0.1345875E+03  0.7561462E-02  0.1220803E+00
          1   -1    0    0  501    0  0.00000000000E+00  0.00000000000E+00  0.37752815852E+03  0.37752815852E+03  0.00000000000E+00 0. -1.
         -1   -1    0    0    0  501 -0.00000000000E+00 -0.00000000000E+00 -0.56233720070E+02  0.56233720070E+02  0.00000000000E+00 0.  1.
          5    1    1    2  502    0 -0.37537972519E+02  0.94407216951E+02  0.99187357921E+02  0.14204726806E+03  0.41800000000E+01 0. -1.
         -5    1    1    2    0  502  0.44278432413E+02 -0.58699714203E+01  0.92377283458E+01  0.45802228837E+02  0.41800000000E+01 0. -1.
        -11    1    1    2    0    0  0.38030051150E+02 -0.27481536567E+02  0.70964545893E+02  0.85073417801E+02  0.00000000000E+00 0.  1.
         11    1    1    2    0    0 -0.44770511044E+02 -0.61055708963E+02  0.14190480629E+03  0.16083896388E+03  0.00000000000E+00 0. -1.
</event>
<event>
 6    1  0.8259171E-006  0.9776624E+02  0.7561462E-02  0.1285065E+00
          3   -1    0    0  501    0  0.00000000000E+00  0.00000000000E+00  0.18430445295E+03  0.18430445295E+03  0.00000000000E+00 0. -1.
         -3   -1    0    0    0  501 -0.00000000000E+00 -0.00000000000E+00 -0.82893603088E+02  0.82893603088E+02  0.00000000000E+00 0.  1.
          5    1    1    2  502    0  0.45512976548E+02 -0.44864407889E+02  0.12270906851E+02  0.65209613435E+02  0.41800000000E+01 0.  1.
         -5    1    1    2    0  502 -0.54240542341E+02  0.25565895337E+02 -0.13777010841E+02  0.61667899798E+02  0.41800000000E+01 0.  1.
        -11    1    1    2    0    0 -0.29100750615E+02  0.42612353517E+00  0.48150080243E-01  0.29103910151E+02  0.00000000000E+00 0.  1.
         11    1    1    2    0    0  0.37828316408E+02  0.18872389017E+02  0.10286880378E+03  0.11121663266E+03  0.00000000000E+00 0. -1.
</event>
<event>
 6    1  0.8259171E-006  0.1235677E+03  0.7561462E-02  0.1237325E+00
          1   -1    0    0  501    0  0.00000000000E+00  0.00000000000E+00  0.29887881486E+03  0.29887881486E+03  0.00000000000E+00 0. -1.
         -1   -1    0    0    0  501 -0.00000000000E+00 -0.00000000000E+00 -0.85381022592E+02  0.85381022592E+02  0.00000000000E+00 0.  1.
          5    1    1    2  502    0  0.63814452965E+01  0.44595830198E+02 -0.14055952417E+02  0.47376714887E+02  0.41800000000E+01 0. -1.
         -5    1    1    2    0  502  0.54815171288E+02 -0.76581329084E+02  0.15365749553E+02  0.95514300641E+02  0.41800000000E+01 0. -1.
        -11    1    1    2    0    0 -0.25239471508E+02 -0.27992547315E+02  0.37342453980E+02  0.53057256774E+02  0.00000000000E+00 0.  1.
         11    1    1    2    0    0 -0.35957145077E+02  0.59978046201E+02  0.17484554116E+03  0.18831156515E+03  0.00000000000E+00 0. -1.
</event>
<event>
 6    1  0.8259171E-006  0.9394064E+02  0.7561462E-02  0.1293580E+00
         -2   -1    0    0    0  501 -0.00000000000E+00  0.00000000000E+00  0.23785833830E+02  0.23785833830E+02  0.00000000000E+00 0.  1.
          2   -1    0    0  501    0  0.00000000000E+00 -0.00000000000E+00 -0.63095353329E+03  0.63095353329E+03  0.00000000000E+00 0. -1.
          5    1    1    2  502    0  0.29467134073E+02 -0.19419284483E+02 -0.85088922890E+01  0.36541678236E+02  0.41800000000E+01 0. -1.
         -5    1    1    2    0  502 -0.17888348987E+02  0.53413053674E+02 -0.21304917730E+03  0.22040955442E+03  0.41800000000E+01 0. -1.
        -11    1    1    2    0    0  0.34755206407E+01 -0.63044700047E+02 -0.21546265294E+03  0.22452364744E+03  0.00000000000E+00 0. -1.
         11    1    1    2    0    0 -0.15054305726E+02  0.29050930856E+02 -0.17014697693E+03  0.17326448702E+03  0.00000000000E+00 0.  1.
</event>
<event>
 6    1  0.8259171E-006  0.1841711E+03  0.7561462E-02  0.1163826E+00
         -2   -1    0    0    0  501 -0.00000000000E+00  0.00000000000E+00  0.76745084494E+02  0.76745084494E+02  0.00000000000E+00 0.  1.
          2   -1    0    0  501    0  0.00000000000E+00 -0.00000000000E+00 -0.76526105852E+03  0.76526105852E+03  0.00000000000E+00 0. -1.
          5    1    1    2  502    0  0.12899305370E+03 -0.11195111553E+02 -0.11740008352E+03  0.17482788804E+03  0.41800000000E+01 0.  1.
         -5    1    1    2    0  502  0.30586975944E+02  0.48723611902E+02  0.86065025723E+01  0.58318931238E+02  0.41800000000E+01 0.  1.
        -11    1    1    2    0    0 -0.10078494357E+03 -0.61002147307E+02 -0.30559562650E+03  0.32751725720E+03  0.00000000000E+00 0.  1.
         11    1    1    2    0    0 -0.58795086078E+02  0.23473646959E+02 -0.27412676658E+03  0.28134206654E+03  0.00000000000E+00 0. -1.
</event>
<event>
 6    1  0.8259171E-006  0.1488877E+03  0.7561462E-02  0.1201847E+00
         -1   -1    0    0    0  501 -0.00000000000E+00  0.00000000000E+00  0.10287580755E+04  0.10287580755E+04  0.00000000000E+00 0.  1.
          1   -1    0    0  501    0  0.00000000000E+00 -0.00000000000E+00 -0.33592685812E+02  0.33592685812E+02  0.00000000000E+00 0. -1.
          5    1    1    2  502    0 -0.75238999133E+01 -0.72010527305E+02  0.41877816131E+03  0.42501146561E+03  0.41800000000E+01 0. -1.
         -5    1    1    2    0  502  0.58188334180E+02  0.34013020694E+02  0.35435117432E+03  0.36072842271E+03  0.41800000000E+01 0. -1.
        -11    1    1    2    0    0  0.10767675882E+02  0.81652318968E+02  0.75024789901E+02  0.11140809278E+03  0.00000000000E+00 0. -1.
         11    1    1    2    0    0 -0.61432110148E+02 -0.43654812357E+02  0.14701126415E+03  0.16520278020E+03  0.00000000000E+00 0.  1.
</event>
<event>
 6    1  0.8259171E-006  0.2071937E+03  0.7561462E-02  0.1143808E+00
          2   -1    0    0  501    0  0.00000000000E+00  0.00000000000E+00  0.12168446690E+04  0.12168446690E+04  0.00000000000E+00 0. -1.
         -2   -1    0    0    0  501 -0.00000000000E+00 -0.00000000000E+00 -0.46349913381E+02  0.46349913381E+02  0.00000000000E+00 0.  1.
          5    1    1    2  502    0 -0.11260689830E+03  0.95371845780E+02  0.16726665382E+03  0.22309573818E+03  0.41800000000E+01 0. -1.
         -5    1    1    2    0  502 -0.55242282064E+02  0.93679551476E+01  0.24147506169E+03  0.24792568671E+03  0.41800000000E+01 0. -1.
        -11    1    1    2    0    0  0.44628719179E+02 -0.69178715252E+02  0.20658674117E+03  0.22238592322E+03  0.00000000000E+00 0.  1.
         11    1    1    2    0    0  0.12322046118E+03 -0.35561085676E+02  0.55516629895E+03  0.56978723429E+03  0.00000000000E+00 0. -1.
</event>
<event>
 6    1  0.8259171E-006  0.1326333E+03  0.7561462E-02  0.1223600E+00
         -2   -1    0    0    0  501 -0.00000000000E+00  0.00000000000E+00  0.71034815121E+02  0.71034815121E+02  0.00000000000E+00 0.  1.
          2   -1    0    0  501    0  0.00000000000E+00 -0.00000000000E+00 -0.25142377918E+03  0.25142377918E+03  0.00000000000E+00 0. -1.
          5    1    1    2  502    0 -0.26501111571E+02  0.30881409687E+02 -0.27709506817E+02  0.49409103886E+02  0.41800000000E+01 0.  1.
         -5    1    1    2    0  502  0.72928119074E+02 -0.62008983034E+02 -0.49196011457E+02  0.10770953752E+03  0.41800000000E+01 0.  1.
        -11    1    1    2    0    0 -0.76436167101E+02 -0.10573878445E+02 -0.68515678166E+02  0.10319250312E+03  0.00000000000E+00 0.  1.
         11    1    1    2    0    0  0.30009159598E+02  0.41701451791E+02 -0.34967767614E+02  0.62147449772E+02  0.00000000000E+00 0. -1.
</event>
<event>
 6    1  0.8259171E-006  0.1245283E+03  0.7561462E-02  0.1235808E+00
         -2   -1    0    0    0  501 -0.00000000000E+00  0.00000000000E+00  0.22755698240E+03  0.22755698240E+03  0.00000000000E+00 0. -1.
          2   -1    0    0  501    0  0.00000000000E+00 -0.00000000000E+00 -0.11337141502E+03  0.11337141502E+03  0.00000000000E+00 0.  1.
          5    1    1    2  502    0  0.38163362070E+02 -0.30984548168E+02  0.29767486010E+01  0.49424870884E+02  0.41800000000E+01 0.  1.
         -5    1    1    2    0  502 -0.52191174212E+02 -0.56320456496E+02  0.14202133354E+03  0.16150369675E+03  0.41800000000E+01 0.  1.
        -11    1    1    2    0    0  0.44773270605E+02  0.79277170132E+02 -0.35804377907E+02  0.97833884427E+02  0.00000000000E+00 0.  1.
         11    1    1    2    0    0 -0.30745458464E+02  0.80278345323E+01  0.49918631491E+01  0.32165945363E+02  0.00000000000E+00 0. -1.
</event>
<event>
 6    1  0.8259171E-006  0.1217794E+03  0.7561462E-02  0.1240190E+00
         -1   -1    0    0    0  501 -0.00000000000E+00  0.00000000000E+00  0.35817494186E+02  0.35817494186E+02  0.00000000000E+00 0.  1.
          1   -1    0    0  501    0  0.00000000000E+00 -0.00000000000E+00 -0.50739312993E+03  0.50739312993E+03  0.00000000000E+00 0. -1.
          5    1    1    2  502    0 -0.27786822143E+02  0.10729137539E+02 -0.12808523019E+03  0.13156945113E+03  0.41800000000E+01 0.  1.
         -5    1    1    2    0  502  0.87166645569E+02  0.34946587375E+02 -0.85704133305E+02  0.12720832887E+03  0.41800000000E+01 0.  1.
        -11    1    1    2    0    0 -0.39694034170E+02  0.24463578841E+02 -0.11615857021E+03  0.12516747370E+03  0.00000000000E+00 0. -1.
         11    1    1    2    0    0 -0.19685789255E+02 -0.70139303755E+02 -0.14162770204E+03  0.15926537042E+03  0.00000000000E+00 0.  1.
</event>
<event>
 6    1  0.8259171E-006  0.1170839E+03  0.7561462E-02  0.1247987E+00
          1   -1    0    0  501    0  0.00000000000E+00  0.00000000000E+00  0.50572834905E+03  0.50572834905E+03  0.00000000000E+00 0. -1.
         -1   -1    0    0    0  501 -0.00000000000E+00 -0.00000000000E+00 -0.36484005837E+02  0.36484005837E+02  0.00000000000E+00 0.  1.
          5    1    1    2  502    0 -0.47397806528E+02 -0.17559146400E+02  0.58390337162E+02  0.77341965063E+02  0.41800000000E+01 0.  1.
         -5    1    1    2    0  502  0.38987068757E+02  0.80327928119E+02  0.92309304282E+02  0.12849532141E+03  0.41800000000E+01 0.  1.
        -11    1    1    2    0    0 -0.18147999141E+02 -0.64927471170E+02  0.28825191077E+03  0.29603055661E+03  0.00000000000E+00 0. -1.
         11    1    1    2    0    0  0.26558736912E+02  0.21586894504E+01  0.30292791004E+02  0.40344511811E+02  0.00000000000E+00 0.  1.
</event>
<event>
 6    1  0.8259171E-006  0.1700889E+03  0.7561462E-02  0.1177755E+00
          1   -1    0    0  501    0  0.00000000000E+00  0.00000000000E+00  0.44994526709E+03  0.44994526709E+03  0.00000000000E+00 0. -1.
         -1   -1    0    0    0  501 -0.00000000000E+00 -0.00000000000E+00 -0.75711544742E+02  0.75711544742E+02  0.00000000000E+00 0.  1.
          5    1    1    2  502    0  0.46419630754E+02 -0.50607870549E+02  0.34477550925E+02  0.76955263619E+02  0.41800000000E+01 0.  1.
         -5    1    1    2    0  502  0.97036050958E+02  0.70514717566E+02  0.11039252656E+03  0.16307146562E+03  0.41800000000E+01 0.  1.
        -11    1    1    2    0    0 -0.42712921225E+02 -0.26718247950E+02  0.21971533371E+02  0.54963685209E+02  0.00000000000E+00 0.  1.
         11    1    1    2    0    0 -0.10074276049E+03  0.68114009324E+01  0.20739211150E+03  0.23066639739E+03  0.00000000000E+00 0. -1.
</event>
<event>
 6    1  0.8259171E-006  0.1275198E+03  0.7561462E-02  0.1231183E+00
         -3   -1    0    0    0  501 -0.00000000000E+00  0.00000000000E+00  0.58136779190E+02  0.58136779190E+02  0.00000000000E+00 0.  1.
          3   -1    0    0  501    0  0.00000000000E+00 -0.00000000000E+00 -0.37083900769E+03  0.37083900769E+03  0.00000000000E+00 0. -1.
          5    1    1    2  502    0  0.46555594406E+02 -0.81389561664E+02 -0.15229381236E+03  0.17889259851E+03  0.41800000000E+01 0.  1.
         -5    1    1    2    0  502  0.34413828741E+02  0.26402027824E+02 -0.36966616846E+01  0.43732326595E+02  0.41800000000E+01 0.  1.
        -11    1    1    2    0    0 -0.91898183430E+02  0.54104475602E+02 -0.16217863705E+03  0.19409915175E+03  0.00000000000E+00 0. -1.
         11    1    1    2    0    0  0.10928760283E+02  0.88305823878E+00  0.54668825896E+01  0.12251710020E+02  0.00000000000E+00 0.  1.
</event>
<event>
 6    1  0.8259171E-006  0.1074099E+03  0.7561462E-02  0.1265443E+00
         -2   -1    0    0    0  501 -0.00000000000E+00  0.00000000000E+00  0.70034537863E+02  0.70034537863E+02  0.00000000000E+00 0. -1.
          2   -1    0    0  501    0  0.00000000000E+00 -0.00000000000E+00 -0.17527132511E+03  0.17527132511E+03  0.00000000000E+00 0.  1.
          5    1    1    2  502    0 -0.24931163679E+01  0.65077836670E+02 -0.18604448630E+02  0.67859696166E+02  0.41800000000E+01 0. -1.
         -5    1    1    2    0  502  0.11325351059E+02 -0.57819092331E+02 -0.35448969442E+02  0.68886957031E+02  0.41800000000E+01 0. -1.
        -11    1    1    2    0    0  0.72789277403E+01  0.39952265127E+02 -0.56174094605E+01  0.40996604333E+02  0.00000000000E+00 0.  1.
         11    1    1    2    0    0 -0.16111162431E+02 -0.47211009466E+02 -0.45565959713E+02  0.67562605443E+02  0.00000000000E+00 0. -1.
</event>
<event>
 6    1  0.8259171E-006  0.1400457E+03  0.7561462E-02  0.1213267E+00
         -1   -1    0    0    0  501 -0.00000000000E+00  0.00000000000E+00  0.89658022314E+02  0.89658022314E+02  0.00000000000E+00 0. -1.
          1   -1    0    0  501    0  0.00000000000E+00 -0.00000000000E+00 -0.33065248814E+03  0.33065248814E+03  0.00000000000E+00 0.  1.
          5    1    1    2  502    0  0.28164433722E+02  0.25231287354E+02 -0.91652372422E+02  0.99234484727E+02  0.41800000000E+01 0. -1.
         -5    1    1    2    0  502 -0.26251904381E+02  0.10674841515E+03 -0.13514014134E+02  0.11083540770E+03  0.41800000000E+01 0. -1.
        -11    1    1    2    0    0 -0.28016280749E+01 -0.74369528549E+02 -0.13317924053E+03  0.15256272810E+03  0.00000000000E+00 0.  1.
         11    1    1    2    0    0  0.88909873353E+00 -0.57610173959E+02 -0.26488387392E+01  0.57677889930E+02  0.00000000000E+00 0. -1.
</event>
<event>
 6    1  0.8259171E-006  0.1423182E+03  0.7561462E-02  0.1210243E+00
         -3   -1    0    0    0  501 -0.00000000000E+00  0.00000000000E+00  0.60918951856E+02  0.60918951856E+02  0.00000000000E+00 0.  1.
          3   -1    0    0  501    0  0.00000000000E+00 -0.00000000000E+00 -0.34807406807E+03  0.34807406807E+03  0.00000000000E+00 0. -1.
          5    1    1    2  502    0  0.36792418561E+02 -0.10996444668E+03 -0.79003055300E+02  0.14037384637E+03  0.41800000000E+01 0.  1.
         -5    1    1    2    0  502 -0.29121162272E+02  0.21924685371E+02 -0.33265636350E+02  0.49525840553E+02  0.41800000000E+01 0.  1.
        -11    1    1    2    0    0  0.43647474510E+02  0.23872617813E+02 -0.69122039737E+02  0.85163726373E+02  0.00000000000E+00 0. -1.
         11    1    1    2    0    0 -0.51318730799E+02  0.64167143496E+02 -0.10576438483E+03  0.13392960664E+03  0.00000000000E+00 0.  1.
</event>
<event>
 6    1  0.8259171E-006  0.1567839E+03  0.7561462E-02  0.1192376E+00
          1   -1    0    0  501    0  0.00000000000E+00  0.00000000000E+00  0.10634406217E+03  0.10634406217E+03  0.00000000000E+00 0. -1.
         -1   -1    0    0    0  501 -0.00000000000E+00 -0.00000000000E+00 -0.26517353877E+03  0.26517353877E+03  0.00000000000E+00 0.  1.
          5    1    1    2  502    0  0.21710440061E+02 -0.87993018408E+02 -0.10577579422E+03  0.13935603876E+03  0.41800000000E+01 0. -1.
         -5    1    1    2    0  502 -0.59452862727E+02 -0.30817132682E+02 -0.11773042868E+01  0.67105864115E+02  0.41800000000E+01 0. -1.
        -11    1    1    2    0    0  0.54177503890E+02  0.23546475264E+02 -0.10955431464E+02  0.60080445269E+02  0.00000000000E+00 0.  1.
         11    1    1    2    0    0 -0.16435081224E+02  0.95263675827E+02 -0.40920946627E+02  0.10497525280E+03  0.00000000000E+00 0. -1.
</event>
<event>
 6    1  0.8259171E-006  0.1433969E+03  0.7561462E-02  0.1208830E+00
         -2   -1    0    0    0  501 -0.00000000000E+00  0.00000000000E+00  0.19703178644E+02  0.19703178644E+02  0.00000000000E+00 0.  1.
          2   -1    0    0  501    0  0.00000000000E+00 -0.00000000000E+00 -0.10597333767E+04  0.10597333767E+04  0.00000000000E+00 0. -1.
          5    1    1    2  502    0  0.98484582629E+02  0.30740623587E+02 -0.40721482501E+03  0.42010187462E+03  0.41800000000E+01 0. -1.
         -5    1    1    2    0  502 -0.13824310098E+02 -0.56357908858E+02 -0.18767858632E+03  0.19648931167E+03  0.41800000000E+01 0.  1.
        -11    1    1    2    0    0  0.16325353563E+02  0.17676804450E+02 -0.11616540379E+03  0.11863130962E+03  0.00000000000E+00 0.  1.
         11    1    1    2    0    0 -0.10098562609E+03  0.79404808211E+01 -0.32897138296E+03  0.34421405945E+03  0.00000000000E+00 0. -1.
</event>
<event>
 6    1  0.8259171E-006  0.9928784E+02  0.7561462E-02  0.1281801E+00
         -1   -1    0    0    0  501 -0.00000000000E+00  0.00000000000E+00  0.33797183880E+03  0.33797183880E+03  0.00000000000E+00 0.  1.
          1   -1    0    0  501    0  0.00000000000E+00 -0.00000000000E+00 -0.53173484517E+02  0.53173484517E+02  0.00000000000E+00 0. -1.
          5    1    1    2  502    0  0.25227058190E+02 -0.18437587354E+02  0.13104142229E+03  0.13478010182E+03  0.41800000000E+01 0. -1.
         -5    1    1    2    0  502  0.55020951065E+02  0.54714463385E+02  0.41558417601E+02  0.88122369652E+02  0.41800000000E+01 0.  1.
        -11    1    1    2    0    0 -0.25548972598E+02 -0.40824411514E+01  0.10040659992E+03  0.10368655474E+03  0.00000000000E+00 0.  1.
         11    1    1    2    0    0 -0.54699036657E+02 -0.32194434879E+02  0.11791914475E+02  0.64556297101E+02  0.00000000000E+00 0. -1.
</event>
<event>
 6    1  0.8259171E-006  0.9554410E+02  0.7561462E-02  0.1289955E+00
          1   -1    0    0  501    0  0.00000000000E+00  0.00000000000E+00  0.15689974111E+03  0.15689974111E+03  0.00000000000E+00 0. -1.
         -1   -1    0    0    0  501 -0.00000000000E+00 -0.00000000000E+00 -0.16453075492E+03  0.16453075492E+03  0.00000000000E+00 0.  1.
          5    1    1    2  502    0 -0.64648757211E+02 -0.17433284314E+02 -0.56335720951E+02  0.87604606420E+02  0.41800000000E+01 0.  1.
         -5    1    1    2    0  502  0.55605685284E+02  0.14966789531E+02 -0.64559003156E+02  0.86610243697E+02  0.41800000000E+01 0.  1.
        -11    1    1    2    0    0  0.17572837777E+02  0.31463382306E+02  0.11122934040E+03  0.11692183380E+03  0.00000000000E+00 0. -1.
         11    1    1    2    0    0 -0.85297658492E+01 -0.28996887522E+02  0.20343698928E+01  0.30293812112E+02  0.00000000000E+00 0.  1.
</event>
<event>
 6    1  0.8259171E-006  0.1263615E+03  0.7561462E-02  0.1232957E+00
          4   -1    0    0  501    0  0.00000000000E+00  0.00000000000E+00  0.11280114837E+03  0.11280114837E+03  0.00000000000E+00 0.  1.
         -4   -1    0    0    0  501 -0.00000000000E+00 -0.00000000000E+00 -0.15884363855E+03  0.15884363855E+03  0.00000000000E+00 0. -1.
          5    1    1    2  502    0 -0.27074658905E+02  0.34579270109E+02 -0.13336426520E+02  0.46087913257E+02  0.41800000000E+01 0. -1.
         -5    1    1    2    0  502  0.31441219101E+02 -0.95071825509E+02 -0.55607394734E+02  0.11461612894E+03  0.41800000000E+01 0.  1.
        -11    1    1    2    0    0  0.29014572677E+02 -0.97531423606E+01  0.92580509962E+01  0.31979379634E+02  0.00000000000E+00 0. -1.
         11    1    1    2    0    0 -0.33381132873E+02  0.70245697761E+02  0.13643280078E+02  0.78961365091E+02  0.00000000000E+00 0.  1.
</event>
<event>
 6    1  0.8259171E-006  0.1040192E+03  0.7561462E-02  0.1272064E+00
          1   -1    0    0  501    0  0.00000000000E+00  0.00000000000E+00  0.18771809800E+03  0.18771809800E+03  0.00000000000E+00 0. -1.
         -1   -1    0    0    0  501 -0.00000000000E+00 -0.00000000000E+00 -0.15757481057E+03  0.15757481057E+03  0.00000000000E+00 0.  1.
          5    1    1    2  502    0 -0.45116687386E+02 -0.76976361893E+01 -0.23848573561E+01  0.46020962921E+02  0.41800000000E+01 0. -1.
         -5    1    1    2    0  502  0.33865411459E+02  0.80397421058E+02 -0.93280248289E+02  0.12778610459E+03  0.41800000000E+01 0. -1.
        -11    1    1    2    0    0 -0.14902552511E+01 -0.33263277136E+02 -0.55399047130E+01  0.33754362841E+02  0.00000000000E+00 0.  1.
         11    1    1    2    0    0  0.12741531178E+02 -0.39436507733E+02  0.13134829779E+03  0.13773147822E+03  0.00000000000E+00 0. -1.
</event>
<event>
 6    1  0.8259171E-006  0.1404505E+03  0.7561462E-02  0.1212724E+00
         -2   -1    0    0    0  501 -0.00000000000E+00  0.00000000000E+00  0.42277813660E+03  0.42277813660E+03  0.00000000000E+00 0.  1.
          2   -1    0    0  501    0  0.00000000000E+00 -0.00000000000E+00 -0.71888989193E+02  0.71888989193E+02  0.00000000000E+00 0. -1.
          5    1    1    2  502    0 -0.76210381422E+02  0.62744454614E+02  0.22405114474E+03  0.24486991787E+03  0.41800000000E+01 0. -1.
         -5    1    1    2    0  502 -0.17678694464E+02  0.33164939948E+02 -0.79080262686E+01  0.38632353788E+02  0.41800000000E+01 0. -1.
        -11    1    1    2    0    0  0.25467339293E+02 -0.63810861332E+02  0.11347178460E+03  0.13265088501E+03  0.00000000000E+00 0.  1.
         11    1    1    2    0    0  0.68421736592E+02 -0.32098533230E+02  0.21274244332E+02  0.78513969112E+02  0.00000000000E+00 0. -1.
</event>
<event>
 6    1  0.8259171E-006  0.1238119E+03  0.7561462E-02  0.1236938E+00
         -1   -1    0    0    0  501 -0.00000000000E+00  0.00000000000E+00  0.26558988735E+02  0.26558988735E+02  0.00000000000E+00 0.  1.
          1   -1    0    0  501    0  0.00000000000E+00 -0.00000000000E+00 -0.66130011923E+03  0.66130011923E+03  0.00000000000E+00 0. -1.
          5    1    1    2  502    0  0.67610240297E+02 -0.12317820959E+02 -0.99311459929E+02  0.12084333568E+03  0.41800000000E+01 0.  1.
         -5    1    1    2    0  502 -0.80694311218E+01  0.59736056533E+02 -0.26483292974E+03  0.27163848263E+03  0.41800000000E+01 0.  1.
        -11    1    1    2    0    0  0.45402471201E+01 -0.53764300913E+02 -0.12870597107E+03  0.13955801978E+03  0.00000000000E+00 0.  1.
         11    1    1    2    0    0 -0.64081056295E+02  0.63460653392E+01 -0.14189076976E+03  0.15581926988E+03  0.00000000000E+00 0. -1.
</event>
<event>
 6    1  0.8259171E-006  0.9760427E+02  0.7561462E-02  0.1285416E+00
          1   -1    0    0  501    0  0.00000000000E+00  0.00000000000E+00  0.19988590125E+03  0.19988590125E+03  0.00000000000E+00 0. -1.
         -1   -1    0    0    0  501 -0.00000000000E+00 -0.00000000000E+00 -0.61296190255E+02  0.61296190255E+02  0.00000000000E+00 0.  1.
          5    1    1    2  502    0 -0.12441896476E+02  0.65529340133E+02  0.22660640614E+02  0.70568209834E+02  0.41800000000E+01 0. -1.
         -5    1    1    2    0  502 -0.43647271659E+00 -0.56363068455E+02  0.46812602945E+02  0.73388542624E+02  0.41800000000E+01 0. -1.
        -11    1    1    2    0    0  0.24926428837E+02  0.25197503922E+02 -0.38749523047E+01  0.35654681514E+02  0.00000000000E+00 0.  1.
         11    1    1    2    0    0 -0.12048059645E+02 -0.34363775600E+02  0.72991419745E+02  0.81570657537E+02  0.00000000000E+00 0. -1.
</event>
<event>
 6    1  0.8259171E-006  0.1030714E+03  0.7561462E-02  0.1273967E+00
          1   -1    0    0  501    0  0.00000000000E+00  0.00000000000E+00  0.60441728500E+03  0.60441728500E+03  0.00000000000E+00 0. -1.
         -1   -1    0    0    0  501 -0.00000000000E+00 -0.00000000000E+00 -0.22393233121E+02  0.22393233121E+02  0.00000000000E+00 0.  1.
          5    1    1    2  502    0  0.47351898258E+02  0.27723213881E+02  0.27422563671E+03  0.27969260106E+03  0.41800000000E+01 0.  1.
         -5    1    1    2    0  502 -0.49066855144E+02  0.13928675008E+02  0.55895995250E+02  0.75785215881E+02  0.41800000000E+01 0.  1.
        -11    1    1    2    0    0 -0.22794967621E+02 -0.63272625460E+02  0.15182981033E+03  0.16605820361E+03  0.00000000000E+00 0.  1.
         11    1    1    2    0    0  0.24509924507E+02  0.21620736572E+02  0.10007260959E+03  0.10527449757E+03  0.00000000000E+00 0. -1.
</event>
<event>
 6    1  0.8259171E-006  0.1360789E+03  0.7561462E-02  0.1218705E+00
         -1   -1    0    0    0  501 -0.00000000000E+00  0.00000000000E+00  0.13078530202E+03  0.13078530202E+03  0.00000000000E+00 0.  1.
          1   -1    0    0  501    0  0.00000000000E+00 -0.00000000000E+00 -0.19967383767E+03  0.19967383767E+03  0.00000000000E+00 0. -1.
          5    1    1    2  502    0  0.71323947246E+02  0.65330792016E+02  0.98928938536E+01  0.97316800117E+02  0.41800000000E+01 0.  1.
         -5    1    1    2    0  502  0.23677147945E+02 -0.53732755016E+02  0.25282280552E+02  0.64066234526E+02  0.41800000000E+01 0.  1.
        -11    1    1    2    0    0 -0.68449666425E+02 -0.38621567255E+02 -0.26823089124E+02  0.83044930014E+02  0.00000000000E+00 0.  1.
         11    1    1    2    0    0 -0.26551428766E+02  0.27023530255E+02 -0.77240620923E+02  0.86031175033E+02  0.00000000000E+00 0. -1.
</event>
<event>
 6    1  0.8259171E-006  0.1442846E+03  0.7561462E-02  0.1207677E+00
          1   -1    0    0  501    0  0.00000000000E+00  0.00000000000E+00  0.19441039983E+03  0.19441039983E+03  0.00000000000E+00 0. -1.
         -1   -1    0    0    0  501 -0.00000000000E+00 -0.00000000000E+00 -0.14739279732E+03  0.14739279732E+03  0.00000000000E+00 0.  1.
          5    1    1    2  502    0  0.50577657391E+02 -0.65569184046E+02 -0.65802560636E+02  0.10585304299E+03  0.41800000000E+01 0.  1.
         -5    1    1    2    0  502 -0.44237907242E+02 -0.44927381091E+02  0.21846159759E+02  0.66859472814E+02  0.41800000000E+01 0.  1.
        -11    1    1    2    0    0 -0.30586405642E+02  0.13060165956E+01  0.21712513532E+02  0.37532214607E+02  0.00000000000E+00 0.  1.
         11    1    1    2    0    0  0.24246655492E+02  0.10919054854E+03  0.69261489862E+02  0.13155846674E+03  0.00000000000E+00 0. -1.
</event>
<event>
 6    1  0.8259171E-006  0.1227627E+03  0.7561462E-02  0.1238608E+00
          1   -1    0    0  501    0  0.00000000000E+00  0.00000000000E+00  0.55000372847E+03  0.55000372847E+03  0.00000000000E+00 0. -1.
         -1   -1    0    0    0  501 -0.00000000000E+00 -0.00000000000E+00 -0.85517315323E+02  0.85517315323E+02  0.00000000000E+00 0.  1.
          5    1    1    2  502    0  0.25016291873E+02  0.17584099265E+02 -0.40937648392E+02  0.51267717542E+02  0.41800000000E+01 0.  1.
         -5    1    1    2    0  502 -0.84007802145E+02 -0.16002199969E+01  0.27731991630E+02  0.88579948550E+02  0.41800000000E+01 0.  1.
        -11    1    1    2    0    0 -0.10447255402E+02 -0.51494858361E+02  0.15396896026E+03  0.16268775709E+03  0.00000000000E+00 0.  1.
         11    1    1    2    0    0  0.69438765673E+02  0.35510979093E+02  0.32372310964E+03  0.33298562061E+03  0.00000000000E+00 0. -1.
</event>
<event>
 6    1  0.8259171E-006  0.2418898E+03  0.7561462E-02  0.1118540E+00
          3   -1    0    0  501    0  0.00000000000E+00  0.00000000000E+00  0.46441683257E+03  0.46441683257E+03  0.00000000000E+00 0. -1.
         -3   -1    0    0    0  501 -0.00000000000E+00 -0.00000000000E+00 -0.13169787961E+03  0.13169787961E+03  0.00000000000E+00 0.  1.
          5    1    1    2  502    0 -0.35746486845E+02 -0.34713414212E+02  0.69966982078E+02  0.85998159452E+02  0.41800000000E+01 0.  1.
         -5    1    1    2    0  502 -0.18322388388E+03  0.66338179662E+02  0.93375007349E+02  0.21612059157E+03  0.41800000000E+01 0.  1.
        -11    1    1    2    0    0  0.14651223571E+03  0.22761881310E+02  0.89327040978E+02  0.17309898528E+03  0.00000000000E+00 0.  1.
         11    1    1    2    0    0  0.72458135010E+02 -0.54386646760E+02  0.80049922562E+02  0.12089697588E+03  0.00000000000E+00 0. -1.
</event>
<event>
 6    1  0.8259171E-006  0.8984464E+02  0.7561462E-02  0.1303228E+00
         -2   -1    0    0    0  501 -0.00000000000E+00  0.00000000000E+00  0.25246516204E+03  0.25246516204E+03  0.00000000000E+00 0.  1.
          2   -1    0    0  501    0  0.00000000000E+00 -0.00000000000E+00 -0.57133482852E+02  0.57133482852E+02  0.00000000000E+00 0. -1.
          5    1    1    2  502    0 -0.10102850321E+02  0.34014796177E+02 -0.54523125781E+01  0.36142413534E+02  0.41800000000E+01 0. -1.
         -5    1    1    2    0  502 -0.33983491809E+02 -0.54313947665E+02  0.13926441748E+03  0.15335231659E+03  0.41800000000E+01 0. -1.
        -11    1    1    2    0    0  0.29922449627E+02  0.43365498674E+02 -0.22428733756E+00  0.52687472626E+02  0.00000000000E+00 0. -1.
         11    1    1    2    0    0  0.14163892504E+02 -0.23066347186E+02  0.61743861622E+02  0.67416442144E+02  0.00000000000E+00 0.  1.
</event>
<event>
 6    1  0.8259171E-006  0.2368804E+03  0.7561462E-02  0.1121889E+00
         -4   -1    0    0    0  501 -0.00000000000E+00  0.00000000000E+00  0.24191890362E+03  0.24191890362E+03  0.00000000000E+00 0.  1.
          4   -1    0    0  501    0  0.00000000000E+00 -0.00000000000E+00 -0.26743525561E+03  0.26743525561E+03  0.00000000000E+00 0. -1.
          5    1    1    2  502    0  0.19787910081E+03 -0.77359637611E+02  0.75917721931E+02  0.22565820386E+03  0.41800000000E+01 0.  1.
         -5    1    1    2    0  502  0.95432353531E+01  0.30067283136E+02 -0.22471656531E+01  0.31900423346E+02  0.41800000000E+01 0.  1.
        -11    1    1    2    0    0 -0.12547976619E+02  0.31517437179E+02 -0.34391001641E+01  0.34097330885E+02  0.00000000000E+00 0.  1.
         11    1    1    2    0    0 -0.19487435954E+03  0.15774917296E+02 -0.95747808104E+02  0.21769820114E+03  0.00000000000E+00 0. -1.
</event>
<event>
 6    1  0.8259171E-006  0.1493998E+03  0.7561462E-02  0.1201212E+00
         -2   -1    0    0    0  501 -0.00000000000E+00  0.00000000000E+00  0.19690694287E+03  0.19690694287E+03  0.00000000000E+00 0. -1.
          2   -1    0    0  501    0  0.00000000000E+00 -0.00000000000E+00 -0.13909360391E+03  0.13909360391E+03  0.00000000000E+00 0.  1.
          5    1    1    2  502    0 -0.67410585462E+02 -0.11260798344E+03  0.70154925119E+02  0.14887555503E+03  0.41800000000E+01 0.  1.
         -5    1    1    2    0  502  0.16997705439E+02  0.11757141064E+00 -0.26812967987E+02  0.32020984767E+02  0.41800000000E+01 0.  1.
        -11    1    1    2    0    0 -0.24070574468E+02  0.35234642743E+02 -0.12476992769E+02  0.44458384507E+02  0.00000000000E+00 0.  1.
         11    1    1    2    0    0  0.74483454491E+02  0.77255769283E+02  0.26948374593E+02  0.11064562248E+03  0.00000000000E+00 0. -1.
</event>
<event>
 6    1  0.8259171E-006  0.1139536E+03  0.7561462E-02  0.1253419E+00
         -2   -1    0    0    0  501 -0.00000000000E+00  0.00000000000E+00  0.18783145133E+02  0.18783145133E+02  0.00000000000E+00 0. -1.
          2   -1    0    0  501    0  0.00000000000E+00 -0.00000000000E+00 -0.75294686903E+03  0.75294686903E+03  0.00000000000E+00 0.  1.
          5    1    1    2  502    0  0.51582845141E+02 -0.53196194498E+02 -0.17354488079E+03  0.18874830614E+03  0.41800000000E+01 0. -1.
         -5    1    1    2    0  502 -0.55905876912E+02  0.11408490758E+02 -0.16240343613E+03  0.17218585656E+03  0.41800000000E+01 0. -1.
        -11    1    1    2    0    0  0.27362113121E+01 -0.27268418040E+02 -0.65788554689E+02  0.71268417990E+02  0.00000000000E+00 0. -1.
         11    1    1    2    0    0  0.15868204593E+01  0.69056121780E+02 -0.33242685229E+03  0.33952743347E+03  0.00000000000E+00 0.  1.
</event>
<event>
 6    1  0.8259171E-006  0.1074853E+03  0.7561462E-02  0.1265299E+00
          1   -1    0    0  501    0  0.00000000000E+00  0.00000000000E+00  0.44882301354E+03  0.44882301354E+03  0.00000000000E+00 0. -1.
         -1   -1    0    0    0  501 -0.00000000000E+00 -0.00000000000E+00 -0.30715181409E+02  0.30715181409E+02  0.00000000000E+00 0.  1.
          5    1    1    2  502    0  0.47172479555E+01  0.44115993815E+02  0.15904126796E+03  0.16516679646E+03  0.41800000000E+01 0. -1.
         -5    1    1    2    0  502  0.37967494610E+02 -0.59460463268E+02  0.68482843285E+02  0.98409600971E+02  0.41800000000E+01 0. -1.
        -11    1    1    2    0    0 -0.62890884671E+02  0.34636241406E+02  0.11724209383E+03  0.13747960270E+03  0.00000000000E+00 0.  1.
         11    1    1    2    0    0  0.20206142106E+02 -0.19291771953E+02  0.73341627056E+02  0.78482194816E+02  0.00000000000E+00 0. -1.
</event>
<event>
 6    1  0.8259171E-006  0.1301072E+03  0.7561462E-02  0.1227297E+00
         -1   -1    0    0    0  501 -0.00000000000E+00  0.00000000000E+00  0.39535537151E+02  0.39535537151E+02  0.00000000000E+00 0.  1.
          1   -1    0    0  501    0  0.00000000000E+00 -0.00000000000E+00 -0.54463759337E+03  0.54463759337E+03  0.00000000000E+00 0. -1.
          5    1    1    2  502    0 -0.55753769372E+02 -0.76230589291E+02 -0.24514147006E+03  0.26273826955E+03  0.41800000000E+01 0. -1.
         -5    1    1    2    0  502 -0.34434955056E+02  0.36774929256E+02 -0.42651297903E+02  0.66142022681E+02  0.41800000000E+01 0. -1.
        -11    1    1    2    0    0  0.23619981518E+01 -0.12741197029E+02  0.22265597313E+01  0.13148182583E+02  0.00000000000E+00 0.  1.
         11    1    1    2    0    0  0.87826726276E+02  0.52196857064E+02 -0.21953584798E+03  0.24214465570E+03  0.00000000000E+00 0. -1.
</event>
<event>
 6    1  0.8259171E-006  0.1013480E+03  0.7561462E-02  0.1277487E+00
         -2   -1    0    0    0  501 -0.00000000000E+00  0.00000000000E+00  0.35848595639E+03  0.35848595639E+03  0.00000000000E+00 0.  1.
          2   -1    0    0  501    0  0.00000000000E+00 -0.00000000000E+00 -0.72546295167E+02  0.72546295167E+02  0.00000000000E+00 0. -1.
          5    1    1    2  502    0  0.29575236783E+02  0.27010265470E+01  0.15312703511E+03  0.15603637863E+03  0.41800000000E+01 0. -1.
         -5    1    1    2    0  502 -0.87729720328E+02  0.29845585971E+02  0.11995633701E+03  0.15163857695E+03  0.41800000000E+01 0. -1.
        -11    1    1    2    0    0  0.76200062723E+01  0.10900265571E+02 -0.37525601755E+02  0.39812699886E+02  0.00000000000E+00 0. -1.
         11    1    1    2    0    0  0.50534477272E+02 -0.43446878089E+02  0.50381890852E+02  0.83544596083E+02  0.00000000000E+00 0.  1.
</event>
<event>
 6    1  0.8259171E-006  0.1151828E+03  0.7561462E-02  0.1251262E+00
          1   -1    0    0  501    0  0.00000000000E+00  0.00000000000E+00  0.58835242741E+02  0.58835242741E+02  0.00000000000E+00 0. -1.
         -1   -1    0    0    0  501 -0.00000000000E+00 -0.00000000000E+00 -0.29209968210E+03  0.29209968210E+03  0.00000000000E+00 0.  1.
          5    1    1    2  502    0  0.29341798066E+02 -0.56497616032E+02 -0.11058346435E+03  0.12766791578E+03  0.41800000000E+01 0.  1.
         -5    1    1    2    0  502  0.44528931469E+02  0.49642367476E+02 -0.25539363078E+02  0.71532662839E+02  0.41800000000E+01 0.  1.
        -11    1    1    2    0    0 -0.35652857228E+02  0.36768198132E+02 -0.88770598730E+02  0.10248534442E+03  0.00000000000E+00 0.  1.
         11    1    1    2    0    0 -0.38217872307E+02 -0.29912949576E+02 -0.83710131940E+01  0.49249001796E+02  0.00000000000E+00 0. -1.
</event>
<event>
 6    1  0.8259171E-006  0.1531926E+03  0.7561462E-02  0.1196604E+00
         -2   -1    0    0    0  501 -0.00000000000E+00  0.00000000000E+00  0.14298800147E+03  0.14298800147E+03  0.00000000000E+00 0.  1.
          2   -1    0    0  501    0  0.00000000000E+00 -0.00000000000E+00 -0.32641951173E+03  0.32641951173E+03  0.00000000000E+00 0. -1.
          5    1    1    2  502    0  0.66501692131E+01 -0.24707398641E+02 -0.19575541133E+02  0.32486220292E+02  0.41800000000E+01 0. -1.
         -5    1    1    2    0  502 -0.13096184829E+03  0.20702554939E+02  0.75140155722E+02  0.15245693455E+03  0.41800000000E+01 0. -1.
        -11    1    1    2    0    0  0.73411476862E+02  0.41735488959E+02 -0.94770981472E+02  0.12693555413E+03  0.00000000000E+00 0. -1.
         11    1    1    2    0    0  0.50900202218E+02 -0.37730645257E+02 -0.14422514339E+03  0.15752880423E+03  0.00000000000E+00 0.  1.
</event>
<event>
 6    1  0.8259171E-006  0.7329637E+02  0.7561462E-02  0.1349229E+00
         -1   -1    0    0    0  501 -0.00000000000E+00  0.00000000000E+00  0.56427687254E+02  0.56427687254E+02  0.00000000000E+00 0.  1.
          1   -1    0    0  501    0  0.00000000000E+00 -0.00000000000E+00 -0.30924455105E+03  0.30924455105E+03  0.00000000000E+00 0. -1.
          5    1    1    2  502    0 -0.13696157699E+02 -0.26868175268E+02 -0.67021003594E+02  0.73612301287E+02  0.41800000000E+01 0.  1.
         -5    1    1    2    0  502  0.26903813336E+02  0.36794672174E+02  0.33757924721E+02  0.56874712780E+02  0.41800000000E+01 0.  1.
        -11    1    1    2    0    0 -0.41373005245E+02 -0.37751057379E+01 -0.59579285669E+02  0.72633795626E+02  0.00000000000E+00 0.  1.
         11    1    1    2    0    0  0.28165349608E+02 -0.61513911686E+01 -0.15997449925E+03  0.16255142861E+03  0.00000000000E+00 0. -1.
</event>
<event>
 6    1  0.8259171E-006  0.8954209E+02  0.7561462E-02  0.1303964E+00
          1   -1    0    0  501    0  0.00000000000E+00  0.00000000000E+00  0.78955774506E+02  0.78955774506E+02  0.00000000000E+00 0. -1.
         -1   -1    0    0    0  501 -0.00000000000E+00 -0.00000000000E+00 -0.16731397848E+03  0.16731397848E+03  0.00000000000E+00 0.  1.
          5    1    1    2  502    0 -0.32647534217E+02 -0.62756399725E+02 -0.13778353465E+02  0.72191014822E+02  0.41800000000E+01 0.  1.
         -5    1    1    2    0  502 -0.66552519883E+01  0.56995837998E+02 -0.37713981146E+02  0.68794147294E+02  0.41800000000E+01 0.  1.
        -11    1    1    2    0    0  0.28744839784E+02 -0.11081873412E+02 -0.64362342708E+02  0.71355342417E+02  0.00000000000E+00 0.  1.
         11    1    1    2    0    0  0.10557946421E+02  0.16842435140E+02  0.27496473346E+02  0.33929248452E+02  0.00000000000E+00 0. -1.
</event>
<event>
 6    1  0.8259171E-006  0.1920357E+03  0.7561462E-02  0.1156638E+00
          2   -1    0    0  501    0  0.00000000000E+00  0.00000000000E+00  0.71352919039E+03  0.71352919039E+03  0.00000000000E+00 0. -1.
         -2   -1    0    0    0  501 -0.00000000000E+00 -0.00000000000E+00 -0.65360029081E+02  0.65360029081E+02  0.00000000000E+00 0.  1.
          5    1    1    2  502    0  0.14381716711E+03  0.18321125357E+02  0.20893605343E+03  0.25434383816E+03  0.41800000000E+01 0. -1.
         -5    1    1    2    0  502  0.30522200649E+02 -0.52176800096E+02  0.26925577811E+02  0.66305975154E+02  0.41800000000E+01 0. -1.
        -11    1    1    2    0    0 -0.49224163016E+02  0.16815083091E+01  0.37827960405E+02  0.62103142298E+02  0.00000000000E+00 0.  1.
         11    1    1    2    0    0 -0.12511520474E+03  0.32174166430E+02  0.37447956967E+03  0.39613626386E+03  0.00000000000E+00 0. -1.
</event>
<event>
 6    1  0.8259171E-006  0.1169829E+03  0.7561462E-02  0.1248159E+00
          3   -1    0    0  501    0  0.00000000000E+00  0.00000000000E+00  0.58491572492E+02  0.58491572492E+02  0.00000000000E+00 0. -1.
         -3   -1    0    0    0  501 -0.00000000000E+00 -0.00000000000E+00 -0.25645254326E+03  0.25645254326E+03  0.00000000000E+00 0.  1.
          5    1    1    2  502    0  0.10119061414E+02 -0.72042743448E+02 -0.80429380861E+02  0.10853068687E+03  0.41800000000E+01 0. -1.
         -5    1    1    2    0  502 -0.43017532597E+02  0.41508589751E+02 -0.73484618964E+02  0.94820529202E+02  0.41800000000E+01 0. -1.
        -11    1    1    2    0    0  0.41940512231E+02 -0.22347182986E+02 -0.29768784998E+02  0.56076587930E+02  0.00000000000E+00 0.  1.
         11    1    1    2    0    0 -0.90420410478E+01  0.52881336683E+02 -0.14278185941E+02  0.55516311742E+02  0.00000000000E+00 0. -1.
</event>
<event>
 6    1  0.8259171E-006  0.1742026E+03  0.7561462E-02  0.1173535E+00
          2   -1    0    0  501    0  0.00000000000E+00  0.00000000000E+00  0.35396941988E+03  0.35396941988E+03  0.00000000000E+00 0. -1.
         -2   -1    0    0    0  501 -0.00000000000E+00 -0.00000000000E+00 -0.32779169686E+03  0.32779169686E+03  0.00000000000E+00 0.  1.
          5    1    1    2  502    0  0.20995545559E+02 -0.10119435936E+03 -0.15266954876E+02  0.10455459632E+03  0.41800000000E+01 0. -1.
         -5    1    1    2    0  502 -0.98992674510E+02  0.13317003349E+02 -0.23957601976E+03  0.25959783094E+03  0.41800000000E+01 0.  1.
        -11    1    1    2    0    0  0.57359108437E+02  0.10402777582E+03  0.20183342509E+03  0.23419773045E+03  0.00000000000E+00 0. -1.
         11    1    1    2    0    0  0.20638020514E+02 -0.16150419805E+02  0.79187272562E+02  0.83410959030E+02  0.00000000000E+00 0.  1.
</event>
<event>
 6    1  0.8259171E-006  0.1609037E+03  0.7561462E-02  0.1187680E+00
          3   -1    0    0  501    0  0.00000000000E+00  0.00000000000E+00  0.21629323398E+03  0.21629323398E+03  0.00000000000E+00 0. -1.
         -3   -1    0    0    0  501 -0.00000000000E+00 -0.00000000000E+00 -0.19232988838E+03  0.19232988838E+03  0.00000000000E+00 0.  1.
          5    1    1    2  502    0  0.22808763135E+02 -0.70850759400E+02 -0.41698054376E+02  0.85418206034E+02  0.41800000000E+01 0.  1.
         -5    1    1    2    0  502  0.90636101858E+02  0.35735679334E+02 -0.70769630560E+02  0.12048964581E+03  0.41800000000E+01 0.  1.
        -11    1    1    2    0    0 -0.82401279648E+02  0.66283291210E+02  0.91616287574E+02  0.13991779633E+03  0.00000000000E+00 0.  1.
         11    1    1    2    0    0 -0.31043585345E+02 -0.31168211144E+02  0.44814742966E+02  0.62797474186E+02  0.00000000000E+00 0. -1.
</event>
<event>
 6    1  0.8259171E-006  0.1879292E+03  0.7561462E-02  0.1160342E+00
         -1   -1    0    0    0  501 -0.00000000000E+00  0.00000000000E+00  0.21664209530E+03  0.21664209530E+03  0.00000000000E+00 0.  1.
          1   -1    0    0  501    0  0.00000000000E+00 -0.00000000000E+00 -0.19851081036E+03  0.19851081036E+03  0.00000000000E+00 0. -1.
          5    1    1    2  502    0  0.85141173707E+02  0.14517481356E+03  0.15317801474E+02  0.16904689703E+03  0.41800000000E+01 0.  1.
         -5    1    1    2    0  502  0.25124847921E+02 -0.15244942499E+02  0.39381497068E+02  0.49315727371E+02  0.41800000000E+01 0.  1.
        -11    1    1    2    0    0 -0.11480968229E+03 -0.11616076854E+03 -0.65511081913E+01  0.16345489994E+03  0.00000000000E+00 0.  1.
         11    1    1    2    0    0  0.45436606664E+01 -0.13769102526E+02 -0.30016905412E+02  0.33335381311E+02  0.00000000000E+00 0. -1.
</event>
<event>
 6    1  0.8259171E-006  0.7188603E+02  0.7561462E-02  0.1353794E+00
         -2   -1    0    0    0  501 -0.00000000000E+00  0.00000000000E+00  0.12338466947E+03  0.12338466947E+03  0.00000000000E+00 0.  1.
          2   -1    0    0  501    0  0.00000000000E+00 -0.00000000000E+00 -0.94968135679E+02  0.94968135679E+02  0.00000000000E+00 0. -1.
          5    1    1    2  502    0 -0.29322767967E+02  0.14334314251E+02  0.60269560971E+02  0.68667238665E+02  0.41800000000E+01 0. -1.
         -5    1    1    2    0  502  0.23865686692E+02  0.30258918724E+01 -0.52580747786E+02  0.57973566913E+02  0.41800000000E+01 0. -1.
        -11    1    1    2    0    0 -0.24084004867E+02  0.25059770754E+02  0.19821220032E+02  0.40011400429E+02  0.00000000000E+00 0.  1.
         11    1    1    2    0    0  0.29541086141E+02 -0.42419976877E+02  0.90650057729E+00  0.51700599145E+02  0.00000000000E+00 0. -1.
</event>
<event>
 6    1  0.8259171E-006  0.9385959E+02  0.7561462E-02  0.1293765E+00
          2   -1    0    0  501    0  0.00000000000E+00  0.00000000000E+00  0.20397499997E+03  0.20397499997E+03  0.00000000000E+00 0.  1.
         -2   -1    0    0    0  501 -0.00000000000E+00 -0.00000000000E+00 -0.65881387323E+02  0.65881387323E+02  0.00000000000E+00 0. -1.
          5    1    1    2  502    0  0.96610415389E+01 -0.42108185165E+02 -0.25463728917E+02  0.50322051547E+02  0.41800000000E+01 0.  1.
         -5    1    1    2    0  502 -0.61169110518E+01  0.57950843749E+02  0.52794099277E+02  0.78742658137E+02  0.41800000000E+01 0.  1.
        -11    1    1    2    0    0 -0.38536479117E+02 -0.29291279140E+02  0.72924306837E+02  0.87527103140E+02  0.00000000000E+00 0.  1.
         11    1    1    2    0    0  0.34992348630E+02  0.13448620557E+02  0.37838935453E+02  0.53264574473E+02  0.00000000000E+00 0. -1.
</event>
<event>
 6    1  0.8259171E-006  0.9261232E+02  0.7561462E-02  0.1296646E+00
          3   -1    0    0  501    0  0.00000000000E+00  0.00000000000E+00  0.47274538166E+03  0.47274538166E+03  0.00000000000E+00 0. -1.
         -3   -1    0    0    0  501 -0.00000000000E+00 -0.00000000000E+00 -0.87074802985E+02  0.87074802985E+02  0.00000000000E+00 0.  1.
          5    1    1    2  502    0  0.12153091009E+02 -0.26441480287E+02  0.73320700228E+02  0.78995233924E+02  0.41800000000E+01 0. -1.
         -5    1    1    2    0  502 -0.16890297966E+01  0.60046947213E+02 -0.66333573549E+02  0.89588526447E+02  0.41800000000E+01 0.  1.
        -11    1    1    2    0    0 -0.29742948878E+02 -0.57601981598E+02  0.29582815182E+03  0.30284802575E+03  0.00000000000E+00 0. -1.
         11    1    1    2    0    0  0.19278887667E+02  0.23996514671E+02  0.82855300177E+02  0.88388398523E+02  0.00000000000E+00 0.  1.
</event>
<event>
 6    1  0.8259171E-006  0.5344941E+02  0.7561462E-02  0.1427577E+00
         -1   -1    0    0    0  501 -0.00000000000E+00  0.00000000000E+00  0.49334866009E+02  0.49334866009E+02  0.00000000000E+00 0.  1.
          1   -1    0    0  501    0  0.00000000000E+00 -0.00000000000E+00 -0.24803201416E+03  0.24803201416E+03  0.00000000000E+00 0. -1.
          5    1    1    2  502    0  0.14966283049E+02 -0.42217224969E+01  0.28209560010E+02  0.32481752494E+02  0.41800000000E+01 0. -1.
         -5    1    1    2    0  502 -0.31361915652E+02 -0.92995613878E+01 -0.11912344928E+03  0.12360388410E+03  0.41800000000E+01 0. -1.
        -11    1    1    2    0    0  0.34445270222E+02 -0.12910595034E+01 -0.11232441873E+03  0.11749433399E+03  0.00000000000E+00 0. -1.
         11    1    1    2    0    0 -0.18049637620E+02  0.14812343388E+02  0.45411598566E+01  0.23786909587E+02  0.00000000000E+00 0.  1.
</event>
<event>
 6    1  0.8259171E-006  0.2466928E+03  0.7561462E-02  0.1115413E+00
         -2   -1    0    0    0  501 -0.00000000000E+00  0.00000000000E+00  0.59968770086E+02  0.59968770086E+02  0.00000000000E+00 0.  1.
          2   -1    0    0  501    0  0.00000000000E+00 -0.00000000000E+00 -0.11552511874E+04  0.11552511874E+04  0.00000000000E+00 0. -1.
          5    1    1    2  502    0 -0.11456213978E+02 -0.34823044324E+02 -0.25058918667E+03  0.25329094364E+03  0.41800000000E+01 0.  1.
         -5    1    1    2    0  502 -0.36006860340E+02 -0.19930602272E+03 -0.33657855239E+03  0.39283836245E+03  0.41800000000E+01 0.  1.
        -11    1    1    2    0    0 -0.25048179436E+02  0.74200030836E+02 -0.12275779645E+03  0.14561089402E+03  0.00000000000E+00 0. -1.
         11    1    1    2    0    0  0.72511253754E+02  0.15992903621E+03 -0.38535688178E+03  0.42347975734E+03  0.00000000000E+00 0.  1.
</event>
<event>
 6    1  0.8259171E-006  0.1339047E+03  0.7561462E-02  0.1221774E+00
          1   -1    0    0  501    0  0.00000000000E+00  0.00000000000E+00  0.63219321884E+03  0.63219321884E+03  0.00000000000E+00 0. -1.
         -1   -1    0    0    0  501 -0.00000000000E+00 -0.00000000000E+00 -0.35272106967E+02  0.35272106967E+02  0.00000000000E+00 0.  1.
          5    1    1    2  502    0  0.91872808268E+02 -0.68565398662E+02  0.20618152690E+03  0.23594516572E+03  0.41800000000E+01 0.  1.
         -5    1    1    2    0  502 -0.62836222284E+01  0.32346863117E+02  0.20164002071E+02  0.38856953578E+02  0.41800000000E+01 0.  1.
        -11    1    1    2    0    0 -0.81199014480E+02 -0.21827634739E+01  0.17014824031E+03  0.18854301390E+03  0.00000000000E+00 0.  1.
         11    1    1    2    0    0 -0.43901715601E+01  0.38401299018E+02  0.20042734259E+03  0.20412019260E+03  0.00000000000E+00 0. -1.
</event>
<event>
 6    1  0.8259171E-006  0.1146032E+03  0.7561462E-02  0.1252275E+00
         -1   -1    0    0    0  501 -0.00000000000E+00  0.00000000000E+00  0.13129463806E+03  0.13129463806E+03  0.00000000000E+00 0.  1.
          1   -1    0    0  501    0  0.00000000000E+00 -0.00000000000E+00 -0.15061975300E+03  0.15061975300E+03  0.00000000000E+00 0. -1.
          5    1    1    2  502    0 -0.46812321125E+02  0.24213969017E+02 -0.54980045078E+02  0.76275733110E+02  0.41800000000E+01 0.  1.
         -5    1    1    2    0  502 -0.34948877979E+02 -0.57615616544E+02  0.38523431946E+02  0.77733587018E+02  0.41800000000E+01 0.  1.
        -11    1    1    2    0    0  0.69955293402E+02  0.51740321483E+02 -0.30947941523E+02  0.92350306045E+02  0.00000000000E+00 0. -1.
         11    1    1    2    0    0  0.11805905702E+02 -0.18338673955E+02  0.28079439712E+02  0.35554764890E+02  0.00000000000E+00 0.  1.
</event>
<event>
 6    1  0.8259171E-006  0.1024570E+03  0.7561462E-02  0.1275212E+00
          1   -1    0    0  501    0  0.00000000000E+00  0.00000000000E+00  0.31849063303E+02  0.31849063303E+02  0.00000000000E+00 0. -1.
         -1   -1    0    0    0  501 -0.00000000000E+00 -0.00000000000E+00 -0.66070597232E+03  0.66070597232E+03  0.00000000000E+00 0.  1.
          5    1    1    2  502    0  0.15686351559E+02  0.75762296415E+00 -0.38937847606E+01  0.16711360733E+02  0.41800000000E+01 0. -1.
         -5    1    1    2    0  502 -0.74534884394E+02 -0.24807964930E+02 -0.50845189826E+03  0.51450139880E+03  0.41800000000E+01 0. -1.
        -11    1    1    2    0    0  0.37940018367E+02 -0.32341073417E+02 -0.66565934543E+02  0.83164978597E+02  0.00000000000E+00 0. -1.
         11    1    1    2    0    0  0.20908514468E+02  0.56391415383E+02 -0.49945291456E+02  0.78177297502E+02  0.00000000000E+00 0.  1.
</event>
<event>
 6    1  0.8259171E-006  0.2271182E+03  0.7561462E-02  0.1128685E+00
          3   -1    0    0  501    0  0.00000000000E+00  0.00000000000E+00  0.16075116675E+03  0.16075116675E+03  0.00000000000E+00 0. -1.
         -3   -1    0    0    0  501 -0.00000000000E+00 -0.00000000000E+00 -0.66735212409E+03  0.66735212409E+03  0.00000000000E+00 0.  1.
          5    1    1    2  502    0 -0.36748496221E+02  0.44854643258E+02 -0.10242141974E+03  0.11777100924E+03  0.41800000000E+01 0.  1.
         -5    1    1    2    0  502 -0.16771232648E+03 -0.66523756311E+02 -0.44634870887E+03  0.48145350442E+03  0.41800000000E+01 0.  1.
        -11    1    1    2    0    0  0.46253835497E+02  0.33299103642E+02 -0.17148448530E+02  0.59517366276E+02  0.00000000000E+00 0.  1.
         11    1    1    2    0    0  0.15820698721E+03 -0.11629990589E+02  0.59317619797E+02  0.16936141090E+03  0.00000000000E+00 0. -1.
</event>
<event>
 6    1  0.8259171E-006  0.9693293E+02  0.7561462E-02  0.1286881E+00
          1   -1    0    0  501    0  0.00000000000E+00  0.00000000000E+00  0.44002662446E+03  0.44002662446E+03  0.00000000000E+00 0. -1.
         -1   -1    0    0    0  501 -0.00000000000E+00 -0.00000000000E+00 -0.32216995504E+02  0.32216995504E+02  0.00000000000E+00 0.  1.
          5    1    1    2  502    0  0.72416046940E+02 -0.88897624683E+01  0.48446109101E+02  0.87679014697E+02  0.41800000000E+01 0.  1.
         -5    1    1    2    0  502 -0.36445937517E+02  0.65512692311E+01  0.11730502366E+03  0.12308195021E+03  0.41800000000E+01 0.  1.
        -11    1    1    2    0    0  0.19061955465E+02 -0.16645652855E+02  0.15304514735E+03  0.15512334780E+03  0.00000000000E+00 0. -1.
         11    1    1    2    0    0 -0.55032064889E+02  0.18984146092E+02  0.89013348836E+02  0.10635930726E+03  0.00000000000E+00 0.  1.
</event>
<event>
 6    1  0.8259171E-006  0.1300878E+03  0.7561462E-02  0.1227325E+00
          1   -1    0    0  501    0  0.00000000000E+00  0.00000000000E+00  0.28235455030E+03  0.28235455030E+03  0.00000000000E+00 0. -1.
         -1   -1    0    0    0  501 -0.00000000000E+00 -0.00000000000E+00 -0.91057122649E+02  0.91057122649E+02  0.00000000000E+00 0.  1.
          5    1    1    2  502    0 -0.43167231216E+02 -0.12312279307E+02 -0.36432973825E+02  0.57964092801E+02  0.41800000000E+01 0. -1.
         -5    1    1    2    0  502 -0.69518347755E+02  0.59737295722E+01  0.10021597145E+03  0.12218510324E+03  0.41800000000E+01 0. -1.
        -11    1    1    2    0    0 -0.13384553584E+02  0.13381374105E+02  0.18019087217E+02  0.26132258833E+02  0.00000000000E+00 0.  1.
         11    1    1    2    0    0  0.12607013255E+03 -0.70428243708E+01  0.10949534280E+03  0.16713021807E+03  0.00000000000E+00 0. -1.
</event>
<event>
 6    1  0.8259171E-006  0.1522894E+03  0.7561462E-02  0.1197688E+00
         -2   -1    0    0    0  501 -0.00000000000E+00  0.00000000000E+00  0.64944798775E+03  0.64944798775E+03  0.00000000000E+00 0. -1.
          2   -1    0    0  501    0  0.00000000000E+00 -0.00000000000E+00 -0.20300415746E+03  0.20300415746E+03  0.00000000000E+00 0.  1.
          5    1    1    2  502    0  0.55425617618E+02 -0.14950410096E+02  0.35230314747E+03  0.35697408025E+03  0.41800000000E+01 0.  1.
         -5    1    1    2    0  502  0.55464982191E+02  0.94704287157E+02  0.24750552858E+03  0.27077984662E+03  0.41800000000E+01 0.  1.
        -11    1    1    2    0    0 -0.82871146708E+02 -0.52497117420E+02 -0.42073526430E+02  0.10674153793E+03  0.00000000000E+00 0. -1.
         11    1    1    2    0    0 -0.28019453101E+02 -0.27256759641E+02 -0.11129131933E+03  0.11795668042E+03  0.00000000000E+00 0.  1.
</event>
<event>
 6    1  0.8259171E-006  0.1151039E+03  0.7561462E-02  0.1251400E+00
         -1   -1    0    0    0  501 -0.00000000000E+00  0.00000000000E+00  0.43601825599E+02  0.43601825599E+02  0.00000000000E+00 0.  1.
          1   -1    0    0  501    0  0.00000000000E+00 -0.00000000000E+00 -0.33899295411E+03  0.33899295411E+03  0.00000000000E+00 0. -1.
          5    1    1    2  502    0  0.52431499310E+02  0.20107991078E+02 -0.63169646707E+02  0.84624287827E+02  0.41800000000E+01 0. -1.
         -5    1    1    2    0  502 -0.72693740999E+02  0.19951331535E+02 -0.57667384357E+02  0.95002290652E+02  0.41800000000E+01 0. -1.
        -11    1    1    2    0    0  0.47606998767E+02  0.26565424596E+01 -0.11649837045E+03  0.12587832962E+03  0.00000000000E+00 0. -1.
         11    1    1    2    0    0 -0.27344757078E+02 -0.42715865073E+02 -0.58055726998E+02  0.77089871616E+02  0.00000000000E+00 0.  1.
</event>
<event>
 6    1  0.8259171E-006  0.1382127E+03  0.7561462E-02  0.1215754E+00
         -2   -1    0    0    0  501 -0.00000000000E+00  0.00000000000E+00  0.71845832868E+02  0.71845832868E+02  0.00000000000E+00 0.  1.
          2   -1    0    0  501    0  0.00000000000E+00 -0.00000000000E+00 -0.34788028005E+03  0.34788028005E+03  0.00000000000E+00 0. -1.
          5    1    1    2  502    0  0.12315129880E+02 -0.16646940234E+02  0.11998135588E+02  0.24294252421E+02  0.41800000000E+01 0. -1.
         -5    1    1    2    0  502 -0.12657422216E+03 -0.58861814242E+01 -0.14254136706E+03  0.19076476239E+03  0.41800000000E+01 0. -1.
        -11    1    1    2    0    0  0.56690945485E+02  0.38801585891E+02 -0.30747478750E+02  0.75265090295E+02  0.00000000000E+00 0.  1.
         11    1    1    2    0    0  0.57568146794E+02 -0.16268464233E+02 -0.11474373697E+03  0.12940200782E+03  0.00000000000E+00 0. -1.
</event>
<event>
 6    1  0.8259171E-006  0.2673362E+03  0.7561462E-02  0.1102814E+00
          2   -1    0    0  501    0  0.00000000000E+00  0.00000000000E+00  0.37268269117E+03  0.37268269117E+03  0.00000000000E+00 0. -1.
         -2   -1    0    0    0  501 -0.00000000000E+00 -0.00000000000E+00 -0.27963157231E+03  0.27963157231E+03  0.00000000000E+00 0.  1.
          5    1    1    2  502    0 -0.80119717562E+02 -0.34607269813E+02 -0.12066969572E+03  0.14898147580E+03  0.41800000000E+01 0. -1.
         -5    1    1    2    0  502  0.15953980313E+02  0.14879843674E+02  0.89059214627E+01  0.23931716877E+02  0.41800000000E+01 0.  1.
        -11    1    1    2    0    0  0.11856386677E+03  0.20235313959E+03  0.15921081710E+03  0.28346475599E+03  0.00000000000E+00 0.  1.
         11    1    1    2    0    0 -0.54398129524E+02 -0.18262571345E+03  0.45604076012E+02  0.19593631481E+03  0.00000000000E+00 0. -1.
</event>
<event>
 6    1  0.8259171E-006  0.1174728E+03  0.7561462E-02  0.1247325E+00
          2   -1    0    0  501    0  0.00000000000E+00  0.00000000000E+00  0.82034648265E+02  0.82034648265E+02  0.00000000000E+00 0. -1.
         -2   -1    0    0    0  501 -0.00000000000E+00 -0.00000000000E+00 -0.17252561109E+03  0.17252561109E+03  0.00000000000E+00 0.  1.
          5    1    1    2  502    0  0.74872021274E+01  0.76278296382E+02 -0.36172261206E+02  0.84854826471E+02  0.41800000000E+01 0. -1.
         -5    1    1    2    0  502 -0.37746934853E+02 -0.39612509822E+02 -0.46717624743E+01  0.55075219380E+02  0.41800000000E+01 0. -1.
        -11    1    1    2    0    0 -0.92439078096E+01  0.26914134239E+02 -0.14426024166E+02  0.31905025101E+02  0.00000000000E+00 0. -1.
         11    1    1    2    0    0  0.39503640535E+02 -0.63579920799E+02 -0.35220914978E+02  0.82725188403E+02  0.00000000000E+00 0.  1.
</event>
<event>
 6    1  0.8259171E-006  0.7397214E+02  0.7561462E-02  0.1347084E+00
         -1   -1    0    0    0  501 -0.00000000000E+00  0.00000000000E+00  0.28065629885E+02  0.28065629885E+02  0.00000000000E+00 0.  1.
          1   -1    0    0  501    0  0.00000000000E+00 -0.00000000000E+00 -0.47284037758E+03  0.47284037758E+03  0.00000000000E+00 0. -1.
          5    1    1    2  502    0 -0.25835717205E+02  0.33948669573E+01  0.93224425262E+01  0.27989100375E+02  0.41800000000E+01 0.  1.
         -5    1    1    2    0  502  0.29902361129E+02  0.15675853437E+02 -0.18764899762E+03  0.19070789782E+03  0.41800000000E+01 0.  1.
        -11    1    1    2    0    0  0.14287259213E+02 -0.49762215917E+02 -0.20173381147E+03  0.20827130047E+03  0.00000000000E+00 0. -1.
         11    1    1    2    0    0 -0.18353903137E+02  0.30691495523E+02 -0.64714381123E+02  0.73937708796E+02  0.00000000000E+00 0.  1.
</event>
<event>
 6    1  0.8259171E-006  0.2324043E+03  0.7561462E-02  0.1124959E+00
          2   -1    0    0  501    0  0.00000000000E+00  0.00000000000E+00  0.12385639315E+04  0.12385639315E+04  0.00000000000E+00 0. -1.
         -2   -1    0    0    0  501 -0.00000000000E+00 -0.00000000000E+00 -0.72131350766E+02  0.72131350766E+02  0.00000000000E+00 0.  1.
          5    1    1    2  502    0  0.10277891958E+03 -0.65776330308E+02  0.57274824257E+03  0.58561766854E+03  0.41800000000E+01 0. -1.
         -5    1    1    2    0  502  0.10084889381E+03  0.63389600110E+02  0.36402589949E+02  0.12462488411E+03  0.41800000000E+01 0.  1.
        -11    1    1    2    0    0  0.92883985293E+01  0.50849856362E+01  0.28929975083E+02  0.30807059004E+02  0.00000000000E+00 0.  1.
         11    1    1    2    0    0 -0.21291621191E+03 -0.26982554384E+01  0.52835177313E+03  0.56964567062E+03  0.00000000000E+00 0. -1.
</event>
<event>
 6    1  0.8259171E-006  0.8838862E+02  0.7561462E-02  0.1306801E+00
         -2   -1    0    0    0  501 -0.00000000000E+00  0.00000000000E+00  0.68592383306E+02  0.68592383306E+02  0.00000000000E+00 0.  1.
          2   -1    0    0  501    0  0.00000000000E+00 -0.00000000000E+00 -0.17294250617E+03  0.17294250617E+03  0.00000000000E+00 0. -1.
          5    1    1    2  502    0  0.17035864668E+02 -0.27939427168E+02 -0.82267435048E+02  0.88635407964E+02  0.41800000000E+01 0.  1.
         -5    1    1    2    0  502 -0.30037159657E+02  0.43986907474E+02  0.14178647712E+02  0.55277350157E+02  0.41800000000E+01 0.  1.
        -11    1    1    2    0    0  0.48742305767E+02 -0.23084768972E+02 -0.25369345567E+02  0.59601364283E+02  0.00000000000E+00 0.  1.
         11    1    1    2    0    0 -0.35741010778E+02  0.70372886661E+01 -0.10891989960E+02  0.38020767069E+02  0.00000000000E+00 0. -1.
</event>
<event>
 6    1  0.8259171E-006  0.6692289E+02  0.7561462E-02  0.1370881E+00
         -1   -1    0    0    0  501 -0.00000000000E+00  0.00000000000E+00  0.50254264463E+02  0.50254264463E+02  0.00000000000E+00 0.  1.
          1   -1    0    0  501    0  0.00000000000E+00 -0.00000000000E+00 -0.12715879142E+03  0.12715879142E+03  0.00000000000E+00 0. -1.
          5    1    1    2  502    0 -0.10959160019E+01 -0.61565888277E+02  0.11607478807E+02  0.62799407605E+02  0.41800000000E+01 0. -1.
         -5    1    1    2    0  502  0.18799766986E+02  0.36926044396E+02 -0.52730724526E+02  0.67193494496E+02  0.41800000000E+01 0.  1.
        -11    1    1    2    0    0 -0.12423051308E+02  0.14873185186E+02 -0.17951109666E+02  0.26415642707E+02  0.00000000000E+00 0.  1.
         11    1    1    2    0    0 -0.52807996758E+01  0.97666586955E+01 -0.17830171574E+02  0.21004511079E+02  0.00000000000E+00 0. -1.
</event>
<event>
 6    1  0.8259171E-006  0.8245335E+02  0.7561462E-02  0.1322230E+00
         -2   -1    0    0    0  501 -0.00000000000E+00  0.00000000000E+00  0.79194802073E+02  0.79194802073E+02  0.00000000000E+00 0.  1.
          2   -1    0    0  501    0  0.00000000000E+00 -0.00000000000E+00 -0.18967250646E+03  0.18967250646E+03  0.00000000000E+00 0. -1.
          5    1    1    2  502    0 -0.29086957189E+02  0.31132671007E+01 -0.49412180391E+02  0.57574121631E+02  0.41800000000E+01 0. -1.
         -5    1    1    2    0  502  0.49193360139E+02  0.10471311472E+02  0.48288593725E+02  0.69849092547E+02  0.41800000000E+01 0. -1.
        -11    1    1    2    0    0  0.94768209381E+01  0.30420763634E+02 -0.20240385420E+02  0.37747929706E+02  0.00000000000E+00 0.  1.
         11    1    1    2    0    0 -0.29583223889E+02 -0.44005342206E+02 -0.89113732303E+02  0.10369616465E+03  0.00000000000E+00 0. -1.
</event>
<event>
 6    1  0.8259171E-006  0.1020106E+03  0.7561462E-02  0.1276124E+00
          1   -1    0    0  501    0  0.00000000000E+00  0.00000000000E+00  0.77140027926E+03  0.77140027926E+03  0.00000000000E+00 0. -1.
         -1   -1    0    0    0  501 -0.00000000000E+00 -0.00000000000E+00 -0.17588030404E+02  0.17588030404E+02  0.00000000000E+00 0.  1.
          5    1    1    2  502    0  0.21766150565E+02  0.77730938092E+02  0.31029255576E+03  0.32064748028E+03  0.41800000000E+01 0.  1.
         -5    1    1    2    0  502  0.75465475223E+01 -0.46851645446E+02  0.10849680963E+03  0.11849496682E+03  0.41800000000E+01 0.  1.
        -11    1    1    2    0    0 -0.49046509344E+02 -0.24414613846E+02  0.31885664480E+03  0.32352927748E+03  0.00000000000E+00 0. -1.
         11    1    1    2    0    0  0.19733811256E+02 -0.64646787995E+01  0.16166238659E+02  0.26316585095E+02  0.00000000000E+00 0.  1.
</event>
<event>
 6    1  0.8259171E-006  0.1542045E+03  0.7561462E-02  0.1195400E+00
         -2   -1    0    0    0  501 -0.00000000000E+00  0.00000000000E+00  0.21710597080E+02  0.21710597080E+02  0.00000000000E+00 0. -1.
          2   -1    0    0  501    0  0.00000000000E+00 -0.00000000000E+00 -0.12625359014E+04  0.12625359014E+04  0.00000000000E+00 0.  1.
          5    1    1    2  502    0  0.13020147791E+02 -0.12999299783E+03 -0.40264518229E+03  0.42333003550E+03  0.41800000000E+01 0. -1.
         -5    1    1    2    0  502  0.26304204346E+02  0.22985119002E+02 -0.63577071023E+02  0.72661841579E+02  0.41800000000E+01 0. -1.
        -11    1    1    2    0    0  0.26637504992E+02  0.19884478895E+02 -0.11685803190E+03  0.12149382203E+03  0.00000000000E+00 0. -1.
         11    1    1    2    0    0 -0.65961857128E+02  0.87123399938E+02 -0.65774501915E+03  0.66676079941E+03  0.00000000000E+00 0.  1.
</event>
<event>
 6    1  0.8259171E-006  0.8640534E+02  0.7561462E-02  0.1311798E+00
         -2   -1    0    0    0  501 -0.00000000000E+00  0.00000000000E+00  0.24922318187E+03  0.24922318187E+03  0.00000000000E+00 0.  1.
          2   -1    0    0  501    0  0.00000000000E+00 -0.00000000000E+00 -0.54546072178E+02  0.54546072178E+02  0.00000000000E+00 0. -1.
          5    1    1    2  502    0  0.16533652556E+02  0.60309736781E+02  0.21809152336E+02  0.66360662617E+02  0.41800000000E+01 0. -1.
         -5    1    1    2    0  502  0.13161109661E+02 -0.15644550042E+02  0.12003772340E+03  0.12183798338E+03  0.41800000000E+01 0.  1.
        -11    1    1    2    0    0  0.18693754014E+02  0.55832281986E+01 -0.97899151225E+01  0.21828222886E+02  0.00000000000E+00 0.  1.
         11    1    1    2    0    0 -0.48388516231E+02 -0.50248414937E+02  0.62620149076E+02  0.93742385168E+02  0.00000000000E+00 0. -1.
</event>
<event>
 6    1  0.8259171E-006  0.1386957E+03  0.7561462E-02  0.1215095E+00
         -3   -1    0    0    0  501 -0.00000000000E+00  0.00000000000E+00  0.14301569355E+04  0.14301569355E+04  0.00000000000E+00 0.  1.
          3   -1    0    0  501    0  0.00000000000E+00 -0.00000000000E+00 -0.26382219712E+02  0.26382219712E+02  0.00000000000E+00 0. -1.
          5    1    1    2  502    0 -0.73914751591E+02 -0.32528891693E+02  0.97899241015E+03  0.98232638712E+03  0.41800000000E+01 0.  1.
         -5    1    1    2    0  502 -0.34913853553E+02 -0.39154723542E+02  0.11488122234E+03  0.12636153367E+03  0.41800000000E+01 0.  1.
        -11    1    1    2    0    0  0.10281445900E+03  0.82301535712E+02  0.30866403122E+03  0.33558581605E+03  0.00000000000E+00 0.  1.
         11    1    1    2    0    0  0.60141461407E+01 -0.10617920478E+02  0.12370520298E+01  0.12265418329E+02  0.00000000000E+00 0. -1.
</event>
<event>
 6    1  0.8259171E-006  0.1095424E+03  0.7561462E-02  0.1261420E+00
          3   -1    0    0  501    0  0.00000000000E+00  0.00000000000E+00  0.74914753568E+03  0.74914753568E+03  0.00000000000E+00 0. -1.
         -3   -1    0    0    0  501 -0.00000000000E+00 -0.00000000000E+00 -0.18808482847E+02  0.18808482847E+02  0.00000000000E+00 0.  1.
          5    1    1    2  502    0 -0.64329927316E+02  0.17887614627E+01  0.19389696954E+03  0.20434051584E+03  0.41800000000E+01 0.  1.
         -5    1    1    2    0  502  0.54440074667E+02  0.37653404066E+02  0.15946029565E+03  0.17270367355E+03  0.41800000000E+01 0.  1.
        -11    1    1    2    0    0 -0.29140415820E+02  0.45119068488E+01  0.45234651865E+02  0.53997174620E+02  0.00000000000E+00 0.  1.
         11    1    1    2    0    0  0.39030268469E+02 -0.43954072378E+02  0.33174713578E+03  0.33691465452E+03  0.00000000000E+00 0. -1.
</event>
<event>
 6    1  0.8259171E-006  0.1367959E+03  0.7561462E-02  0.1217706E+00
         -1   -1    0    0    0  501 -0.00000000000E+00  0.00000000000E+00  0.31986038750E+03  0.31986038750E+03  0.00000000000E+00 0.  1.
          1   -1    0    0  501    0  0.00000000000E+00 -0.00000000000E+00 -0.63115548720E+02  0.63115548720E+02  0.00000000000E+00 0. -1.
          5    1    1    2  502    0  0.45583606424E+01  0.33312948766E+02  0.59256400690E+02  0.68259245747E+02  0.41800000000E+01 0. -1.
         -5    1    1    2    0  502 -0.60909378204E+02 -0.98283039096E+02  0.12163426365E+03  0.16787458003E+03  0.41800000000E+01 0. -1.
        -11    1    1    2    0    0  0.10920298674E+02  0.76387438002E+02  0.58711505951E+02  0.96960479261E+02  0.00000000000E+00 0.  1.
         11    1    1    2    0    0  0.45430718888E+02 -0.11417347672E+02  0.17142668494E+02  0.49881631185E+02  0.00000000000E+00 0. -1.
</event>
<event>
 6    1  0.8259171E-006  0.1103412E+03  0.7561462E-02  0.1259939E+00
         -1   -1    0    0    0  501 -0.00000000000E+00  0.00000000000E+00  0.80527278116E+02  0.80527278116E+02  0.00000000000E+00 0.  1.
          1   -1    0    0  501    0  0.00000000000E+00 -0.00000000000E+00 -0.30180957875E+03  0.30180957875E+03  0.00000000000E+00 0. -1.
          5    1    1    2  502    0  0.13690745346E+02 -0.56589611178E+02  0.33456502590E+02  0.67280239052E+02  0.41800000000E+01 0.  1.
         -5    1    1    2    0  502  0.43098721076E+02 -0.23198274465E+02 -0.87827512425E+02  0.10063202291E+03  0.41800000000E+01 0.  1.
        -11    1    1    2    0    0  0.66780135595E+01  0.34693315325E+02 -0.62309892588E+01  0.35875440352E+02  0.00000000000E+00 0. -1.
         11    1    1    2    0    0 -0.63467479981E+02  0.45094570318E+02 -0.16068030154E+03  0.17854915455E+03  0.00000000000E+00 0.  1.
</event>
<event>
 6    1  0.8259171E-006  0.1044798E+03  0.7561462E-02  0.1271148E+00
         -2   -1    0    0    0  501 -0.00000000000E+00  0.00000000000E+00  0.40279061518E+02  0.40279061518E+02  0.00000000000E+00 0.  1.
          2   -1    0    0  501    0  0.00000000000E+00 -0.00000000000E+00 -0.49587131488E+03  0.49587131488E+03  0.00000000000E+00 0. -1.
          5    1    1    2  502    0 -0.11591090245E+01 -0.10369827994E+03 -0.22352945913E+03  0.24644993060E+03  0.41800000000E+01 0.  1.
         -5    1    1    2    0  502 -0.13223165764E+01  0.15539372489E+02  0.79006727532E+01  0.17975362262E+02  0.41800000000E+01 0.  1.
        -11    1    1    2    0    0  0.58914782770E+01  0.21919390241E+02  0.68746962613E-01  0.22697442829E+02  0.00000000000E+00 0.  1.
         11    1    1    2    0    0 -0.34100526761E+01  0.66239517214E+02 -0.24003221396E+03  0.24902764071E+03  0.00000000000E+00 0. -1.
</event>
<event>
 6    1  0.8259171E-006  0.1079709E+03  0.7561462E-02  0.1264374E+00
         -2   -1    0    0    0  501 -0.00000000000E+00  0.00000000000E+00  0.12128109806E+03  0.12128109806E+03  0.00000000000E+00 0.  1.
          2   -1    0    0  501    0  0.00000000000E+00 -0.00000000000E+00 -0.12232082709E+03  0.12232082709E+03  0.00000000000E+00 0. -1.
          5    1    1    2  502    0 -0.52255751808E+02 -0.37844249337E+02 -0.45302811688E+01  0.64813938719E+02  0.41800000000E+01 0. -1.
         -5    1    1    2    0  502  0.30526917134E+02  0.48464091099E+02  0.31184269720E+02  0.65349765675E+02  0.41800000000E+01 0. -1.
        -11    1    1    2    0    0 -0.18819918354E+01 -0.48870213625E+02  0.15292859742E+02  0.51241694274E+02  0.00000000000E+00 0.  1.
         11    1    1    2    0    0  0.23610826509E+02  0.38250371862E+02 -0.42986577322E+02  0.62196526478E+02  0.00000000000E+00 0. -1.
</event>
<event>
 6    1  0.8259171E-006  0.1131735E+03  0.7561462E-02  0.1254803E+00
         -2   -1    0    0    0  501 -0.00000000000E+00  0.00000000000E+00  0.45135041437E+02  0.45135041437E+02  0.00000000000E+00 0.  1.
          2   -1    0    0  501    0  0.00000000000E+00 -0.00000000000E+00 -0.31874355431E+03  0.31874355431E+03  0.00000000000E+00 0. -1.
          5    1    1    2  502    0  0.85044802139E+02 -0.29951874102E+02 -0.10624858486E+03  0.13941293813E+03  0.41800000000E+01 0.  1.
         -5    1    1    2    0  502 -0.40780790999E+02  0.76589279798E+01 -0.25397084362E+02  0.48828438295E+02  0.41800000000E+01 0.  1.
        -11    1    1    2    0    0 -0.65306202810E+02  0.30137045221E+02 -0.70442597282E+02  0.10067423271E+03  0.00000000000E+00 0.  1.
         11    1    1    2    0    0  0.21042191670E+02 -0.78440990988E+01 -0.71520246369E+02  0.74962986611E+02  0.00000000000E+00 0. -1.
</event>
<event>
 6    1  0.8259171E-006  0.1347133E+03  0.7561462E-02  0.1220625E+00
          1   -1    0    0  501    0  0.00000000000E+00  0.00000000000E+00  0.18590991436E+04  0.18590991436E+04  0.00000000000E+00 0. -1.
         -1   -1    0    0    0  501 -0.00000000000E+00 -0.00000000000E+00 -0.14976414969E+02  0.14976414969E+02  0.00000000000E+00 0.  1.
          5    1    1    2  502    0  0.65902841946E+02 -0.21366264171E+01  0.99682669986E+03  0.99901385961E+03  0.41800000000E+01 0.  1.
         -5    1    1    2    0  502  0.54941196956E+02  0.95086192667E+01  0.13498614603E+03  0.14610845623E+03  0.41800000000E+01 0.  1.
        -11    1    1    2    0    0  0.10523087116E+02 -0.12042236925E+02  0.29025503912E+02  0.33139564118E+02  0.00000000000E+00 0.  1.
         11    1    1    2    0    0 -0.13136712602E+03  0.46702440757E+01  0.68328437887E+03  0.69581367864E+03  0.00000000000E+00 0. -1.
</event>
<event>
 6    1  0.8259171E-006  0.1092231E+03  0.7561462E-02  0.1262015E+00
         -1   -1    0    0    0  501 -0.00000000000E+00  0.00000000000E+00  0.11296771972E+03  0.11296771972E+03  0.00000000000E+00 0.  1.
          1   -1    0    0  501    0  0.00000000000E+00 -0.00000000000E+00 -0.25572330314E+03  0.25572330314E+03  0.00000000000E+00 0. -1.
          5    1    1    2  502    0  0.18920601017E+02  0.96214231219E+02  0.23157002325E+02  0.10084089740E+03  0.41800000000E+01 0. -1.
         -5    1    1    2    0  502 -0.41347482142E+01 -0.34776832606E+02 -0.17593862499E+02  0.39414979723E+02  0.41800000000E+01 0. -1.
        -11    1    1    2    0    0 -0.28632886010E+02 -0.78602770865E+01  0.29710342094E+02  0.42003934869E+02  0.00000000000E+00 0.  1.
         11    1    1    2    0    0  0.13847033208E+02 -0.53577121526E+02 -0.17802906533E+03  0.18643121086E+03  0.00000000000E+00 0. -1.
</event>
<event>
 6    1  0.8259171E-006  0.1322416E+03  0.7561462E-02  0.1224167E+00
         -2   -1    0    0    0  501 -0.00000000000E+00  0.00000000000E+00  0.65044856254E+02  0.65044856254E+02  0.00000000000E+00 0.  1.
          2   -1    0    0  501    0  0.00000000000E+00 -0.00000000000E+00 -0.43156100193E+03  0.43156100193E+03  0.00000000000E+00 0. -1.
          5    1    1    2  502    0  0.36291255945E+02 -0.86368744632E+02 -0.27797599211E+02  0.97809990437E+02  0.41800000000E+01 0. -1.
         -5    1    1    2    0  502 -0.41520462689E+02  0.74980993356E+01 -0.71572415580E+01  0.42998474651E+02  0.41800000000E+01 0.  1.
        -11    1    1    2    0    0  0.95563076919E+01 -0.23747609316E+02 -0.51846435858E+02  0.57821491472E+02  0.00000000000E+00 0.  1.
         11    1    1    2    0    0 -0.43271009476E+01  0.10261825461E+03 -0.27971486905E+03  0.29797590163E+03  0.00000000000E+00 0. -1.
</event>
<event>
 6    1  0.8259171E-006  0.1102948E+03  0.7561462E-02  0.1260025E+00
         -1   -1    0    0    0  501 -0.00000000000E+00  0.00000000000E+00  0.11641849471E+04  0.11641849471E+04  0.00000000000E+00 0.  1.
          1   -1    0    0  501    0  0.00000000000E+00 -0.00000000000E+00 -0.11608363573E+02  0.11608363573E+02  0.00000000000E+00 0. -1.
          5    1    1    2  502    0  0.17776804129E+02 -0.76788880442E+02  0.48042011833E+03  0.48686087276E+03  0.41800000000E+01 0. -1.
         -5    1    1    2    0  502 -0.13647901378E+02  0.38995173399E+02  0.10358878545E+03  0.11160196070E+03  0.41800000000E+01 0. -1.
        -11    1    1    2    0    0 -0.39343160784E+02 -0.10164981518E+02  0.24158863469E+03  0.24498220254E+03  0.00000000000E+00 0.  1.
         11    1    1    2    0    0  0.35214258033E+02  0.47958688561E+02  0.32697904509E+03  0.33234827471E+03  0.00000000000E+00 0. -1.
</event>
<event>
 6    1  0.8259171E-006  0.9740981E+02  0.7561462E-02  0.1285839E+00
         -1   -1    0    0    0  501 -0.00000000000E+00  0.00000000000E+00  0.13579308944E+03  0.13579308944E+03  0.00000000000E+00 0.  1.
          1   -1    0    0  501    0  0.00000000000E+00 -0.00000000000E+00 -0.86720992267E+02  0.86720992267E+02  0.00000000000E+00 0. -1.
          5    1    1    2  502    0 -0.42051952912E+02  0.38182700214E+02 -0.11041831998E+02  0.58014479169E+02  0.41800000000E+01 0. -1.
         -5    1    1    2    0  502  0.39383282576E+02 -0.33106230712E+02  0.53158064232E+02  0.74096677735E+02  0.41800000000E+01 0. -1.
        -11    1    1    2    0    0  0.40242457036E+02  0.15834649416E+02  0.16620261025E+02  0.46329521333E+02  0.00000000000E+00 0.  1.
         11    1    1    2    0    0 -0.37573786700E+02 -0.20911118919E+02 -0.96643960884E+01  0.44073403467E+02  0.00000000000E+00 0. -1.
</event>
<event>
 6    1  0.8259171E-006  0.1027630E+03  0.7561462E-02  0.1274591E+00
         -1   -1    0    0    0  501 -0.00000000000E+00  0.00000000000E+00  0.91067208316E+02  0.91067208316E+02  0.00000000000E+00 0.  1.
          1   -1    0    0  501    0  0.00000000000E+00 -0.00000000000E+00 -0.14749327568E+03  0.14749327568E+03  0.00000000000E+00 0. -1.
          5    1    1    2  502    0  0.38967934824E+02  0.42667482202E+02 -0.36786574887E+01  0.58051863905E+02  0.41800000000E+01 0. -1.
         -5    1    1    2    0  502 -0.66889897024E+02 -0.24628538968E+02  0.97538168879E+00  0.71409012212E+02  0.41800000000E+01 0. -1.
        -11    1    1    2    0    0 -0.15094416254E+02  0.15505311685E+02  0.11148014692E+02  0.24342027937E+02  0.00000000000E+00 0.  1.
         11    1    1    2    0    0  0.43016378454E+02 -0.33544254920E+02 -0.64870806251E+02  0.84757579939E+02  0.00000000000E+00 0. -1.
</event>
<event>
 6    1  0.8259171E-006  0.1186640E+03  0.7561462E-02  0.1245317E+00
         -1   -1    0    0    0  501 -0.00000000000E+00  0.00000000000E+00  0.63523479219E+02  0.63523479219E+02  0.00000000000E+00 0.  1.
          1   -1    0    0  501    0  0.00000000000E+00 -0.00000000000E+00 -0.29446487803E+03  0.29446487803E+03  0.00000000000E+00 0. -1.
          5    1    1    2  502    0  0.45173206496E+01 -0.79952489187E+02 -0.81221670811E+01  0.80599309619E+02  0.41800000000E+01 0. -1.
         -5    1    1    2    0  502  0.25034442791E+02  0.48889514551E+02 -0.40928173552E+02  0.68625765928E+02  0.41800000000E+01 0.  1.
        -11    1    1    2    0    0  0.30289892840E+02 -0.70580982178E+01 -0.47172638425E+02  0.56502674049E+02  0.00000000000E+00 0.  1.
         11    1    1    2    0    0 -0.59841656281E+02  0.38121072853E+02 -0.13471841976E+03  0.15226060765E+03  0.00000000000E+00 0. -1.
</event>
<event>
 6    1  0.8259171E-006  0.1095826E+03  0.7561462E-02  0.1261345E+00
         -1   -1    0    0    0  501 -0.00000000000E+00  0.00000000000E+00  0.21195666728E+02  0.21195666728E+02  0.00000000000E+00 0.  1.
          1   -1    0    0  501    0  0.00000000000E+00 -0.00000000000E+00 -0.59662545828E+03  0.59662545828E+03  0.00000000000E+00 0. -1.
          5    1    1    2  502    0  0.10726448902E+02  0.57176545136E+02 -0.10685888569E+03  0.12173950825E+03  0.41800000000E+01 0. -1.
         -5    1    1    2    0  502  0.17693347409E+02 -0.64758114820E+02 -0.19731058738E+03  0.20846008795E+03  0.41800000000E+01 0. -1.
        -11    1    1    2    0    0  0.21256795136E+02 -0.26025126818E+02 -0.12745636866E+03  0.13181154910E+03  0.00000000000E+00 0. -1.
         11    1    1    2    0    0 -0.49676591446E+02  0.33606696502E+02 -0.14380394983E+03  0.15580997970E+03  0.00000000000E+00 0.  1.
</event>
<event>
 6    1  0.8259171E-006  0.1021311E+03  0.7561462E-02  0.1275877E+00
          1   -1    0    0  501    0  0.00000000000E+00  0.00000000000E+00  0.52217764936E+02  0.52217764936E+02  0.00000000000E+00 0. -1.
         -1   -1    0    0    0  501 -0.00000000000E+00 -0.00000000000E+00 -0.35915620936E+03  0.35915620936E+03  0.00000000000E+00 0.  1.
          5    1    1    2  502    0 -0.27640773808E+02  0.46707958426E+02 -0.16632350688E+03  0.17500464879E+03  0.41800000000E+01 0.  1.
         -5    1    1    2    0  502  0.89278829636E+01 -0.68921831197E+02 -0.11867090357E+03  0.13758699671E+03  0.41800000000E+01 0.  1.
        -11    1    1    2    0    0  0.19632064666E+02  0.49319509591E+02 -0.39768902794E+02  0.66327955033E+02  0.00000000000E+00 0.  1.
         11    1    1    2    0    0 -0.91917382170E+00 -0.27105636820E+02  0.17824868820E+02  0.32454373763E+02  0.00000000000E+00 0. -1.
</event>
<event>
 6    1  0.1189213E-005  0.2753930E+03  0.7561462E-02  0.1098232E+00
          2   -1    0    0  501    0  0.00000000000E+00  0.00000000000E+00  0.61237232901E+03  0.61237232901E+03  0.00000000000E+00 0. -1.
         -2   -1    0    0    0  501 -0.00000000000E+00 -0.00000000000E+00 -0.14522606918E+03  0.14522606918E+03  0.00000000000E+00 0.  1.
          5    1    1    2  502    0 -0.95092371197E+02  0.11721317003E+03  0.18469359036E+02  0.15211862448E+03  0.41800000000E+01 0.  1.
         -5    1    1    2    0  502 -0.12377813082E+03  0.21800790494E+02  0.93791421608E+02  0.15687766987E+03  0.41800000000E+01 0.  1.
        -11    1    1    2    0    0  0.10487554973E+03 -0.15591382592E+02  0.12609254744E+03  0.16474617648E+03  0.00000000000E+00 0.  1.
         11    1    1    2    0    0  0.11399495229E+03 -0.12342257794E+03  0.22879293173E+03  0.28385592737E+03  0.00000000000E+00 0. -1.
</event>
<event>
 6    1  0.8259171E-006  0.8192340E+02  0.7561462E-02  0.1323680E+00
         -1   -1    0    0    0  501 -0.00000000000E+00  0.00000000000E+00  0.15706894332E+03  0.15706894332E+03  0.00000000000E+00 0.  1.
          1   -1    0    0  501    0  0.00000000000E+00 -0.00000000000E+00 -0.11047938279E+03  0.11047938279E+03  0.00000000000E+00 0. -1.
          5    1    1    2  502    0 -0.43493697034E+02  0.28883760223E+02 -0.16055465935E+02  0.54783425164E+02  0.41800000000E+01 0. -1.
         -5    1    1    2    0  502  0.97825206918E+01 -0.13901444910E+01  0.10321161377E+03  0.10376772056E+03  0.41800000000E+01 0. -1.
        -11    1    1    2    0    0 -0.95024707974E+01 -0.50773422466E+02 -0.15798511180E+02  0.54016944894E+02  0.00000000000E+00 0. -1.
         11    1    1    2    0    0  0.43213647140E+02  0.23279806734E+02 -0.24768076127E+02  0.54980235501E+02  0.00000000000E+00 0.  1.
</event>
<event>
 6    1  0.8259171E-006  0.1333370E+03  0.7561462E-02  0.1222587E+00
          2   -1    0    0  501    0  0.00000000000E+00  0.00000000000E+00  0.12908463279E+03  0.12908463279E+03  0.00000000000E+00 0. -1.
         -2   -1    0    0    0  501 -0.00000000000E+00 -0.00000000000E+00 -0.15524622154E+03  0.15524622154E+03  0.00000000000E+00 0.  1.
          5    1    1    2  502    0 -0.86350906580E+02  0.74724614403E+02  0.66047604795E+01  0.11446109525E+03  0.41800000000E+01 0. -1.
         -5    1    1    2    0  502  0.19488335012E+02 -0.82568065361E+01 -0.32486112681E+02  0.38997307251E+02  0.41800000000E+01 0.  1.
        -11    1    1    2    0    0  0.39402015880E+02 -0.87682489355E+02 -0.16801011247E+01  0.96143437294E+02  0.00000000000E+00 0.  1.
         11    1    1    2    0    0  0.27460555689E+02  0.21214681489E+02  0.13998645787E+01  0.34729014530E+02  0.00000000000E+00 0. -1.
</event>
<event>
 6    1  0.8259171E-006  0.1086427E+03  0.7561462E-02  0.1263104E+00
         -2   -1    0    0    0  501 -0.00000000000E+00  0.00000000000E+00  0.93466326804E+02  0.93466326804E+02  0.00000000000E+00 0.  1.
          2   -1    0    0  501    0  0.00000000000E+00 -0.00000000000E+00 -0.15261584930E+03  0.15261584930E+03  0.00000000000E+00 0. -1.
          5    1    1    2  502    0 -0.33016046660E+02  0.30353240403E+02 -0.87718992855E+01  0.45888965526E+02  0.41800000000E+01 0. -1.
         -5    1    1    2    0  502  0.42049056075E+02 -0.77890645807E+02 -0.15702092998E+01  0.88628515605E+02  0.41800000000E+01 0. -1.
        -11    1    1    2    0    0  0.28788902720E+02  0.10367461555E+02  0.10177384665E+02  0.32246927567E+02  0.00000000000E+00 0.  1.
         11    1    1    2    0    0 -0.37821912135E+02  0.37169943850E+02 -0.58984798578E+02  0.79317767408E+02  0.00000000000E+00 0. -1.
</event>
<event>
 6    1  0.8259171E-006  0.3029762E+03  0.7561462E-02  0.1083762E+00
         -2   -1    0    0    0  501 -0.00000000000E+00  0.00000000000E+00  0.30993002733E+03  0.30993002733E+03  0.00000000000E+00 0.  1.
          2   -1    0    0  501    0  0.00000000000E+00 -0.00000000000E+00 -0.32454601828E+03  0.32454601828E+03  0.00000000000E+00 0. -1.
          5    1    1    2  502    0 -0.56994719157E+02  0.13188080832E+02  0.28488633940E+01  0.58718922933E+02  0.41800000000E+01 0. -1.
         -5    1    1    2    0  502 -0.72850898410E+02  0.23712192734E+03  0.80463355296E+02  0.26081772519E+03  0.41800000000E+01 0. -1.
        -11    1    1    2    0    0  0.78323388356E+02 -0.23144641017E+03 -0.76485638658E+02  0.25603133961E+03  0.00000000000E+00 0.  1.
         11    1    1    2    0    0  0.51522229211E+02 -0.18863598008E+02 -0.21442570987E+02  0.58908057880E+02  0.00000000000E+00 0. -1.
</event>
<event>
 6    1  0.8259171E-006  0.1246153E+03  0.7561462E-02  0.1235672E+00
         -2   -1    0    0    0  501 -0.00000000000E+00  0.00000000000E+00  0.11675926528E+03  0.11675926528E+03  0.00000000000E+00 0.  1.
          2   -1    0    0  501    0  0.00000000000E+00 -0.00000000000E+00 -0.20733517412E+03  0.20733517412E+03  0.00000000000E+00 0. -1.
          5    1    1    2  502    0  0.92907204989E+02 -0.91675477517E+01  0.46039655183E+02  0.10417732440E+03  0.41800000000E+01 0. -1.
         -5    1    1    2    0  502  0.10674975428E+01 -0.32270946903E+02 -0.47617948932E+02  0.57684443532E+02  0.41800000000E+01 0. -1.
        -11    1    1    2    0    0 -0.91300923484E+02  0.56866757850E+02 -0.46947149588E+02  0.11736149979E+03  0.00000000000E+00 0.  1.
         11    1    1    2    0    0 -0.26737790477E+01 -0.15428263195E+02 -0.42050465494E+02  0.44871171679E+02  0.00000000000E+00 0. -1.
</event>
<event>
 6    1  0.8259171E-006  0.1356522E+03  0.7561462E-02  0.1219302E+00
          1   -1    0    0  501    0  0.00000000000E+00  0.00000000000E+00  0.83523188940E+03  0.83523188940E+03  0.00000000000E+00 0. -1.
         -1   -1    0    0    0  501 -0.00000000000E+00 -0.00000000000E+00 -0.31848515602E+02  0.31848515602E+02  0.00000000000E+00 0.  1.
          5    1    1    2  502    0 -0.67838567902E+01 -0.21843582227E+02  0.29891304701E+01  0.23442911475E+02  0.41800000000E+01 0.  1.
         -5    1    1    2    0  502  0.52633114386E+02 -0.86993165780E+02  0.44401872593E+03  0.45553063234E+03  0.41800000000E+01 0.  1.
        -11    1    1    2    0    0  0.25943402617E+02  0.27715194477E+02  0.15346062499E+03  0.15808654454E+03  0.00000000000E+00 0. -1.
         11    1    1    2    0    0 -0.71792660212E+02  0.81121553530E+02  0.20291489241E+03  0.23002031664E+03  0.00000000000E+00 0.  1.
</event>
<event>
 6    1  0.8259171E-006  0.1385295E+03  0.7561462E-02  0.1215321E+00
         -1   -1    0    0    0  501 -0.00000000000E+00  0.00000000000E+00  0.55344741718E+02  0.55344741718E+02  0.00000000000E+00 0.  1.
          1   -1    0    0  501    0  0.00000000000E+00 -0.00000000000E+00 -0.50763461402E+03  0.50763461402E+03  0.00000000000E+00 0. -1.
          5    1    1    2  502    0  0.63085428758E+02  0.45938191905E+02 -0.32826148490E+02  0.84765070765E+02  0.41800000000E+01 0. -1.
         -5    1    1    2    0  502  0.50852034814E+02 -0.64278580736E+02 -0.11110184123E+03  0.13812587343E+03  0.41800000000E+01 0. -1.
        -11    1    1    2    0    0 -0.39289209087E+02  0.15196486857E+02 -0.22169606355E+03  0.22566284532E+03  0.00000000000E+00 0. -1.
         11    1    1    2    0    0 -0.74648254485E+02  0.31439019742E+01 -0.86665819028E+02  0.11442556622E+03  0.00000000000E+00 0.  1.
</event>
<event>
 6    1  0.8259171E-006  0.2335340E+03  0.7561462E-02  0.1124177E+00
         -2   -1    0    0    0  501 -0.00000000000E+00  0.00000000000E+00  0.76937029676E+02  0.76937029676E+02  0.00000000000E+00 0.  1.
          2   -1    0    0  501    0  0.00000000000E+00 -0.00000000000E+00 -0.87283631604E+03  0.87283631604E+03  0.00000000000E+00 0. -1.
          5    1    1    2  502    0 -0.57287078052E+02 -0.94131948889E+01 -0.27205538827E+03  0.27821219282E+03  0.41800000000E+01 0. -1.
         -5    1    1    2    0  502 -0.15785161317E+03 -0.69585194745E+02 -0.22837480594E+03  0.28623723639E+03  0.41800000000E+01 0. -1.
        -11    1    1    2    0    0  0.89848010845E+02  0.32761058663E+01 -0.60113823472E+02  0.10815299208E+03  0.00000000000E+00 0.  1.
         11    1    1    2    0    0  0.12529068038E+03  0.75722283768E+02 -0.23535526869E+03  0.27717092443E+03  0.00000000000E+00 0. -1.
</event>
<event>
 6    1  0.8259171E-006  0.2056935E+03  0.7561462E-02  0.1145022E+00
          1   -1    0    0  501    0  0.00000000000E+00  0.00000000000E+00  0.49246431760E+03  0.49246431760E+03  0.00000000000E+00 0. -1.
         -1   -1    0    0    0  501 -0.00000000000E+00 -0.00000000000E+00 -0.11157625571E+03  0.11157625571E+03  0.00000000000E+00 0.  1.
          5    1    1    2  502    0 -0.33287137858E+02 -0.71796397214E+02 -0.18563010943E+02  0.81392960229E+02  0.41800000000E+01 0. -1.
         -5    1    1    2    0  502  0.18468527302E+02 -0.12028192112E+03  0.11580295900E+03  0.16803756950E+03  0.41800000000E+01 0. -1.
        -11    1    1    2    0    0 -0.33316396135E+02  0.11290992505E+03  0.18494228608E+03  0.21923111688E+03  0.00000000000E+00 0. -1.
         11    1    1    2    0    0  0.48135006691E+02  0.79168393283E+02  0.98705827754E+02  0.13537892671E+03  0.00000000000E+00 0.  1.
</event>
<event>
 6    1  0.8259171E-006  0.9921351E+02  0.7561462E-02  0.1281959E+00
         -2   -1    0    0    0  501 -0.00000000000E+00  0.00000000000E+00  0.22538558844E+03  0.22538558844E+03  0.00000000000E+00 0.  1.
          2   -1    0    0  501    0  0.00000000000E+00 -0.00000000000E+00 -0.70501781500E+02  0.70501781500E+02  0.00000000000E+00 0. -1.
          5    1    1    2  502    0  0.28036198712E+02  0.43284705825E+02 -0.10546073579E+02  0.52804225820E+02  0.41800000000E+01 0. -1.
         -5    1    1    2    0  502  0.28456578115E+02 -0.22058718667E+02  0.11614360846E+03  0.12166829535E+03  0.41800000000E+01 0. -1.
        -11    1    1    2    0    0 -0.48561550986E+02 -0.56375168276E+02  0.38642089610E+02  0.83842679596E+02  0.00000000000E+00 0.  1.
         11    1    1    2    0    0 -0.79312258407E+01  0.35149181119E+02  0.10644182453E+02  0.37572169178E+02  0.00000000000E+00 0. -1.
</event>
<event>
 6    1  0.8259171E-006  0.1010181E+03  0.7561462E-02  0.1278169E+00
         -2   -1    0    0    0  501 -0.00000000000E+00  0.00000000000E+00  0.15438592129E+02  0.15438592129E+02  0.00000000000E+00 0. -1.
          2   -1    0    0  501    0  0.00000000000E+00 -0.00000000000E+00 -0.88860523091E+03  0.88860523091E+03  0.00000000000E+00 0.  1.
          5    1    1    2  502    0  0.51434724949E+02 -0.42093087185E+02 -0.43658465823E+03  0.44163445871E+03  0.41800000000E+01 0. -1.
         -5    1    1    2    0  502 -0.77196543941E+01  0.33532985127E+02 -0.39179581607E+02  0.52312199059E+02  0.41800000000E+01 0. -1.
        -11    1    1    2    0    0 -0.64495707563E+02 -0.18089604926E+02 -0.28215428862E+03  0.28999650462E+03  0.00000000000E+00 0.  1.
         11    1    1    2    0    0  0.20780637008E+02  0.26649706984E+02 -0.11524811032E+03  0.12010066066E+03  0.00000000000E+00 0. -1.
</event>
<event>
 6    1  0.8259171E-006  0.2085604E+03  0.7561462E-02  0.1142711E+00
         -1   -1    0    0    0  501 -0.00000000000E+00  0.00000000000E+00  0.36109798420E+03  0.36109798420E+03  0.00000000000E+00 0.  1.
          1   -1    0    0  501    0  0.00000000000E+00 -0.00000000000E+00 -0.17034769584E+03  0.17034769584E+03  0.00000000000E+00 0. -1.
          5    1    1    2  502    0  0.75797295512E+02 -0.14097812324E+03  0.15219940121E+03  0.22091218021E+03  0.41800000000E+01 0. -1.
         -5    1    1    2    0  502 -0.42823925396E+02 -0.35803185117E+02  0.86874455986E+02  0.10334602147E+03  0.41800000000E+01 0. -1.
        -11    1    1    2    0    0  0.23612285684E+02  0.11437798664E+03 -0.34848232710E+02  0.12187806688E+03  0.00000000000E+00 0. -1.
         11    1    1    2    0    0 -0.56585655800E+02  0.62403321714E+02 -0.13475336130E+02  0.85309411480E+02  0.00000000000E+00 0.  1.
</event>
<event>
 6    1  0.8259171E-006  0.1108737E+03  0.7561462E-02  0.1258960E+00
          2   -1    0    0  501    0  0.00000000000E+00  0.00000000000E+00  0.36304723416E+03  0.36304723416E+03  0.00000000000E+00 0. -1.
         -2   -1    0    0    0  501 -0.00000000000E+00 -0.00000000000E+00 -0.56284652984E+02  0.56284652984E+02  0.00000000000E+00 0.  1.
          5    1    1    2  502    0 -0.80558094622E+02 -0.16920256686E+02  0.13822974502E+03  0.16093736827E+03  0.41800000000E+01 0.  1.
         -5    1    1    2    0  502 -0.62848403294E+01  0.45383436260E+02 -0.10049281719E+01  0.46017798571E+02  0.41800000000E+01 0.  1.
        -11    1    1    2    0    0  0.58621579636E+02 -0.96732964242E+01  0.16826714312E+03  0.17844857443E+03  0.00000000000E+00 0. -1.
         11    1    1    2    0    0  0.28221355315E+02 -0.18789883150E+02  0.12706212100E+01  0.33928145880E+02  0.00000000000E+00 0.  1.
</event>
<event>
 6    1  0.8259171E-006  0.9847573E+02  0.7561462E-02  0.1283534E+00
         -1   -1    0    0    0  501 -0.00000000000E+00  0.00000000000E+00  0.52809987872E+02  0.52809987872E+02  0.00000000000E+00 0.  1.
          1   -1    0    0  501    0  0.00000000000E+00 -0.00000000000E+00 -0.31285052078E+03  0.31285052078E+03  0.00000000000E+00 0. -1.
          5    1    1    2  502    0 -0.33700184184E+02 -0.85186561594E+00  0.96105888011E+00  0.33982703295E+02  0.41800000000E+01 0.  1.
         -5    1    1    2    0  502  0.80430580493E+02 -0.46897980511E+02 -0.11481384092E+03  0.14787896849E+03  0.41800000000E+01 0.  1.
        -11    1    1    2    0    0 -0.13850753695E+02  0.28490199409E+02  0.10641427563E+01  0.31696486242E+02  0.00000000000E+00 0.  1.
         11    1    1    2    0    0 -0.32879642615E+02  0.19259646718E+02 -0.14725189363E+03  0.15210235063E+03  0.00000000000E+00 0. -1.
</event>
<event>
 6    1  0.8259171E-006  0.9058779E+02  0.7561462E-02  0.1301435E+00
          1   -1    0    0  501    0  0.00000000000E+00  0.00000000000E+00  0.13428449459E+03  0.13428449459E+03  0.00000000000E+00 0. -1.
         -1   -1    0    0    0  501 -0.00000000000E+00 -0.00000000000E+00 -0.95985415931E+02  0.95985415931E+02  0.00000000000E+00 0.  1.
          5    1    1    2  502    0  0.61162472823E+02 -0.34046576838E+02  0.56368655177E+02  0.89971746469E+02  0.41800000000E+01 0. -1.
         -5    1    1    2    0  502 -0.31531526663E+02  0.22243464681E+02 -0.20657733275E+02  0.43968434573E+02  0.41800000000E+01 0. -1.
        -11    1    1    2    0    0  0.16183131199E+02  0.19966905451E+02  0.32178589413E+02  0.41182917154E+02  0.00000000000E+00 0. -1.
         11    1    1    2    0    0 -0.45814077360E+02 -0.81637932942E+01 -0.29590432654E+02  0.55146812328E+02  0.00000000000E+00 0.  1.
</event>
<event>
 6    1  0.8259171E-006  0.3643853E+03  0.7561462E-02  0.1056861E+00
         -1   -1    0    0    0  501 -0.00000000000E+00  0.00000000000E+00  0.12706051259E+03  0.12706051259E+03  0.00000000000E+00 0.  1.
          1   -1    0    0  501    0  0.00000000000E+00 -0.00000000000E+00 -0.11395563588E+04  0.11395563588E+04  0.00000000000E+00 0. -1.
          5    1    1    2  502    0  0.76549059355E+02  0.34980382042E+03 -0.38262194414E+03  0.52406058410E+03  0.41800000000E+01 0.  1.
         -5    1    1    2    0  502  0.12471917386E+02 -0.48684548989E+01 -0.79438161851E+00  0.14048274575E+02  0.41800000000E+01 0.  1.
        -11    1    1    2    0    0 -0.76570346094E+02 -0.26884988270E+03 -0.55581064265E+03  0.62214849337E+03  0.00000000000E+00 0.  1.
         11    1    1    2    0    0 -0.12450630647E+02 -0.76085482820E+02 -0.73268877770E+02  0.10635951932E+03  0.00000000000E+00 0. -1.
</event>
<event>
 6    1  0.8259171E-006  0.1459677E+03  0.7561462E-02  0.1205517E+00
          1   -1    0    0  501    0  0.00000000000E+00  0.00000000000E+00  0.26749907121E+03  0.26749907121E+03  0.00000000000E+00 0. -1.
         -1   -1    0    0    0  501 -0.00000000000E+00 -0.00000000000E+00 -0.10335015779E+03  0.10335015779E+03  0.00000000000E+00 0.  1.
          5    1    1    2  502    0  0.39318843723E+02  0.56831973500E+02  0.73773488714E+02  0.10117235156E+03  0.41800000000E+01 0. -1.
         -5    1    1    2    0  502 -0.65915892901E+02  0.50828426490E+02  0.46227754260E+01  0.83470212226E+02  0.41800000000E+01 0. -1.
        -11    1    1    2    0    0 -0.18152488329E+02  0.44140572787E+01 -0.18824399009E+02  0.26520835814E+02  0.00000000000E+00 0.  1.
         11    1    1    2    0    0  0.44749537508E+02 -0.11207445727E+03  0.10457704829E+03  0.15968582939E+03  0.00000000000E+00 0. -1.
</event>
<event>
 6    1  0.8259171E-006  0.1033371E+03  0.7561462E-02  0.1273431E+00
         -1   -1    0    0    0  501 -0.00000000000E+00  0.00000000000E+00  0.20976231625E+03  0.20976231625E+03  0.00000000000E+00 0.  1.
          1   -1    0    0  501    0  0.00000000000E+00 -0.00000000000E+00 -0.72981109779E+02  0.72981109779E+02  0.00000000000E+00 0. -1.
          5    1    1    2  502    0 -0.51752648996E+02  0.53580309748E+02  0.40099095628E+02  0.84702987792E+02  0.41800000000E+01 0.  1.
         -5    1    1    2    0  502  0.43704739767E+02 -0.24404822188E+02  0.60636287133E+02  0.78739642756E+02  0.41800000000E+01 0.  1.
        -11    1    1    2    0    0  0.41882776342E+02 -0.21747096822E+02  0.60623705943E+02  0.76826667874E+02  0.00000000000E+00 0.  1.
         11    1    1    2    0    0 -0.33834867113E+02 -0.74283907371E+01 -0.24577882229E+02  0.42474127611E+02  0.00000000000E+00 0. -1.
</event>
<event>
 6    1  0.8259171E-006  0.1673118E+03  0.7561462E-02  0.1180681E+00
          2   -1    0    0  501    0  0.00000000000E+00  0.00000000000E+00  0.88670545837E+03  0.88670545837E+03  0.00000000000E+00 0.  1.
         -2   -1    0    0    0  501 -0.00000000000E+00 -0.00000000000E+00 -0.42685874505E+02  0.42685874505E+02  0.00000000000E+00 0. -1.
          5    1    1    2  502    0  0.34218408979E+02  0.69390319412E+02  0.18026636442E+03  0.19621251357E+03  0.41800000000E+01 0.  1.
         -5    1    1    2    0  502 -0.77143132534E+02  0.71647825234E+02  0.10795380247E+03  0.15085081911E+03  0.41800000000E+01 0.  1.
        -11    1    1    2    0    0  0.10209929545E+02 -0.93577305567E+02  0.46747061289E+03  0.47685399096E+03  0.00000000000E+00 0.  1.
         11    1    1    2    0    0  0.32714794010E+02 -0.47460839079E+02  0.88328804082E+02  0.10547400923E+03  0.00000000000E+00 0. -1.
</event>
<event>
 6    1  0.8259171E-006  0.8010838E+02  0.7561462E-02  0.1328744E+00
         -2   -1    0    0    0  501 -0.00000000000E+00  0.00000000000E+00  0.58196820261E+02  0.58196820261E+02  0.00000000000E+00 0.  1.
          2   -1    0    0  501    0  0.00000000000E+00 -0.00000000000E+00 -0.20665235186E+03  0.20665235186E+03  0.00000000000E+00 0. -1.
          5    1    1    2  502    0 -0.47253081777E+02  0.30163070403E+02 -0.48828787458E+00  0.56217216034E+02  0.41800000000E+01 0.  1.
         -5    1    1    2    0  502  0.40116947339E+02 -0.18832428277E+02 -0.84797699939E+02  0.95771353407E+02  0.41800000000E+01 0.  1.
        -11    1    1    2    0    0 -0.21738753161E+02 -0.19791563132E+02 -0.74979444469E+02  0.80536926022E+02  0.00000000000E+00 0. -1.
         11    1    1    2    0    0  0.28874887599E+02  0.84609210061E+01  0.11809900687E+02  0.32323676653E+02  0.00000000000E+00 0.  1.
</event>
<event>
 6    1  0.8259171E-006  0.1185130E+03  0.7561462E-02  0.1245571E+00
          2   -1    0    0  501    0  0.00000000000E+00  0.00000000000E+00  0.44042377871E+03  0.44042377871E+03  0.00000000000E+00 0. -1.
         -2   -1    0    0    0  501 -0.00000000000E+00 -0.00000000000E+00 -0.51347001415E+02  0.51347001415E+02  0.00000000000E+00 0.  1.
          5    1    1    2  502    0 -0.47945464288E+02  0.21651656642E+01  0.15843808466E+03  0.16560058743E+03  0.41800000000E+01 0.  1.
         -5    1    1    2    0  502 -0.31943151687E+02 -0.67270513497E+02  0.23818251627E+02  0.78297307977E+02  0.41800000000E+01 0.  1.
        -11    1    1    2    0    0  0.33499415535E+02  0.58491237125E+02  0.49244228035E+02  0.83477120556E+02  0.00000000000E+00 0.  1.
         11    1    1    2    0    0  0.46389200439E+02  0.66141107078E+01  0.15757621298E+03  0.16439576416E+03  0.00000000000E+00 0. -1.
</event>
<event>
 6    1  0.8259171E-006  0.1144560E+03  0.7561462E-02  0.1252534E+00
          2   -1    0    0  501    0  0.00000000000E+00  0.00000000000E+00  0.24759544636E+03  0.24759544636E+03  0.00000000000E+00 0.  1.
         -2   -1    0    0    0  501 -0.00000000000E+00 -0.00000000000E+00 -0.84748759711E+02  0.84748759711E+02  0.00000000000E+00 0. -1.
          5    1    1    2  502    0  0.11145409420E+02 -0.12000211947E+02  0.51940001223E+02  0.54621070705E+02  0.41800000000E+01 0. -1.
         -5    1    1    2    0  502 -0.76312524196E+02  0.66772156605E+02 -0.11130432907E+02  0.10209545134E+03  0.41800000000E+01 0. -1.
        -11    1    1    2    0    0  0.37493125864E+01 -0.48656660996E+02  0.13277484663E+02  0.50574891034E+02  0.00000000000E+00 0. -1.
         11    1    1    2    0    0  0.61417802189E+02 -0.61152836621E+01  0.10875963367E+03  0.12505279300E+03  0.00000000000E+00 0.  1.
</event>
<event>
 6    1  0.8259171E-006  0.9942995E+02  0.7561462E-02  0.1281499E+00
          1   -1    0    0  501    0  0.00000000000E+00  0.00000000000E+00  0.18175474556E+03  0.18175474556E+03  0.00000000000E+00 0. -1.
         -1   -1    0    0    0  501 -0.00000000000E+00 -0.00000000000E+00 -0.93231940496E+02  0.93231940496E+02  0.00000000000E+00 0.  1.
          5    1    1    2  502    0 -0.74547794574E+02 -0.23215381142E+02  0.32005996533E+02  0.84487773148E+02  0.41800000000E+01 0.  1.
         -5    1    1    2    0  502  0.48770172432E+02 -0.75667646542E+00 -0.15645312252E+01  0.48979816622E+02  0.41800000000E+01 0.  1.
        -11    1    1    2    0    0  0.71365961613E+01 -0.21455261918E+02 -0.31847394848E+02  0.39057852314E+02  0.00000000000E+00 0.  1.
         11    1    1    2    0    0  0.18641025981E+02  0.45427319525E+02  0.89928734609E+02  0.10246124398E+03  0.00000000000E+00 0. -1.
</event>
<event>
 6    1  0.8259171E-006  0.7128154E+02  0.7561462E-02  0.1355789E+00
         -2   -1    0    0    0  501 -0.00000000000E+00  0.00000000000E+00  0.26448471206E+02  0.26448471206E+02  0.00000000000E+00 0.  1.
          2   -1    0    0  501    0  0.00000000000E+00 -0.00000000000E+00 -0.46925204902E+03  0.46925204902E+03  0.00000000000E+00 0. -1.
          5    1    1    2  502    0  0.29562830340E+02 -0.83321334326E+01  0.19557289447E+01  0.31059340961E+02  0.41800000000E+01 0. -1.
         -5    1    1    2    0  502 -0.14557053063E+02  0.16587673511E+02 -0.21816266746E+03  0.21931593782E+03  0.41800000000E+01 0. -1.
        -11    1    1    2    0    0 -0.34782229184E+02  0.30068747468E+02 -0.77453105656E+02  0.90071730399E+02  0.00000000000E+00 0.  1.
         11    1    1    2    0    0  0.19776451908E+02 -0.38324287547E+02 -0.14914353364E+03  0.15525351105E+03  0.00000000000E+00 0. -1.
</event>
<event>
 6    1  0.8259171E-006  0.1062688E+03  0.7561462E-02  0.1267640E+00
         -3   -1    0    0    0  501 -0.00000000000E+00  0.00000000000E+00  0.99954260370E+02  0.99954260370E+02  0.00000000000E+00 0.  1.
          3   -1    0    0  501    0  0.00000000000E+00 -0.00000000000E+00 -0.19710505254E+03  0.19710505254E+03  0.00000000000E+00 0. -1.
          5    1    1    2  502    0  0.38864145429E+02 -0.57378926539E+02  0.36249457139E+02  0.78321507606E+02  0.41800000000E+01 0. -1.
         -5    1    1    2    0  502 -0.17681586086E+02 -0.32548653753E+02 -0.72256409746E+02  0.81305070549E+02  0.41800000000E+01 0. -1.
        -11    1    1    2    0    0  0.14122695342E+02  0.52563710133E+02 -0.66288619657E+02  0.85770480019E+02  0.00000000000E+00 0. -1.
         11    1    1    2    0    0 -0.35305254685E+02  0.37363870158E+02  0.51447800984E+01  0.51662254731E+02  0.00000000000E+00 0.  1.
</event>
<event>
 6    1  0.8259171E-006  0.1197269E+03  0.7561462E-02  0.1243548E+00
          1   -1    0    0  501    0  0.00000000000E+00  0.00000000000E+00  0.43848375583E+02  0.43848375583E+02  0.00000000000E+00 0. -1.
         -1   -1    0    0    0  501 -0.00000000000E+00 -0.00000000000E+00 -0.63067158311E+03  0.63067158311E+03  0.00000000000E+00 0.  1.
          5    1    1    2  502    0  0.11064063133E+02 -0.58097996713E+01  0.28148171432E+01  0.13474526366E+02  0.41800000000E+01 0. -1.
         -5    1    1    2    0  502 -0.41688983955E+02  0.88493931530E+02 -0.48536241459E+03  0.49513967040E+03  0.41800000000E+01 0.  1.
        -11    1    1    2    0    0  0.55715607182E-01  0.20626632551E+02 -0.23375103337E+02  0.31174613561E+02  0.00000000000E+00 0.  1.
         11    1    1    2    0    0  0.30569205214E+02 -0.10331076441E+03 -0.80900506745E+02  0.13473114837E+03  0.00000000000E+00 0. -1.
</event>
<event>
 6    1  0.8259171E-006  0.9494765E+02  0.7561462E-02  0.1291294E+00
         -3   -1    0    0    0  501 -0.00000000000E+00  0.00000000000E+00  0.13036025423E+03  0.13036025423E+03  0.00000000000E+00 0.  1.
          3   -1    0    0  501    0  0.00000000000E+00 -0.00000000000E+00 -0.13307921826E+03  0.13307921826E+03  0.00000000000E+00 0. -1.
          5    1    1    2  502    0  0.55594251210E+02  0.31765436563E+02  0.10565169369E+02  0.65029677313E+02  0.41800000000E+01 0.  1.
         -5    1    1    2    0  502 -0.52975886946E+02 -0.12752045674E+02  0.54855614649E+02  0.77431712657E+02  0.41800000000E+01 0.  1.
        -11    1    1    2    0    0 -0.32385339298E+01  0.25930663271E+02  0.12261364772E+02  0.28865697043E+02  0.00000000000E+00 0.  1.
         11    1    1    2    0    0  0.62016966527E+00 -0.44944054160E+02 -0.80401112823E+02  0.92112385476E+02  0.00000000000E+00 0. -1.
</event>
<event>
 6    1  0.8259171E-006  0.7754311E+02  0.7561462E-02  0.1336172E+00
         -1   -1    0    0    0  501 -0.00000000000E+00  0.00000000000E+00  0.66128072147E+02  0.66128072147E+02  0.00000000000E+00 0.  1.
          1   -1    0    0  501    0  0.00000000000E+00 -0.00000000000E+00 -0.18329258994E+03  0.18329258994E+03  0.00000000000E+00 0. -1.
          5    1    1    2  502    0 -0.24690281198E+01 -0.23268259649E+02 -0.80454767653E+02  0.83892490993E+02  0.41800000000E+01 0.  1.
         -5    1    1    2    0  502  0.47554506529E+02  0.30337967104E+02  0.23087879688E+02  0.61092928623E+02  0.41800000000E+01 0.  1.
        -11    1    1    2    0    0 -0.42169805905E+02  0.20599485277E+02 -0.10907767495E+02  0.48183095744E+02  0.00000000000E+00 0.  1.
         11    1    1    2    0    0 -0.29156725042E+01 -0.27669192732E+02 -0.48889862333E+02  0.56252146728E+02  0.00000000000E+00 0. -1.
</event>
<event>
 6    1  0.8259171E-006  0.1495618E+03  0.7561462E-02  0.1201012E+00
          1   -1    0    0  501    0  0.00000000000E+00  0.00000000000E+00  0.55509466449E+03  0.55509466449E+03  0.00000000000E+00 0. -1.
         -1   -1    0    0    0  501 -0.00000000000E+00 -0.00000000000E+00 -0.51193857755E+02  0.51193857755E+02  0.00000000000E+00 0.  1.
          5    1    1    2  502    0  0.35390108644E+02  0.30029595102E+02  0.15383737576E+03  0.16074093117E+03  0.41800000000E+01 0. -1.
         -5    1    1    2    0  502 -0.45343269260E+02  0.95974406298E+02  0.79738288914E+02  0.13282607368E+03  0.41800000000E+01 0. -1.
        -11    1    1    2    0    0 -0.14042403294E+02 -0.12096108658E+03  0.25796517791E+03  0.28526269748E+03  0.00000000000E+00 0. -1.
         11    1    1    2    0    0  0.23995563909E+02 -0.50429148214E+01  0.12359964143E+02  0.27458819910E+02  0.00000000000E+00 0.  1.
</event>
<event>
 6    1  0.8259171E-006  0.2072205E+03  0.7561462E-02  0.1143786E+00
         -1   -1    0    0    0  501 -0.00000000000E+00  0.00000000000E+00  0.15512460011E+03  0.15512460011E+03  0.00000000000E+00 0.  1.
          1   -1    0    0  501    0  0.00000000000E+00 -0.00000000000E+00 -0.32034530150E+03  0.32034530150E+03  0.00000000000E+00 0. -1.
          5    1    1    2  502    0  0.88311414118E+02  0.40513571067E+02 -0.89444751085E+02  0.13212907023E+03  0.41800000000E+01 0. -1.
         -5    1    1    2    0  502  0.62807074095E+02  0.82915047585E+02  0.25830845998E+02  0.10725828023E+03  0.41800000000E+01 0.  1.
        -11    1    1    2    0    0 -0.81017804380E+02 -0.11751880968E+03 -0.69126335881E+02  0.15859699104E+03  0.00000000000E+00 0. -1.
         11    1    1    2    0    0 -0.70100683832E+02 -0.59098089764E+01 -0.32480460420E+02  0.77485560106E+02  0.00000000000E+00 0.  1.
</event>
<event>
 6    1  0.8259171E-006  0.2002417E+03  0.7561462E-02  0.1149535E+00
         -1   -1    0    0    0  501 -0.00000000000E+00  0.00000000000E+00  0.12948091968E+04  0.12948091968E+04  0.00000000000E+00 0.  1.
          1   -1    0    0  501    0  0.00000000000E+00 -0.00000000000E+00 -0.32932165579E+02  0.32932165579E+02  0.00000000000E+00 0. -1.
          5    1    1    2  502    0  0.14915875103E+02 -0.23497302841E+02  0.18734410633E+03  0.18944628038E+03  0.41800000000E+01 0. -1.
         -5    1    1    2    0  502  0.11221672563E+03  0.13759661815E+03  0.58133736940E+03  0.60786185297E+03  0.41800000000E+01 0. -1.
        -11    1    1    2    0    0 -0.40240822898E-01  0.14167884895E+02  0.27031779512E+02  0.30519627870E+02  0.00000000000E+00 0. -1.
         11    1    1    2    0    0 -0.12709235990E+03 -0.12826720021E+03  0.46616377599E+03  0.49991360117E+03  0.00000000000E+00 0.  1.
</event>
<event>
 6    1  0.8259171E-006  0.1884605E+03  0.7561462E-02  0.1159857E+00
          2   -1    0    0  501    0  0.00000000000E+00  0.00000000000E+00  0.12304305484E+04  0.12304305484E+04  0.00000000000E+00 0. -1.
         -2   -1    0    0    0  501 -0.00000000000E+00 -0.00000000000E+00 -0.32469337186E+02  0.32469337186E+02  0.00000000000E+00 0.  1.
          5    1    1    2  502    0  0.11142731527E+03  0.78239538481E+02  0.50997333496E+03  0.52785201216E+03  0.41800000000E+01 0.  1.
         -5    1    1    2    0  502 -0.57844731136E+01  0.50318112996E+02  0.58257340944E+02  0.77309525924E+02  0.41800000000E+01 0.  1.
        -11    1    1    2    0    0  0.66685381876E+01 -0.55502787969E+02  0.18845191636E+03  0.19656844521E+03  0.00000000000E+00 0.  1.
         11    1    1    2    0    0 -0.11231138034E+03 -0.73054863508E+02  0.44127861896E+03  0.46116990230E+03  0.00000000000E+00 0. -1.
</event>
<event>
 6    1  0.8259171E-006  0.1925151E+03  0.7561462E-02  0.1156212E+00
         -1   -1    0    0    0  501 -0.00000000000E+00  0.00000000000E+00  0.25669859171E+03  0.25669859171E+03  0.00000000000E+00 0.  1.
          1   -1    0    0  501    0  0.00000000000E+00 -0.00000000000E+00 -0.15281452610E+03  0.15281452610E+03  0.00000000000E+00 0. -1.
          5    1    1    2  502    0 -0.27697085878E+02 -0.53378018032E+02 -0.25530459579E+01  0.60335162375E+02  0.41800000000E+01 0.  1.
         -5    1    1    2    0  502 -0.13364623126E+03  0.32462647438E+02  0.79046614981E+02  0.15868515478E+03  0.41800000000E+01 0.  1.
        -11    1    1    2    0    0  0.16581406513E+03  0.49722823021E-01  0.16779316752E+02  0.16666088965E+03  0.00000000000E+00 0. -1.
         11    1    1    2    0    0 -0.44707479910E+01  0.20865647771E+02  0.10611179841E+02  0.23831911004E+02  0.00000000000E+00 0.  1.
</event>
<event>
 6    1  0.8259171E-006  0.9226889E+02  0.7561462E-02  0.1297448E+00
         -2   -1    0    0    0  501 -0.00000000000E+00  0.00000000000E+00  0.42140140831E+02  0.42140140831E+02  0.00000000000E+00 0. -1.
          2   -1    0    0  501    0  0.00000000000E+00 -0.00000000000E+00 -0.37190334826E+03  0.37190334826E+03  0.00000000000E+00 0.  1.
          5    1    1    2  502    0  0.39748390271E+02 -0.52363922422E+02 -0.33986519013E+02  0.74124697471E+02  0.41800000000E+01 0.  1.
         -5    1    1    2    0  502 -0.39388373008E+02 -0.10361916139E+02 -0.15942551153E+03  0.16459884374E+03  0.41800000000E+01 0.  1.
        -11    1    1    2    0    0 -0.23119325140E+02  0.30674192857E+02 -0.12992992060E+03  0.13548872119E+03  0.00000000000E+00 0.  1.
         11    1    1    2    0    0  0.22759307877E+02  0.32051645705E+02 -0.64212562886E+01  0.39831226692E+02  0.00000000000E+00 0. -1.
</event>
<event>
 6    1  0.8259171E-006  0.5401018E+02  0.7561462E-02  0.1424839E+00
          1   -1    0    0  501    0  0.00000000000E+00  0.00000000000E+00  0.92056121577E+02  0.92056121577E+02  0.00000000000E+00 0. -1.
         -1   -1    0    0    0  501 -0.00000000000E+00 -0.00000000000E+00 -0.24888186577E+03  0.24888186577E+03  0.00000000000E+00 0.  1.
          5    1    1    2  502    0 -0.35619878298E+01 -0.16553580976E+02 -0.20729715290E+03  0.20802954310E+03  0.41800000000E+01 0.  1.
         -5    1    1    2    0  502 -0.11254234965E+02  0.26942893166E+02  0.55081169446E+01  0.30006483451E+02  0.41800000000E+01 0.  1.
        -11    1    1    2    0    0 -0.22001431058E+02 -0.10233608645E+02 -0.17829523307E+02  0.30111154342E+02  0.00000000000E+00 0.  1.
         11    1    1    2    0    0  0.36817653852E+02 -0.15570354520E+00  0.62792815075E+02  0.72790806451E+02  0.00000000000E+00 0. -1.
</event>
<event>
 6    1  0.8259171E-006  0.8621269E+02  0.7561462E-02  0.1312291E+00
         -2   -1    0    0    0  501 -0.00000000000E+00  0.00000000000E+00  0.67401826792E+02  0.67401826792E+02  0.00000000000E+00 0. -1.
          2   -1    0    0  501    0  0.00000000000E+00 -0.00000000000E+00 -0.20994550567E+03  0.20994550567E+03  0.00000000000E+00 0.  1.
          5    1    1    2  502    0  0.18649144085E+02 -0.20912094402E+01 -0.72804008045E+02  0.75299798934E+02  0.41800000000E+01 0. -1.
         -5    1    1    2    0  502 -0.55616123874E+02  0.44109600187E+00  0.28411042067E+02  0.62593989423E+02  0.41800000000E+01 0. -1.
        -11    1    1    2    0    0  0.60484334598E+02 -0.21723998165E+02 -0.76225821333E+02  0.99702871904E+02  0.00000000000E+00 0.  1.
         11    1    1    2    0    0 -0.23517354809E+02  0.23374111603E+02 -0.21924891571E+02  0.39750672206E+02  0.00000000000E+00 0. -1.
</event>
<event>
 6    1  0.8259171E-006  0.9225352E+02  0.7561462E-02  0.1297484E+00
          2   -1    0    0  501    0  0.00000000000E+00  0.00000000000E+00  0.55598456451E+02  0.55598456451E+02  0.00000000000E+00 0. -1.
         -2   -1    0    0    0  501 -0.00000000000E+00 -0.00000000000E+00 -0.30969763106E+03  0.30969763106E+03  0.00000000000E+00 0.  1.
          5    1    1    2  502    0  0.32468829030E+02 -0.28721483530E+02 -0.13579021514E+03  0.14260295720E+03  0.41800000000E+01 0.  1.
         -5    1    1    2    0  502  0.22392675298E+02  0.67280334770E+02 -0.34164032379E+02  0.78820865652E+02  0.41800000000E+01 0.  1.
        -11    1    1    2    0    0 -0.39492723661E+02 -0.15961169324E+02  0.11727312312E+02  0.44181036684E+02  0.00000000000E+00 0. -1.
         11    1    1    2    0    0 -0.15368780666E+02 -0.22597681916E+02 -0.95872239405E+02  0.99691227978E+02  0.00000000000E+00 0.  1.
</event>
<event>
 6    1  0.8259171E-006  0.1304977E+03  0.7561462E-02  0.1226719E+00
          1   -1    0    0  501    0  0.00000000000E+00  0.00000000000E+00  0.52374524363E+03  0.52374524363E+03  0.00000000000E+00 0. -1.
         -1   -1    0    0    0  501 -0.00000000000E+00 -0.00000000000E+00 -0.48266724664E+02  0.48266724664E+02  0.00000000000E+00 0.  1.
          5    1    1    2  502    0 -0.85971972039E+02  0.46413336154E+02  0.54786054562E+02  0.11209086459E+03  0.41800000000E+01 0. -1.
         -5    1    1    2    0  502  0.36813291944E+02  0.34070996134E+02  0.80276541128E+02  0.94751499707E+02  0.41800000000E+01 0. -1.
        -11    1    1    2    0    0  0.42364837469E+02 -0.11973248146E+02  0.49618881210E+02  0.66333788505E+02  0.00000000000E+00 0.  1.
         11    1    1    2    0    0  0.67938426251E+01 -0.68511084142E+02  0.29079704207E+03  0.29883581549E+03  0.00000000000E+00 0. -1.
</event>
<event>
 6    1  0.8259171E-006  0.1177846E+03  0.7561462E-02  0.1246797E+00
         -1   -1    0    0    0  501 -0.00000000000E+00  0.00000000000E+00  0.66201078427E+02  0.66201078427E+02  0.00000000000E+00 0.  1.
          1   -1    0    0  501    0  0.00000000000E+00 -0.00000000000E+00 -0.30662912831E+03  0.30662912831E+03  0.00000000000E+00 0. -1.
          5    1    1    2  502    0  0.47756626711E+02  0.25075920035E+02 -0.14001202951E+03  0.15010109249E+03  0.41800000000E+01 0.  1.
         -5    1    1    2    0  502 -0.41525265507E+02  0.60691406510E+02 -0.34936658789E+02  0.81522003329E+02  0.41800000000E+01 0.  1.
        -11    1    1    2    0    0 -0.24288132435E+02 -0.86394546074E+02 -0.19545299175E+02  0.91847426139E+02  0.00000000000E+00 0.  1.
         11    1    1    2    0    0  0.18056771231E+02  0.62721952933E+00 -0.45934062409E+02  0.49359684774E+02  0.00000000000E+00 0. -1.
</event>
<event>
 6    1  0.8259171E-006  0.1780923E+03  0.7561462E-02  0.1169662E+00
          2   -1    0    0  501    0  0.00000000000E+00  0.00000000000E+00  0.44540866468E+03  0.44540866468E+03  0.00000000000E+00 0. -1.
         -2   -1    0    0    0  501 -0.00000000000E+00 -0.00000000000E+00 -0.72257032638E+02  0.72257032638E+02  0.00000000000E+00 0.  1.
          5    1    1    2  502    0 -0.11535077352E+03  0.50504341110E+02  0.14231286831E+03  0.19007081393E+03  0.41800000000E+01 0. -1.
         -5    1    1    2    0  502 -0.26246331774E+02 -0.57097191129E+02  0.77120431317E+02  0.99569033806E+02  0.41800000000E+01 0. -1.
        -11    1    1    2    0    0  0.58805796949E+02 -0.41027478319E+02  0.52566038118E+02  0.88907615508E+02  0.00000000000E+00 0. -1.
         11    1    1    2    0    0  0.82791308347E+02  0.47620328338E+02  0.10115229430E+03  0.13911823407E+03  0.00000000000E+00 0.  1.
</event>
<event>
 6    1  0.8259171E-006  0.1097342E+03  0.7561462E-02  0.1261063E+00
          4   -1    0    0  501    0  0.00000000000E+00  0.00000000000E+00  0.74558633337E+03  0.74558633337E+03  0.00000000000E+00 0. -1.
         -4   -1    0    0    0  501 -0.00000000000E+00 -0.00000000000E+00 -0.29972667177E+02  0.29972667177E+02  0.00000000000E+00 0.  1.
          5    1    1    2  502    0 -0.16138079553E+01  0.19429735467E+02 -0.26382719244E+01  0.20113474965E+02  0.41800000000E+01 0. -1.
         -5    1    1    2    0  502 -0.94582631580E+02  0.11169149124E+02  0.34798707282E+03  0.36080895130E+03  0.41800000000E+01 0. -1.
        -11    1    1    2    0    0  0.62382071096E+02 -0.32478827505E+02  0.34574428458E+03  0.35282503787E+03  0.00000000000E+00 0. -1.
         11    1    1    2    0    0  0.33814368439E+02  0.18799429152E+01  0.24520580721E+02  0.41811536413E+02  0.00000000000E+00 0.  1.
</event>
<event>
 6    1  0.8259171E-006  0.1360378E+03  0.7561462E-02  0.1218762E+00
         -2   -1    0    0    0  501 -0.00000000000E+00  0.00000000000E+00  0.12082603637E+04  0.12082603637E+04  0.00000000000E+00 0.  1.
          2   -1    0    0  501    0  0.00000000000E+00 -0.00000000000E+00 -0.20303229145E+02  0.20303229145E+02  0.00000000000E+00 0. -1.
          5    1    1    2  502    0  0.24476497735E+02  0.41435501590E+02  0.24160835162E+03  0.24639007225E+03  0.41800000000E+01 0. -1.
         -5    1    1    2    0  502  0.69430832763E+02 -0.93300085010E+02  0.53438145239E+03  0.54690634980E+03  0.41800000000E+01 0. -1.
        -11    1    1    2    0    0 -0.74719843407E+02  0.43536329515E+02  0.40356362628E+03  0.41272517181E+03  0.00000000000E+00 0.  1.
         11    1    1    2    0    0 -0.19187487091E+02  0.83282539048E+01  0.84037043167E+01  0.22541999029E+02  0.00000000000E+00 0. -1.
</event>
<event>
 6    1  0.8259171E-006  0.1177243E+03  0.7561462E-02  0.1246899E+00
         -1   -1    0    0    0  501 -0.00000000000E+00  0.00000000000E+00  0.10225150834E+03  0.10225150834E+03  0.00000000000E+00 0.  1.
          1   -1    0    0  501    0  0.00000000000E+00 -0.00000000000E+00 -0.19411604411E+03  0.19411604411E+03  0.00000000000E+00 0. -1.
          5    1    1    2  502    0  0.75196518090E+01 -0.84789277083E+01  0.36521480098E+02  0.38467236539E+02  0.41800000000E+01 0. -1.
         -5    1    1    2    0  502 -0.34111061132E+02  0.91726055393E+02 -0.62846249167E+02  0.11638022669E+03  0.41800000000E+01 0. -1.
        -11    1    1    2    0    0 -0.96446473181E+01 -0.88304330227E+02 -0.45511324852E+02  0.99809591966E+02  0.00000000000E+00 0.  1.
         11    1    1    2    0    0  0.36236056641E+02  0.50572025424E+01 -0.20028441854E+02  0.41710497259E+02  0.00000000000E+00 0. -1.
</event>
<event>
 6    1  0.8259171E-006  0.8252365E+02  0.7561462E-02  0.1322038E+00
         -2   -1    0    0    0  501 -0.00000000000E+00  0.00000000000E+00  0.61366864269E+02  0.61366864269E+02  0.00000000000E+00 0.  1.
          2   -1    0    0  501    0  0.00000000000E+00 -0.00000000000E+00 -0.21933205998E+03  0.21933205998E+03  0.00000000000E+00 0. -1.
          5    1    1    2  502    0 -0.37191266632E+02  0.18222560378E+02 -0.73762457523E+02  0.84697252377E+02  0.41800000000E+01 0.  1.
         -5    1    1    2    0  502  0.36098199112E+02 -0.56388907364E+02 -0.34306449671E+01  0.67171650104E+02  0.41800000000E+01 0.  1.
        -11    1    1    2    0    0 -0.19898761778E+02  0.23154047538E+02 -0.94703153393E+02  0.99502552230E+02  0.00000000000E+00 0. -1.
         11    1    1    2    0    0  0.20991829298E+02  0.15012299447E+02  0.13931060172E+02  0.29327469538E+02  0.00000000000E+00 0.  1.
</event>
<event>
 6    1  0.8259171E-006  0.6965351E+02  0.7561462E-02  0.1361275E+00
          2   -1    0    0  501    0  0.00000000000E+00  0.00000000000E+00  0.26121832110E+03  0.26121832110E+03  0.00000000000E+00 0. -1.
         -2   -1    0    0    0  501 -0.00000000000E+00 -0.00000000000E+00 -0.52971564429E+02  0.52971564429E+02  0.00000000000E+00 0.  1.
          5    1    1    2  502    0 -0.17740547591E+02  0.28428283930E+02  0.11714388235E+03  0.12191413342E+03  0.41800000000E+01 0. -1.
         -5    1    1    2    0  502  0.52059956367E+01  0.79020039935E+01 -0.32387439017E+02  0.33999450933E+02  0.41800000000E+01 0. -1.
        -11    1    1    2    0    0  0.22646732725E+02  0.24595411705E+02  0.65592870800E+02  0.73622234956E+02  0.00000000000E+00 0. -1.
         11    1    1    2    0    0 -0.10112180770E+02 -0.60925699629E+02  0.57897442544E+02  0.84654066225E+02  0.00000000000E+00 0.  1.
</event>
<event>
 6    1  0.8259171E-006  0.1924793E+03  0.7561462E-02  0.1156244E+00
          2   -1    0    0  501    0  0.00000000000E+00  0.00000000000E+00  0.71477219014E+03  0.71477219014E+03  0.00000000000E+00 0. -1.
         -2   -1    0    0    0  501 -0.00000000000E+00 -0.00000000000E+00 -0.62981621507E+02  0.62981621507E+02  0.00000000000E+00 0.  1.
          5    1    1    2  502    0 -0.67932145062E+02 -0.92306817001E+02  0.27648587844E+03  0.29932797760E+03  0.41800000000E+01 0. -1.
         -5    1    1    2    0  502 -0.63074921999E+02 -0.32968538081E+02  0.28307866846E+02  0.76708395980E+02  0.41800000000E+01 0. -1.
        -11    1    1    2    0    0  0.35103245043E+02 -0.68010821305E+01  0.37481762924E+02  0.51801303869E+02  0.00000000000E+00 0.  1.
         11    1    1    2    0    0  0.95903822018E+02  0.13207643721E+03  0.30951506042E+03  0.34991613420E+03  0.00000000000E+00 0. -1.
</event>
<event>
 6    1  0.8259171E-006  0.1088766E+03  0.7561462E-02  0.1262664E+00
          1   -1    0    0  501    0  0.00000000000E+00  0.00000000000E+00  0.32052299891E+02  0.32052299891E+02  0.00000000000E+00 0. -1.
         -1   -1    0    0    0  501 -0.00000000000E+00 -0.00000000000E+00 -0.53994168249E+03  0.53994168249E+03  0.00000000000E+00 0.  1.
          5    1    1    2  502    0 -0.39426618455E+02 -0.45320677324E+02 -0.14301479175E+03  0.15517449886E+03  0.41800000000E+01 0. -1.
         -5    1    1    2    0  502  0.62081970092E+02  0.18176590012E+02 -0.27764220981E+03  0.28510915191E+03  0.41800000000E+01 0. -1.
        -11    1    1    2    0    0 -0.15220507463E+02  0.58521586868E+02 -0.76946662347E+02  0.97863317046E+02  0.00000000000E+00 0.  1.
         11    1    1    2    0    0 -0.74348441745E+01 -0.31377499557E+02 -0.10285718696E+02  0.33847014572E+02  0.00000000000E+00 0. -1.
</event>
<event>
 6    1  0.8259171E-006  0.1219924E+03  0.7561462E-02  0.1239846E+00
          3   -1    0    0  501    0  0.00000000000E+00  0.00000000000E+00  0.89897806747E+02  0.89897806747E+02  0.00000000000E+00 0. -1.
         -3   -1    0    0    0  501 -0.00000000000E+00 -0.00000000000E+00 -0.31860026979E+03  0.31860026979E+03  0.00000000000E+00 0.  1.
          5    1    1    2  502    0  0.68479233177E+02 -0.27846217602E+02 -0.21064918057E+03  0.22328315406E+03  0.41800000000E+01 0.  1.
         -5    1    1    2    0  502  0.29258953780E+02  0.39520583060E+02 -0.12663953528E+02  0.50949101863E+02  0.41800000000E+01 0.  1.
        -11    1    1    2    0    0 -0.23588797222E+02  0.27906064233E+02  0.25673361468E+02  0.44657600298E+02  0.00000000000E+00 0. -1.
         11    1    1    2    0    0 -0.74149389735E+02 -0.39580429691E+02 -0.31062690411E+02  0.89608220316E+02  0.00000000000E+00 0.  1.
</event>
<event>
 6    1  0.8259171E-006  0.1590830E+03  0.7561462E-02  0.1189736E+00
         -3   -1    0    0    0  501 -0.00000000000E+00  0.00000000000E+00  0.31736007065E+02  0.31736007065E+02  0.00000000000E+00 0.  1.
          3   -1    0    0  501    0  0.00000000000E+00 -0.00000000000E+00 -0.90807329781E+03  0.90807329781E+03  0.00000000000E+00 0. -1.
          5    1    1    2  502    0  0.20754248011E+02  0.96128664152E+02 -0.15551244651E+03  0.18404633194E+03  0.41800000000E+01 0. -1.
         -5    1    1    2    0  502 -0.65854879835E+02  0.23895913917E+02 -0.24182814261E+03  0.25180588328E+03  0.41800000000E+01 0. -1.
        -11    1    1    2    0    0  0.66783438304E+02 -0.98459188357E+02 -0.43038647960E+03  0.44652744734E+03  0.00000000000E+00 0. -1.
         11    1    1    2    0    0 -0.21682806479E+02 -0.21565389712E+02 -0.48610222036E+02  0.57429642317E+02  0.00000000000E+00 0.  1.
</event>
<event>
 6    1  0.8259171E-006  0.7066353E+02  0.7561462E-02  0.1357851E+00
         -2   -1    0    0    0  501 -0.00000000000E+00  0.00000000000E+00  0.87294356674E+02  0.87294356674E+02  0.00000000000E+00 0.  1.
          2   -1    0    0  501    0  0.00000000000E+00 -0.00000000000E+00 -0.23099718212E+03  0.23099718212E+03  0.00000000000E+00 0. -1.
          5    1    1    2  502    0  0.11041589604E+00 -0.46110070343E+02 -0.73593378583E+02  0.86946009396E+02  0.41800000000E+01 0. -1.
         -5    1    1    2    0  502  0.21793761654E+02 -0.87830331219E+01  0.70045683463E+02  0.73999864119E+02  0.41800000000E+01 0.  1.
        -11    1    1    2    0    0  0.16599771019E+01  0.45915455163E+02 -0.82831562695E+02  0.94720918098E+02  0.00000000000E+00 0. -1.
         11    1    1    2    0    0 -0.23564154652E+02  0.89776483018E+01 -0.57323567626E+02  0.62624747176E+02  0.00000000000E+00 0.  1.
</event>
<event>
 6    1  0.8259171E-006  0.1308630E+03  0.7561462E-02  0.1226181E+00
          4   -1    0    0  501    0  0.00000000000E+00  0.00000000000E+00  0.45331593775E+03  0.45331593775E+03  0.00000000000E+00 0. -1.
         -4   -1    0    0    0  501 -0.00000000000E+00 -0.00000000000E+00 -0.49659441877E+02  0.49659441877E+02  0.00000000000E+00 0.  1.
          5    1    1    2  502    0  0.74766701556E+02 -0.62175823046E+01  0.38209318886E+02  0.84297938534E+02  0.41800000000E+01 0.  1.
         -5    1    1    2    0  502 -0.35629180126E+02 -0.60222411927E+02  0.61827284996E+02  0.93467978178E+02  0.41800000000E+01 0.  1.
        -11    1    1    2    0    0  0.18764815718E+01  0.74638518370E+02  0.19108616114E+03  0.20515445544E+03  0.00000000000E+00 0.  1.
         11    1    1    2    0    0 -0.41014003002E+02 -0.81985241384E+01  0.11253373085E+03  0.12005500748E+03  0.00000000000E+00 0. -1.
</event>
<event>
 6    1  0.8259171E-006  0.1019012E+03  0.7561462E-02  0.1276348E+00
          2   -1    0    0  501    0  0.00000000000E+00  0.00000000000E+00  0.22256824253E+03  0.22256824253E+03  0.00000000000E+00 0. -1.
         -2   -1    0    0    0  501 -0.00000000000E+00 -0.00000000000E+00 -0.55382821833E+02  0.55382821833E+02  0.00000000000E+00 0.  1.
          5    1    1    2  502    0  0.32734180441E+02 -0.57129006609E+02  0.47233652680E+02  0.81140250867E+02  0.41800000000E+01 0.  1.
         -5    1    1    2    0  502 -0.33282547169E+02  0.47976728704E+02  0.25397663066E+02  0.63812288255E+02  0.41800000000E+01 0.  1.
        -11    1    1    2    0    0 -0.38730847417E+02 -0.90226222246E+00  0.11234714292E+02  0.40337469231E+02  0.00000000000E+00 0.  1.
         11    1    1    2    0    0  0.39279214145E+02  0.10054540128E+02  0.83319390660E+02  0.92661056011E+02  0.00000000000E+00 0. -1.
</event>
<event>
 6    1  0.8259171E-006  0.9180994E+02  0.7561462E-02  0.1298527E+00
         -2   -1    0    0    0  501 -0.00000000000E+00  0.00000000000E+00  0.48298049505E+02  0.48298049505E+02  0.00000000000E+00 0. -1.
          2   -1    0    0  501    0  0.00000000000E+00 -0.00000000000E+00 -0.32767101793E+03  0.32767101793E+03  0.00000000000E+00 0.  1.
          5    1    1    2  502    0 -0.76237906757E+02  0.57485962630E+01 -0.12883984073E+03  0.14987475353E+03  0.41800000000E+01 0. -1.
         -5    1    1    2    0  502  0.27283894504E+02  0.28414227356E+02  0.46040433338E+00  0.39616456021E+02  0.41800000000E+01 0. -1.
        -11    1    1    2    0    0  0.37042733413E+02 -0.68912942443E+01 -0.56266528946E+01  0.38096105547E+02  0.00000000000E+00 0. -1.
         11    1    1    2    0    0  0.11911278840E+02 -0.27271529374E+02 -0.14536687914E+03  0.14838175234E+03  0.00000000000E+00 0.  1.
</event>
<event>
 6    1  0.8259171E-006  0.1532429E+03  0.7561462E-02  0.1196544E+00
          2   -1    0    0  501    0  0.00000000000E+00  0.00000000000E+00  0.74503476380E+03  0.74503476380E+03  0.00000000000E+00 0. -1.
         -2   -1    0    0    0  501 -0.00000000000E+00 -0.00000000000E+00 -0.33012720938E+02  0.33012720938E+02  0.00000000000E+00 0.  1.
          5    1    1    2  502    0  0.91818700906E+02  0.71277961205E+02  0.32248989937E+03  0.34282419574E+03  0.41800000000E+01 0. -1.
         -5    1    1    2    0  502 -0.78763280380E+02 -0.48203623729E+01  0.12705815849E+03  0.14962666296E+03  0.41800000000E+01 0.  1.
        -11    1    1    2    0    0  0.37737351689E+02 -0.22205663155E+02  0.12621974836E+03  0.13359874275E+03  0.00000000000E+00 0.  1.
         11    1    1    2    0    0 -0.50792772216E+02 -0.44251935677E+02  0.13625423665E+03  0.15199788329E+03  0.00000000000E+00 0. -1.
</event>
<event>
 6    1  0.8259171E-006  0.8723929E+02  0.7561462E-02  0.1309678E+00
          1   -1    0    0  501    0  0.00000000000E+00  0.00000000000E+00  0.11101009793E+03  0.11101009793E+03  0.00000000000E+00 0. -1.
         -1   -1    0    0    0  501 -0.00000000000E+00 -0.00000000000E+00 -0.11348693263E+03  0.11348693263E+03  0.00000000000E+00 0.  1.
          5    1    1    2  502    0  0.46501123653E+01  0.38781636818E+02 -0.52492161948E+02  0.65563239436E+02  0.41800000000E+01 0.  1.
         -5    1    1    2    0  502 -0.31410669765E+02 -0.24025277757E+02  0.49181918245E+02  0.63246957466E+02  0.41800000000E+01 0.  1.
        -11    1    1    2    0    0  0.58923066247E+02 -0.21214751048E+02 -0.27564718973E+01  0.62686454161E+02  0.00000000000E+00 0.  1.
         11    1    1    2    0    0 -0.32162508847E+02  0.64583919866E+01  0.35898809038E+01  0.33000379502E+02  0.00000000000E+00 0. -1.
</event>
<event>
 6    1  0.8259171E-006  0.9844617E+02  0.7561462E-02  0.1283598E+00
         -1   -1    0    0    0  501 -0.00000000000E+00  0.00000000000E+00  0.78488321027E+02  0.78488321027E+02  0.00000000000E+00 0.  1.
          1   -1    0    0  501    0  0.00000000000E+00 -0.00000000000E+00 -0.15638191445E+03  0.15638191445E+03  0.00000000000E+00 0. -1.
          5    1    1    2  502    0 -0.46024215912E+02 -0.27901352553E+02 -0.35684002255E+02  0.64711160873E+02  0.41800000000E+01 0. -1.
         -5    1    1    2    0  502  0.32292949105E+02  0.56607483256E+02  0.12329473343E+02  0.66458483547E+02  0.41800000000E+01 0. -1.
        -11    1    1    2    0    0  0.13730088827E+02  0.22521485328E+02  0.31330143534E+01  0.26562161424E+02  0.00000000000E+00 0.  1.
         11    1    1    2    0    0  0.11779795007E-02 -0.51227616031E+02 -0.57672078864E+02  0.77138429632E+02  0.00000000000E+00 0. -1.
</event>
<event>
 6    1  0.8259171E-006  0.1069801E+03  0.7561462E-02  0.1266267E+00
          3   -1    0    0  501    0  0.00000000000E+00  0.00000000000E+00  0.34009828166E+03  0.34009828166E+03  0.00000000000E+00 0. -1.
         -3   -1    0    0    0  501 -0.00000000000E+00 -0.00000000000E+00 -0.50266991347E+02  0.50266991347E+02  0.00000000000E+00 0.  1.
          5    1    1    2  502    0 -0.14760008854E+02  0.40037282689E+01  0.11162646507E+03  0.11274674188E+03  0.41800000000E+01 0.  1.
         -5    1    1    2    0  502  0.68839140660E+02 -0.51446153025E+02  0.34735817614E+02  0.92787840654E+02  0.41800000000E+01 0.  1.
        -11    1    1    2    0    0 -0.25671898969E+02  0.70785774593E+02  0.11845317872E+03  0.14035963747E+03  0.00000000000E+00 0.  1.
         11    1    1    2    0    0 -0.28407232838E+02 -0.23343349837E+02  0.25015828910E+02  0.44471053003E+02  0.00000000000E+00 0. -1.
</event>
<event>
 6    1  0.8259171E-006  0.1805614E+03  0.7561462E-02  0.1167261E+00
          2   -1    0    0  501    0  0.00000000000E+00  0.00000000000E+00  0.56969155316E+02  0.56969155316E+02  0.00000000000E+00 0.  1.
         -2   -1    0    0    0  501 -0.00000000000E+00 -0.00000000000E+00 -0.77880100726E+03  0.77880100726E+03  0.00000000000E+00 0. -1.
          5    1    1    2  502    0 -0.44909689879E+02 -0.61833121182E+02 -0.88451021775E+02  0.11696696445E+03  0.41800000000E+01 0. -1.
         -5    1    1    2    0  502 -0.11049537635E+03 -0.73177728436E+01 -0.40135913753E+03  0.41637652152E+03  0.41800000000E+01 0. -1.
        -11    1    1    2    0    0  0.11484195902E+03  0.33136198561E+02 -0.21426698493E+03  0.24535081830E+03  0.00000000000E+00 0. -1.
         11    1    1    2    0    0  0.40563107207E+02  0.36014695465E+02 -0.17754707709E+02  0.57075858308E+02  0.00000000000E+00 0.  1.
</event>
<event>
 6    1  0.8259171E-006  0.2656026E+03  0.7561462E-02  0.1103823E+00
         -2   -1    0    0    0  501 -0.00000000000E+00  0.00000000000E+00  0.11045353139E+03  0.11045353139E+03  0.00000000000E+00 0.  1.
          2   -1    0    0  501    0  0.00000000000E+00 -0.00000000000E+00 -0.78850613678E+03  0.78850613678E+03  0.00000000000E+00 0. -1.
          5    1    1    2  502    0 -0.88896344702E+02  0.77107574815E+02 -0.16145105496E+03  0.19983006216E+03  0.41800000000E+01 0. -1.
         -5    1    1    2    0  502 -0.13329970232E+03  0.52143070195E+02 -0.36146407027E+02  0.14768800069E+03  0.41800000000E+01 0. -1.
        -11    1    1    2    0    0  0.35999368554E+02 -0.63121328349E+02 -0.14266479904E+03  0.16010465800E+03  0.00000000000E+00 0.  1.
         11    1    1    2    0    0  0.18619667846E+03 -0.66129316661E+02 -0.33779034436E+03  0.39133694732E+03  0.00000000000E+00 0. -1.
</event>
<event>
 6    1  0.8259171E-006  0.8011750E+02  0.7561462E-02  0.1328718E+00
          2   -1    0    0  501    0  0.00000000000E+00  0.00000000000E+00  0.10931347702E+03  0.10931347702E+03  0.00000000000E+00 0. -1.
         -2   -1    0    0    0  501 -0.00000000000E+00 -0.00000000000E+00 -0.12616088346E+03  0.12616088346E+03  0.00000000000E+00 0.  1.
          5    1    1    2  502    0 -0.15686430645E+02 -0.43087145254E+02  0.48926813840E+02  0.67185353352E+02  0.41800000000E+01 0.  1.
         -5    1    1    2    0  502 -0.89756239316E+01  0.75062471739E+01 -0.64978858609E+02  0.66156103556E+02  0.41800000000E+01 0.  1.
        -11    1    1    2    0    0  0.50165697615E+02 -0.84597964057E+01 -0.47026744632E+01  0.51090904470E+02  0.00000000000E+00 0.  1.
         11    1    1    2    0    0 -0.25503643038E+02  0.44040694486E+02  0.39073127845E+01  0.51041999101E+02  0.00000000000E+00 0. -1.
</event>
<event>
 6    1  0.8259171E-006  0.1338226E+03  0.7561462E-02  0.1221891E+00
          2   -1    0    0  501    0  0.00000000000E+00  0.00000000000E+00  0.18002419062E+03  0.18002419062E+03  0.00000000000E+00 0. -1.
         -2   -1    0    0    0  501 -0.00000000000E+00 -0.00000000000E+00 -0.11876439752E+03  0.11876439752E+03  0.00000000000E+00 0.  1.
          5    1    1    2  502    0  0.37612471931E+02 -0.10003305808E+02 -0.11088950707E+02  0.40684166449E+02  0.41800000000E+01 0. -1.
         -5    1    1    2    0  502 -0.10090695082E+03 -0.48415513280E+02 -0.61379262529E+01  0.11216693447E+03  0.41800000000E+01 0. -1.
        -11    1    1    2    0    0  0.23658097279E+02  0.71063483115E+02  0.26713998274E+02  0.79519569309E+02  0.00000000000E+00 0.  1.
         11    1    1    2    0    0  0.39636381607E+02 -0.12644664027E+02  0.51772671793E+02  0.66417917912E+02  0.00000000000E+00 0. -1.
</event>
<event>
 6    1  0.8259171E-006  0.1213552E+03  0.7561462E-02  0.1240878E+00
         -2   -1    0    0    0  501 -0.00000000000E+00  0.00000000000E+00  0.34384861220E+03  0.34384861220E+03  0.00000000000E+00 0.  1.
          2   -1    0    0  501    0  0.00000000000E+00 -0.00000000000E+00 -0.75700838649E+02  0.75700838649E+02  0.00000000000E+00 0. -1.
          5    1    1    2  502    0 -0.29757771385E+02  0.68181942325E+02  0.18897029877E+03  0.20312938840E+03  0.41800000000E+01 0.  1.
         -5    1    1    2    0  502 -0.48508255849E+02 -0.43138510064E+02  0.66982242409E+02  0.93370633146E+02  0.41800000000E+01 0.  1.
        -11    1    1    2    0    0 -0.10335958318E+02 -0.76461341178E+01 -0.22829286255E+02  0.26200605188E+02  0.00000000000E+00 0. -1.
         11    1    1    2    0    0  0.88601985552E+02 -0.17397298144E+02  0.35024518631E+02  0.96848824111E+02  0.00000000000E+00 0.  1.
</event>
<event>
 6    1  0.8259171E-006  0.1166775E+03  0.7561462E-02  0.1248681E+00
          2   -1    0    0  501    0  0.00000000000E+00  0.00000000000E+00  0.47766434110E+03  0.47766434110E+03  0.00000000000E+00 0. -1.
         -2   -1    0    0    0  501 -0.00000000000E+00 -0.00000000000E+00 -0.72479435869E+02  0.72479435869E+02  0.00000000000E+00 0.  1.
          5    1    1    2  502    0  0.28587609023E+02 -0.43418020243E+02  0.78916830266E+02  0.94592358944E+02  0.41800000000E+01 0.  1.
         -5    1    1    2    0  502  0.47594331766E+02 -0.44588916444E+01 -0.42097046244E+02  0.63833657528E+02  0.41800000000E+01 0.  1.
        -11    1    1    2    0    0 -0.81657925336E+02  0.71763908938E+02  0.30255806812E+03  0.32149566091E+03  0.00000000000E+00 0.  1.
         11    1    1    2    0    0  0.54759845466E+01 -0.23886997051E+02  0.65807053087E+02  0.70222099590E+02  0.00000000000E+00 0. -1.
</event>
<event>
 6    1  0.8259171E-006  0.7257837E+02  0.7561462E-02  0.1351538E+00
         -1   -1    0    0    0  501 -0.00000000000E+00  0.00000000000E+00  0.75149491757E+02  0.75149491757E+02  0.00000000000E+00 0.  1.
          1   -1    0    0  501    0  0.00000000000E+00 -0.00000000000E+00 -0.17110932586E+03  0.17110932586E+03  0.00000000000E+00 0. -1.
          5    1    1    2  502    0 -0.43640287697E+01 -0.39361847185E+02 -0.64693692963E+02  0.75968059539E+02  0.41800000000E+01 0.  1.
         -5    1    1    2    0  502 -0.33687466309E+01  0.65268382860E+02  0.41282872214E+01  0.65618788548E+02  0.41800000000E+01 0.  1.
        -11    1    1    2    0    0  0.18989173411E+02 -0.17082610177E+02  0.29036872649E+02  0.38672267202E+02  0.00000000000E+00 0.  1.
         11    1    1    2    0    0 -0.11256398011E+02 -0.88239254989E+01 -0.64431301011E+02  0.65999702328E+02  0.00000000000E+00 0. -1.
</event>
<event>
 6    1  0.8259171E-006  0.9598573E+02  0.7561462E-02  0.1288971E+00
         -1   -1    0    0    0  501 -0.00000000000E+00  0.00000000000E+00  0.41417638780E+03  0.41417638780E+03  0.00000000000E+00 0.  1.
          1   -1    0    0  501    0  0.00000000000E+00 -0.00000000000E+00 -0.42244098023E+02  0.42244098023E+02  0.00000000000E+00 0. -1.
          5    1    1    2  502    0 -0.25219444662E+02  0.52554632219E+01  0.18769421389E+03  0.18949994884E+03  0.41800000000E+01 0.  1.
         -5    1    1    2    0  502 -0.19046435996E+02  0.54939892344E+02  0.15114940728E+02  0.60225346227E+02  0.41800000000E+01 0.  1.
        -11    1    1    2    0    0  0.51977418163E+02 -0.74784647436E+02  0.98424260974E+02  0.13409597548E+03  0.00000000000E+00 0. -1.
         11    1    1    2    0    0 -0.77115375047E+01  0.14589291870E+02  0.70698874181E+02  0.72599215274E+02  0.00000000000E+00 0.  1.
</event>
<event>
 6    1  0.8259171E-006  0.1045831E+03  0.7561462E-02  0.1270943E+00
         -1   -1    0    0    0  501 -0.00000000000E+00  0.00000000000E+00  0.42838119489E+03  0.42838119489E+03  0.00000000000E+00 0.  1.
          1   -1    0    0  501    0  0.00000000000E+00 -0.00000000000E+00 -0.48726674732E+02  0.48726674732E+02  0.00000000000E+00 0. -1.
          5    1    1    2  502    0 -0.75267460559E+02  0.49333431625E+02  0.27080364765E+03  0.28539633157E+03  0.41800000000E+01 0.  1.
         -5    1    1    2    0  502 -0.58336345975E+01 -0.32122021720E+02  0.12514883255E+02  0.35212927667E+02  0.41800000000E+01 0.  1.
        -11    1    1    2    0    0  0.15059383094E+02 -0.13152822247E+02  0.87487565408E+02  0.89743277482E+02  0.00000000000E+00 0.  1.
         11    1    1    2    0    0  0.66041712062E+02 -0.40585876582E+01  0.88484238449E+01  0.66755332899E+02  0.00000000000E+00 0. -1.
</event>
<event>
 6    1  0.8259171E-006  0.7931608E+02  0.7561462E-02  0.1331004E+00
          1   -1    0    0  501    0  0.00000000000E+00  0.00000000000E+00  0.51549228636E+02  0.51549228636E+02  0.00000000000E+00 0. -1.
         -1   -1    0    0    0  501 -0.00000000000E+00 -0.00000000000E+00 -0.34556770117E+03  0.34556770117E+03  0.00000000000E+00 0.  1.
          5    1    1    2  502    0  0.32689568374E+02 -0.15896636537E+02 -0.16931425504E+02  0.40316950570E+02  0.41800000000E+01 0. -1.
         -5    1    1    2    0  502 -0.28210457153E+02  0.51027858522E+02 -0.24795982369E+03  0.25475717615E+03  0.41800000000E+01 0. -1.
        -11    1    1    2    0    0  0.98808316020E+01  0.11285154133E+02 -0.47718547986E+02  0.50020449407E+02  0.00000000000E+00 0.  1.
         11    1    1    2    0    0 -0.14359942823E+02 -0.46416376117E+02  0.18591324647E+02  0.52022353675E+02  0.00000000000E+00 0. -1.
</event>
<event>
 6    1  0.8259171E-006  0.3252118E+03  0.7561462E-02  0.1073275E+00
         -2   -1    0    0    0  501 -0.00000000000E+00  0.00000000000E+00  0.24994014317E+03  0.24994014317E+03  0.00000000000E+00 0.  1.
          2   -1    0    0  501    0  0.00000000000E+00 -0.00000000000E+00 -0.48452819309E+03  0.48452819309E+03  0.00000000000E+00 0. -1.
          5    1    1    2  502    0 -0.14842960719E+03 -0.27439382894E+02 -0.87436042911E+02  0.17449012013E+03  0.41800000000E+01 0.  1.
         -5    1    1    2    0  502 -0.17457639587E+03 -0.55388796826E+01  0.32670872162E+02  0.17774266643E+03  0.41800000000E+01 0.  1.
        -11    1    1    2    0    0  0.22210084149E+03  0.24428139009E+02 -0.73051278220E+02  0.23507872514E+03  0.00000000000E+00 0. -1.
         11    1    1    2    0    0  0.10090516157E+03  0.85501235671E+01 -0.10677160095E+03  0.14715682455E+03  0.00000000000E+00 0.  1.
</event>
<event>
 6    1  0.8259171E-006  0.2076806E+03  0.7561462E-02  0.1143416E+00
         -1   -1    0    0    0  501 -0.00000000000E+00  0.00000000000E+00  0.12167564344E+03  0.12167564344E+03  0.00000000000E+00 0.  1.
          1   -1    0    0  501    0  0.00000000000E+00 -0.00000000000E+00 -0.46267395459E+03  0.46267395459E+03  0.00000000000E+00 0. -1.
          5    1    1    2  502    0  0.11129778882E+03  0.63083312354E+02 -0.63867906434E+02  0.14304993522E+03  0.41800000000E+01 0. -1.
         -5    1    1    2    0  502 -0.15868980857E+03 -0.90638128871E+02 -0.48530748722E+02  0.18913072654E+03  0.41800000000E+01 0.  1.
        -11    1    1    2    0    0 -0.24691821670E+02  0.20576487148E+02 -0.93691474330E+02  0.99051351545E+02  0.00000000000E+00 0.  1.
         11    1    1    2    0    0  0.72083841421E+02  0.69783293691E+01 -0.13490818166E+03  0.15311758473E+03  0.00000000000E+00 0. -1.
</event>
<event>
 6    1  0.8259171E-006  0.2603349E+03  0.7561462E-02  0.1106942E+00
         -2   -1    0    0    0  501 -0.00000000000E+00  0.00000000000E+00  0.12418150919E+03  0.12418150919E+03  0.00000000000E+00 0.  1.
          2   -1    0    0  501    0  0.00000000000E+00 -0.00000000000E+00 -0.70928029334E+03  0.70928029334E+03  0.00000000000E+00 0. -1.
          5    1    1    2  502    0 -0.59982769112E+02 -0.80652255049E+02 -0.33293645932E+02  0.10596536271E+03  0.41800000000E+01 0.  1.
         -5    1    1    2    0  502 -0.17400853218E+03  0.59372873943E+01 -0.89212206412E+02  0.19567961270E+03  0.41800000000E+01 0.  1.
        -11    1    1    2    0    0  0.94684382629E+02  0.36299875066E+02 -0.28711628901E+03  0.30449725230E+03  0.00000000000E+00 0. -1.
         11    1    1    2    0    0  0.13930691866E+03  0.38415092589E+02 -0.17547664280E+03  0.22731957482E+03  0.00000000000E+00 0.  1.
</event>
<event>
 6    1  0.8259171E-006  0.1022424E+03  0.7561462E-02  0.1275650E+00
          1   -1    0    0  501    0  0.00000000000E+00  0.00000000000E+00  0.24405727363E+03  0.24405727363E+03  0.00000000000E+00 0. -1.
         -1   -1    0    0    0  501 -0.00000000000E+00 -0.00000000000E+00 -0.64955050626E+02  0.64955050626E+02  0.00000000000E+00 0.  1.
          5    1    1    2  502    0  0.56606260814E+02  0.31765110343E+01  0.37281195249E+02  0.67983225173E+02  0.41800000000E+01 0.  1.
         -5    1    1    2    0  502 -0.55506361309E+02 -0.15147760743E+02 -0.15137744096E+02  0.59640879417E+02  0.41800000000E+01 0.  1.
        -11    1    1    2    0    0  0.42974410842E+02 -0.37874554415E+01  0.62162237273E+02  0.75665636511E+02  0.00000000000E+00 0.  1.
         11    1    1    2    0    0 -0.44074310347E+02  0.15758705150E+02  0.94796534581E+02  0.10572258316E+03  0.00000000000E+00 0. -1.
</event>
<event>
 6    1  0.8259171E-006  0.1206167E+03  0.7561462E-02  0.1242083E+00
          2   -1    0    0  501    0  0.00000000000E+00  0.00000000000E+00  0.36592368558E+03  0.36592368558E+03  0.00000000000E+00 0. -1.
         -2   -1    0    0    0  501 -0.00000000000E+00 -0.00000000000E+00 -0.62285665004E+02  0.62285665004E+02  0.00000000000E+00 0.  1.
          5    1    1    2  502    0  0.36411735196E+02  0.24918615847E+02  0.11282654182E+03  0.12121902827E+03  0.41800000000E+01 0.  1.
         -5    1    1    2    0  502  0.55351027779E+02 -0.74270373785E+02  0.36329913056E+02  0.99584937019E+02  0.41800000000E+01 0.  1.
        -11    1    1    2    0    0 -0.21401310103E+02  0.11510661675E+02  0.11638590828E+03  0.11889571503E+03  0.00000000000E+00 0. -1.
         11    1    1    2    0    0 -0.70361452872E+02  0.37841096264E+02  0.38095657424E+02  0.88509670270E+02  0.00000000000E+00 0.  1.
</event>
<event>
 6    1  0.8259171E-006  0.1168133E+03  0.7561462E-02  0.1248449E+00
         -2   -1    0    0    0  501 -0.00000000000E+00  0.00000000000E+00  0.36717798376E+03  0.36717798376E+03  0.00000000000E+00 0.  1.
          2   -1    0    0  501    0  0.00000000000E+00 -0.00000000000E+00 -0.40726919881E+02  0.40726919881E+02  0.00000000000E+00 0. -1.
          5    1    1    2  502    0  0.79955745444E+02  0.34682906261E+02  0.18080254079E+03  0.20075571318E+03  0.41800000000E+01 0. -1.
         -5    1    1    2    0  502 -0.41609870155E+02 -0.10532131243E+02  0.53860133862E+02  0.68997778968E+02  0.41800000000E+01 0. -1.
        -11    1    1    2    0    0  0.28701761214E+02 -0.22002829891E+02  0.32697762591E+02  0.48755095102E+02  0.00000000000E+00 0.  1.
         11    1    1    2    0    0 -0.67047636502E+02 -0.21479451270E+01  0.59090626634E+02  0.89396316394E+02  0.00000000000E+00 0. -1.
</event>
<event>
 6    1  0.8259171E-006  0.1176175E+03  0.7561462E-02  0.1247080E+00
          1   -1    0    0  501    0  0.00000000000E+00  0.00000000000E+00  0.59366264156E+03  0.59366264156E+03  0.00000000000E+00 0. -1.
         -1   -1    0    0    0  501 -0.00000000000E+00 -0.00000000000E+00 -0.28257395826E+02  0.28257395826E+02  0.00000000000E+00 0.  1.
          5    1    1    2  502    0 -0.71061778751E+02 -0.12477108600E+02  0.82714468670E+02  0.10983902023E+03  0.41800000000E+01 0. -1.
         -5    1    1    2    0  502  0.43622774641E+02 -0.33767090872E+02  0.14864388709E+03  0.15860529771E+03  0.41800000000E+01 0. -1.
        -11    1    1    2    0    0  0.61584759670E+02  0.38501650616E+02  0.27850193604E+03  0.28781658761E+03  0.00000000000E+00 0.  1.
         11    1    1    2    0    0 -0.34145755560E+02  0.77425488559E+01  0.55544953931E+02  0.65659131830E+02  0.00000000000E+00 0. -1.
</event>
<event>
 6    1  0.8259171E-006  0.1649684E+03  0.7561462E-02  0.1183199E+00
         -1   -1    0    0    0  501 -0.00000000000E+00  0.00000000000E+00  0.53643810055E+02  0.53643810055E+02  0.00000000000E+00 0.  1.
          1   -1    0    0  501    0  0.00000000000E+00 -0.00000000000E+00 -0.56058774254E+03  0.56058774254E+03  0.00000000000E+00 0. -1.
          5    1    1    2  502    0 -0.30690433957E+02  0.38603178559E+02 -0.30060421389E+02  0.57906903435E+02  0.41800000000E+01 0.  1.
         -5    1    1    2    0  502  0.10012653183E+03  0.73522029399E+02 -0.19744643104E+03  0.23330961556E+03  0.41800000000E+01 0.  1.
        -11    1    1    2    0    0  0.10656026234E+02 -0.59204601732E+02 -0.15197086460E+03  0.16344381129E+03  0.00000000000E+00 0.  1.
         11    1    1    2    0    0 -0.80092124103E+02 -0.52920606226E+02 -0.12746621545E+03  0.15957122231E+03  0.00000000000E+00 0. -1.
</event>
<event>
 6    1  0.8259171E-006  0.9429989E+02  0.7561462E-02  0.1292761E+00
          4   -1    0    0  501    0  0.00000000000E+00  0.00000000000E+00  0.93017801207E+02  0.93017801207E+02  0.00000000000E+00 0.  1.
         -4   -1    0    0    0  501 -0.00000000000E+00 -0.00000000000E+00 -0.15117306005E+03  0.15117306005E+03  0.00000000000E+00 0. -1.
          5    1    1    2  502    0  0.20059461766E+02 -0.38747242136E+02  0.11260970305E+02  0.45254973557E+02  0.41800000000E+01 0. -1.
         -5    1    1    2    0  502 -0.66978210349E+02  0.39390024378E+02 -0.55161522704E+02  0.95383020864E+02  0.41800000000E+01 0. -1.
        -11    1    1    2    0    0  0.44634959639E+02  0.18031946398E+02  0.29128150048E+02  0.56266151797E+02  0.00000000000E+00 0.  1.
         11    1    1    2    0    0  0.22837889445E+01 -0.18674728641E+02 -0.43382856494E+02  0.47286715040E+02  0.00000000000E+00 0. -1.
</event>
<event>
 6    1  0.8259171E-006  0.1136377E+03  0.7561462E-02  0.1253978E+00
         -2   -1    0    0    0  501 -0.00000000000E+00  0.00000000000E+00  0.23584673540E+02  0.23584673540E+02  0.00000000000E+00 0.  1.
          2   -1    0    0  501    0  0.00000000000E+00 -0.00000000000E+00 -0.80602114454E+03  0.80602114454E+03  0.00000000000E+00 0. -1.
          5    1    1    2  502    0 -0.39325826676E+01  0.35368317188E+02 -0.21210076403E+02  0.41637997168E+02  0.41800000000E+01 0. -1.
         -5    1    1    2    0  502 -0.65448794506E+02  0.98323429718E+01 -0.40065348411E+03  0.40610455107E+03  0.41800000000E+01 0. -1.
        -11    1    1    2    0    0 -0.37621919209E+01  0.24086578695E+02 -0.86033777071E+02  0.89421072228E+02  0.00000000000E+00 0.  1.
         11    1    1    2    0    0  0.73143569094E+02 -0.69287238855E+02 -0.27453913342E+03  0.29244219762E+03  0.00000000000E+00 0. -1.
</event>
<event>
 6    1  0.8259171E-006  0.1035548E+03  0.7561462E-02  0.1272994E+00
         -1   -1    0    0    0  501 -0.00000000000E+00  0.00000000000E+00  0.30046196038E+02  0.30046196038E+02  0.00000000000E+00 0.  1.
          1   -1    0    0  501    0  0.00000000000E+00 -0.00000000000E+00 -0.64105408994E+03  0.64105408994E+03  0.00000000000E+00 0. -1.
          5    1    1    2  502    0  0.54659818241E+02 -0.38730377389E+02 -0.12417523788E+03  0.14115487936E+03  0.41800000000E+01 0. -1.
         -5    1    1    2    0  502 -0.13566835043E+02  0.35339581304E+02 -0.62704940959E+01  0.38597105022E+02  0.41800000000E+01 0.  1.
        -11    1    1    2    0    0 -0.36977424635E+02  0.46043421252E+02 -0.30166091782E+03  0.30738678552E+03  0.00000000000E+00 0.  1.
         11    1    1    2    0    0 -0.41155585637E+01 -0.42652625167E+02 -0.17890124410E+03  0.18396151608E+03  0.00000000000E+00 0. -1.
</event>
<event>
 6    1  0.8259171E-006  0.1075609E+03  0.7561462E-02  0.1265155E+00
         -1   -1    0    0    0  501 -0.00000000000E+00  0.00000000000E+00  0.91419466688E+02  0.91419466688E+02  0.00000000000E+00 0.  1.
          1   -1    0    0  501    0  0.00000000000E+00 -0.00000000000E+00 -0.21240837408E+03  0.21240837408E+03  0.00000000000E+00 0. -1.
          5    1    1    2  502    0  0.27084188144E+02  0.68428600027E+02 -0.58962378333E+02  0.94393119494E+02  0.41800000000E+01 0.  1.
         -5    1    1    2    0  502  0.43948072007E+02 -0.28377670915E+02  0.25933463779E+02  0.58538382137E+02  0.41800000000E+01 0.  1.
        -11    1    1    2    0    0 -0.29938118961E+02  0.21627599497E+01 -0.86938862469E+02  0.91974639466E+02  0.00000000000E+00 0. -1.
         11    1    1    2    0    0 -0.41094141190E+02 -0.42213689061E+02 -0.10211303637E+01  0.58921699666E+02  0.00000000000E+00 0.  1.
</event>
<event>
 6    1  0.8259171E-006  0.9189655E+02  0.7561462E-02  0.1298323E+00
          2   -1    0    0  501    0  0.00000000000E+00  0.00000000000E+00  0.25738869464E+03  0.25738869464E+03  0.00000000000E+00 0. -1.
         -2   -1    0    0    0  501 -0.00000000000E+00 -0.00000000000E+00 -0.63377431306E+02  0.63377431306E+02  0.00000000000E+00 0.  1.
          5    1    1    2  502    0 -0.43623982127E+02 -0.48118547650E+02  0.10896421333E+03  0.12692170276E+03  0.41800000000E+01 0.  1.
         -5    1    1    2    0  502 -0.23249936417E+02  0.45919603923E+02 -0.51831383025E+00  0.51642139935E+02  0.41800000000E+01 0.  1.
        -11    1    1    2    0    0  0.15065283598E+02 -0.14363870118E+01 -0.19688229814E+02  0.24832486197E+02  0.00000000000E+00 0.  1.
         11    1    1    2    0    0  0.51808634947E+02  0.36353307382E+01  0.10525359364E+03  0.11736979705E+03  0.00000000000E+00 0. -1.
</event>
<event>
 6    1  0.8259171E-006  0.8484677E+02  0.7561462E-02  0.1315834E+00
          1   -1    0    0  501    0  0.00000000000E+00  0.00000000000E+00  0.10357136216E+03  0.10357136216E+03  0.00000000000E+00 0. -1.
         -1   -1    0    0    0  501 -0.00000000000E+00 -0.00000000000E+00 -0.25177401393E+03  0.25177401393E+03  0.00000000000E+00 0.  1.
          5    1    1    2  502    0  0.38988623222E+02  0.18445755762E+02 -0.33907173392E+01  0.43466400938E+02  0.41800000000E+01 0.  1.
         -5    1    1    2    0  502  0.21530753504E+02 -0.50508677992E+02 -0.18378208915E+03  0.19185418575E+03  0.41800000000E+01 0.  1.
        -11    1    1    2    0    0 -0.41530011021E+02  0.11055264825E+02  0.67375565316E+02  0.79915126837E+02  0.00000000000E+00 0. -1.
         11    1    1    2    0    0 -0.18989365705E+02  0.21007657405E+02 -0.28405410607E+02  0.40109662568E+02  0.00000000000E+00 0.  1.
</event>
<event>
 6    1  0.8259171E-006  0.1995116E+03  0.7561462E-02  0.1150152E+00
          2   -1    0    0  501    0  0.00000000000E+00  0.00000000000E+00  0.18246391153E+04  0.18246391153E+04  0.00000000000E+00 0. -1.
         -2   -1    0    0    0  501 -0.00000000000E+00 -0.00000000000E+00 -0.24049545757E+02  0.24049545757E+02  0.00000000000E+00 0.  1.
          5    1    1    2  502    0 -0.20702416232E+02  0.14593516858E+01  0.51270813914E+02  0.55469707991E+02  0.41800000000E+01 0. -1.
         -5    1    1    2    0  502  0.16108370127E+03 -0.10190911930E+03  0.68588859270E+03  0.71189469825E+03  0.41800000000E+01 0. -1.
        -11    1    1    2    0    0  0.86614481953E+01  0.81010682721E+01  0.19892842026E+02  0.23159731342E+02  0.00000000000E+00 0.  1.
         11    1    1    2    0    0 -0.14904273324E+03  0.92348699341E+02  0.10435373209E+04  0.10581645235E+04  0.00000000000E+00 0. -1.
</event>
<event>
 6    1  0.8259171E-006  0.1150299E+03  0.7561462E-02  0.1251529E+00
          1   -1    0    0  501    0  0.00000000000E+00  0.00000000000E+00  0.42358511529E+03  0.42358511529E+03  0.00000000000E+00 0. -1.
         -1   -1    0    0    0  501 -0.00000000000E+00 -0.00000000000E+00 -0.39024496776E+02  0.39024496776E+02  0.00000000000E+00 0.  1.
          5    1    1    2  502    0 -0.65330506145E+02 -0.61434932694E+02  0.64647731306E+02  0.11063059049E+03  0.41800000000E+01 0.  1.
         -5    1    1    2    0  502  0.32151986898E+02  0.94565075658E+01  0.97813266975E+02  0.10347986951E+03  0.41800000000E+01 0.  1.
        -11    1    1    2    0    0 -0.13336686282E+02 -0.18048817171E+02  0.82892139193E+02  0.85876269960E+02  0.00000000000E+00 0. -1.
         11    1    1    2    0    0  0.46515205530E+02  0.70027242299E+02  0.13920748104E+03  0.16262288211E+03  0.00000000000E+00 0.  1.
</event>
<event>
 6    1  0.8259171E-006  0.1053289E+03  0.7561462E-02  0.1269473E+00
         -1   -1    0    0    0  501 -0.00000000000E+00  0.00000000000E+00  0.15411141578E+03  0.15411141578E+03  0.00000000000E+00 0.  1.
          1   -1    0    0  501    0  0.00000000000E+00 -0.00000000000E+00 -0.13898754769E+03  0.13898754769E+03  0.00000000000E+00 0. -1.
          5    1    1    2  502    0  0.69337411705E+02 -0.28793937027E+02 -0.36545127083E+02  0.83604941152E+02  0.41800000000E+01 0.  1.
         -5    1    1    2    0  502  0.12575454290E+02 -0.13332016488E+02  0.73790680968E+02  0.76147368385E+02  0.41800000000E+01 0.  1.
        -11    1    1    2    0    0  0.41835094828E+01  0.29325829381E+02  0.20898922626E+02  0.36252875575E+02  0.00000000000E+00 0.  1.
         11    1    1    2    0    0 -0.86096375478E+02  0.12800124133E+02 -0.43020608417E+02  0.97093778363E+02  0.00000000000E+00 0. -1.
</event>
<event>
 6    1  0.8259171E-006  0.1080318E+03  0.7561462E-02  0.1264259E+00
         -1   -1    0    0    0  501 -0.00000000000E+00  0.00000000000E+00  0.73459813091E+02  0.73459813091E+02  0.00000000000E+00 0.  1.
          1   -1    0    0  501    0  0.00000000000E+00 -0.00000000000E+00 -0.46768244586E+03  0.46768244586E+03  0.00000000000E+00 0. -1.
          5    1    1    2  502    0 -0.88875430756E+01 -0.12991733105E+02 -0.66829090331E+02  0.68784978487E+02  0.41800000000E+01 0.  1.
         -5    1    1    2    0  502 -0.87862726656E+02  0.28011070881E+02  0.24696107854E+02  0.95560708299E+02  0.41800000000E+01 0.  1.
        -11    1    1    2    0    0  0.19960018946E+02 -0.22772853753E+02 -0.21052144977E+02  0.36880862687E+02  0.00000000000E+00 0.  1.
         11    1    1    2    0    0  0.76790250786E+02  0.77535159772E+01 -0.33103750531E+03  0.33991570948E+03  0.00000000000E+00 0. -1.
</event>
<event>
 6    1  0.8259171E-006  0.1331931E+03  0.7561462E-02  0.1222793E+00
         -2   -1    0    0    0  501 -0.00000000000E+00  0.00000000000E+00  0.34697088156E+03  0.34697088156E+03  0.00000000000E+00 0.  1.
          2   -1    0    0  501    0  0.00000000000E+00 -0.00000000000E+00 -0.69121330531E+02  0.69121330531E+02  0.00000000000E+00 0. -1.
          5    1    1    2  502    0 -0.10989441469E+03  0.67609290572E+02  0.81689349184E+02  0.15276917464E+03  0.41800000000E+01 0.  1.
         -5    1    1    2    0  502  0.23546763581E+02  0.38602125253E+01  0.67692424303E+02  0.71896370032E+02  0.41800000000E+01 0.  1.
        -11    1    1    2    0    0  0.52426458267E+02 -0.33807634249E+02  0.12609874173E+03  0.14068540197E+03  0.00000000000E+00 0.  1.
         11    1    1    2    0    0  0.33921192839E+02 -0.37661868848E+02  0.23690358104E+01  0.50741265449E+02  0.00000000000E+00 0. -1.
</event>
<event>
 6    1  0.8259171E-006  0.1367330E+03  0.7561462E-02  0.1217794E+00
         -1   -1    0    0    0  501 -0.00000000000E+00  0.00000000000E+00  0.77212035410E+02  0.77212035410E+02  0.00000000000E+00 0.  1.
          1   -1    0    0  501    0  0.00000000000E+00 -0.00000000000E+00 -0.28760193232E+03  0.28760193232E+03  0.00000000000E+00 0. -1.
          5    1    1    2  502    0  0.32221263069E+02  0.68353496102E+02 -0.46319369912E+02  0.88731993397E+02  0.41800000000E+01 0. -1.
         -5    1    1    2    0  502  0.68251388520E+02 -0.50782228768E+02 -0.69387531564E+02  0.10985985950E+03  0.41800000000E+01 0. -1.
        -11    1    1    2    0    0 -0.95214651940E+02 -0.29411994693E+02 -0.35735156844E+02  0.10586735479E+03  0.00000000000E+00 0.  1.
         11    1    1    2    0    0 -0.52579996488E+01  0.11840727359E+02 -0.58947838588E+02  0.60354760035E+02  0.00000000000E+00 0. -1.
</event>
<event>
 6    1  0.8259171E-006  0.1728368E+03  0.7561462E-02  0.1174921E+00
          1   -1    0    0  501    0  0.00000000000E+00  0.00000000000E+00  0.95142784030E+03  0.95142784030E+03  0.00000000000E+00 0. -1.
         -1   -1    0    0    0  501 -0.00000000000E+00 -0.00000000000E+00 -0.52292775533E+02  0.52292775533E+02  0.00000000000E+00 0.  1.
          5    1    1    2  502    0  0.22489007416E+02 -0.18466203353E+02 -0.93215924373E+01  0.30840243294E+02  0.41800000000E+01 0. -1.
         -5    1    1    2    0  502  0.13792409113E+03  0.27323136359E+02  0.22847820671E+03  0.26830835252E+03  0.41800000000E+01 0. -1.
        -11    1    1    2    0    0 -0.69148746254E+02 -0.39133105066E+02  0.20294478176E+03  0.21794387686E+03  0.00000000000E+00 0.  1.
         11    1    1    2    0    0 -0.91264352291E+02  0.30276172060E+02  0.47703366874E+03  0.48662814315E+03  0.00000000000E+00 0. -1.
</event>
<event>
 6    1  0.8259171E-006  0.1084172E+03  0.7561462E-02  0.1263529E+00
         -2   -1    0    0    0  501 -0.00000000000E+00  0.00000000000E+00  0.74638799602E+02  0.74638799602E+02  0.00000000000E+00 0.  1.
          2   -1    0    0  501    0  0.00000000000E+00 -0.00000000000E+00 -0.34292681811E+03  0.34292681811E+03  0.00000000000E+00 0. -1.
          5    1    1    2  502    0 -0.49328425082E+01 -0.34258135409E+02  0.40347792152E+02  0.53323254856E+02  0.41800000000E+01 0. -1.
         -5    1    1    2    0  502 -0.64007715460E+02  0.17804282428E+02 -0.64081835965E+02  0.92400942700E+02  0.41800000000E+01 0. -1.
        -11    1    1    2    0    0  0.83248432292E+02  0.36397258884E+02 -0.16227173035E+03  0.18597627914E+03  0.00000000000E+00 0.  1.
         11    1    1    2    0    0 -0.14307874324E+02 -0.19943405902E+02 -0.82282244349E+02  0.85865141016E+02  0.00000000000E+00 0. -1.
</event>
<event>
 6    1  0.8259171E-006  0.7896479E+02  0.7561462E-02  0.1332015E+00
         -3   -1    0    0    0  501 -0.00000000000E+00  0.00000000000E+00  0.16664422742E+03  0.16664422742E+03  0.00000000000E+00 0.  1.
          3   -1    0    0  501    0  0.00000000000E+00 -0.00000000000E+00 -0.70344761035E+02  0.70344761035E+02  0.00000000000E+00 0. -1.
          5    1    1    2  502    0  0.75208984126E+00  0.55324603748E+02  0.63305411126E+01  0.55847341653E+02  0.41800000000E+01 0.  1.
         -5    1    1    2    0  502 -0.23074735630E+01 -0.61118741577E+02  0.60377426269E+02  0.86044935987E+02  0.41800000000E+01 0.  1.
        -11    1    1    2    0    0  0.10910229882E+02 -0.14876442625E+02  0.56770107179E+02  0.59692434448E+02  0.00000000000E+00 0.  1.
         11    1    1    2    0    0 -0.93548461601E+01  0.20670580454E+02 -0.27178608173E+02  0.35404276369E+02  0.00000000000E+00 0. -1.
</event>
<event>
 6    1  0.8259171E-006  0.2910656E+03  0.7561462E-02  0.1089794E+00
         -1   -1    0    0    0  501 -0.00000000000E+00  0.00000000000E+00  0.16445841036E+03  0.16445841036E+03  0.00000000000E+00 0.  1.
          1   -1    0    0  501    0  0.00000000000E+00 -0.00000000000E+00 -0.53305647544E+03  0.53305647544E+03  0.00000000000E+00 0. -1.
          5    1    1    2  502    0 -0.12017583994E+02  0.82671908044E+01 -0.57883433999E+01  0.16240261333E+02  0.41800000000E+01 0.  1.
         -5    1    1    2    0  502  0.11418318366E+03 -0.25855925607E+03 -0.12522578673E+03  0.30917577265E+03  0.41800000000E+01 0.  1.
        -11    1    1    2    0    0 -0.21899415421E+02  0.16763927001E+03 -0.11888095328E+03  0.20667653543E+03  0.00000000000E+00 0.  1.
         11    1    1    2    0    0 -0.80266184249E+02  0.82652795257E+02 -0.11870298168E+03  0.16542231638E+03  0.00000000000E+00 0. -1.
</event>
<event>
 6    1  0.8259171E-006  0.2461803E+03  0.7561462E-02  0.1115743E+00
          1   -1    0    0  501    0  0.00000000000E+00  0.00000000000E+00  0.54014985562E+03  0.54014985562E+03  0.00000000000E+00 0. -1.
         -1   -1    0    0    0  501 -0.00000000000E+00 -0.00000000000E+00 -0.12631379414E+03  0.12631379414E+03  0.00000000000E+00 0.  1.
          5    1    1    2  502    0 -0.22285349591E+03  0.43491657980E+02  0.23937740723E+03  0.32996093776E+03  0.41800000000E+01 0.  1.
         -5    1    1    2    0  502 -0.75273436687E+01 -0.33433177267E+02  0.45278807877E+02  0.56939275440E+02  0.41800000000E+01 0.  1.
        -11    1    1    2    0    0  0.38321018950E+02 -0.46745562816E+01 -0.12788475747E+02  0.40668133492E+02  0.00000000000E+00 0.  1.
         11    1    1    2    0    0  0.19205982063E+03 -0.53839244311E+01  0.14196832213E+03  0.23889530307E+03  0.00000000000E+00 0. -1.
</event>
<event>
 6    1  0.8259171E-006  0.1149934E+03  0.7561462E-02  0.1251593E+00
          1   -1    0    0  501    0  0.00000000000E+00  0.00000000000E+00  0.15828542793E+03  0.15828542793E+03  0.00000000000E+00 0. -1.
         -1   -1    0    0    0  501 -0.00000000000E+00 -0.00000000000E+00 -0.15984429267E+03  0.15984429267E+03  0.00000000000E+00 0.  1.
          5    1    1    2  502    0  0.61981231510E+02  0.55088144972E+02  0.11936960581E+01  0.83037787098E+02  0.41800000000E+01 0.  1.
         -5    1    1    2    0  502 -0.20789043690E+02  0.16176823802E+02 -0.83876014969E+02  0.88014386625E+02  0.41800000000E+01 0.  1.
        -11    1    1    2    0    0 -0.30393843059E+02  0.14618622502E+02  0.36485581888E+02  0.49685888393E+02  0.00000000000E+00 0. -1.
         11    1    1    2    0    0 -0.10798344761E+02 -0.85883591277E+02  0.44637872289E+02  0.97391658486E+02  0.00000000000E+00 0.  1.
</event>
<event>
 6    1  0.1434295E-005  0.2936451E+03  0.7561462E-02  0.1088461E+00
         -2   -1    0    0    0  501 -0.00000000000E+00  0.00000000000E+00  0.75960330222E+02  0.75960330222E+02  0.00000000000E+00 0.  1.
          2   -1    0    0  501    0  0.00000000000E+00 -0.00000000000E+00 -0.12184100906E+04  0.12184100906E+04  0.00000000000E+00 0. -1.
          5    1    1    2  502    0  0.18307811028E+02 -0.13068881575E+03 -0.22268793462E+03  0.25888632860E+03  0.41800000000E+01 0.  1.
         -5    1    1    2    0  502 -0.11268036065E+03 -0.13348422883E+03 -0.26157585942E+03  0.31457003299E+03  0.41800000000E+01 0.  1.
        -11    1    1    2    0    0  0.67252981997E+02  0.18863126305E+03 -0.55606265168E+03  0.59102486375E+03  0.00000000000E+00 0. -1.
         11    1    1    2    0    0  0.27119567626E+02  0.75541781536E+02 -0.10212331466E+03  0.12988919549E+03  0.00000000000E+00 0.  1.
</event>
<event>
 6    1  0.8259171E-006  0.2949980E+03  0.7561462E-02  0.1087768E+00
          2   -1    0    0  501    0  0.00000000000E+00  0.00000000000E+00  0.15330383821E+04  0.15330383821E+04  0.00000000000E+00 0. -1.
         -2   -1    0    0    0  501 -0.00000000000E+00 -0.00000000000E+00 -0.10751172516E+03  0.10751172516E+03  0.00000000000E+00 0.  1.
          5    1    1    2  502    0 -0.49141891979E+02 -0.11410342596E+03  0.12172484093E+03  0.17397967313E+03  0.41800000000E+01 0. -1.
         -5    1    1    2    0  502 -0.15010117134E+03 -0.87334565744E+02  0.52969761024E+02  0.18160659678E+03  0.41800000000E+01 0. -1.
        -11    1    1    2    0    0  0.18917553032E+03  0.15529850226E+03  0.11004989837E+04  0.11273876970E+04  0.00000000000E+00 0. -1.
         11    1    1    2    0    0  0.10067532999E+02  0.46139489447E+02  0.15033307126E+03  0.15757614039E+03  0.00000000000E+00 0.  1.
</event>
<event>
 6    1  0.8259171E-006  0.1556427E+03  0.7561462E-02  0.1193706E+00
          2   -1    0    0  501    0  0.00000000000E+00  0.00000000000E+00  0.38423989702E+02  0.38423989702E+02  0.00000000000E+00 0. -1.
         -2   -1    0    0    0  501 -0.00000000000E+00 -0.00000000000E+00 -0.72125168258E+03  0.72125168258E+03  0.00000000000E+00 0.  1.
          5    1    1    2  502    0  0.43964663832E+02 -0.32103637283E+02 -0.12309593313E+03  0.13466111668E+03  0.41800000000E+01 0. -1.
         -5    1    1    2    0  502  0.47316891715E+02  0.10480695839E+03 -0.34846456706E+03  0.36697195215E+03  0.41800000000E+01 0. -1.
        -11    1    1    2    0    0 -0.61803930671E+02  0.14494058949E+01 -0.55740723804E+02  0.83239743597E+02  0.00000000000E+00 0.  1.
         11    1    1    2    0    0 -0.29477624877E+02 -0.74152727002E+02 -0.15552646889E+03  0.17480285986E+03  0.00000000000E+00 0. -1.
</event>
<event>
 6    1  0.8259171E-006  0.1163438E+03  0.7561462E-02  0.1249253E+00
         -2   -1    0    0    0  501 -0.00000000000E+00  0.00000000000E+00  0.15189636532E+02  0.15189636532E+02  0.00000000000E+00 0.  1.
          2   -1    0    0  501    0  0.00000000000E+00 -0.00000000000E+00 -0.99560854694E+03  0.99560854694E+03  0.00000000000E+00 0. -1.
          5    1    1    2  502    0  0.52837630315E+01 -0.88642578037E+02 -0.27453911666E+03  0.28857342873E+03  0.41800000000E+01 0. -1.
         -5    1    1    2    0  502  0.15798673148E+02  0.33522389980E+02 -0.30349289550E+03  0.30577566731E+03  0.41800000000E+01 0. -1.
        -11    1    1    2    0    0  0.10901536588E+02  0.70266150496E+02 -0.29174462400E+03  0.30028503299E+03  0.00000000000E+00 0. -1.
         11    1    1    2    0    0 -0.31983972767E+02 -0.15145962439E+02 -0.11064227425E+03  0.11616405444E+03  0.00000000000E+00 0.  1.
</event>
<event>
 6    1  0.8259171E-006  0.5269990E+02  0.7561462E-02  0.1431300E+00
         -3   -1    0    0    0  501 -0.00000000000E+00  0.00000000000E+00  0.37487340921E+03  0.37487340921E+03  0.00000000000E+00 0.  1.
          3   -1    0    0  501    0  0.00000000000E+00 -0.00000000000E+00 -0.33757309562E+02  0.33757309562E+02  0.00000000000E+00 0. -1.
          5    1    1    2  502    0  0.66694624291E+01 -0.49946910487E+01 -0.16253373899E+02  0.18736948281E+02  0.41800000000E+01 0.  1.
         -5    1    1    2    0  502  0.54712890982E+01 -0.22340314712E+02  0.22667729402E+03  0.22787955742E+03  0.41800000000E+01 0.  1.
        -11    1    1    2    0    0 -0.31046638103E+02  0.39483458084E+02  0.13018222601E+03  0.13953583471E+03  0.00000000000E+00 0.  1.
         11    1    1    2    0    0  0.18905886575E+02 -0.12148452323E+02  0.50995351673E+00  0.22478378359E+02  0.00000000000E+00 0. -1.
</event>
<event>
 6    1  0.8259171E-006  0.2192712E+03  0.7561462E-02  0.1134428E+00
         -1   -1    0    0    0  501 -0.00000000000E+00  0.00000000000E+00  0.28556760554E+03  0.28556760554E+03  0.00000000000E+00 0.  1.
          1   -1    0    0  501    0  0.00000000000E+00 -0.00000000000E+00 -0.17903228981E+03  0.17903228981E+03  0.00000000000E+00 0. -1.
          5    1    1    2  502    0  0.18244829074E+02  0.93054937126E+02  0.71613482480E+02  0.11890356758E+03  0.41800000000E+01 0.  1.
         -5    1    1    2    0  502 -0.90536894621E+02  0.87940140464E+02  0.10149422960E+02  0.12669207070E+03  0.41800000000E+01 0.  1.
        -11    1    1    2    0    0  0.12954808599E+02 -0.14969050086E+03  0.12169001271E+02  0.15074202369E+03  0.00000000000E+00 0.  1.
         11    1    1    2    0    0  0.59337256949E+02 -0.31304576733E+02  0.12603409017E+02  0.68262233376E+02  0.00000000000E+00 0. -1.
</event>
<event>
 6    1  0.8259171E-006  0.1149480E+03  0.7561462E-02  0.1251672E+00
          1   -1    0    0  501    0  0.00000000000E+00  0.00000000000E+00  0.70317139771E+02  0.70317139771E+02  0.00000000000E+00 0. -1.
         -1   -1    0    0    0  501 -0.00000000000E+00 -0.00000000000E+00 -0.22806904628E+03  0.22806904628E+03  0.00000000000E+00 0.  1.
          5    1    1    2  502    0 -0.36774214904E+02 -0.22178940763E+01 -0.72142577369E+02  0.81112796804E+02  0.41800000000E+01 0. -1.
         -5    1    1    2    0  502  0.88736091125E+02 -0.15565669914E+02 -0.55774533461E+02  0.10604081729E+03  0.41800000000E+01 0. -1.
        -11    1    1    2    0    0 -0.31419755602E+02  0.53143528744E+02 -0.33384100240E+02  0.70184997246E+02  0.00000000000E+00 0.  1.
         11    1    1    2    0    0 -0.20542120619E+02 -0.35359964754E+02  0.35493045632E+01  0.41047574713E+02  0.00000000000E+00 0. -1.
</event>
<event>
 6    1  0.8259171E-006  0.1462642E+03  0.7561462E-02  0.1205140E+00
         -2   -1    0    0    0  501 -0.00000000000E+00  0.00000000000E+00  0.48411777666E+03  0.48411777666E+03  0.00000000000E+00 0.  1.
          2   -1    0    0  501    0  0.00000000000E+00 -0.00000000000E+00 -0.64609751656E+02  0.64609751656E+02  0.00000000000E+00 0. -1.
          5    1    1    2  502    0 -0.24420450896E+02 -0.38467165037E+00 -0.98795462056E+01  0.26675536123E+02  0.41800000000E+01 0.  1.
         -5    1    1    2    0  502 -0.63364785731E+02 -0.10783793578E+03  0.23414892307E+03  0.26549445764E+03  0.41800000000E+01 0.  1.
        -11    1    1    2    0    0  0.37743349745E+02  0.70387565852E+02  0.17203160478E+03  0.18966771713E+03  0.00000000000E+00 0.  1.
         11    1    1    2    0    0  0.50041886882E+02  0.37835041574E+02  0.23207043359E+02  0.66889817425E+02  0.00000000000E+00 0. -1.
</event>
<event>
 6    1  0.8259171E-006  0.9922882E+02  0.7561462E-02  0.1281926E+00
          2   -1    0    0  501    0  0.00000000000E+00  0.00000000000E+00  0.56832081603E+03  0.56832081603E+03  0.00000000000E+00 0. -1.
         -2   -1    0    0    0  501 -0.00000000000E+00 -0.00000000000E+00 -0.23728786384E+02  0.23728786384E+02  0.00000000000E+00 0.  1.
          5    1    1    2  502    0 -0.86952285332E+01  0.36311355217E+02  0.17189956817E+03  0.17595753879E+03  0.41800000000E+01 0. -1.
         -5    1    1    2    0  502  0.20535006071E+02 -0.76310702564E+02  0.11272389019E+03  0.13772856501E+03  0.41800000000E+01 0. -1.
        -11    1    1    2    0    0  0.28277762708E+02  0.54319431414E+01  0.27072946542E+02  0.39523186923E+02  0.00000000000E+00 0.  1.
         11    1    1    2    0    0 -0.40117540246E+02  0.34567404206E+02  0.23289562474E+03  0.23884031169E+03  0.00000000000E+00 0. -1.
</event>
<event>
 6    1  0.8259171E-006  0.6293496E+02  0.7561462E-02  0.1385912E+00
          1   -1    0    0  501    0  0.00000000000E+00  0.00000000000E+00  0.41783467299E+03  0.41783467299E+03  0.00000000000E+00 0. -1.
         -1   -1    0    0    0  501 -0.00000000000E+00 -0.00000000000E+00 -0.29556549111E+02  0.29556549111E+02  0.00000000000E+00 0.  1.
          5    1    1    2  502    0 -0.10022135180E+02 -0.47385008290E+01  0.21761178743E+03  0.21793407033E+03  0.41800000000E+01 0. -1.
         -5    1    1    2    0  502  0.27048597980E+02  0.17828234189E+02 -0.18289717774E+01  0.32715288853E+02  0.41800000000E+01 0. -1.
        -11    1    1    2    0    0 -0.14105766503E+01  0.32827647923E+02  0.12351952733E+03  0.12781517056E+03  0.00000000000E+00 0. -1.
         11    1    1    2    0    0 -0.15615886150E+02 -0.45917381283E+02  0.48975780901E+02  0.68926692355E+02  0.00000000000E+00 0.  1.
</event>
<event>
 6    1  0.8259171E-006  0.1591963E+03  0.7561462E-02  0.1189607E+00
         -2   -1    0    0    0  501 -0.00000000000E+00  0.00000000000E+00  0.83559155273E+02  0.83559155273E+02  0.00000000000E+00 0.  1.
          2   -1    0    0  501    0  0.00000000000E+00 -0.00000000000E+00 -0.34241515281E+03  0.34241515281E+03  0.00000000000E+00 0. -1.
          5    1    1    2  502    0 -0.46306003618E+02 -0.17365325244E+02 -0.52111604142E+02  0.71964520273E+02  0.41800000000E+01 0.  1.
         -5    1    1    2    0  502 -0.26339719558E+02  0.12321487675E+03 -0.61649218035E+02  0.14033454729E+03  0.41800000000E+01 0.  1.
        -11    1    1    2    0    0  0.36869981673E+02 -0.69468014945E+01 -0.40541660371E+01  0.37737115177E+02  0.00000000000E+00 0.  1.
         11    1    1    2    0    0  0.35775741503E+02 -0.98902750009E+02 -0.14104100932E+03  0.17593812535E+03  0.00000000000E+00 0. -1.
</event>
<event>
 6    1  0.8259171E-006  0.1065178E+03  0.7561462E-02  0.1267158E+00
         -2   -1    0    0    0  501 -0.00000000000E+00  0.00000000000E+00  0.62632736855E+02  0.62632736855E+02  0.00000000000E+00 0.  1.
          2   -1    0    0  501    0  0.00000000000E+00 -0.00000000000E+00 -0.20855007805E+03  0.20855007805E+03  0.00000000000E+00 0. -1.
          5    1    1    2  502    0 -0.62965365897E+01 -0.53303459366E+02  0.11159553344E+01  0.53848146762E+02  0.41800000000E+01 0. -1.
         -5    1    1    2    0  502  0.96121851156E+01  0.63186519584E+02 -0.48432712397E+02  0.80300251494E+02  0.41800000000E+01 0. -1.
        -11    1    1    2    0    0  0.54215252571E+01 -0.51925809393E+02 -0.52857678866E+02  0.74294123808E+02  0.00000000000E+00 0.  1.
         11    1    1    2    0    0 -0.87371737830E+01  0.42042749174E+02 -0.45742905267E+02  0.62740292844E+02  0.00000000000E+00 0. -1.
</event>
<event>
 6    1  0.8259171E-006  0.1182199E+03  0.7561462E-02  0.1246063E+00
          2   -1    0    0  501    0  0.00000000000E+00  0.00000000000E+00  0.45667631856E+03  0.45667631856E+03  0.00000000000E+00 0.  1.
         -2   -1    0    0    0  501 -0.00000000000E+00 -0.00000000000E+00 -0.67845335602E+02  0.67845335602E+02  0.00000000000E+00 0. -1.
          5    1    1    2  502    0 -0.45705639060E+02 -0.14219739656E+02 -0.32425978011E+02  0.57966566982E+02  0.41800000000E+01 0. -1.
         -5    1    1    2    0  502 -0.12026001834E+02 -0.61780022280E+02  0.89311570800E+02  0.10934086588E+03  0.41800000000E+01 0. -1.
        -11    1    1    2    0    0 -0.17257147313E+02  0.36915327971E+02  0.60836719687E+02  0.73223336682E+02  0.00000000000E+00 0. -1.
         11    1    1    2    0    0  0.74988788206E+02  0.39084433966E+02  0.27110867049E+03  0.28399088462E+03  0.00000000000E+00 0.  1.
</event>
<event>
 6    1  0.8259171E-006  0.1083248E+03  0.7561462E-02  0.1263704E+00
         -2   -1    0    0    0  501 -0.00000000000E+00  0.00000000000E+00  0.20101817781E+03  0.20101817781E+03  0.00000000000E+00 0. -1.
          2   -1    0    0  501    0  0.00000000000E+00 -0.00000000000E+00 -0.76985381216E+02  0.76985381216E+02  0.00000000000E+00 0.  1.
          5    1    1    2  502    0 -0.46630752397E+01 -0.53779297015E+02 -0.16420502235E+02  0.56577931668E+02  0.41800000000E+01 0.  1.
         -5    1    1    2    0  502  0.54956982557E+02  0.20316896817E+02  0.72292642287E+02  0.93149045926E+02  0.41800000000E+01 0.  1.
        -11    1    1    2    0    0 -0.37109661214E+02 -0.24405026073E+02  0.10739502824E+02  0.45695395545E+02  0.00000000000E+00 0.  1.
         11    1    1    2    0    0 -0.13184246104E+02  0.57867426272E+02  0.57421153721E+02  0.82581185892E+02  0.00000000000E+00 0. -1.
</event>
<event>
 6    1  0.8259171E-006  0.9003063E+02  0.7561462E-02  0.1302778E+00
          1   -1    0    0  501    0  0.00000000000E+00  0.00000000000E+00  0.18858273922E+03  0.18858273922E+03  0.00000000000E+00 0. -1.
         -1   -1    0    0    0  501 -0.00000000000E+00 -0.00000000000E+00 -0.92075239441E+02  0.92075239441E+02  0.00000000000E+00 0.  1.
          5    1    1    2  502    0  0.23426941009E+02 -0.49699192274E+02  0.55069147450E+02  0.77903239204E+02  0.41800000000E+01 0.  1.
         -5    1    1    2    0  502 -0.49287139363E+02 -0.10440195586E+02 -0.39495162293E+02  0.64152630772E+02  0.41800000000E+01 0.  1.
        -11    1    1    2    0    0 -0.66937685148E+01  0.27511744294E+02  0.87572424548E+02  0.92036037248E+02  0.00000000000E+00 0. -1.
         11    1    1    2    0    0  0.32553966869E+02  0.32627643566E+02 -0.66389099303E+01  0.46566071432E+02  0.00000000000E+00 0.  1.
</event>
<event>
 6    1  0.8259171E-006  0.1101001E+03  0.7561462E-02  0.1260385E+00
          2   -1    0    0  501    0  0.00000000000E+00  0.00000000000E+00  0.13875545274E+03  0.13875545274E+03  0.00000000000E+00 0. -1.
         -2   -1    0    0    0  501 -0.00000000000E+00 -0.00000000000E+00 -0.10183770348E+03  0.10183770348E+03  0.00000000000E+00 0.  1.
          5    1    1    2  502    0  0.60524437283E+02  0.47586796515E+01  0.13103425544E+02  0.62249696396E+02  0.41800000000E+01 0. -1.
         -5    1    1    2    0  502 -0.58665616222E+02  0.42538851701E+02  0.55861299407E+01  0.72800313725E+02  0.41800000000E+01 0. -1.
        -11    1    1    2    0    0  0.30615995296E+02 -0.44702032011E+02 -0.17742478682E+02  0.57012335364E+02  0.00000000000E+00 0.  1.
         11    1    1    2    0    0 -0.32474816357E+02 -0.25954993416E+01  0.35970672457E+02  0.48530810742E+02  0.00000000000E+00 0. -1.
</event>
<event>
 6    1  0.8259171E-006  0.1496300E+03  0.7561462E-02  0.1200928E+00
         -2   -1    0    0    0  501 -0.00000000000E+00  0.00000000000E+00  0.10967370457E+03  0.10967370457E+03  0.00000000000E+00 0.  1.
          2   -1    0    0  501    0  0.00000000000E+00 -0.00000000000E+00 -0.34641700679E+03  0.34641700679E+03  0.00000000000E+00 0. -1.
          5    1    1    2  502    0  0.66609488126E+02  0.39672046656E+02  0.30958665371E+02  0.83585923192E+02  0.41800000000E+01 0.  1.
         -5    1    1    2    0  502 -0.44242720615E+02  0.69332854268E+02 -0.18146407972E+02  0.84328094551E+02  0.41800000000E+01 0.  1.
        -11    1    1    2    0    0 -0.81880935394E+01 -0.12064444884E+03 -0.18458942993E+03  0.22067030964E+03  0.00000000000E+00 0.  1.
         11    1    1    2    0    0 -0.14178673972E+02  0.11639547921E+02 -0.64966129685E+02  0.67506383977E+02  0.00000000000E+00 0. -1.
</event>
<event>
 6    1  0.8259171E-006  0.1087080E+03  0.7561462E-02  0.1262981E+00
          1   -1    0    0  501    0  0.00000000000E+00  0.00000000000E+00  0.41844369203E+02  0.41844369203E+02  0.00000000000E+00 0. -1.
         -1   -1    0    0    0  501 -0.00000000000E+00 -0.00000000000E+00 -0.44669818841E+03  0.44669818841E+03  0.00000000000E+00 0.  1.
          5    1    1    2  502    0 -0.25919941215E+02  0.73451998181E+02 -0.56451815775E+02  0.96287690250E+02  0.41800000000E+01 0. -1.
         -5    1    1    2    0  502 -0.18867292363E+02 -0.58539766928E+01 -0.19492084785E+03  0.19596390762E+03  0.41800000000E+01 0. -1.
        -11    1    1    2    0    0  0.66368127642E+02 -0.24000740607E+02 -0.11189344992E+03  0.13229099762E+03  0.00000000000E+00 0.  1.
         11    1    1    2    0    0 -0.21580894064E+02 -0.43597280882E+02 -0.41587705657E+02  0.63999962115E+02  0.00000000000E+00 0. -1.
</event>
<event>
 6    1  0.8944828E-006  0.1324726E+03  0.7561462E-02  0.1223832E+00
         -2   -1    0    0    0  501 -0.00000000000E+00  0.00000000000E+00  0.20287925029E+02  0.20287925029E+02  0.00000000000E+00 0.  1.
          2   -1    0    0  501    0  0.00000000000E+00 -0.00000000000E+00 -0.90426238724E+03  0.90426238724E+03  0.00000000000E+00 0. -1.
          5    1    1    2  502    0  0.10843146681E+03 -0.64755999667E+01 -0.28375488845E+03  0.30386448543E+03  0.41800000000E+01 0.  1.
         -5    1    1    2    0  502 -0.31384142963E+02 -0.12107492950E+02 -0.17320509728E+03  0.17649088911E+03  0.41800000000E+01 0.  1.
        -11    1    1    2    0    0 -0.19274678703E+02  0.52100403102E+02 -0.19373431290E+03  0.20154143305E+03  0.00000000000E+00 0. -1.
         11    1    1    2    0    0 -0.57772645142E+02 -0.33517310186E+02 -0.23328016359E+03  0.24265350468E+03  0.00000000000E+00 0.  1.
</event>
<event>
 6    1  0.8259171E-006  0.8558546E+02  0.7561462E-02  0.1313909E+00
          2   -1    0    0  501    0  0.00000000000E+00  0.00000000000E+00  0.71324269412E+02  0.71324269412E+02  0.00000000000E+00 0. -1.
         -2   -1    0    0    0  501 -0.00000000000E+00 -0.00000000000E+00 -0.16831013383E+03  0.16831013383E+03  0.00000000000E+00 0.  1.
          5    1    1    2  502    0 -0.14612451299E+02 -0.33892234369E+02  0.17614954044E+02  0.41109199572E+02  0.41800000000E+01 0.  1.
         -5    1    1    2    0  502  0.83891049506E+01  0.53298452624E+02 -0.89510146914E+02  0.10459751878E+03  0.41800000000E+01 0.  1.
        -11    1    1    2    0    0  0.27546562176E+02 -0.41109285877E+02  0.66848072064E+01  0.49934688548E+02  0.00000000000E+00 0. -1.
         11    1    1    2    0    0 -0.21323215827E+02  0.21703067622E+02 -0.31775478758E+02  0.43992996348E+02  0.00000000000E+00 0.  1.
</event>
<event>
 6    1  0.8259171E-006  0.1676629E+03  0.7561462E-02  0.1180307E+00
         -2   -1    0    0    0  501 -0.00000000000E+00  0.00000000000E+00  0.81139246937E+02  0.81139246937E+02  0.00000000000E+00 0.  1.
          2   -1    0    0  501    0  0.00000000000E+00 -0.00000000000E+00 -0.43651358307E+03  0.43651358307E+03  0.00000000000E+00 0. -1.
          5    1    1    2  502    0  0.18841901837E+01 -0.33595470095E+02 -0.65018865616E+02  0.73328923827E+02  0.41800000000E+01 0. -1.
         -5    1    1    2    0  502 -0.14134777009E+03 -0.37182111804E+01 -0.52146597656E+02  0.15076391230E+03  0.41800000000E+01 0. -1.
        -11    1    1    2    0    0  0.77558068652E+02  0.55579292572E+02 -0.19128334250E+03  0.21376068135E+03  0.00000000000E+00 0. -1.
         11    1    1    2    0    0  0.61905511256E+02 -0.18265611296E+02 -0.46925530360E+02  0.79799312525E+02  0.00000000000E+00 0.  1.
</event>
<event>
 6    1  0.8259171E-006  0.2411295E+03  0.7561462E-02  0.1119043E+00
         -1   -1    0    0    0  501 -0.00000000000E+00  0.00000000000E+00  0.58816165739E+02  0.58816165739E+02  0.00000000000E+00 0. -1.
          1   -1    0    0  501    0  0.00000000000E+00 -0.00000000000E+00 -0.10559318678E+04  0.10559318678E+04  0.00000000000E+00 0.  1.
          5    1    1    2  502    0 -0.46730588229E+02 -0.74073608154E+02 -0.14356316027E+03  0.16822158211E+03  0.41800000000E+01 0. -1.
         -5    1    1    2    0  502  0.81691351637E+02 -0.14608079980E+03 -0.31959663991E+03  0.36079434813E+03  0.41800000000E+01 0. -1.
        -11    1    1    2    0    0 -0.45249435890E+02  0.16755117934E+03 -0.47666273689E+03  0.50727534326E+03  0.00000000000E+00 0. -1.
         11    1    1    2    0    0  0.10288672482E+02  0.52603228611E+02 -0.57293165030E+02  0.78456760071E+02  0.00000000000E+00 0.  1.
</event>
<event>
 6    1  0.8259171E-006  0.1088817E+03  0.7561462E-02  0.1262655E+00
         -2   -1    0    0    0  501 -0.00000000000E+00  0.00000000000E+00  0.54791603724E+02  0.54791603724E+02  0.00000000000E+00 0.  1.
          2   -1    0    0  501    0  0.00000000000E+00 -0.00000000000E+00 -0.25334185756E+03  0.25334185756E+03  0.00000000000E+00 0. -1.
          5    1    1    2  502    0  0.15556151116E+02  0.60829919654E+02 -0.41947803249E+02  0.75626473937E+02  0.41800000000E+01 0.  1.
         -5    1    1    2    0  502 -0.40173447223E+02 -0.48753320479E+02 -0.18329780043E+02  0.65910889509E+02  0.41800000000E+01 0.  1.
        -11    1    1    2    0    0 -0.30412371083E+02  0.10316579831E+02 -0.62894005685E+02  0.70618695014E+02  0.00000000000E+00 0.  1.
         11    1    1    2    0    0  0.55029667191E+02 -0.22393179007E+02 -0.75378664862E+02  0.95977402828E+02  0.00000000000E+00 0. -1.
</event>
<event>
 6    1  0.8259171E-006  0.1619543E+03  0.7561462E-02  0.1186508E+00
         -2   -1    0    0    0  501 -0.00000000000E+00  0.00000000000E+00  0.16732911041E+03  0.16732911041E+03  0.00000000000E+00 0. -1.
          2   -1    0    0  501    0  0.00000000000E+00 -0.00000000000E+00 -0.21443092440E+03  0.21443092440E+03  0.00000000000E+00 0.  1.
          5    1    1    2  502    0  0.47993259851E+02 -0.32135667827E+02 -0.25336058729E+02  0.63209512019E+02  0.41800000000E+01 0.  1.
         -5    1    1    2    0  502 -0.24105258443E+02 -0.10302213437E+03  0.72682974369E+02  0.12843251464E+03  0.41800000000E+01 0.  1.
        -11    1    1    2    0    0 -0.35784098614E+02  0.14085619657E+02 -0.43946264673E+02  0.58396751395E+02  0.00000000000E+00 0. -1.
         11    1    1    2    0    0  0.11896097207E+02  0.12107218254E+03 -0.50502464959E+02  0.13172125675E+03  0.00000000000E+00 0.  1.
</event>
<event>
 6    1  0.8259171E-006  0.1029361E+03  0.7561462E-02  0.1274240E+00
         -1   -1    0    0    0  501 -0.00000000000E+00  0.00000000000E+00  0.23405602915E+03  0.23405602915E+03  0.00000000000E+00 0.  1.
          1   -1    0    0  501    0  0.00000000000E+00 -0.00000000000E+00 -0.56156599170E+02  0.56156599170E+02  0.00000000000E+00 0. -1.
          5    1    1    2  502    0 -0.55571095958E+02 -0.27745004271E+02  0.14578346813E+02  0.63936942089E+02  0.41800000000E+01 0.  1.
         -5    1    1    2    0  502  0.24234444618E+02  0.38100181703E+02  0.96306005660E+02  0.10644835028E+03  0.41800000000E+01 0.  1.
        -11    1    1    2    0    0 -0.17853111892E+02  0.29823212994E+02  0.15541490204E+02  0.38074867764E+02  0.00000000000E+00 0. -1.
         11    1    1    2    0    0  0.49189763231E+02 -0.40178390426E+02  0.51473587299E+02  0.81752468179E+02  0.00000000000E+00 0.  1.
</event>
<event>
 6    1  0.8259171E-006  0.1417373E+03  0.7561462E-02  0.1211010E+00
         -2   -1    0    0    0  501 -0.00000000000E+00  0.00000000000E+00  0.48872911355E+02  0.48872911355E+02  0.00000000000E+00 0.  1.
          2   -1    0    0  501    0  0.00000000000E+00 -0.00000000000E+00 -0.52396048474E+03  0.52396048474E+03  0.00000000000E+00 0. -1.
          5    1    1    2  502    0  0.11571592499E+02 -0.41838303095E+02 -0.42355918128E+02  0.60793433522E+02  0.41800000000E+01 0.  1.
         -5    1    1    2    0  502 -0.12343473474E+03  0.17833329563E+02 -0.17177687371E+03  0.21231798823E+03  0.41800000000E+01 0.  1.
        -11    1    1    2    0    0  0.45336089119E+02  0.35367800129E+01 -0.21395620560E+02  0.50255769505E+02  0.00000000000E+00 0.  1.
         11    1    1    2    0    0  0.66527053126E+02  0.20468193519E+02 -0.23955916099E+03  0.24946620484E+03  0.00000000000E+00 0. -1.
</event>
<event>
 6    1  0.8259171E-006  0.9325659E+02  0.7561462E-02  0.1295152E+00
          2   -1    0    0  501    0  0.00000000000E+00  0.00000000000E+00  0.10789423045E+03  0.10789423045E+03  0.00000000000E+00 0. -1.
         -2   -1    0    0    0  501 -0.00000000000E+00 -0.00000000000E+00 -0.21078153839E+03  0.21078153839E+03  0.00000000000E+00 0.  1.
          5    1    1    2  502    0  0.39184067462E+02  0.23521611836E+01 -0.22721469695E+02  0.45548451019E+02  0.41800000000E+01 0. -1.
         -5    1    1    2    0  502 -0.70588020378E+02 -0.11575568504E+02 -0.14204786408E+03  0.15909660743E+03  0.41800000000E+01 0.  1.
        -11    1    1    2    0    0  0.24914133133E+02  0.38245661335E+02  0.30206370445E+00  0.45645765228E+02  0.00000000000E+00 0.  1.
         11    1    1    2    0    0  0.64898197823E+01 -0.29022254015E+02  0.61579962129E+02  0.68384945162E+02  0.00000000000E+00 0. -1.
</event>
<event>
 6    1  0.8259171E-006  0.8004644E+02  0.7561462E-02  0.1328920E+00
          1   -1    0    0  501    0  0.00000000000E+00  0.00000000000E+00  0.11247347356E+03  0.11247347356E+03  0.00000000000E+00 0. -1.
         -1   -1    0    0    0  501 -0.00000000000E+00 -0.00000000000E+00 -0.10676107287E+03  0.10676107287E+03  0.00000000000E+00 0.  1.
          5    1    1    2  502    0 -0.24387805623E+02  0.40060615494E+02 -0.51437451586E+02  0.69734509409E+02  0.41800000000E+01 0. -1.
         -5    1    1    2    0  502  0.20407740821E+02 -0.27176213062E+02  0.44642379264E+02  0.56262215280E+02  0.41800000000E+01 0. -1.
        -11    1    1    2    0    0 -0.36673810415E+02 -0.99810236502E+01 -0.18264458494E+02  0.42168467455E+02  0.00000000000E+00 0.  1.
         11    1    1    2    0    0  0.40653875217E+02 -0.29033787811E+01  0.30771931503E+02  0.51069354284E+02  0.00000000000E+00 0. -1.
</event>
<event>
 6    1  0.8259171E-006  0.1462693E+03  0.7561462E-02  0.1205134E+00
          1   -1    0    0  501    0  0.00000000000E+00  0.00000000000E+00  0.58825789989E+03  0.58825789989E+03  0.00000000000E+00 0. -1.
         -1   -1    0    0    0  501 -0.00000000000E+00 -0.00000000000E+00 -0.48061483841E+02  0.48061483841E+02  0.00000000000E+00 0.  1.
          5    1    1    2  502    0 -0.54358177957E+02 -0.13044442168E+02  0.32149574481E+02  0.64622260263E+02  0.41800000000E+01 0.  1.
         -5    1    1    2    0  502 -0.57337315459E+02  0.65690323650E+02  0.27732587617E+03  0.29074026271E+03  0.41800000000E+01 0.  1.
        -11    1    1    2    0    0  0.10947851819E+03 -0.13876711053E+02  0.20929340705E+03  0.23660481671E+03  0.00000000000E+00 0.  1.
         11    1    1    2    0    0  0.22169752247E+01 -0.38769170429E+02  0.21427558347E+02  0.44352044052E+02  0.00000000000E+00 0. -1.
</event>
<event>
 6    1  0.8259171E-006  0.2764265E+03  0.7561462E-02  0.1097657E+00
          1   -1    0    0  501    0  0.00000000000E+00  0.00000000000E+00  0.48121457115E+03  0.48121457115E+03  0.00000000000E+00 0. -1.
         -1   -1    0    0    0  501 -0.00000000000E+00 -0.00000000000E+00 -0.20894143333E+03  0.20894143333E+03  0.00000000000E+00 0.  1.
          5    1    1    2  502    0 -0.43456942741E+02  0.11001273842E+02  0.41147992801E+02  0.60993143960E+02  0.41800000000E+01 0.  1.
         -5    1    1    2    0  502 -0.21272056377E+03 -0.10073784517E+03 -0.34722525827E+02  0.23795225970E+03  0.41800000000E+01 0.  1.
        -11    1    1    2    0    0  0.11653422146E+03  0.53064509013E+02  0.64296610368E+02  0.14328335909E+03  0.00000000000E+00 0.  1.
         11    1    1    2    0    0  0.13964328505E+03  0.36672062316E+02  0.20155106047E+03  0.24792724173E+03  0.00000000000E+00 0. -1.
</event>
<event>
 6    1  0.8259171E-006  0.1226488E+03  0.7561462E-02  0.1238790E+00
          1   -1    0    0  501    0  0.00000000000E+00  0.00000000000E+00  0.25332326751E+03  0.25332326751E+03  0.00000000000E+00 0. -1.
         -1   -1    0    0    0  501 -0.00000000000E+00 -0.00000000000E+00 -0.62114238627E+02  0.62114238627E+02  0.00000000000E+00 0.  1.
          5    1    1    2  502    0 -0.17509910485E+02  0.36888344560E+02  0.38538807460E+02  0.56303277081E+02  0.41800000000E+01 0. -1.
         -5    1    1    2    0  502  0.25463338662E+02 -0.92544060523E+02  0.94501009359E+02  0.13476163372E+03  0.41800000000E+01 0. -1.
        -11    1    1    2    0    0 -0.30012766619E+02  0.73764640974E+02  0.52185051485E+02  0.95211701049E+02  0.00000000000E+00 0. -1.
         11    1    1    2    0    0  0.22059338441E+02 -0.18108925011E+02  0.59841605763E+01  0.29160894282E+02  0.00000000000E+00 0.  1.
</event>
<event>
 6    1  0.8259171E-006  0.1368438E+03  0.7561462E-02  0.1217640E+00
         -2   -1    0    0    0  501 -0.00000000000E+00  0.00000000000E+00  0.29957891944E+03  0.29957891944E+03  0.00000000000E+00 0. -1.
          2   -1    0    0  501    0  0.00000000000E+00 -0.00000000000E+00 -0.90597784137E+02  0.90597784137E+02  0.00000000000E+00 0.  1.
          5    1    1    2  502    0  0.44747003032E+02 -0.87698910212E+02  0.90452574907E+02  0.13376297634E+03  0.41800000000E+01 0.  1.
         -5    1    1    2    0  502 -0.51759111412E+02 -0.86498511909E+01  0.10618749175E+03  0.11852038367E+03  0.41800000000E+01 0.  1.
        -11    1    1    2    0    0  0.40294628299E+02  0.38329057714E+02 -0.25348862231E+02  0.61117416106E+02  0.00000000000E+00 0.  1.
         11    1    1    2    0    0 -0.33282519919E+02  0.58019703689E+02  0.37689930876E+02  0.76775927463E+02  0.00000000000E+00 0. -1.
</event>
<event>
 6    1  0.8259171E-006  0.6445731E+02  0.7561462E-02  0.1380025E+00
          2   -1    0    0  501    0  0.00000000000E+00  0.00000000000E+00  0.42374959460E+03  0.42374959460E+03  0.00000000000E+00 0. -1.
         -2   -1    0    0    0  501 -0.00000000000E+00 -0.00000000000E+00 -0.32048285109E+02  0.32048285109E+02  0.00000000000E+00 0.  1.
          5    1    1    2  502    0  0.13586950237E+01 -0.44300053521E+01  0.19703503115E+03  0.19713382993E+03  0.41800000000E+01 0.  1.
         -5    1    1    2    0  502 -0.20701951177E+02 -0.40386098809E+01 -0.13932828063E+02  0.25621811999E+02  0.41800000000E+01 0.  1.
        -11    1    1    2    0    0  0.60003637200E+02  0.23142722392E+01  0.96717922965E+02  0.11384264999E+03  0.00000000000E+00 0.  1.
         11    1    1    2    0    0 -0.40660381046E+02  0.61543429938E+01  0.11188118343E+03  0.11919958780E+03  0.00000000000E+00 0. -1.
</event>
<event>
 6    1  0.8259171E-006  0.1239663E+03  0.7561462E-02  0.1236694E+00
          1   -1    0    0  501    0  0.00000000000E+00  0.00000000000E+00  0.89758321577E+02  0.89758321577E+02  0.00000000000E+00 0. -1.
         -1   -1    0    0    0  501 -0.00000000000E+00 -0.00000000000E+00 -0.23932151264E+03  0.23932151264E+03  0.00000000000E+00 0.  1.
          5    1    1    2  502    0 -0.40939550855E+02 -0.89279328933E+02 -0.14240164034E+03  0.17303914288E+03  0.41800000000E+01 0. -1.
         -5    1    1    2    0  502 -0.15440143080E+02  0.23481885287E+02  0.84962986424E+01  0.29655630926E+02  0.41800000000E+01 0. -1.
        -11    1    1    2    0    0  0.77362732505E+02  0.63534775295E+02 -0.25188038961E+02  0.10322837478E+03  0.00000000000E+00 0.  1.
         11    1    1    2    0    0 -0.20983038570E+02  0.22626683502E+01  0.95301895941E+01  0.23156685631E+02  0.00000000000E+00 0. -1.
</event>
<event>
 6    1  0.8259171E-006  0.1067378E+03  0.7561462E-02  0.1266733E+00
         -4   -1    0    0    0  501 -0.00000000000E+00  0.00000000000E+00  0.52408541082E+03  0.52408541082E+03  0.00000000000E+00 0.  1.
          4   -1    0    0  501    0  0.00000000000E+00 -0.00000000000E+00 -0.50820634124E+02  0.50820634124E+02  0.00000000000E+00 0. -1.
          5    1    1    2  502    0 -0.73789227772E+01  0.34325926271E+02  0.19245493234E+03  0.19567598498E+03  0.41800000000E+01 0. -1.
         -5    1    1    2    0  502  0.74203948514E+02 -0.68442944389E+02  0.22874816704E+03  0.25006770870E+03  0.41800000000E+01 0. -1.
        -11    1    1    2    0    0 -0.23915303902E+02  0.30549291316E+01  0.69364825886E+02  0.73435369019E+02  0.00000000000E+00 0.  1.
         11    1    1    2    0    0 -0.42909721834E+02  0.31062088987E+02 -0.17303148565E+02  0.55726982247E+02  0.00000000000E+00 0. -1.
</event>
<event>
 6    1  0.8259171E-006  0.1039627E+03  0.7561462E-02  0.1272177E+00
         -1   -1    0    0    0  501 -0.00000000000E+00  0.00000000000E+00  0.22101327096E+02  0.22101327096E+02  0.00000000000E+00 0.  1.
          1   -1    0    0  501    0  0.00000000000E+00 -0.00000000000E+00 -0.85087126302E+03  0.85087126302E+03  0.00000000000E+00 0. -1.
          5    1    1    2  502    0 -0.35315586526E+02  0.73929573737E+02 -0.43676934293E+03  0.44440713749E+03  0.41800000000E+01 0.  1.
         -5    1    1    2    0  502 -0.18868594605E+01  0.50619694730E+01  0.81004716664E+01  0.10595933880E+02  0.41800000000E+01 0.  1.
        -11    1    1    2    0    0  0.52894261652E+02 -0.17682819205E+02 -0.22412582074E+03  0.23096075107E+03  0.00000000000E+00 0.  1.
         11    1    1    2    0    0 -0.15691815666E+02 -0.61308724005E+02 -0.17597524392E+03  0.18700876768E+03  0.00000000000E+00 0. -1.
</event>
<event>
 6    1  0.8259171E-006  0.1775916E+03  0.7561462E-02  0.1170154E+00
          1   -1    0    0  501    0  0.00000000000E+00  0.00000000000E+00  0.50067199248E+03  0.50067199248E+03  0.00000000000E+00 0. -1.
         -1   -1    0    0    0  501 -0.00000000000E+00 -0.00000000000E+00 -0.81569911565E+02  0.81569911565E+02  0.00000000000E+00 0.  1.
          5    1    1    2  502    0 -0.13310812037E+02 -0.77199787608E+02  0.13506746215E+03  0.15619755649E+03  0.41800000000E+01 0.  1.
         -5    1    1    2    0  502  0.42243430799E+02 -0.81284269121E+02  0.61963122327E+01  0.91910317906E+02  0.41800000000E+01 0.  1.
        -11    1    1    2    0    0 -0.34779705227E+02  0.96647342955E+01  0.44259457933E+02  0.57113348712E+02  0.00000000000E+00 0.  1.
         11    1    1    2    0    0  0.58470864653E+01  0.14881932243E+03  0.23357884861E+03  0.27702068094E+03  0.00000000000E+00 0. -1.
</event>
<event>
 6    1  0.8259171E-006  0.1424212E+03  0.7561462E-02  0.1210108E+00
         -1   -1    0    0    0  501 -0.00000000000E+00  0.00000000000E+00  0.42051211145E+02  0.42051211145E+02  0.00000000000E+00 0.  1.
          1   -1    0    0  501    0  0.00000000000E+00 -0.00000000000E+00 -0.59199422099E+03  0.59199422099E+03  0.00000000000E+00 0. -1.
          5    1    1    2  502    0 -0.29833729060E+02  0.44195024313E+02 -0.14731315583E+03  0.15672233359E+03  0.41800000000E+01 0.  1.
         -5    1    1    2    0  502 -0.79547353078E+02 -0.56674546250E+02 -0.87452117061E+02  0.13116832984E+03  0.41800000000E+01 0.  1.
        -11    1    1    2    0    0  0.25733758078E+02  0.38221145130E+02 -0.55548370208E+02  0.72171349389E+02  0.00000000000E+00 0.  1.
         11    1    1    2    0    0  0.83647324060E+02 -0.25741623192E+02 -0.25962936674E+03  0.27398341932E+03  0.00000000000E+00 0. -1.
</event>
<event>
 6    1  0.8259171E-006  0.9224598E+02  0.7561462E-02  0.1297502E+00
          1   -1    0    0  501    0  0.00000000000E+00  0.00000000000E+00  0.58157017818E+03  0.58157017818E+03  0.00000000000E+00 0. -1.
         -1   -1    0    0    0  501 -0.00000000000E+00 -0.00000000000E+00 -0.20399979289E+02  0.20399979289E+02  0.00000000000E+00 0.  1.
          5    1    1    2  502    0 -0.44169691062E+02  0.34767624755E+02  0.26746003504E+03  0.27333512779E+03  0.41800000000E+01 0.  1.
         -5    1    1    2    0  502  0.34897582055E+02 -0.28330632079E+02  0.46494130154E+02  0.64804648645E+02  0.41800000000E+01 0.  1.
        -11    1    1    2    0    0  0.45319629233E+02 -0.11030174603E+02  0.79065729962E+02  0.91798274493E+02  0.00000000000E+00 0.  1.
         11    1    1    2    0    0 -0.36047520226E+02  0.45931819263E+01  0.16815030374E+03  0.17203210655E+03  0.00000000000E+00 0. -1.
</event>
<event>
 6    1  0.8259171E-006  0.1044742E+03  0.7561462E-02  0.1271159E+00
         -2   -1    0    0    0  501 -0.00000000000E+00  0.00000000000E+00  0.63766608946E+03  0.63766608946E+03  0.00000000000E+00 0.  1.
          2   -1    0    0  501    0  0.00000000000E+00 -0.00000000000E+00 -0.29499847089E+02  0.29499847089E+02  0.00000000000E+00 0. -1.
          5    1    1    2  502    0  0.68507170580E+01 -0.67090909495E+01  0.30187836549E+03  0.30205953747E+03  0.41800000000E+01 0.  1.
         -5    1    1    2    0  502 -0.73490217476E+02  0.36923195542E+02  0.13404452432E+03  0.15731986948E+03  0.41800000000E+01 0.  1.
        -11    1    1    2    0    0  0.81219335881E+01  0.30648730917E+02  0.50600624183E+02  0.59713764575E+02  0.00000000000E+00 0.  1.
         11    1    1    2    0    0  0.58517566830E+02 -0.60862835510E+02  0.12164272837E+03  0.14807276502E+03  0.00000000000E+00 0. -1.
</event>
<event>
 6    1  0.8259171E-006  0.1483579E+03  0.7561462E-02  0.1202505E+00
         -1   -1    0    0    0  501 -0.00000000000E+00  0.00000000000E+00  0.80235469797E+03  0.80235469797E+03  0.00000000000E+00 0.  1.
          1   -1    0    0  501    0  0.00000000000E+00 -0.00000000000E+00 -0.41296952693E+02  0.41296952693E+02  0.00000000000E+00 0. -1.
          5    1    1    2  502    0 -0.27095550145E+02  0.20863760992E+02  0.24161211915E+02  0.42079709143E+02  0.41800000000E+01 0.  1.
         -5    1    1    2    0  502  0.27091167707E+01  0.10704627983E+03  0.53105062531E+03  0.54175500402E+03  0.41800000000E+01 0.  1.
        -11    1    1    2    0    0 -0.19825108163E+02 -0.10189172751E+03  0.16163196131E+03  0.19209333660E+03  0.00000000000E+00 0.  1.
         11    1    1    2    0    0  0.44211541538E+02 -0.26018313310E+02  0.44213946747E+02  0.67723600905E+02  0.00000000000E+00 0. -1.
</event>
<event>
 6    1  0.8259171E-006  0.1618480E+03  0.7561462E-02  0.1186626E+00
         -2   -1    0    0    0  501 -0.00000000000E+00  0.00000000000E+00  0.16356281203E+03  0.16356281203E+03  0.00000000000E+00 0.  1.
          2   -1    0    0  501    0  0.00000000000E+00 -0.00000000000E+00 -0.18186794128E+03  0.18186794128E+03  0.00000000000E+00 0. -1.
          5    1    1    2  502    0  0.21838914869E+02  0.11434837509E+02  0.22894519733E+01  0.25107921097E+02  0.41800000000E+01 0.  1.
         -5    1    1    2    0  502 -0.12364544167E+03 -0.98047219918E+02 -0.74426767006E+01  0.15803264984E+03  0.41800000000E+01 0.  1.
        -11    1    1    2    0    0  0.91791165225E+02  0.53506546604E+02 -0.44895603480E+02  0.11534376340E+03  0.00000000000E+00 0. -1.
         11    1    1    2    0    0  0.10015361572E+02  0.33105835805E+02  0.31743698959E+02  0.46946418983E+02  0.00000000000E+00 0.  1.
</event>
<event>
 6    1  0.8762047E-006  0.1388010E+03  0.7561462E-02  0.1214951E+00
          2   -1    0    0  501    0  0.00000000000E+00  0.00000000000E+00  0.28753512278E+03  0.28753512278E+03  0.00000000000E+00 0. -1.
         -2   -1    0    0    0  501 -0.00000000000E+00 -0.00000000000E+00 -0.68926508765E+02  0.68926508765E+02  0.00000000000E+00 0.  1.
          5    1    1    2  502    0  0.40722998284E+02  0.36017473595E+02  0.54944859566E+02  0.77408210069E+02  0.41800000000E+01 0. -1.
         -5    1    1    2    0  502 -0.87945261359E+02  0.38377522573E+02  0.51456015088E+02  0.10896053012E+03  0.41800000000E+01 0. -1.
        -11    1    1    2    0    0  0.30899392540E+02 -0.95486040583E+02  0.96011895451E+02  0.13889075014E+03  0.00000000000E+00 0.  1.
         11    1    1    2    0    0  0.16322870535E+02  0.21091044416E+02  0.16195843914E+02  0.31202141227E+02  0.00000000000E+00 0. -1.
</event>
<event>
 6    1  0.8259171E-006  0.1848683E+03  0.7561462E-02  0.1163173E+00
          1   -1    0    0  501    0  0.00000000000E+00  0.00000000000E+00  0.17963299555E+04  0.17963299555E+04  0.00000000000E+00 0. -1.
         -1   -1    0    0    0  501 -0.00000000000E+00 -0.00000000000E+00 -0.21325600195E+02  0.21325600195E+02  0.00000000000E+00 0.  1.
          5    1    1    2  502    0 -0.24972546849E+02 -0.15759440543E+02  0.28253826088E+03  0.28410795364E+03  0.41800000000E+01 0. -1.
         -5    1    1    2    0  502 -0.75864168942E+02  0.13868923876E+03  0.51821906216E+03  0.54181043351E+03  0.41800000000E+01 0. -1.
        -11    1    1    2    0    0  0.11173428512E+03 -0.79838380484E+02  0.81112373019E+03  0.82266665373E+03  0.00000000000E+00 0. -1.
         11    1    1    2    0    0 -0.10897569330E+02 -0.43091417735E+02  0.16312330206E+03  0.16907051480E+03  0.00000000000E+00 0.  1.
</event>
<event>
 6    1  0.8259171E-006  0.1284914E+03  0.7561462E-02  0.1229712E+00
          2   -1    0    0  501    0  0.00000000000E+00  0.00000000000E+00  0.92959593876E+02  0.92959593876E+02  0.00000000000E+00 0.  1.
         -2   -1    0    0    0  501 -0.00000000000E+00 -0.00000000000E+00 -0.22558855115E+03  0.22558855115E+03  0.00000000000E+00 0. -1.
          5    1    1    2  502    0  0.97971673554E+02 -0.68145496457E+02 -0.84453818121E+02  0.14626064851E+03  0.41800000000E+01 0.  1.
         -5    1    1    2    0  502 -0.34584564357E+02  0.21465870297E+01 -0.15711522422E+02  0.38275635389E+02  0.41800000000E+01 0.  1.
        -11    1    1    2    0    0 -0.50318503410E+02  0.18839401234E+02 -0.57791079238E+02  0.78909338255E+02  0.00000000000E+00 0. -1.
         11    1    1    2    0    0 -0.13068605787E+02  0.47159508193E+02  0.25327462506E+02  0.55102522875E+02  0.00000000000E+00 0.  1.
</event>
<event>
 6    1  0.8259171E-006  0.1377474E+03  0.7561462E-02  0.1216393E+00
          1   -1    0    0  501    0  0.00000000000E+00  0.00000000000E+00  0.91847606828E+02  0.91847606828E+02  0.00000000000E+00 0. -1.
         -1   -1    0    0    0  501 -0.00000000000E+00 -0.00000000000E+00 -0.29311079247E+03  0.29311079247E+03  0.00000000000E+00 0.  1.
          5    1    1    2  502    0 -0.13351094140E+02 -0.56806035067E+02 -0.11071571041E+03  0.12522227544E+03  0.41800000000E+01 0. -1.
         -5    1    1    2    0  502  0.86412666339E+02 -0.36488611109E+02 -0.34231989641E+02  0.99939327391E+02  0.41800000000E+01 0. -1.
        -11    1    1    2    0    0 -0.47684021554E+02  0.33893322818E+02 -0.72544048132E+02  0.93194217431E+02  0.00000000000E+00 0.  1.
         11    1    1    2    0    0 -0.25377550645E+02  0.59401323358E+02  0.16228562533E+02  0.66602579044E+02  0.00000000000E+00 0. -1.
</event>
<event>
 6    1  0.8259171E-006  0.1488350E+03  0.7561462E-02  0.1201912E+00
         -2   -1    0    0    0  501 -0.00000000000E+00  0.00000000000E+00  0.28308686706E+03  0.28308686706E+03  0.00000000000E+00 0.  1.
          2   -1    0    0  501    0  0.00000000000E+00 -0.00000000000E+00 -0.90446908886E+02  0.90446908886E+02  0.00000000000E+00 0. -1.
          5    1    1    2  502    0  0.68633835835E+01  0.39602409502E+02  0.64287977638E+01  0.40917706598E+02  0.41800000000E+01 0. -1.
         -5    1    1    2    0  502 -0.38375998882E+02 -0.13205575455E+03  0.13262641516E+03  0.19109860805E+03  0.41800000000E+01 0.  1.
        -11    1    1    2    0    0  0.12838603852E+02  0.99045852815E+02  0.64513295901E+02  0.11889859569E+03  0.00000000000E+00 0. -1.
         11    1    1    2    0    0  0.18674011446E+02 -0.65925077666E+01 -0.10928550651E+02  0.22618865610E+02  0.00000000000E+00 0.  1.
</event>
<event>
 6    1  0.8259171E-006  0.1272090E+03  0.7561462E-02  0.1231657E+00
          2   -1    0    0  501    0  0.00000000000E+00  0.00000000000E+00  0.67458341869E+03  0.67458341869E+03  0.00000000000E+00 0.  1.
         -2   -1    0    0    0  501 -0.00000000000E+00 -0.00000000000E+00 -0.49474225126E+02  0.49474225126E+02  0.00000000000E+00 0. -1.
          5    1    1    2  502    0  0.78604503620E+00 -0.33980754546E+02  0.54764030280E+00  0.34250282571E+02  0.41800000000E+01 0. -1.
         -5    1    1    2    0  502 -0.32803406560E+02  0.99357515616E+02  0.76725020978E+02  0.12981594908E+03  0.41800000000E+01 0. -1.
        -11    1    1    2    0    0  0.51107618575E+01 -0.83086930320E+02  0.36855472170E+03  0.37783877615E+03  0.00000000000E+00 0. -1.
         11    1    1    2    0    0  0.26906599666E+02  0.17710169251E+02  0.17928181059E+03  0.18215263602E+03  0.00000000000E+00 0.  1.
</event>
<event>
 6    1  0.8259171E-006  0.1651160E+03  0.7561462E-02  0.1183039E+00
         -2   -1    0    0    0  501 -0.00000000000E+00  0.00000000000E+00  0.86851706716E+02  0.86851706716E+02  0.00000000000E+00 0. -1.
          2   -1    0    0  501    0  0.00000000000E+00 -0.00000000000E+00 -0.37146779308E+03  0.37146779308E+03  0.00000000000E+00 0.  1.
          5    1    1    2  502    0  0.80773061528E+01 -0.89976397315E+02 -0.70088819944E+02  0.11441551481E+03  0.41800000000E+01 0. -1.
         -5    1    1    2    0  502  0.95040454381E+02 -0.49802464914E+01 -0.40141850917E+02  0.10337471363E+03  0.41800000000E+01 0. -1.
        -11    1    1    2    0    0 -0.87277220210E+02  0.94570621870E+02 -0.18203855525E+03  0.22293261602E+03  0.00000000000E+00 0.  1.
         11    1    1    2    0    0 -0.15840540324E+02  0.38602193645E+00  0.76531397486E+01  0.17596655327E+02  0.00000000000E+00 0. -1.
</event>
<event>
 6    1  0.8259171E-006  0.1398686E+03  0.7561462E-02  0.1213506E+00
         -2   -1    0    0    0  501 -0.00000000000E+00  0.00000000000E+00  0.37813170146E+02  0.37813170146E+02  0.00000000000E+00 0. -1.
          2   -1    0    0  501    0  0.00000000000E+00 -0.00000000000E+00 -0.73549410617E+03  0.73549410617E+03  0.00000000000E+00 0.  1.
          5    1    1    2  502    0 -0.10447297893E+03 -0.10990550078E+02 -0.17507866108E+03  0.20421901353E+03  0.41800000000E+01 0.  1.
         -5    1    1    2    0  502  0.17492134421E+02 -0.46503916916E+02 -0.32097700797E+02  0.59298599069E+02  0.41800000000E+01 0.  1.
        -11    1    1    2    0    0  0.78029080342E+02  0.72991709886E+02 -0.47239902127E+03  0.48433166569E+03  0.00000000000E+00 0.  1.
         11    1    1    2    0    0  0.89517641714E+01 -0.15497242893E+02 -0.18105552876E+02  0.25457998036E+02  0.00000000000E+00 0. -1.
</event>
<event>
 6    1  0.8259171E-006  0.1389753E+03  0.7561462E-02  0.1214714E+00
          1   -1    0    0  501    0  0.00000000000E+00  0.00000000000E+00  0.54562631899E+03  0.54562631899E+03  0.00000000000E+00 0. -1.
         -1   -1    0    0    0  501 -0.00000000000E+00 -0.00000000000E+00 -0.37540441936E+02  0.37540441936E+02  0.00000000000E+00 0.  1.
          5    1    1    2  502    0 -0.84163491731E+02  0.19618308262E+02  0.15671304593E+03  0.17901067712E+03  0.41800000000E+01 0. -1.
         -5    1    1    2    0  502  0.25336722405E+02  0.58570557132E+02  0.85864203959E+02  0.10706350259E+03  0.41800000000E+01 0.  1.
        -11    1    1    2    0    0 -0.20843743796E+02 -0.13301155137E+02  0.23233331443E+02  0.33928897320E+02  0.00000000000E+00 0. -1.
         11    1    1    2    0    0  0.79670513122E+02 -0.64887710256E+02  0.24227529573E+03  0.26316368390E+03  0.00000000000E+00 0.  1.
</event>
<event>
 6    1  0.8259171E-006  0.2786446E+03  0.7561462E-02  0.1096432E+00
         -1   -1    0    0    0  501 -0.00000000000E+00  0.00000000000E+00  0.55561623238E+03  0.55561623238E+03  0.00000000000E+00 0.  1.
          1   -1    0    0  501    0  0.00000000000E+00 -0.00000000000E+00 -0.23139465736E+03  0.23139465736E+03  0.00000000000E+00 0. -1.
          5    1    1    2  502    0  0.87895171753E+02  0.44379810104E+02  0.20976817068E+03  0.23176558544E+03  0.41800000000E+01 0. -1.
         -5    1    1    2    0  502  0.66083103449E+02  0.17078866624E+03  0.19277144187E+03  0.26592112793E+03  0.41800000000E+01 0. -1.
        -11    1    1    2    0    0 -0.13491970997E+03 -0.12677220477E+03 -0.72117678271E+02  0.19868437170E+03  0.00000000000E+00 0. -1.
         11    1    1    2    0    0 -0.19058565234E+02 -0.88396271575E+02 -0.62003592548E+01  0.90639804678E+02  0.00000000000E+00 0.  1.
</event>
<event>
 6    1  0.8259171E-006  0.1021834E+03  0.7561462E-02  0.1275770E+00
          2   -1    0    0  501    0  0.00000000000E+00  0.00000000000E+00  0.38965470902E+03  0.38965470902E+03  0.00000000000E+00 0. -1.
         -2   -1    0    0    0  501 -0.00000000000E+00 -0.00000000000E+00 -0.53284925975E+02  0.53284925975E+02  0.00000000000E+00 0.  1.
          5    1    1    2  502    0 -0.45722726441E+02  0.43852527983E+02  0.12161709390E+03  0.13719257214E+03  0.41800000000E+01 0.  1.
         -5    1    1    2    0  502  0.36431832905E+02  0.40464594942E+02 -0.33717121539E+01  0.54712911963E+02  0.41800000000E+01 0.  1.
        -11    1    1    2    0    0 -0.90088233049E+00 -0.58558665973E+02  0.21537603377E+03  0.22319669548E+03  0.00000000000E+00 0. -1.
         11    1    1    2    0    0  0.10191775866E+02 -0.25758456952E+02  0.27483675369E+01  0.27837455415E+02  0.00000000000E+00 0.  1.
</event>
<event>
 6    1  0.8259171E-006  0.5871082E+02  0.7561462E-02  0.1403323E+00
          2   -1    0    0  501    0  0.00000000000E+00  0.00000000000E+00  0.27471404631E+02  0.27471404631E+02  0.00000000000E+00 0. -1.
         -2   -1    0    0    0  501 -0.00000000000E+00 -0.00000000000E+00 -0.52425880449E+03  0.52425880449E+03  0.00000000000E+00 0.  1.
          5    1    1    2  502    0  0.15428907234E+02  0.86463479754E+01 -0.39689546691E+03  0.39731133204E+03  0.41800000000E+01 0.  1.
         -5    1    1    2    0  502  0.33200642090E+01 -0.35555797197E+01  0.88102279898E+01  0.10897591052E+02  0.41800000000E+01 0.  1.
        -11    1    1    2    0    0 -0.51809983119E+01  0.42772379965E+02 -0.40740005535E+02  0.59296435663E+02  0.00000000000E+00 0. -1.
         11    1    1    2    0    0 -0.13567973132E+02 -0.47863148221E+02 -0.67962155403E+02  0.84224850368E+02  0.00000000000E+00 0.  1.
</event>
<event>
 6    1  0.8259171E-006  0.1015823E+03  0.7561462E-02  0.1277003E+00
         -2   -1    0    0    0  501 -0.00000000000E+00  0.00000000000E+00  0.27317688540E+02  0.27317688540E+02  0.00000000000E+00 0.  1.
          2   -1    0    0  501    0  0.00000000000E+00 -0.00000000000E+00 -0.56627068728E+03  0.56627068728E+03  0.00000000000E+00 0. -1.
          5    1    1    2  502    0  0.68325042656E+02 -0.37528937550E+02 -0.24495204738E+03  0.25709086044E+03  0.41800000000E+01 0. -1.
         -5    1    1    2    0  502 -0.54043411495E+02 -0.42856163303E+01 -0.15055895940E+03  0.16007663630E+03  0.41800000000E+01 0. -1.
        -11    1    1    2    0    0 -0.28972723553E+02  0.28850595457E+01 -0.22244308967E+01  0.29200862513E+02  0.00000000000E+00 0.  1.
         11    1    1    2    0    0  0.14691092392E+02  0.38929494335E+02 -0.14121756106E+03  0.14722001656E+03  0.00000000000E+00 0. -1.
</event>
<event>
 6    1  0.8259171E-006  0.8782074E+02  0.7561462E-02  0.1308217E+00
          1   -1    0    0  501    0  0.00000000000E+00  0.00000000000E+00  0.98704816206E+02  0.98704816206E+02  0.00000000000E+00 0. -1.
         -1   -1    0    0    0  501 -0.00000000000E+00 -0.00000000000E+00 -0.14462428083E+03  0.14462428083E+03  0.00000000000E+00 0.  1.
          5    1    1    2  502    0 -0.52292208751E+02  0.46731696014E+02 -0.54710742113E+02  0.89045293031E+02  0.41800000000E+01 0. -1.
         -5    1    1    2    0  502  0.28103102447E+02 -0.34356872782E+02 -0.29201535225E+02  0.53295226183E+02  0.41800000000E+01 0.  1.
        -11    1    1    2    0    0  0.22784242354E+02  0.18835178052E+02  0.57148746999E+02  0.64341782035E+02  0.00000000000E+00 0. -1.
         11    1    1    2    0    0  0.14048639504E+01 -0.31210001285E+02 -0.19155934282E+02  0.36646795782E+02  0.00000000000E+00 0.  1.
</event>
<event>
 6    1  0.8259171E-006  0.1239024E+03  0.7561462E-02  0.1236795E+00
         -2   -1    0    0    0  501 -0.00000000000E+00  0.00000000000E+00  0.81924835331E+03  0.81924835331E+03  0.00000000000E+00 0.  1.
          2   -1    0    0  501    0  0.00000000000E+00 -0.00000000000E+00 -0.10581042972E+03  0.10581042972E+03  0.00000000000E+00 0. -1.
          5    1    1    2  502    0 -0.21090893212E+02 -0.32985408946E+02  0.16964968447E+03  0.17415898146E+03  0.41800000000E+01 0. -1.
         -5    1    1    2    0  502 -0.20814085491E+02  0.11204131247E+03  0.59996596355E+03  0.61070705880E+03  0.41800000000E+01 0.  1.
        -11    1    1    2    0    0  0.29948236536E+02 -0.24935456583E+02 -0.72589250988E+02  0.82388550331E+02  0.00000000000E+00 0. -1.
         11    1    1    2    0    0  0.11956742167E+02 -0.54120446942E+02  0.16411526560E+02  0.57804192448E+02  0.00000000000E+00 0.  1.
</event>
<event>
 6    1  0.8259171E-006  0.2371209E+03  0.7561462E-02  0.1121726E+00
         -2   -1    0    0    0  501 -0.00000000000E+00  0.00000000000E+00  0.19852019584E+03  0.19852019584E+03  0.00000000000E+00 0.  1.
          2   -1    0    0  501    0  0.00000000000E+00 -0.00000000000E+00 -0.56597306703E+03  0.56597306703E+03  0.00000000000E+00 0. -1.
          5    1    1    2  502    0 -0.20260936658E+02  0.97749799672E+02  0.12626588298E+02  0.10070964215E+03  0.41800000000E+01 0.  1.
         -5    1    1    2    0  502 -0.12885047161E+03  0.41907322173E+02  0.70947246953E+02  0.15300213050E+03  0.41800000000E+01 0.  1.
        -11    1    1    2    0    0  0.91216666209E+02 -0.40351476836E+01 -0.15063031610E+03  0.17614271129E+03  0.00000000000E+00 0. -1.
         11    1    1    2    0    0  0.57894742064E+02 -0.13562197416E+03 -0.30039639034E+03  0.33463877893E+03  0.00000000000E+00 0.  1.
</event>
<event>
 6    1  0.8259171E-006  0.1093843E+03  0.7561462E-02  0.1261714E+00
          1   -1    0    0  501    0  0.00000000000E+00  0.00000000000E+00  0.92196090672E+03  0.92196090672E+03  0.00000000000E+00 0. -1.
         -1   -1    0    0    0  501 -0.00000000000E+00 -0.00000000000E+00 -0.14683803326E+02  0.14683803326E+02  0.00000000000E+00 0.  1.
          5    1    1    2  502    0  0.78673304447E+02  0.17103311948E+02  0.24400818043E+03  0.25698147138E+03  0.41800000000E+01 0. -1.
         -5    1    1    2    0  502 -0.36645030582E+02 -0.23509851544E+02  0.28165764677E+03  0.28503346079E+03  0.41800000000E+01 0. -1.
        -11    1    1    2    0    0  0.14273063642E+02 -0.25846528387E+02  0.64334812865E+02  0.70786520763E+02  0.00000000000E+00 0.  1.
         11    1    1    2    0    0 -0.56301337507E+02  0.32253067983E+02  0.31727646332E+03  0.32384325711E+03  0.00000000000E+00 0. -1.
</event>
<event>
 6    1  0.8259171E-006  0.1119295E+03  0.7561462E-02  0.1257038E+00
          1   -1    0    0  501    0  0.00000000000E+00  0.00000000000E+00  0.29322416014E+03  0.29322416014E+03  0.00000000000E+00 0. -1.
         -1   -1    0    0    0  501 -0.00000000000E+00 -0.00000000000E+00 -0.50977217276E+02  0.50977217276E+02  0.00000000000E+00 0.  1.
          5    1    1    2  502    0  0.13653183530E+02 -0.82086182039E+02  0.77394240771E+02  0.11371847522E+03  0.41800000000E+01 0.  1.
         -5    1    1    2    0  502  0.88083015390E+01  0.42838110649E+02  0.88789404087E+01  0.44821846043E+02  0.41800000000E+01 0.  1.
        -11    1    1    2    0    0 -0.46187188779E+02 -0.49412412521E+01  0.10144109552E+03  0.11157046264E+03  0.00000000000E+00 0. -1.
         11    1    1    2    0    0  0.23725703710E+02  0.44189312643E+02  0.54532666158E+02  0.74090593510E+02  0.00000000000E+00 0.  1.
</event>
<event>
 6    1  0.8259171E-006  0.1657511E+03  0.7561462E-02  0.1182353E+00
          1   -1    0    0  501    0  0.00000000000E+00  0.00000000000E+00  0.53740358446E+03  0.53740358446E+03  0.00000000000E+00 0. -1.
         -1   -1    0    0    0  501 -0.00000000000E+00 -0.00000000000E+00 -0.65540112803E+02  0.65540112803E+02  0.00000000000E+00 0.  1.
          5    1    1    2  502    0  0.68131673823E+02 -0.20422686937E+02  0.15322888744E+02  0.72878490922E+02  0.41800000000E+01 0.  1.
         -5    1    1    2    0  502  0.77565480452E+02  0.57544716190E+02  0.17555946764E+03  0.20041556126E+03  0.41800000000E+01 0.  1.
        -11    1    1    2    0    0 -0.25294097962E+02  0.18116114311E+02  0.10418346635E+03  0.10872984710E+03  0.00000000000E+00 0. -1.
         11    1    1    2    0    0 -0.12040305631E+03 -0.55238143564E+02  0.17679764893E+03  0.22091979799E+03  0.00000000000E+00 0.  1.
</event>
<event>
 6    1  0.8259171E-006  0.1324780E+03  0.7561462E-02  0.1223825E+00
          2   -1    0    0  501    0  0.00000000000E+00  0.00000000000E+00  0.60125639944E+03  0.60125639944E+03  0.00000000000E+00 0. -1.
         -2   -1    0    0    0  501 -0.00000000000E+00 -0.00000000000E+00 -0.38459784224E+02  0.38459784224E+02  0.00000000000E+00 0.  1.
          5    1    1    2  502    0  0.52658591609E+02  0.74636989626E+02  0.13454870648E+03  0.16267893013E+03  0.41800000000E+01 0. -1.
         -5    1    1    2    0  502  0.38590913576E+02 -0.50877145204E+02  0.67982297484E+02  0.93363845711E+02  0.41800000000E+01 0. -1.
        -11    1    1    2    0    0 -0.78681555348E+02  0.42775793004E+01  0.33425295808E+03  0.34341538233E+03  0.00000000000E+00 0. -1.
         11    1    1    2    0    0 -0.12567949836E+02 -0.28037423722E+02  0.26012653172E+02  0.40258025500E+02  0.00000000000E+00 0.  1.
</event>
<event>
 6    1  0.8259171E-006  0.8307978E+02  0.7561462E-02  0.1320532E+00
         -1   -1    0    0    0  501 -0.00000000000E+00  0.00000000000E+00  0.75221337727E+02  0.75221337727E+02  0.00000000000E+00 0.  1.
          1   -1    0    0  501    0  0.00000000000E+00 -0.00000000000E+00 -0.26110177760E+03  0.26110177760E+03  0.00000000000E+00 0. -1.
          5    1    1    2  502    0  0.15882114777E+02 -0.26254824361E+02  0.46904785156E+02  0.56205770545E+02  0.41800000000E+01 0. -1.
         -5    1    1    2    0  502  0.25891067042E+01  0.52156261133E+02 -0.50730628509E+02  0.72924948528E+02  0.41800000000E+01 0. -1.
        -11    1    1    2    0    0  0.99141168092E+00  0.26699406621E+02 -0.14286573089E+02  0.30297646471E+02  0.00000000000E+00 0.  1.
         11    1    1    2    0    0 -0.19462633162E+02 -0.52600843394E+02 -0.16776802343E+03  0.17689474978E+03  0.00000000000E+00 0. -1.
</event>
<event>
 6    1  0.8259171E-006  0.9073075E+02  0.7561462E-02  0.1301092E+00
         -1   -1    0    0    0  501 -0.00000000000E+00  0.00000000000E+00  0.67271292127E+03  0.67271292127E+03  0.00000000000E+00 0.  1.
          1   -1    0    0  501    0  0.00000000000E+00 -0.00000000000E+00 -0.27686846400E+02  0.27686846400E+02  0.00000000000E+00 0. -1.
          5    1    1    2  502    0 -0.17591152646E+02  0.18820839814E+02  0.38024470473E+03  0.38113931907E+03  0.41800000000E+01 0. -1.
         -5    1    1    2    0  502  0.17270569557E+02 -0.67357961908E+02  0.14343066081E+03  0.15945279698E+03  0.41800000000E+01 0. -1.
        -11    1    1    2    0    0 -0.32951462570E+02  0.39064707840E+02  0.23938275640E+02  0.56434841408E+02  0.00000000000E+00 0.  1.
         11    1    1    2    0    0  0.33272045659E+02  0.94724142549E+01  0.97412433685E+02  0.10337281021E+03  0.00000000000E+00 0. -1.
</event>
<event>
 6    1  0.8259171E-006  0.7444142E+02  0.7561462E-02  0.1345610E+00
          3   -1    0    0  501    0  0.00000000000E+00  0.00000000000E+00  0.40112452166E+02  0.40112452166E+02  0.00000000000E+00 0. -1.
         -3   -1    0    0    0  501 -0.00000000000E+00 -0.00000000000E+00 -0.28078816092E+03  0.28078816092E+03  0.00000000000E+00 0.  1.
          5    1    1    2  502    0 -0.17323158942E+02 -0.23560294849E+02  0.13954043849E+01  0.29573618015E+02  0.41800000000E+01 0. -1.
         -5    1    1    2    0  502  0.77454349518E+00  0.29546445923E+02 -0.17610623469E+03  0.17861822607E+03  0.41800000000E+01 0.  1.
        -11    1    1    2    0    0  0.52919677013E+02 -0.36575020471E+01 -0.27615778086E+02  0.59803852181E+02  0.00000000000E+00 0.  1.
         11    1    1    2    0    0 -0.36371061566E+02 -0.23286490269E+01 -0.38349100354E+02  0.52904916820E+02  0.00000000000E+00 0. -1.
</event>
<event>
 6    1  0.8259171E-006  0.8501930E+02  0.7561462E-02  0.1315382E+00
         -2   -1    0    0    0  501 -0.00000000000E+00  0.00000000000E+00  0.52997578997E+02  0.52997578997E+02  0.00000000000E+00 0.  1.
          2   -1    0    0  501    0  0.00000000000E+00 -0.00000000000E+00 -0.22358842528E+03  0.22358842528E+03  0.00000000000E+00 0. -1.
          5    1    1    2  502    0  0.29727070425E+02  0.40553044015E+02 -0.97991986156E+02  0.11021864564E+03  0.41800000000E+01 0. -1.
         -5    1    1    2    0  502 -0.13964438571E+02 -0.32438944859E+02  0.17445580488E+02  0.39612010385E+02  0.41800000000E+01 0. -1.
        -11    1    1    2    0    0  0.31779793363E+02 -0.16398349980E+02 -0.60179302275E+02  0.70002925443E+02  0.00000000000E+00 0. -1.
         11    1    1    2    0    0 -0.47542425217E+02  0.82842508239E+01 -0.29865138341E+02  0.56752422815E+02  0.00000000000E+00 0.  1.
</event>
<event>
 6    1  0.8259171E-006  0.4331963E+03  0.7561462E-02  0.1032855E+00
         -1   -1    0    0    0  501 -0.00000000000E+00  0.00000000000E+00  0.72580015016E+03  0.72580015016E+03  0.00000000000E+00 0.  1.
          1   -1    0    0  501    0  0.00000000000E+00 -0.00000000000E+00 -0.26937211088E+03  0.26937211088E+03  0.00000000000E+00 0. -1.
          5    1    1    2  502    0 -0.31633669896E+02 -0.39312520342E+03  0.26281230724E+03  0.47395769418E+03  0.41800000000E+01 0. -1.
         -5    1    1    2    0  502 -0.34759018540E+02 -0.23815275839E+02  0.53408172339E+02  0.68156158972E+02  0.41800000000E+01 0. -1.
        -11    1    1    2    0    0  0.20633031079E+02  0.16053764619E+02  0.16970748954E+02  0.31168119129E+02  0.00000000000E+00 0. -1.
         11    1    1    2    0    0  0.45759657356E+02  0.40088671464E+03  0.12323681075E+03  0.42189028875E+03  0.00000000000E+00 0.  1.
</event>
<event>
 6    1  0.8259171E-006  0.9933321E+02  0.7561462E-02  0.1281704E+00
          2   -1    0    0  501    0  0.00000000000E+00  0.00000000000E+00  0.60132812516E+03  0.60132812516E+03  0.00000000000E+00 0. -1.
         -2   -1    0    0    0  501 -0.00000000000E+00 -0.00000000000E+00 -0.24971575527E+02  0.24971575527E+02  0.00000000000E+00 0.  1.
          5    1    1    2  502    0  0.59291835146E+02 -0.26759032534E+02  0.24447846123E+03  0.25301928374E+03  0.41800000000E+01 0. -1.
         -5    1    1    2    0  502 -0.36464010185E+02  0.24792306610E+02  0.22050916437E+02  0.49477245493E+02  0.41800000000E+01 0.  1.
        -11    1    1    2    0    0  0.31627541751E+01 -0.39838677192E+02  0.19184708335E+03  0.19596537093E+03  0.00000000000E+00 0.  1.
         11    1    1    2    0    0 -0.25990579136E+02  0.41805403115E+02  0.11798008862E+03  0.12783780053E+03  0.00000000000E+00 0. -1.
</event>
<event>
 6    1  0.8259171E-006  0.6034350E+02  0.7561462E-02  0.1396396E+00
          2   -1    0    0  501    0  0.00000000000E+00  0.00000000000E+00  0.16853081500E+03  0.16853081500E+03  0.00000000000E+00 0. -1.
         -2   -1    0    0    0  501 -0.00000000000E+00 -0.00000000000E+00 -0.68406100359E+02  0.68406100359E+02  0.00000000000E+00 0.  1.
          5    1    1    2  502    0 -0.13608707430E+01 -0.48483767895E+02  0.78869427431E+02  0.92684339031E+02  0.41800000000E+01 0. -1.
         -5    1    1    2    0  502 -0.59083154054E+01  0.40828859554E+02 -0.19919901125E+02  0.46001943701E+02  0.41800000000E+01 0. -1.
        -11    1    1    2    0    0 -0.10872033610E+02  0.60238173731E-01 -0.26039350474E+02  0.28217946711E+02  0.00000000000E+00 0.  1.
         11    1    1    2    0    0  0.18141219758E+02  0.75946701669E+01  0.67214538807E+02  0.70032685914E+02  0.00000000000E+00 0. -1.
</event>
<event>
 6    1  0.8259171E-006  0.9137698E+02  0.7561462E-02  0.1299551E+00
         -2   -1    0    0    0  501 -0.00000000000E+00  0.00000000000E+00  0.25233198379E+03  0.25233198379E+03  0.00000000000E+00 0. -1.
          2   -1    0    0  501    0  0.00000000000E+00 -0.00000000000E+00 -0.47653682531E+02  0.47653682531E+02  0.00000000000E+00 0.  1.
          5    1    1    2  502    0 -0.32318492864E+02  0.69187818278E+02  0.86818541321E+02  0.11569948442E+03  0.41800000000E+01 0. -1.
         -5    1    1    2    0  502  0.12179185000E+02 -0.49804372837E+02  0.48747094950E+02  0.70870020228E+02  0.41800000000E+01 0. -1.
        -11    1    1    2    0    0 -0.14192132029E+02  0.20821129561E+01 -0.14574183770E+02  0.20448927562E+02  0.00000000000E+00 0.  1.
         11    1    1    2    0    0  0.34331439893E+02 -0.21465558397E+02  0.83686848760E+02  0.92967234109E+02  0.00000000000E+00 0. -1.
</event>
<event>
 6    1  0.8259171E-006  0.8643450E+02  0.7561462E-02  0.1311723E+00
          1   -1    0    0  501    0  0.00000000000E+00  0.00000000000E+00  0.47018429795E+02  0.47018429795E+02  0.00000000000E+00 0. -1.
         -1   -1    0    0    0  501 -0.00000000000E+00 -0.00000000000E+00 -0.30138378524E+03  0.30138378524E+03  0.00000000000E+00 0.  1.
          5    1    1    2  502    0 -0.45155490593E+02  0.33602925504E+02 -0.92411130148E+02  0.10828418309E+03  0.41800000000E+01 0.  1.
         -5    1    1    2    0  502  0.10576061860E+02 -0.66055799860E+02 -0.31493866111E+02  0.74057800279E+02  0.41800000000E+01 0.  1.
        -11    1    1    2    0    0  0.14124057390E+02  0.22707428384E+02 -0.13922198378E+03  0.14176698159E+03  0.00000000000E+00 0.  1.
         11    1    1    2    0    0  0.20455371342E+02  0.97454459718E+01  0.87616245885E+01  0.24293250078E+02  0.00000000000E+00 0. -1.
</event>
<event>
 6    1  0.8259171E-006  0.1324238E+03  0.7561462E-02  0.1223903E+00
          2   -1    0    0  501    0  0.00000000000E+00  0.00000000000E+00  0.63937930822E+03  0.63937930822E+03  0.00000000000E+00 0. -1.
         -2   -1    0    0    0  501 -0.00000000000E+00 -0.00000000000E+00 -0.34378861647E+02  0.34378861647E+02  0.00000000000E+00 0.  1.
          5    1    1    2  502    0  0.25717051801E+02 -0.11984617328E+03  0.27667670177E+03  0.30264160603E+03  0.41800000000E+01 0. -1.
         -5    1    1    2    0  502 -0.29737889979E+02  0.19804624597E+02  0.55212466136E+02  0.65897299434E+02  0.41800000000E+01 0. -1.
        -11    1    1    2    0    0 -0.91420735409E+01  0.52787806228E+01 -0.45812538460E+01  0.11507863411E+02  0.00000000000E+00 0.  1.
         11    1    1    2    0    0  0.13162911719E+02  0.94762768056E+02  0.27769253252E+03  0.29371140099E+03  0.00000000000E+00 0. -1.
</event>
<event>
 6    1  0.8259171E-006  0.1211318E+03  0.7561462E-02  0.1241241E+00
          1   -1    0    0  501    0  0.00000000000E+00  0.00000000000E+00  0.45783419644E+02  0.45783419644E+02  0.00000000000E+00 0. -1.
         -1   -1    0    0    0  501 -0.00000000000E+00 -0.00000000000E+00 -0.45824038562E+03  0.45824038562E+03  0.00000000000E+00 0.  1.
          5    1    1    2  502    0 -0.80929359781E+02  0.21777018389E+02 -0.27901110824E+03  0.29135626083E+03  0.41800000000E+01 0.  1.
         -5    1    1    2    0  502 -0.74993301236E+01 -0.38118035569E+02 -0.17552568725E+02  0.42834444747E+02  0.41800000000E+01 0.  1.
        -11    1    1    2    0    0  0.27412788974E+02 -0.31489390698E+02 -0.64445258652E+02  0.76786939570E+02  0.00000000000E+00 0. -1.
         11    1    1    2    0    0  0.61015900931E+02  0.47830407878E+02 -0.51448030358E+02  0.93046160113E+02  0.00000000000E+00 0.  1.
</event>
<event>
 6    1  0.8259171E-006  0.1385622E+03  0.7561462E-02  0.1215277E+00
          2   -1    0    0  501    0  0.00000000000E+00  0.00000000000E+00  0.20386102530E+02  0.20386102530E+02  0.00000000000E+00 0. -1.
         -2   -1    0    0    0  501 -0.00000000000E+00 -0.00000000000E+00 -0.10036769163E+04  0.10036769163E+04  0.00000000000E+00 0.  1.
          5    1    1    2  502    0  0.68647312883E+02  0.64890207999E+02 -0.29339462709E+03  0.30825488198E+03  0.41800000000E+01 0. -1.
         -5    1    1    2    0  502  0.24039021384E+02 -0.56007266719E+02 -0.21614865460E+03  0.22461612088E+03  0.41800000000E+01 0. -1.
        -11    1    1    2    0    0 -0.10208100013E+03 -0.22886403205E+02 -0.45041001483E+03  0.46239971832E+03  0.00000000000E+00 0. -1.
         11    1    1    2    0    0  0.93946658627E+01  0.14003461924E+02 -0.23337517239E+02  0.28792297640E+02  0.00000000000E+00 0.  1.
</event>
<event>
 6    1  0.8259171E-006  0.2004883E+03  0.7561462E-02  0.1149328E+00
          1   -1    0    0  501    0  0.00000000000E+00  0.00000000000E+00  0.10589174490E+04  0.10589174490E+04  0.00000000000E+00 0. -1.
         -1   -1    0    0    0  501 -0.00000000000E+00 -0.00000000000E+00 -0.43205805387E+02  0.43205805387E+02  0.00000000000E+00 0.  1.
          5    1    1    2  502    0 -0.19819204306E+01 -0.10643875852E+03  0.30706016840E+03  0.32501777912E+03  0.41800000000E+01 0. -1.
         -5    1    1    2    0  502 -0.79116343367E+02 -0.52939074825E+02  0.10879595866E+03  0.14462356120E+03  0.41800000000E+01 0. -1.
        -11    1    1    2    0    0  0.84308811076E+02  0.69626609951E+02  0.29228895476E+03  0.31207158396E+03  0.00000000000E+00 0.  1.
         11    1    1    2    0    0 -0.32105472781E+01  0.89751223398E+02  0.30756656175E+03  0.32041033008E+03  0.00000000000E+00 0. -1.
</event>
<event>
 6    1  0.8259171E-006  0.9918138E+02  0.7561462E-02  0.1282027E+00
          1   -1    0    0  501    0  0.00000000000E+00  0.00000000000E+00  0.46314173339E+02  0.46314173339E+02  0.00000000000E+00 0. -1.
         -1   -1    0    0    0  501 -0.00000000000E+00 -0.00000000000E+00 -0.29705629455E+03  0.29705629455E+03  0.00000000000E+00 0.  1.
          5    1    1    2  502    0  0.46087253561E+02  0.27955732474E+01 -0.26455752681E+02  0.53378173634E+02  0.41800000000E+01 0.  1.
         -5    1    1    2    0  502 -0.56663102336E+02 -0.31400512153E+02 -0.16530990360E+03  0.17759936925E+03  0.41800000000E+01 0.  1.
        -11    1    1    2    0    0  0.46089375797E+02  0.10707254016E+02 -0.54807039104E+02  0.72406404311E+02  0.00000000000E+00 0.  1.
         11    1    1    2    0    0 -0.35513527022E+02  0.17897684889E+02 -0.41694258320E+01  0.39986520700E+02  0.00000000000E+00 0. -1.
</event>
<event>
 6    1  0.8259171E-006  0.8675762E+02  0.7561462E-02  0.1310899E+00
          4   -1    0    0  501    0  0.00000000000E+00  0.00000000000E+00  0.64252312088E+02  0.64252312088E+02  0.00000000000E+00 0. -1.
         -4   -1    0    0    0  501 -0.00000000000E+00 -0.00000000000E+00 -0.31992879116E+03  0.31992879116E+03  0.00000000000E+00 0.  1.
          5    1    1    2  502    0 -0.13725786105E+02  0.60214802960E+02 -0.23923470531E+02  0.66362825000E+02  0.41800000000E+01 0. -1.
         -5    1    1    2    0  502 -0.10756268405E+02 -0.79245555964E+02 -0.26201343519E+03  0.27397822554E+03  0.41800000000E+01 0.  1.
        -11    1    1    2    0    0  0.14029321786E+02  0.72784507179E+01  0.12781400561E+02  0.20326384699E+02  0.00000000000E+00 0. -1.
         11    1    1    2    0    0  0.10452732724E+02  0.11752302286E+02  0.17479026086E+02  0.23513668011E+02  0.00000000000E+00 0.  1.
</event>
<event>
 6    1  0.8259171E-006  0.1084526E+03  0.7561462E-02  0.1263462E+00
         -2   -1    0    0    0  501 -0.00000000000E+00  0.00000000000E+00  0.43560260942E+03  0.43560260942E+03  0.00000000000E+00 0.  1.
          2   -1    0    0  501    0  0.00000000000E+00 -0.00000000000E+00 -0.28763542147E+02  0.28763542147E+02  0.00000000000E+00 0. -1.
          5    1    1    2  502    0 -0.30303343209E+02  0.34715327411E+02  0.13785636960E+03  0.14541422766E+03  0.41800000000E+01 0. -1.
         -5    1    1    2    0  502  0.47309066755E+02 -0.58813093083E+02  0.10541217156E+03  0.12971632908E+03  0.41800000000E+01 0. -1.
        -11    1    1    2    0    0 -0.28636772624E+02  0.55007148342E+02  0.10221386329E+03  0.11955553088E+03  0.00000000000E+00 0. -1.
         11    1    1    2    0    0  0.11631049079E+02 -0.30909382670E+02  0.61356662814E+02  0.69680063945E+02  0.00000000000E+00 0.  1.
</event>
<event>
 6    1  0.8259171E-006  0.1304534E+03  0.7561462E-02  0.1226785E+00
          2   -1    0    0  501    0  0.00000000000E+00  0.00000000000E+00  0.24318629693E+03  0.24318629693E+03  0.00000000000E+00 0. -1.
         -2   -1    0    0    0  501 -0.00000000000E+00 -0.00000000000E+00 -0.87753214461E+02  0.87753214461E+02  0.00000000000E+00 0.  1.
          5    1    1    2  502    0  0.61782862637E+02 -0.66008777098E+02  0.55155860987E+02  0.10599019847E+03  0.41800000000E+01 0.  1.
         -5    1    1    2    0  502  0.34799197949E+02  0.56952399023E+02  0.24524989754E+02  0.71228557860E+02  0.41800000000E+01 0.  1.
        -11    1    1    2    0    0 -0.86341290484E+02  0.19905520312E+02  0.13406240508E+02  0.89614594045E+02  0.00000000000E+00 0.  1.
         11    1    1    2    0    0 -0.10240770102E+02 -0.10849142238E+02  0.62345991224E+02  0.64106161024E+02  0.00000000000E+00 0. -1.
</event>
<event>
 6    1  0.8259171E-006  0.1177420E+03  0.7561462E-02  0.1246869E+00
          2   -1    0    0  501    0  0.00000000000E+00  0.00000000000E+00  0.45468234741E+02  0.45468234741E+02  0.00000000000E+00 0. -1.
         -2   -1    0    0    0  501 -0.00000000000E+00 -0.00000000000E+00 -0.48429063257E+03  0.48429063257E+03  0.00000000000E+00 0.  1.
          5    1    1    2  502    0  0.36378761483E+02  0.99979607365E+02 -0.28577979967E+03  0.30497033049E+03  0.41800000000E+01 0. -1.
         -5    1    1    2    0  502 -0.76739389102E+01 -0.35769175928E+02 -0.86456284117E+02  0.93970658975E+02  0.41800000000E+01 0. -1.
        -11    1    1    2    0    0  0.18009742732E+02 -0.27046864776E+02  0.97379978242E+01  0.33922151009E+02  0.00000000000E+00 0. -1.
         11    1    1    2    0    0 -0.46714565305E+02 -0.37163566661E+02 -0.76324311868E+02  0.96895726845E+02  0.00000000000E+00 0.  1.
</event>
<event>
 6    1  0.8259171E-006  0.9467361E+02  0.7561462E-02  0.1291913E+00
          1   -1    0    0  501    0  0.00000000000E+00  0.00000000000E+00  0.16464107206E+03  0.16464107206E+03  0.00000000000E+00 0. -1.
         -1   -1    0    0    0  501 -0.00000000000E+00 -0.00000000000E+00 -0.89755729452E+02  0.89755729452E+02  0.00000000000E+00 0.  1.
          5    1    1    2  502    0 -0.28604719678E+02 -0.24222240244E+02 -0.28473918129E+02  0.47256569109E+02  0.41800000000E+01 0.  1.
         -5    1    1    2    0  502  0.33332919585E+02  0.71030176764E+02  0.36418060940E+02  0.86603216463E+02  0.41800000000E+01 0.  1.
        -11    1    1    2    0    0 -0.13172640799E+02  0.94236061545E+01  0.61291051915E+02  0.63394919855E+02  0.00000000000E+00 0. -1.
         11    1    1    2    0    0  0.84444408925E+01 -0.56231542675E+02  0.56501478794E+01  0.57142096082E+02  0.00000000000E+00 0.  1.
</event>
<event>
 6    1  0.8259171E-006  0.1732312E+03  0.7561462E-02  0.1174520E+00
          2   -1    0    0  501    0  0.00000000000E+00  0.00000000000E+00  0.65032116952E+02  0.65032116952E+02  0.00000000000E+00 0. -1.
         -2   -1    0    0    0  501 -0.00000000000E+00 -0.00000000000E+00 -0.57821044188E+03  0.57821044188E+03  0.00000000000E+00 0.  1.
          5    1    1    2  502    0  0.10777406738E+03 -0.21974038724E+02 -0.30213965220E+03  0.32156484542E+03  0.41800000000E+01 0. -1.
         -5    1    1    2    0  502  0.32780105715E+02  0.60743610677E+02 -0.77157229851E+02  0.10360999994E+03  0.41800000000E+01 0. -1.
        -11    1    1    2    0    0 -0.34731333644E+02 -0.49940515211E+02 -0.24833828841E+02  0.65704182904E+02  0.00000000000E+00 0.  1.
         11    1    1    2    0    0 -0.10582283945E+03  0.11170943258E+02 -0.10904761404E+03  0.15236353058E+03  0.00000000000E+00 0. -1.
</event>
<event>
 6    1  0.8259171E-006  0.1124278E+03  0.7561462E-02  0.1256139E+00
          2   -1    0    0  501    0  0.00000000000E+00  0.00000000000E+00  0.45709878755E+03  0.45709878755E+03  0.00000000000E+00 0. -1.
         -2   -1    0    0    0  501 -0.00000000000E+00 -0.00000000000E+00 -0.53345437646E+02  0.53345437646E+02  0.00000000000E+00 0.  1.
          5    1    1    2  502    0  0.68577805533E+01 -0.35483863702E+02  0.12222639953E+03  0.12752607137E+03  0.41800000000E+01 0. -1.
         -5    1    1    2    0  502  0.65224937391E+02 -0.24152321963E+02 -0.18013850918E+01  0.69701825673E+02  0.41800000000E+01 0. -1.
        -11    1    1    2    0    0 -0.87169809098E+02  0.46531043318E+02  0.27378520782E+03  0.29107053034E+03  0.00000000000E+00 0. -1.
         11    1    1    2    0    0  0.15087091154E+02  0.13105142347E+02  0.95431276415E+01  0.22145797809E+02  0.00000000000E+00 0.  1.
</event>
<event>
 6    1  0.8259171E-006  0.1283670E+03  0.7561462E-02  0.1229899E+00
         -2   -1    0    0    0  501 -0.00000000000E+00  0.00000000000E+00  0.22593975006E+02  0.22593975006E+02  0.00000000000E+00 0.  1.
          2   -1    0    0  501    0  0.00000000000E+00 -0.00000000000E+00 -0.80026228380E+03  0.80026228380E+03  0.00000000000E+00 0. -1.
          5    1    1    2  502    0  0.10603528971E+03  0.17008524543E+02 -0.27426505760E+03  0.29457013900E+03  0.41800000000E+01 0.  1.
         -5    1    1    2    0  502 -0.29912767433E+02 -0.65112947243E+00 -0.19373356906E+03  0.19607489846E+03  0.41800000000E+01 0.  1.
        -11    1    1    2    0    0  0.20501330309E+02 -0.82123102916E+01 -0.40852389853E+02  0.46439900317E+02  0.00000000000E+00 0.  1.
         11    1    1    2    0    0 -0.96623852582E+02 -0.81450847794E+01 -0.26881729228E+03  0.28577132103E+03  0.00000000000E+00 0. -1.
</event>
<event>
 6    1  0.8259171E-006  0.1179899E+03  0.7561462E-02  0.1246450E+00
          2   -1    0    0  501    0  0.00000000000E+00  0.00000000000E+00  0.20443376091E+03  0.20443376091E+03  0.00000000000E+00 0. -1.
         -2   -1    0    0    0  501 -0.00000000000E+00 -0.00000000000E+00 -0.17975811193E+03  0.17975811193E+03  0.00000000000E+00 0.  1.
          5    1    1    2  502    0  0.20360433468E+02  0.77524501383E+02 -0.12038268833E+03  0.14468607264E+03  0.41800000000E+01 0. -1.
         -5    1    1    2    0  502  0.27358018378E+02 -0.37235873016E+02 -0.12141595933E+02  0.47956878137E+02  0.41800000000E+01 0. -1.
        -11    1    1    2    0    0 -0.70142606294E+02 -0.48680240293E+02  0.12647874321E+03  0.15259955274E+03  0.00000000000E+00 0. -1.
         11    1    1    2    0    0  0.22424154447E+02  0.83916119259E+01  0.30721190040E+02  0.38949369325E+02  0.00000000000E+00 0.  1.
</event>
<event>
 6    1  0.8259171E-006  0.7692092E+02  0.7561462E-02  0.1338024E+00
          2   -1    0    0  501    0  0.00000000000E+00  0.00000000000E+00  0.70129490826E+02  0.70129490826E+02  0.00000000000E+00 0. -1.
         -2   -1    0    0    0  501 -0.00000000000E+00 -0.00000000000E+00 -0.25221503830E+03  0.25221503830E+03  0.00000000000E+00 0.  1.
          5    1    1    2  502    0 -0.18135110929E+02 -0.56801133461E+02  0.50373703104E+01  0.59984152161E+02  0.41800000000E+01 0.  1.
         -5    1    1    2    0  502 -0.30097986112E+01 -0.15709311497E+02 -0.13367460660E+03  0.13469303696E+03  0.41800000000E+01 0.  1.
        -11    1    1    2    0    0  0.13417566972E+02  0.17834947910E+02 -0.67160169883E+02  0.70771497717E+02  0.00000000000E+00 0.  1.
         11    1    1    2    0    0  0.77273425682E+01  0.54675497048E+02  0.13711858701E+02  0.56895842288E+02  0.00000000000E+00 0. -1.
</event>
<event>
 6    1  0.8259171E-006  0.1422115E+03  0.7561462E-02  0.1210384E+00
         -2   -1    0    0    0  501 -0.00000000000E+00  0.00000000000E+00  0.44112815484E+02  0.44112815484E+02  0.00000000000E+00 0.  1.
          2   -1    0    0  501    0  0.00000000000E+00 -0.00000000000E+00 -0.68560559429E+03  0.68560559429E+03  0.00000000000E+00 0. -1.
          5    1    1    2  502    0  0.10082010712E+03 -0.24870397879E+02 -0.85015031418E+02  0.13426935115E+03  0.41800000000E+01 0. -1.
         -5    1    1    2    0  502  0.56751837206E+01  0.58575512965E+02 -0.94424243760E+02  0.11134050763E+03  0.41800000000E+01 0. -1.
        -11    1    1    2    0    0 -0.25429366164E+01 -0.15814801251E+02 -0.78878570713E+01  0.17854768395E+02  0.00000000000E+00 0.  1.
         11    1    1    2    0    0 -0.10395235423E+03 -0.17890313835E+02 -0.45416564655E+03  0.46625378260E+03  0.00000000000E+00 0. -1.
</event>
<event>
 6    1  0.8259171E-006  0.1535484E+03  0.7561462E-02  0.1196179E+00
         -2   -1    0    0    0  501 -0.00000000000E+00  0.00000000000E+00  0.34590647667E+02  0.34590647667E+02  0.00000000000E+00 0.  1.
          2   -1    0    0  501    0  0.00000000000E+00 -0.00000000000E+00 -0.83475202178E+03  0.83475202178E+03  0.00000000000E+00 0. -1.
          5    1    1    2  502    0 -0.25816439176E+02  0.17494610584E+01 -0.17494885931E+02  0.31513371439E+02  0.41800000000E+01 0. -1.
         -5    1    1    2    0  502  0.76120958208E+02 -0.11814806559E+03 -0.33893903040E+03  0.36694754994E+03  0.41800000000E+01 0. -1.
        -11    1    1    2    0    0  0.88798459706E+01  0.52240455057E+02 -0.28360828588E+03  0.28851616355E+03  0.00000000000E+00 0. -1.
         11    1    1    2    0    0 -0.59184365003E+02  0.64158149475E+02 -0.16011917191E+03  0.18236558452E+03  0.00000000000E+00 0.  1.
</event>
<event>
 6    1  0.8259171E-006  0.1479596E+03  0.7561462E-02  0.1203003E+00
         -1   -1    0    0    0  501 -0.00000000000E+00  0.00000000000E+00  0.33880815694E+02  0.33880815694E+02  0.00000000000E+00 0.  1.
          1   -1    0    0  501    0  0.00000000000E+00 -0.00000000000E+00 -0.67524315631E+03  0.67524315631E+03  0.00000000000E+00 0. -1.
          5    1    1    2  502    0 -0.46523926943E+02 -0.74825305378E+02 -0.17874183438E+03  0.19932239678E+03  0.41800000000E+01 0.  1.
         -5    1    1    2    0  502  0.65481891911E+02 -0.21110436601E+02 -0.99663206976E+02  0.12117654858E+03  0.41800000000E+01 0.  1.
        -11    1    1    2    0    0 -0.45140215614E+02  0.65148456667E+01 -0.12665613204E+03  0.13461745081E+03  0.00000000000E+00 0. -1.
         11    1    1    2    0    0  0.26182250645E+02  0.89420896312E+02 -0.23630116723E+03  0.25400757583E+03  0.00000000000E+00 0.  1.
</event>
<event>
 6    1  0.8259171E-006  0.1853179E+03  0.7561462E-02  0.1162753E+00
         -4   -1    0    0    0  501 -0.00000000000E+00  0.00000000000E+00  0.13326365423E+03  0.13326365423E+03  0.00000000000E+00 0. -1.
          4   -1    0    0  501    0  0.00000000000E+00 -0.00000000000E+00 -0.52143424038E+03  0.52143424038E+03  0.00000000000E+00 0.  1.
          5    1    1    2  502    0 -0.49294990063E+02  0.14901807712E+02 -0.42754498981E+02  0.67063250008E+02  0.41800000000E+01 0. -1.
         -5    1    1    2    0  502 -0.43256045360E+02  0.13452675775E+03  0.46098125608E+02  0.14869782647E+03  0.41800000000E+01 0. -1.
        -11    1    1    2    0    0  0.30772524263E+02 -0.73692177842E+02 -0.27750864962E+03  0.28877073248E+03  0.00000000000E+00 0.  1.
         11    1    1    2    0    0  0.61778511160E+02 -0.75736387624E+02 -0.11400556316E+03  0.15016608566E+03  0.00000000000E+00 0. -1.
</event>
<event>
 6    1  0.8259171E-006  0.1399640E+03  0.7561462E-02  0.1213377E+00
         -2   -1    0    0    0  501 -0.00000000000E+00  0.00000000000E+00  0.18707300069E+02  0.18707300069E+02  0.00000000000E+00 0.  1.
          2   -1    0    0  501    0  0.00000000000E+00 -0.00000000000E+00 -0.12845690092E+04  0.12845690092E+04  0.00000000000E+00 0. -1.
          5    1    1    2  502    0 -0.78646600655E+02 -0.77216134761E+01 -0.44023914583E+03  0.44729508049E+03  0.41800000000E+01 0. -1.
         -5    1    1    2    0  502 -0.14703952185E+01 -0.74978988808E+02 -0.16351487658E+03  0.17994054042E+03  0.41800000000E+01 0. -1.
        -11    1    1    2    0    0  0.64498110577E+02  0.88074314734E+02 -0.63486202539E+03  0.64417923163E+03  0.00000000000E+00 0.  1.
         11    1    1    2    0    0  0.15618885296E+02 -0.53737124492E+01 -0.27245661357E+02  0.31861456749E+02  0.00000000000E+00 0. -1.
</event>
<event>
 6    1  0.8259171E-006  0.1046188E+03  0.7561462E-02  0.1270872E+00
          2   -1    0    0  501    0  0.00000000000E+00  0.00000000000E+00  0.65890626927E+02  0.65890626927E+02  0.00000000000E+00 0. -1.
         -2   -1    0    0    0  501 -0.00000000000E+00 -0.00000000000E+00 -0.21967946263E+03  0.21967946263E+03  0.00000000000E+00 0.  1.
          5    1    1    2  502    0  0.76955910841E+02 -0.31550170094E+02 -0.90141814727E+02  0.12272181798E+03  0.41800000000E+01 0. -1.
         -5    1    1    2    0  502 -0.24105934914E+02  0.35998735108E+02 -0.64938021104E+01  0.44007350446E+02  0.41800000000E+01 0. -1.
        -11    1    1    2    0    0 -0.22439700130E+02  0.29365410091E+02  0.94926999529E+01  0.38157290314E+02  0.00000000000E+00 0. -1.
         11    1    1    2    0    0 -0.30410275797E+02 -0.33813975105E+02 -0.66645918816E+02  0.80683630813E+02  0.00000000000E+00 0.  1.
</event>
<event>
 6    1  0.9371456E-006  0.1617632E+03  0.7561462E-02  0.1186720E+00
         -1   -1    0    0    0  501 -0.00000000000E+00  0.00000000000E+00  0.14166930252E+03  0.14166930252E+03  0.00000000000E+00 0.  1.
          1   -1    0    0  501    0  0.00000000000E+00 -0.00000000000E+00 -0.20301550180E+03  0.20301550180E+03  0.00000000000E+00 0. -1.
          5    1    1    2  502    0  0.19344147847E+01 -0.43071147093E+02 -0.14395915894E+02  0.45646253591E+02  0.41800000000E+01 0. -1.
         -5    1    1    2    0  502  0.12137372918E+03  0.40154435748E+02  0.25111953287E+02  0.13035353253E+03  0.41800000000E+01 0. -1.
        -11    1    1    2    0    0 -0.11780279136E+03  0.32502401958E+02 -0.61368438452E+02  0.13674790318E+03  0.00000000000E+00 0.  1.
         11    1    1    2    0    0 -0.55053526021E+01 -0.29585690614E+02 -0.10693798219E+02  0.31937115034E+02  0.00000000000E+00 0. -1.
</event>
<event>
 6    1  0.8259171E-006  0.1177408E+03  0.7561462E-02  0.1246871E+00
          2   -1    0    0  501    0  0.00000000000E+00  0.00000000000E+00  0.40735060149E+03  0.40735060149E+03  0.00000000000E+00 0. -1.
         -2   -1    0    0    0  501 -0.00000000000E+00 -0.00000000000E+00 -0.54454005644E+02  0.54454005644E+02  0.00000000000E+00 0.  1.
          5    1    1    2  502    0 -0.14375305392E+02 -0.29089965447E+02  0.53512774113E+02  0.62721327219E+02  0.41800000000E+01 0.  1.
         -5    1    1    2    0  502  0.97456892367E+01  0.11270330414E+03  0.81473145956E+02  0.13947171446E+03  0.41800000000E+01 0.  1.
        -11    1    1    2    0    0 -0.12883738570E+02 -0.50349139131E+02  0.16214645143E+02  0.54442090774E+02  0.00000000000E+00 0.  1.
         11    1    1    2    0    0  0.17513354725E+02 -0.33264199564E+02  0.20169603064E+03  0.20516947468E+03  0.00000000000E+00 0. -1.
</event>
<event>
 6    1  0.8259171E-006  0.1374213E+03  0.7561462E-02  0.1216842E+00
         -1   -1    0    0    0  501 -0.00000000000E+00  0.00000000000E+00  0.15617824479E+03  0.15617824479E+03  0.00000000000E+00 0.  1.
          1   -1    0    0  501    0  0.00000000000E+00 -0.00000000000E+00 -0.19132563578E+03  0.19132563578E+03  0.00000000000E+00 0. -1.
          5    1    1    2  502    0 -0.57444557927E+01 -0.20085739390E+01 -0.52969383953E+02  0.53481409649E+02  0.41800000000E+01 0. -1.
         -5    1    1    2    0  502 -0.11180180186E+03  0.65218435117E+02  0.24051069943E+02  0.13171565413E+03  0.41800000000E+01 0. -1.
        -11    1    1    2    0    0  0.54321329905E+02 -0.49000983244E+02 -0.45864188457E+02  0.86344814693E+02  0.00000000000E+00 0. -1.
         11    1    1    2    0    0  0.63224927746E+02 -0.14208877934E+02  0.39635111479E+02  0.75962002096E+02  0.00000000000E+00 0.  1.
</event>
<event>
 6    1  0.8259171E-006  0.8805589E+02  0.7561462E-02  0.1307629E+00
         -2   -1    0    0    0  501 -0.00000000000E+00  0.00000000000E+00  0.89521978752E+02  0.89521978752E+02  0.00000000000E+00 0.  1.
          2   -1    0    0  501    0  0.00000000000E+00 -0.00000000000E+00 -0.16951151974E+03  0.16951151974E+03  0.00000000000E+00 0. -1.
          5    1    1    2  502    0 -0.46172104615E+02  0.48102791321E+02  0.19638882480E+02  0.69634042555E+02  0.41800000000E+01 0. -1.
         -5    1    1    2    0  502  0.55784155733E+02 -0.11929295298E+02 -0.21021634046E+02  0.60938999131E+02  0.41800000000E+01 0. -1.
        -11    1    1    2    0    0 -0.14123318513E+02  0.14642094167E+01  0.19018305901E+02  0.23734110355E+02  0.00000000000E+00 0.  1.
         11    1    1    2    0    0  0.45112673954E+01 -0.37637705440E+02 -0.97625095321E+02  0.10472634645E+03  0.00000000000E+00 0. -1.
</event>
<event>
 6    1  0.8259171E-006  0.1030777E+03  0.7561462E-02  0.1273954E+00
          1   -1    0    0  501    0  0.00000000000E+00  0.00000000000E+00  0.97191094764E+02  0.97191094764E+02  0.00000000000E+00 0. -1.
         -1   -1    0    0    0  501 -0.00000000000E+00 -0.00000000000E+00 -0.13404119137E+03  0.13404119137E+03  0.00000000000E+00 0.  1.
          5    1    1    2  502    0  0.32645556853E+02  0.57936945151E+02 -0.26051841484E+02  0.71544341778E+02  0.41800000000E+01 0. -1.
         -5    1    1    2    0  502 -0.26837462024E+02 -0.51919298194E+02 -0.28748677248E+02  0.65267309860E+02  0.41800000000E+01 0. -1.
        -11    1    1    2    0    0 -0.35767302388E+02 -0.26605022869E+02  0.32603070393E+02  0.55227596011E+02  0.00000000000E+00 0. -1.
         11    1    1    2    0    0  0.29959207559E+02  0.20587375912E+02 -0.14652648268E+02  0.39193038486E+02  0.00000000000E+00 0.  1.
</event>
<event>
 6    1  0.8259171E-006  0.1246128E+03  0.7561462E-02  0.1235676E+00
         -2   -1    0    0    0  501 -0.00000000000E+00  0.00000000000E+00  0.84852069901E+02  0.84852069901E+02  0.00000000000E+00 0.  1.
          2   -1    0    0  501    0  0.00000000000E+00 -0.00000000000E+00 -0.21112775847E+03  0.21112775847E+03  0.00000000000E+00 0. -1.
          5    1    1    2  502    0  0.44624230130E+02 -0.49555089060E+02  0.54705324003E+01  0.67040494413E+02  0.41800000000E+01 0. -1.
         -5    1    1    2    0  502  0.32046054848E+02  0.58347679987E+02 -0.60036053249E+02  0.89739631607E+02  0.41800000000E+01 0. -1.
        -11    1    1    2    0    0 -0.29247606681E+02 -0.46628342025E+02 -0.17269827310E+02  0.57687708499E+02  0.00000000000E+00 0. -1.
         11    1    1    2    0    0 -0.47422678297E+02  0.37835751098E+02 -0.54440340414E+02  0.81511993856E+02  0.00000000000E+00 0.  1.
</event>
<event>
 6    1  0.8259171E-006  0.9914332E+02  0.7561462E-02  0.1282108E+00
          1   -1    0    0  501    0  0.00000000000E+00  0.00000000000E+00  0.70818249013E+02  0.70818249013E+02  0.00000000000E+00 0. -1.
         -1   -1    0    0    0  501 -0.00000000000E+00 -0.00000000000E+00 -0.17834070898E+03  0.17834070898E+03  0.00000000000E+00 0.  1.
          5    1    1    2  502    0 -0.30185272541E+02 -0.41959035253E+02 -0.75649639124E+02  0.91717237296E+02  0.41800000000E+01 0.  1.
         -5    1    1    2    0  502  0.22306424709E+01  0.73428544699E+02 -0.39921928816E+02  0.83713557700E+02  0.41800000000E+01 0.  1.
        -11    1    1    2    0    0 -0.15336038558E+02 -0.24638799471E+02  0.71641780772E+01  0.29892975187E+02  0.00000000000E+00 0. -1.
         11    1    1    2    0    0  0.43290668628E+02 -0.68307099757E+01  0.88492989966E+00  0.43835187806E+02  0.00000000000E+00 0.  1.
</event>
<event>
 6    1  0.8259171E-006  0.1954923E+03  0.7561462E-02  0.1153599E+00
         -1   -1    0    0    0  501 -0.00000000000E+00  0.00000000000E+00  0.91736245087E+02  0.91736245087E+02  0.00000000000E+00 0.  1.
          1   -1    0    0  501    0  0.00000000000E+00 -0.00000000000E+00 -0.54678514598E+03  0.54678514598E+03  0.00000000000E+00 0. -1.
          5    1    1    2  502    0  0.41004071044E+02 -0.24100186861E+02 -0.40642579019E+02  0.62701231872E+02  0.41800000000E+01 0. -1.
         -5    1    1    2    0  502  0.91610310034E+02  0.13418153121E+03 -0.63769877931E+02  0.17458866502E+03  0.41800000000E+01 0. -1.
        -11    1    1    2    0    0 -0.28705263714E+02 -0.57479420197E+02 -0.59115255527E+02  0.87306868843E+02  0.00000000000E+00 0.  1.
         11    1    1    2    0    0 -0.10390911736E+03 -0.52601924150E+02 -0.29152118841E+03  0.31392462533E+03  0.00000000000E+00 0. -1.
</event>
<event>
 6    1  0.8259171E-006  0.9240937E+02  0.7561462E-02  0.1297120E+00
          1   -1    0    0  501    0  0.00000000000E+00  0.00000000000E+00  0.32402371530E+03  0.32402371530E+03  0.00000000000E+00 0. -1.
         -1   -1    0    0    0  501 -0.00000000000E+00 -0.00000000000E+00 -0.38271051897E+02  0.38271051897E+02  0.00000000000E+00 0.  1.
          5    1    1    2  502    0  0.41890983671E+02 -0.63355730463E+02  0.16553414239E+03  0.18217526669E+03  0.41800000000E+01 0.  1.
         -5    1    1    2    0  502 -0.17929993008E+02  0.24654288290E+02  0.67162683468E+00  0.30777297851E+02  0.41800000000E+01 0.  1.
        -11    1    1    2    0    0 -0.25100432161E+02  0.55621508654E+02  0.11731591332E+03  0.13223769295E+03  0.00000000000E+00 0. -1.
         11    1    1    2    0    0  0.11394414990E+01 -0.16920066482E+02  0.22309808564E+01  0.17104509705E+02  0.00000000000E+00 0.  1.
</event>
<event>
 6    1  0.8259171E-006  0.7756048E+02  0.7561462E-02  0.1336121E+00
          2   -1    0    0  501    0  0.00000000000E+00  0.00000000000E+00  0.20110193579E+03  0.20110193579E+03  0.00000000000E+00 0. -1.
         -2   -1    0    0    0  501 -0.00000000000E+00 -0.00000000000E+00 -0.70357587727E+02  0.70357587727E+02  0.00000000000E+00 0.  1.
          5    1    1    2  502    0  0.21315661845E+02 -0.75390037052E+01  0.85080748284E+02  0.88132855085E+02  0.41800000000E+01 0. -1.
         -5    1    1    2    0  502 -0.24484979862E+02 -0.21895014744E+02 -0.40299429918E+02  0.52157668287E+02  0.41800000000E+01 0.  1.
        -11    1    1    2    0    0  0.45264924860E+02  0.34087532672E+02  0.46977906581E+02  0.73605686010E+02  0.00000000000E+00 0.  1.
         11    1    1    2    0    0 -0.42095606843E+02 -0.46535142230E+01  0.38985123120E+02  0.57563314140E+02  0.00000000000E+00 0. -1.
</event>
<event>
 6    1  0.8259171E-006  0.1120152E+03  0.7561462E-02  0.1256883E+00
          1   -1    0    0  501    0  0.00000000000E+00  0.00000000000E+00  0.58349092208E+03  0.58349092208E+03  0.00000000000E+00 0. -1.
         -1   -1    0    0    0  501 -0.00000000000E+00 -0.00000000000E+00 -0.22035311627E+02  0.22035311627E+02  0.00000000000E+00 0.  1.
          5    1    1    2  502    0  0.24485067610E+02  0.44434575310E+02  0.13444135843E+03  0.14375639560E+03  0.41800000000E+01 0. -1.
         -5    1    1    2    0  502 -0.54401013678E+02 -0.54376719305E+02  0.15261819740E+03  0.17095638178E+03  0.41800000000E+01 0. -1.
        -11    1    1    2    0    0  0.57893518616E+02  0.26405788337E+02  0.17186587036E+03  0.18326702526E+03  0.00000000000E+00 0.  1.
         11    1    1    2    0    0 -0.27977572548E+02 -0.16463644342E+02  0.10253018426E+03  0.10754643107E+03  0.00000000000E+00 0. -1.
</event>
<event>
 6    1  0.8259171E-006  0.8184012E+02  0.7561462E-02  0.1323909E+00
         -1   -1    0    0    0  501 -0.00000000000E+00  0.00000000000E+00  0.19000019959E+03  0.19000019959E+03  0.00000000000E+00 0.  1.
          1   -1    0    0  501    0  0.00000000000E+00 -0.00000000000E+00 -0.66123938606E+02  0.66123938606E+02  0.00000000000E+00 0. -1.
          5    1    1    2  502    0  0.28737502791E+02 -0.42802489903E+02  0.50469866455E+02  0.72267399486E+02  0.41800000000E+01 0. -1.
         -5    1    1    2    0  502 -0.36456922047E+02  0.64537191644E+02  0.45508075664E+02  0.87078204053E+02  0.41800000000E+01 0. -1.
        -11    1    1    2    0    0 -0.77633753113E+01 -0.20803844403E+02 -0.29725561031E+02  0.37103624038E+02  0.00000000000E+00 0. -1.
         11    1    1    2    0    0  0.15482794568E+02 -0.93085733917E+00  0.57623879894E+02  0.59674910616E+02  0.00000000000E+00 0.  1.
</event>
<event>
 6    1  0.8259171E-006  0.1138713E+03  0.7561462E-02  0.1253564E+00
          2   -1    0    0  501    0  0.00000000000E+00  0.00000000000E+00  0.11120161972E+03  0.11120161972E+03  0.00000000000E+00 0. -1.
         -2   -1    0    0    0  501 -0.00000000000E+00 -0.00000000000E+00 -0.13914477436E+03  0.13914477436E+03  0.00000000000E+00 0.  1.
          5    1    1    2  502    0  0.23404044220E+02  0.79595569594E+02  0.13983367550E+02  0.84239010873E+02  0.41800000000E+01 0. -1.
         -5    1    1    2    0  502 -0.21519440448E+02 -0.44881965556E+02 -0.47830922568E+02  0.69157405266E+02  0.41800000000E+01 0.  1.
        -11    1    1    2    0    0 -0.37547929412E+02 -0.44026591647E+02 -0.61024147189E+01  0.58184424381E+02  0.00000000000E+00 0.  1.
         11    1    1    2    0    0  0.35663325640E+02  0.93129876099E+01  0.12006815096E+02  0.38765553559E+02  0.00000000000E+00 0. -1.
</event>
<event>
 6    1  0.8259171E-006  0.6970148E+02  0.7561462E-02  0.1361111E+00
         -1   -1    0    0    0  501 -0.00000000000E+00  0.00000000000E+00  0.12968820688E+03  0.12968820688E+03  0.00000000000E+00 0.  1.
          1   -1    0    0  501    0  0.00000000000E+00 -0.00000000000E+00 -0.17953032142E+03  0.17953032142E+03  0.00000000000E+00 0. -1.
          5    1    1    2  502    0 -0.52991275073E+01  0.23050117192E+02 -0.24932974160E+02  0.34619564633E+02  0.41800000000E+01 0.  1.
         -5    1    1    2    0  502 -0.34393316748E+01 -0.56528933343E+02  0.10078762070E+03  0.11568477079E+03  0.41800000000E+01 0.  1.
        -11    1    1    2    0    0 -0.18438172507E+02  0.22981906910E+02  0.42920049670E+00  0.29467243911E+02  0.00000000000E+00 0.  1.
         11    1    1    2    0    0  0.27176631689E+02  0.10496909241E+02 -0.12612596157E+03  0.12944694896E+03  0.00000000000E+00 0. -1.
</event>
<event>
 6    1  0.8259171E-006  0.9217069E+02  0.7561462E-02  0.1297679E+00
         -2   -1    0    0    0  501 -0.00000000000E+00  0.00000000000E+00  0.24185390273E+03  0.24185390273E+03  0.00000000000E+00 0.  1.
          2   -1    0    0  501    0  0.00000000000E+00 -0.00000000000E+00 -0.51089587211E+02  0.51089587211E+02  0.00000000000E+00 0. -1.
          5    1    1    2  502    0  0.27388613056E+02 -0.37776500350E+02  0.11698178163E+03  0.12601352998E+03  0.41800000000E+01 0.  1.
         -5    1    1    2    0  502 -0.36796392304E+02  0.44278613850E+02  0.23195221138E+02  0.62209812849E+02  0.41800000000E+01 0.  1.
        -11    1    1    2    0    0 -0.33125481243E+02  0.92840772652E+01  0.48293645756E+02  0.59293910469E+02  0.00000000000E+00 0.  1.
         11    1    1    2    0    0  0.42533260492E+02 -0.15786190765E+02  0.22936669878E+01  0.45426236639E+02  0.00000000000E+00 0. -1.
</event>
<event>
 6    1  0.8259171E-006  0.1294612E+03  0.7561462E-02  0.1228257E+00
          2   -1    0    0  501    0  0.00000000000E+00  0.00000000000E+00  0.75560664514E+03  0.75560664514E+03  0.00000000000E+00 0. -1.
         -2   -1    0    0    0  501 -0.00000000000E+00 -0.00000000000E+00 -0.27695921917E+02  0.27695921917E+02  0.00000000000E+00 0.  1.
          5    1    1    2  502    0  0.83236519817E+02  0.39177348902E+02  0.13883540711E+03  0.16660109713E+03  0.41800000000E+01 0. -1.
         -5    1    1    2    0  502 -0.46191172744E+02  0.26331092587E+02  0.99487420384E+02  0.11288122116E+03  0.41800000000E+01 0. -1.
        -11    1    1    2    0    0  0.14283930549E+02  0.13254704836E+02  0.39823866915E+02  0.44335744589E+02  0.00000000000E+00 0.  1.
         11    1    1    2    0    0 -0.51329277622E+02 -0.78763146325E+02  0.44976402882E+03  0.45948450418E+03  0.00000000000E+00 0. -1.
</event>
<event>
 6    1  0.9606406E-006  0.1601711E+03  0.7561462E-02  0.1188504E+00
         -1   -1    0    0    0  501 -0.00000000000E+00  0.00000000000E+00  0.18013012153E+02  0.18013012153E+02  0.00000000000E+00 0.  1.
          1   -1    0    0  501    0  0.00000000000E+00 -0.00000000000E+00 -0.17343433370E+04  0.17343433370E+04  0.00000000000E+00 0. -1.
          5    1    1    2  502    0 -0.33255235214E+02 -0.18835993066E+02 -0.61928086536E+02  0.72892150510E+02  0.41800000000E+01 0. -1.
         -5    1    1    2    0  502 -0.96583426055E+02  0.61847149911E+02 -0.84723669976E+03  0.85497422532E+03  0.41800000000E+01 0. -1.
        -11    1    1    2    0    0  0.38716313786E+02 -0.62902433359E+02 -0.31270886276E+03  0.32131371263E+03  0.00000000000E+00 0.  1.
         11    1    1    2    0    0  0.91122347483E+02  0.19891276514E+02 -0.49445667584E+03  0.50317626074E+03  0.00000000000E+00 0. -1.
</event>
<event>
 6    1  0.8259171E-006  0.1199939E+03  0.7561462E-02  0.1243107E+00
         -1   -1    0    0    0  501 -0.00000000000E+00  0.00000000000E+00  0.10719952394E+03  0.10719952394E+03  0.00000000000E+00 0.  1.
          1   -1    0    0  501    0  0.00000000000E+00 -0.00000000000E+00 -0.14482666384E+03  0.14482666384E+03  0.00000000000E+00 0. -1.
          5    1    1    2  502    0 -0.55018229694E+02  0.49965757084E+02  0.13984370028E+02  0.75740461345E+02  0.41800000000E+01 0. -1.
         -5    1    1    2    0  502  0.15646803972E+01 -0.60738972085E+02 -0.43184091051E+01  0.61055646847E+02  0.41800000000E+01 0. -1.
        -11    1    1    2    0    0  0.33584620396E+02  0.50256936248E+02 -0.22137452732E+02  0.64371990661E+02  0.00000000000E+00 0. -1.
         11    1    1    2    0    0  0.19868928900E+02 -0.39483721247E+02 -0.25155648086E+02  0.50858088932E+02  0.00000000000E+00 0.  1.
</event>
<event>
 6    1  0.8259171E-006  0.1290323E+03  0.7561462E-02  0.1228899E+00
          3   -1    0    0  501    0  0.00000000000E+00  0.00000000000E+00  0.32131941613E+03  0.32131941613E+03  0.00000000000E+00 0. -1.
         -3   -1    0    0    0  501 -0.00000000000E+00 -0.00000000000E+00 -0.55395143911E+02  0.55395143911E+02  0.00000000000E+00 0.  1.
          5    1    1    2  502    0  0.87325017738E+01 -0.10097656502E+03  0.98228041492E+02  0.14120461680E+03  0.41800000000E+01 0. -1.
         -5    1    1    2    0  502 -0.26079860753E+02  0.28674527020E+02  0.79048718078E+02  0.88139434230E+02  0.41800000000E+01 0. -1.
        -11    1    1    2    0    0  0.34073733360E+02  0.88206378358E+02  0.68957355776E+02  0.11703205289E+03  0.00000000000E+00 0.  1.
         11    1    1    2    0    0 -0.16726374381E+02 -0.15904340358E+02  0.19690156876E+02  0.30338456123E+02  0.00000000000E+00 0. -1.
</event>
<event>
 6    1  0.8259171E-006  0.1827351E+03  0.7561462E-02  0.1165182E+00
          1   -1    0    0  501    0  0.00000000000E+00  0.00000000000E+00  0.43476732627E+03  0.43476732627E+03  0.00000000000E+00 0. -1.
         -1   -1    0    0    0  501 -0.00000000000E+00 -0.00000000000E+00 -0.10034602074E+03  0.10034602074E+03  0.00000000000E+00 0.  1.
          5    1    1    2  502    0  0.48086931866E+02  0.50456224232E+02  0.26700535944E+02  0.74756769591E+02  0.41800000000E+01 0.  1.
         -5    1    1    2    0  502 -0.79362206003E+02  0.96690954252E+02  0.25433918904E+02  0.12771788053E+03  0.41800000000E+01 0.  1.
        -11    1    1    2    0    0 -0.25801891062E+02 -0.69355562303E+02  0.16450650460E+03  0.18038381763E+03  0.00000000000E+00 0. -1.
         11    1    1    2    0    0  0.57077165199E+02 -0.77791616181E+02  0.11778034608E+03  0.15225487926E+03  0.00000000000E+00 0.  1.
</event>
<event>
 6    1  0.8259171E-006  0.1291581E+03  0.7561462E-02  0.1228710E+00
         -1   -1    0    0    0  501 -0.00000000000E+00  0.00000000000E+00  0.43372762185E+02  0.43372762185E+02  0.00000000000E+00 0.  1.
          1   -1    0    0  501    0  0.00000000000E+00 -0.00000000000E+00 -0.41553556633E+03  0.41553556633E+03  0.00000000000E+00 0. -1.
          5    1    1    2  502    0  0.51773667430E+02 -0.76270044556E+02 -0.10658465859E+03  0.14098011982E+03  0.41800000000E+01 0.  1.
         -5    1    1    2    0  502 -0.54051075900E+02 -0.12815651617E+00 -0.68848646675E+02  0.87630723944E+02  0.41800000000E+01 0.  1.
        -11    1    1    2    0    0  0.41200157298E+02  0.28449496875E+02 -0.48455718163E+02  0.69676276138E+02  0.00000000000E+00 0. -1.
         11    1    1    2    0    0 -0.38922748829E+02  0.47948704197E+02 -0.14827378071E+03  0.16062120862E+03  0.00000000000E+00 0.  1.
</event>
<event>
 6    1  0.8259171E-006  0.1772737E+03  0.7561462E-02  0.1170468E+00
         -2   -1    0    0    0  501 -0.00000000000E+00  0.00000000000E+00  0.48508159012E+02  0.48508159012E+02  0.00000000000E+00 0.  1.
          2   -1    0    0  501    0  0.00000000000E+00 -0.00000000000E+00 -0.87685287703E+03  0.87685287703E+03  0.00000000000E+00 0. -1.
          5    1    1    2  502    0  0.29162758032E+02  0.69550165219E+02 -0.24331968353E+03  0.25477368925E+03  0.41800000000E+01 0. -1.
         -5    1    1    2    0  502 -0.39387010003E+02  0.99192320679E+02 -0.91647739456E+02  0.14073817388E+03  0.41800000000E+01 0. -1.
        -11    1    1    2    0    0  0.18151827297E+02 -0.49875865848E+02 -0.58678429631E+02  0.79121734892E+02  0.00000000000E+00 0.  1.
         11    1    1    2    0    0 -0.79275753261E+01 -0.11886662005E+03 -0.43469886539E+03  0.45072743802E+03  0.00000000000E+00 0. -1.
</event>
<event>
 6    1  0.8259171E-006  0.5939009E+02  0.7561462E-02  0.1400409E+00
          1   -1    0    0  501    0  0.00000000000E+00  0.00000000000E+00  0.39573094322E+02  0.39573094322E+02  0.00000000000E+00 0. -1.
         -1   -1    0    0    0  501 -0.00000000000E+00 -0.00000000000E+00 -0.47863022146E+03  0.47863022146E+03  0.00000000000E+00 0.  1.
          5    1    1    2  502    0 -0.29574958733E+02  0.14535266845E+02 -0.38049947814E+02  0.50509633685E+02  0.41800000000E+01 0. -1.
         -5    1    1    2    0  502  0.33231975883E+02 -0.33835555216E+02 -0.41910966153E+03  0.42180515621E+03  0.41800000000E+01 0.  1.
        -11    1    1    2    0    0  0.82774790408E+01  0.23799789340E+02  0.19020905473E+01  0.25269835385E+02  0.00000000000E+00 0. -1.
         11    1    1    2    0    0 -0.11934496191E+02 -0.44995009695E+01  0.16200391657E+02  0.20618690505E+02  0.00000000000E+00 0.  1.
</event>
<event>
 6    1  0.8259171E-006  0.1834238E+03  0.7561462E-02  0.1164530E+00
          1   -1    0    0  501    0  0.00000000000E+00  0.00000000000E+00  0.43624147222E+03  0.43624147222E+03  0.00000000000E+00 0. -1.
         -1   -1    0    0    0  501 -0.00000000000E+00 -0.00000000000E+00 -0.22368081489E+03  0.22368081489E+03  0.00000000000E+00 0.  1.
          5    1    1    2  502    0  0.33429172275E+01  0.14252228345E+03  0.27136201689E+03  0.30655928136E+03  0.41800000000E+01 0. -1.
         -5    1    1    2    0  502  0.28274630597E+02 -0.13310163786E+03 -0.16195340288E+03  0.21157003058E+03  0.41800000000E+01 0.  1.
        -11    1    1    2    0    0  0.18176807260E+02  0.22512729950E+02  0.65674353652E+02  0.71765869741E+02  0.00000000000E+00 0. -1.
         11    1    1    2    0    0 -0.49794355084E+02 -0.31933375539E+02  0.37477689678E+02  0.70027105432E+02  0.00000000000E+00 0.  1.
</event>
<event>
 6    1  0.8259171E-006  0.9060846E+02  0.7561462E-02  0.1301385E+00
          2   -1    0    0  501    0  0.00000000000E+00  0.00000000000E+00  0.75029116901E+03  0.75029116901E+03  0.00000000000E+00 0. -1.
         -2   -1    0    0    0  501 -0.00000000000E+00 -0.00000000000E+00 -0.18553220045E+02  0.18553220045E+02  0.00000000000E+00 0.  1.
          5    1    1    2  502    0  0.31554501840E+02  0.13504837230E+02  0.34251804610E+03  0.34425884378E+03  0.41800000000E+01 0.  1.
         -5    1    1    2    0  502 -0.36557786403E+02  0.30779788056E+02  0.46542323046E+02  0.66839564136E+02  0.41800000000E+01 0.  1.
        -11    1    1    2    0    0 -0.24621803557E+02  0.17459991112E+02  0.15622315476E+03  0.15911240864E+03  0.00000000000E+00 0.  1.
         11    1    1    2    0    0  0.29625088121E+02 -0.61744616398E+02  0.18645442505E+03  0.19863357249E+03  0.00000000000E+00 0. -1.
</event>
<event>
 6    1  0.8259171E-006  0.1036276E+03  0.7561462E-02  0.1272847E+00
          4   -1    0    0  501    0  0.00000000000E+00  0.00000000000E+00  0.65242094746E+03  0.65242094746E+03  0.00000000000E+00 0.  1.
         -4   -1    0    0    0  501 -0.00000000000E+00 -0.00000000000E+00 -0.22317133048E+02  0.22317133048E+02  0.00000000000E+00 0. -1.
          5    1    1    2  502    0  0.19164981630E+02 -0.46128574929E+02  0.16907607938E+03  0.17635003534E+03  0.41800000000E+01 0.  1.
         -5    1    1    2    0  502  0.19517011958E+02  0.82943190377E+02  0.23565848816E+03  0.25062498285E+03  0.41800000000E+01 0.  1.
        -11    1    1    2    0    0 -0.26305187189E+02  0.62272607128E+01  0.11708595768E+02  0.29459003104E+02  0.00000000000E+00 0. -1.
         11    1    1    2    0    0 -0.12376806399E+02 -0.43041876161E+02  0.21366065109E+03  0.21830405921E+03  0.00000000000E+00 0.  1.
</event>
<event>
 6    1  0.8259171E-006  0.8987465E+02  0.7561462E-02  0.1303156E+00
         -1   -1    0    0    0  501 -0.00000000000E+00  0.00000000000E+00  0.31466397978E+03  0.31466397978E+03  0.00000000000E+00 0.  1.
          1   -1    0    0  501    0  0.00000000000E+00 -0.00000000000E+00 -0.88877306608E+02  0.88877306608E+02  0.00000000000E+00 0. -1.
          5    1    1    2  502    0  0.91352086332E+01  0.49002185904E+02  0.11775191587E+03  0.12793612606E+03  0.41800000000E+01 0. -1.
         -5    1    1    2    0  502  0.27947684946E+02 -0.77485047397E+02  0.14553310417E+03  0.16727929481E+03  0.41800000000E+01 0. -1.
        -11    1    1    2    0    0 -0.16669328969E+02  0.86108755958E+01  0.29817843812E+02  0.35229497816E+02  0.00000000000E+00 0.  1.
         11    1    1    2    0    0 -0.20413564610E+02  0.19871985898E+02 -0.67316190678E+02  0.73096367701E+02  0.00000000000E+00 0. -1.
</event>
<event>
 6    1  0.8259171E-006  0.7766407E+02  0.7561462E-02  0.1335814E+00
          3   -1    0    0  501    0  0.00000000000E+00  0.00000000000E+00  0.12233187059E+03  0.12233187059E+03  0.00000000000E+00 0. -1.
         -3   -1    0    0    0  501 -0.00000000000E+00 -0.00000000000E+00 -0.19459058836E+03  0.19459058836E+03  0.00000000000E+00 0.  1.
          5    1    1    2  502    0 -0.24332520275E+02 -0.20013760521E+02 -0.10725500448E+03  0.11186478686E+03  0.41800000000E+01 0.  1.
         -5    1    1    2    0  502  0.57568929179E+02  0.42272164400E+02 -0.28478768544E+02  0.77004091759E+02  0.41800000000E+01 0.  1.
        -11    1    1    2    0    0 -0.35367321517E+02 -0.63273070290E+01  0.90074138465E+02  0.96975422998E+02  0.00000000000E+00 0. -1.
         11    1    1    2    0    0  0.21309126128E+01 -0.15931096850E+02 -0.26599083214E+02  0.31078157333E+02  0.00000000000E+00 0.  1.
</event>
<event>
 6    1  0.8259171E-006  0.7402462E+02  0.7561462E-02  0.1346918E+00
         -2   -1    0    0    0  501 -0.00000000000E+00  0.00000000000E+00  0.22731718375E+03  0.22731718375E+03  0.00000000000E+00 0.  1.
          2   -1    0    0  501    0  0.00000000000E+00 -0.00000000000E+00 -0.64710140143E+02  0.64710140143E+02  0.00000000000E+00 0. -1.
          5    1    1    2  502    0 -0.91236861748E+01  0.11094868978E+02 -0.19413434834E+02  0.24509010978E+02  0.41800000000E+01 0. -1.
         -5    1    1    2    0  502  0.38614136894E+02 -0.36159106443E+02  0.15566261679E+03  0.16445928132E+03  0.41800000000E+01 0. -1.
        -11    1    1    2    0    0 -0.35842022267E+02 -0.15438191377E+02  0.43660780218E+02  0.58559815936E+02  0.00000000000E+00 0.  1.
         11    1    1    2    0    0  0.63515715478E+01  0.40502428842E+02 -0.17302918566E+02  0.44499215658E+02  0.00000000000E+00 0. -1.
</event>
<event>
 6    1  0.8259171E-006  0.8150898E+02  0.7561462E-02  0.1324823E+00
         -1   -1    0    0    0  501 -0.00000000000E+00  0.00000000000E+00  0.14311525575E+03  0.14311525575E+03  0.00000000000E+00 0.  1.
          1   -1    0    0  501    0  0.00000000000E+00 -0.00000000000E+00 -0.11881793070E+03  0.11881793070E+03  0.00000000000E+00 0. -1.
          5    1    1    2  502    0  0.10505452208E+02 -0.95680198469E+01  0.81716118940E+02  0.83047625038E+02  0.41800000000E+01 0.  1.
         -5    1    1    2    0  502 -0.18979954052E+02  0.60097291423E+02 -0.19017024569E+02  0.65962434124E+02  0.41800000000E+01 0.  1.
        -11    1    1    2    0    0 -0.29030859332E+02 -0.32018374826E+02  0.14406950602E+02  0.45557955899E+02  0.00000000000E+00 0.  1.
         11    1    1    2    0    0  0.37505361177E+02 -0.18510896750E+02 -0.52808719930E+02  0.67365171388E+02  0.00000000000E+00 0. -1.
</event>
<event>
 6    1  0.8259171E-006  0.1301399E+03  0.7561462E-02  0.1227248E+00
         -2   -1    0    0    0  501 -0.00000000000E+00  0.00000000000E+00  0.26668953320E+03  0.26668953320E+03  0.00000000000E+00 0.  1.
          2   -1    0    0  501    0  0.00000000000E+00 -0.00000000000E+00 -0.83338838542E+02  0.83338838542E+02  0.00000000000E+00 0. -1.
          5    1    1    2  502    0  0.87332088441E+02  0.79228356023E+01  0.58314612824E+02  0.10539322305E+03  0.41800000000E+01 0.  1.
         -5    1    1    2    0  502 -0.22430277699E+02  0.51570239779E+02  0.99642019783E+02  0.11449284473E+03  0.41800000000E+01 0.  1.
        -11    1    1    2    0    0 -0.55203612602E+01 -0.56363814756E+02  0.39475606016E+02  0.69033886409E+02  0.00000000000E+00 0.  1.
         11    1    1    2    0    0 -0.59381449482E+02 -0.31292606251E+01 -0.14081543970E+02  0.61108417548E+02  0.00000000000E+00 0. -1.
</event>
<event>
 6    1  0.8259171E-006  0.2391701E+03  0.7561462E-02  0.1120347E+00
          2   -1    0    0  501    0  0.00000000000E+00  0.00000000000E+00  0.27936346578E+03  0.27936346578E+03  0.00000000000E+00 0. -1.
         -2   -1    0    0    0  501 -0.00000000000E+00 -0.00000000000E+00 -0.69049300977E+03  0.69049300977E+03  0.00000000000E+00 0.  1.
          5    1    1    2  502    0  0.56579958118E+02  0.20405373690E+03  0.16638188467E+03  0.26933180865E+03  0.41800000000E+01 0. -1.
         -5    1    1    2    0  502 -0.73416686082E+02 -0.12393255961E+03 -0.55822320889E+03  0.57652399124E+03  0.41800000000E+01 0.  1.
        -11    1    1    2    0    0  0.88081299851E+00  0.20521210508E+02 -0.18923382002E+01  0.20627090345E+02  0.00000000000E+00 0.  1.
         11    1    1    2    0    0  0.15955914966E+02 -0.10064238780E+03 -0.17395881567E+02  0.10337358532E+03  0.00000000000E+00 0. -1.
</event>
<event>
 6    1  0.8259171E-006  0.1068452E+03  0.7561462E-02  0.1266526E+00
         -2   -1    0    0    0  501 -0.00000000000E+00  0.00000000000E+00  0.24446820410E+03  0.24446820410E+03  0.00000000000E+00 0.  1.
          2   -1    0    0  501    0  0.00000000000E+00 -0.00000000000E+00 -0.50381860845E+02  0.50381860845E+02  0.00000000000E+00 0. -1.
          5    1    1    2  502    0 -0.47231332824E+02  0.83452233224E+01  0.22606708637E+02  0.53188130518E+02  0.41800000000E+01 0. -1.
         -5    1    1    2    0  502  0.71603474834E+02 -0.22348271863E+02  0.92023014964E+02  0.11879482542E+03  0.41800000000E+01 0. -1.
        -11    1    1    2    0    0  0.28136964009E+02 -0.13427905135E+02  0.12836428442E+02  0.33716038841E+02  0.00000000000E+00 0. -1.
         11    1    1    2    0    0 -0.52509106019E+02  0.27430953676E+02  0.66620191209E+02  0.89151070163E+02  0.00000000000E+00 0.  1.
</event>
<event>
 6    1  0.8259171E-006  0.1300792E+03  0.7561462E-02  0.1227338E+00
         -1   -1    0    0    0  501 -0.00000000000E+00  0.00000000000E+00  0.46539080110E+02  0.46539080110E+02  0.00000000000E+00 0.  1.
          1   -1    0    0  501    0  0.00000000000E+00 -0.00000000000E+00 -0.55576137771E+03  0.55576137771E+03  0.00000000000E+00 0. -1.
          5    1    1    2  502    0  0.10070866776E+02 -0.38822321350E+02 -0.16359759889E+03  0.16849404071E+03  0.41800000000E+01 0. -1.
         -5    1    1    2    0  502 -0.52988198022E+02 -0.63326496762E+02 -0.31722475122E+02  0.88553837577E+02  0.41800000000E+01 0. -1.
        -11    1    1    2    0    0 -0.13614818245E+02  0.71631099496E+02 -0.21757773182E+03  0.22946992629E+03  0.00000000000E+00 0. -1.
         11    1    1    2    0    0  0.56532149491E+02  0.30517718616E+02 -0.96324491768E+02  0.11578265323E+03  0.00000000000E+00 0.  1.
</event>
<event>
 6    1  0.8259171E-006  0.1141880E+03  0.7561462E-02  0.1253005E+00
         -1   -1    0    0    0  501 -0.00000000000E+00  0.00000000000E+00  0.51788998795E+02  0.51788998795E+02  0.00000000000E+00 0.  1.
          1   -1    0    0  501    0  0.00000000000E+00 -0.00000000000E+00 -0.34080647799E+03  0.34080647799E+03  0.00000000000E+00 0. -1.
          5    1    1    2  502    0 -0.26962720201E+02  0.39524845228E+02 -0.13390573811E+02  0.49859618309E+02  0.41800000000E+01 0.  1.
         -5    1    1    2    0  502 -0.18193353310E+02 -0.85243718560E+02 -0.84464835661E+02  0.12144657476E+03  0.41800000000E+01 0.  1.
        -11    1    1    2    0    0  0.29198361217E+02 -0.13199437200E+02 -0.16039815788E+02  0.35833575466E+02  0.00000000000E+00 0.  1.
         11    1    1    2    0    0  0.15957712294E+02  0.58918310532E+02 -0.17512225393E+03  0.18545570825E+03  0.00000000000E+00 0. -1.
</event>
<event>
 6    1  0.8259171E-006  0.9518973E+02  0.7561462E-02  0.1290749E+00
         -3   -1    0    0    0  501 -0.00000000000E+00  0.00000000000E+00  0.79986750806E+03  0.79986750806E+03  0.00000000000E+00 0.  1.
          3   -1    0    0  501    0  0.00000000000E+00 -0.00000000000E+00 -0.18074904144E+02  0.18074904144E+02  0.00000000000E+00 0. -1.
          5    1    1    2  502    0  0.41444353699E+02 -0.31907910315E+02  0.12484817112E+03  0.13542631734E+03  0.41800000000E+01 0.  1.
         -5    1    1    2    0  502 -0.39897266168E+02  0.23299002867E+02  0.48289352678E+03  0.48511675500E+03  0.41800000000E+01 0.  1.
        -11    1    1    2    0    0  0.25056891431E+02  0.41949676816E+02  0.11096171157E+03  0.12124407048E+03  0.00000000000E+00 0.  1.
         11    1    1    2    0    0 -0.26603978961E+02 -0.33340769369E+02  0.63089194449E+02  0.76155269383E+02  0.00000000000E+00 0. -1.
</event>
<event>
 6    1  0.8259171E-006  0.1362127E+03  0.7561462E-02  0.1218518E+00
         -2   -1    0    0    0  501 -0.00000000000E+00  0.00000000000E+00  0.94300553880E+02  0.94300553880E+02  0.00000000000E+00 0.  1.
          2   -1    0    0  501    0  0.00000000000E+00 -0.00000000000E+00 -0.34442454017E+03  0.34442454017E+03  0.00000000000E+00 0. -1.
          5    1    1    2  502    0 -0.15041420381E+02  0.10888105578E+02 -0.37724341025E+02  0.42253916694E+02  0.41800000000E+01 0.  1.
         -5    1    1    2    0  502  0.49920975439E+02 -0.11460681239E+03  0.13091613808E+02  0.12576043888E+03  0.41800000000E+01 0.  1.
        -11    1    1    2    0    0 -0.35622850734E+02  0.13503134501E+02 -0.13666105616E+02  0.40473257572E+02  0.00000000000E+00 0.  1.
         11    1    1    2    0    0  0.74329567536E+00  0.90215572312E+02 -0.21182515345E+03  0.23023748090E+03  0.00000000000E+00 0. -1.
</event>
<event>
 6    1  0.8259171E-006  0.1409216E+03  0.7561462E-02  0.1212094E+00
          4   -1    0    0  501    0  0.00000000000E+00  0.00000000000E+00  0.72784902838E+02  0.72784902838E+02  0.00000000000E+00 0.  1.
         -4   -1    0    0    0  501 -0.00000000000E+00 -0.00000000000E+00 -0.42356796237E+03  0.42356796237E+03  0.00000000000E+00 0. -1.
          5    1    1    2  502    0 -0.95451779059E+02 -0.12978131896E+02 -0.53812783905E+02  0.11042084108E+03  0.41800000000E+01 0.  1.
         -5    1    1    2    0  502 -0.27183644875E+02 -0.41433143543E+02 -0.18010676670E+03  0.18684639612E+03  0.41800000000E+01 0.  1.
        -11    1    1    2    0    0  0.95811368022E+02  0.51320290180E+02 -0.37055098491E+02  0.11483323017E+03  0.00000000000E+00 0.  1.
         11    1    1    2    0    0  0.26824055912E+02  0.30909852586E+01 -0.79808410443E+02  0.84252397847E+02  0.00000000000E+00 0. -1.
</event>
<event>
 6    1  0.8259171E-006  0.8847997E+02  0.7561462E-02  0.1306575E+00
         -1   -1    0    0    0  501 -0.00000000000E+00  0.00000000000E+00  0.37569954638E+02  0.37569954638E+02  0.00000000000E+00 0.  1.
          1   -1    0    0  501    0  0.00000000000E+00 -0.00000000000E+00 -0.43252922272E+03  0.43252922272E+03  0.00000000000E+00 0. -1.
          5    1    1    2  502    0 -0.36599537251E+02 -0.12601663688E+02  0.10619316292E+02  0.40355548977E+02  0.41800000000E+01 0.  1.
         -5    1    1    2    0  502  0.29821744580E+02 -0.27650090611E+02 -0.13372520981E+03  0.13983478859E+03  0.41800000000E+01 0.  1.
        -11    1    1    2    0    0 -0.23125373463E+02  0.57951963073E+02 -0.20868701220E+03  0.21781524736E+03  0.00000000000E+00 0. -1.
         11    1    1    2    0    0  0.29903166134E+02 -0.17700208774E+02 -0.63166362358E+02  0.72093592427E+02  0.00000000000E+00 0.  1.
</event>
<event>
 6    1  0.8259171E-006  0.1035136E+03  0.7561462E-02  0.1273076E+00
          1   -1    0    0  501    0  0.00000000000E+00  0.00000000000E+00  0.16217619921E+02  0.16217619921E+02  0.00000000000E+00 0. -1.
         -1   -1    0    0    0  501 -0.00000000000E+00 -0.00000000000E+00 -0.11736585944E+04  0.11736585944E+04  0.00000000000E+00 0.  1.
          5    1    1    2  502    0 -0.30031206166E+02  0.27587935489E+02 -0.70689189613E+03  0.70807951018E+03  0.41800000000E+01 0.  1.
         -5    1    1    2    0  502 -0.42029727193E+02 -0.39861005578E+02 -0.14781377418E+03  0.15881367061E+03  0.41800000000E+01 0.  1.
        -11    1    1    2    0    0  0.40067909820E+02  0.46314942654E+02 -0.21541933039E+03  0.22395535094E+03  0.00000000000E+00 0.  1.
         11    1    1    2    0    0  0.31993023538E+02 -0.34041872565E+02 -0.87315973813E+02  0.99027682623E+02  0.00000000000E+00 0. -1.
</event>
<event>
 6    1  0.2063943E-005  0.3149283E+03  0.7561462E-02  0.1078007E+00
          2   -1    0    0  501    0  0.00000000000E+00  0.00000000000E+00  0.56057608412E+03  0.56057608412E+03  0.00000000000E+00 0.  1.
         -2   -1    0    0    0  501 -0.00000000000E+00 -0.00000000000E+00 -0.21759007148E+03  0.21759007148E+03  0.00000000000E+00 0. -1.
          5    1    1    2  502    0  0.14844381713E+03  0.19393631366E+03  0.62513939214E+02  0.25213553021E+03  0.41800000000E+01 0.  1.
         -5    1    1    2    0  502  0.20023171553E+01  0.71568889679E+02 -0.33089570139E+02  0.78984221816E+02  0.41800000000E+01 0.  1.
        -11    1    1    2    0    0 -0.96524905195E+02 -0.96552524260E+02  0.98812122665E+02  0.16853273525E+03  0.00000000000E+00 0.  1.
         11    1    1    2    0    0 -0.53921229088E+02 -0.16895267908E+03  0.21474952091E+03  0.27851366832E+03  0.00000000000E+00 0. -1.
</event>
<event>
 6    1  0.8259171E-006  0.9698557E+02  0.7561462E-02  0.1286766E+00
         -2   -1    0    0    0  501 -0.00000000000E+00  0.00000000000E+00  0.22623726438E+03  0.22623726438E+03  0.00000000000E+00 0.  1.
          2   -1    0    0  501    0  0.00000000000E+00 -0.00000000000E+00 -0.14806423475E+03  0.14806423475E+03  0.00000000000E+00 0. -1.
          5    1    1    2  502    0 -0.19148528890E+02  0.40514496640E+02 -0.80160899340E+01  0.45714556702E+02  0.41800000000E+01 0.  1.
         -5    1    1    2    0  502  0.11288413354E+02  0.43648175594E+02  0.16910697654E+03  0.17506351255E+03  0.41800000000E+01 0.  1.
        -11    1    1    2    0    0 -0.25909264233E+02 -0.45444505016E+02 -0.87498886008E+02  0.10194384759E+03  0.00000000000E+00 0.  1.
         11    1    1    2    0    0  0.33769379769E+02 -0.38718167218E+02  0.45810290313E+01  0.51579582295E+02  0.00000000000E+00 0. -1.
</event>
<event>
 6    1  0.8259171E-006  0.5946427E+02  0.7561462E-02  0.1400094E+00
          2   -1    0    0  501    0  0.00000000000E+00  0.00000000000E+00  0.15049841305E+03  0.15049841305E+03  0.00000000000E+00 0. -1.
         -2   -1    0    0    0  501 -0.00000000000E+00 -0.00000000000E+00 -0.97167501663E+02  0.97167501663E+02  0.00000000000E+00 0.  1.
          5    1    1    2  502    0  0.32243017669E+02  0.35916630477E+02  0.11883419792E+03  0.12833025960E+03  0.41800000000E+01 0. -1.
         -5    1    1    2    0  502 -0.60397654132E+01 -0.42351775220E+02 -0.77975432991E+02  0.89038150141E+02  0.41800000000E+01 0.  1.
        -11    1    1    2    0    0 -0.10924651716E+02  0.53940248063E+01  0.68955170303E+01  0.13999702634E+02  0.00000000000E+00 0. -1.
         11    1    1    2    0    0 -0.15278600540E+02  0.10411199362E+01  0.55766294198E+01  0.16297802332E+02  0.00000000000E+00 0.  1.
</event>
<event>
 6    1  0.8259171E-006  0.1158851E+03  0.7561462E-02  0.1250044E+00
          1   -1    0    0  501    0  0.00000000000E+00  0.00000000000E+00  0.32415122957E+03  0.32415122957E+03  0.00000000000E+00 0. -1.
         -1   -1    0    0    0  501 -0.00000000000E+00 -0.00000000000E+00 -0.54638230244E+02  0.54638230244E+02  0.00000000000E+00 0.  1.
          5    1    1    2  502    0 -0.49685225216E+02  0.43605345396E+02  0.12082189075E+03  0.13778769697E+03  0.41800000000E+01 0. -1.
         -5    1    1    2    0  502  0.39548590268E+02  0.29181505928E+02 -0.25496683060E+01  0.49392554995E+02  0.41800000000E+01 0. -1.
        -11    1    1    2    0    0 -0.13316925449E+02  0.18026595661E+02  0.18421552714E+02  0.29011243664E+02  0.00000000000E+00 0.  1.
         11    1    1    2    0    0  0.23453560396E+02 -0.90813446985E+02  0.13281922417E+03  0.16259796418E+03  0.00000000000E+00 0. -1.
</event>
<event>
 6    1  0.8259171E-006  0.1072493E+03  0.7561462E-02  0.1265750E+00
          2   -1    0    0  501    0  0.00000000000E+00  0.00000000000E+00  0.13716454938E+03  0.13716454938E+03  0.00000000000E+00 0. -1.
         -2   -1    0    0    0  501 -0.00000000000E+00 -0.00000000000E+00 -0.13551554041E+03  0.13551554041E+03  0.00000000000E+00 0.  1.
          5    1    1    2  502    0  0.94603300608E+01  0.29635407658E+02  0.13189427177E+02  0.34046859197E+02  0.41800000000E+01 0. -1.
         -5    1    1    2    0  502 -0.43810646520E+02 -0.97487091606E+02 -0.43413566496E+02  0.11543533226E+03  0.41800000000E+01 0. -1.
        -11    1    1    2    0    0  0.16117907761E+02  0.36117830019E+02 -0.31132359593E+02  0.50333968746E+02  0.00000000000E+00 0.  1.
         11    1    1    2    0    0  0.18232408698E+02  0.31733853928E+02  0.63005507878E+02  0.72863929588E+02  0.00000000000E+00 0. -1.
</event>
<event>
 6    1  0.8259171E-006  0.1357404E+03  0.7561462E-02  0.1219178E+00
          1   -1    0    0  501    0  0.00000000000E+00  0.00000000000E+00  0.15179476886E+03  0.15179476886E+03  0.00000000000E+00 0. -1.
         -1   -1    0    0    0  501 -0.00000000000E+00 -0.00000000000E+00 -0.17485030904E+03  0.17485030904E+03  0.00000000000E+00 0.  1.
          5    1    1    2  502    0  0.51390585699E+02  0.99891366166E+02  0.10059390175E+02  0.11286248741E+03  0.41800000000E+01 0.  1.
         -5    1    1    2    0  502 -0.10285107104E+02  0.60820351618E+01 -0.62993768842E+02  0.64253108039E+02  0.41800000000E+01 0.  1.
        -11    1    1    2    0    0  0.50611011653E+00 -0.10477869297E+03  0.18817470311E+02  0.10645622498E+03  0.00000000000E+00 0.  1.
         11    1    1    2    0    0 -0.41611588712E+02 -0.11947083577E+01  0.11061368171E+02  0.43073257470E+02  0.00000000000E+00 0. -1.
</event>
