<event>
 8    1  0.6850220E-009  0.2286238E+03  0.7561462E-02  0.1127612E+00
         -1   -1    0    0    0  501 -0.00000000000E+00  0.00000000000E+00  0.23884032227E+02  0.23884032227E+02  0.00000000000E+00 0.  1.
          1   -1    0    0  501    0  0.00000000000E+00 -0.00000000000E+00 -0.23030278787E+04  0.23030278787E+04  0.00000000000E+00 0. -1.
         25    2    1    2    0    0  0.46220377170E+02 -0.19726041985E+03 -0.13955405213E+04  0.14157077272E+04  0.12508807133E+03 0.  0.
         23    2    1    2    0    0 -0.46220377170E+02  0.19726041985E+03 -0.88360332515E+03  0.91120418376E+03  0.92142453761E+02 0.  0.
          5    1    3    3  502    0  0.84155063762E+02 -0.10357230735E+03 -0.67266242549E+03  0.68578532259E+03  0.41800000000E+01 0. -1.
         -5    1    3    3    0  502 -0.37934686592E+02 -0.93688112503E+02 -0.72287809584E+03  0.72992240459E+03  0.41800000000E+01 0. -1.
        -11    1    4    4    0    0 -0.35163780111E+02  0.12264030767E+02 -0.14575321380E+03  0.15043569130E+03  0.00000000000E+00 0. -1.
         11    1    4    4    0    0 -0.11056597059E+02  0.18499638909E+03 -0.73785011134E+03  0.76076849246E+03  0.00000000000E+00 0.  1.
</event>
<event>
 8    1  0.6850220E-009  0.2258945E+03  0.7561462E-02  0.1129563E+00
         -3   -1    0    0    0  501 -0.00000000000E+00  0.00000000000E+00  0.24971692861E+02  0.24971692861E+02  0.00000000000E+00 0.  1.
          3   -1    0    0  501    0  0.00000000000E+00 -0.00000000000E+00 -0.21624891515E+04  0.21624891515E+04  0.00000000000E+00 0. -1.
         25    2    1    2    0    0  0.16034409949E+03 -0.12867430773E+03 -0.11176714854E+04  0.11432869059E+04  0.12509233484E+03 0.  0.
         23    2    1    2    0    0 -0.16034409949E+03  0.12867430773E+03 -0.10198459733E+04  0.10441739385E+04  0.89140882325E+02 0.  0.
          5    1    3    3  502    0  0.79207795528E+02 -0.12887029140E+03 -0.85668817116E+03  0.86995029851E+03  0.41800000000E+01 0. -1.
         -5    1    3    3    0  502  0.81136303959E+02  0.19598367226E+00 -0.26098331420E+03  0.27333660736E+03  0.41800000000E+01 0. -1.
        -11    1    4    4    0    0 -0.46561241214E+02 -0.11709400238E+01 -0.13983781478E+03  0.14739041599E+03  0.00000000000E+00 0.  1.
         11    1    4    4    0    0 -0.11378285827E+03  0.12984524775E+03 -0.88000815853E+03  0.89678352253E+03  0.00000000000E+00 0. -1.
</event>
<event>
 8    1  0.6850220E-009  0.8474348E+02  0.7561462E-02  0.1316105E+00
          1   -1    0    0  501    0  0.00000000000E+00  0.00000000000E+00  0.65176170920E+02  0.65176170920E+02  0.00000000000E+00 0. -1.
         -1   -1    0    0    0  501 -0.00000000000E+00 -0.00000000000E+00 -0.20738508734E+03  0.20738508734E+03  0.00000000000E+00 0.  1.
         25    2    1    2    0    0 -0.20940971210E+02 -0.36242161540E+02 -0.90839230614E+02  0.16016201571E+03  0.12509231355E+03 0.  0.
         23    2    1    2    0    0  0.20940971210E+02  0.36242161540E+02 -0.51369685810E+02  0.11239924255E+03  0.90789462811E+02 0.  0.
          5    1    3    3  502    0  0.42765689136E+02 -0.45559394640E+02 -0.66114788606E+02  0.91067009832E+02  0.41800000000E+01 0. -1.
         -5    1    3    3    0  502 -0.63706660347E+02  0.93172330995E+01 -0.24724442008E+02  0.69095005881E+02  0.41800000000E+01 0. -1.
        -11    1    4    4    0    0  0.85177227948E+01  0.89559226738E+01  0.26345944362E+02  0.29101012644E+02  0.00000000000E+00 0. -1.
         11    1    4    4    0    0  0.12423248416E+02  0.27286238867E+02 -0.77715630172E+02  0.83298229907E+02  0.00000000000E+00 0.  1.
</event>
<event>
 8    1  0.6850220E-009  0.1130747E+03  0.7561462E-02  0.1254980E+00
         -1   -1    0    0    0  501 -0.00000000000E+00  0.00000000000E+00  0.21325635165E+02  0.21325635165E+02  0.00000000000E+00 0.  1.
          1   -1    0    0  501    0  0.00000000000E+00 -0.00000000000E+00 -0.79444801166E+03  0.79444801166E+03  0.00000000000E+00 0. -1.
         25    2    1    2    0    0  0.41783399033E+02 -0.41181582463E+02 -0.29896111457E+03  0.32933968055E+03  0.12508038211E+03 0.  0.
         23    2    1    2    0    0 -0.41783399033E+02  0.41181582463E+02 -0.47416126192E+03  0.48643396628E+03  0.91363702144E+02 0.  0.
          5    1    3    3  502    0 -0.55912523097E+01 -0.69155891766E+02 -0.23401806727E+03  0.24412236210E+03  0.41800000000E+01 0. -1.
         -5    1    3    3    0  502  0.47374651343E+02  0.27974309303E+02 -0.64943047297E+02  0.85217318446E+02  0.41800000000E+01 0. -1.
        -11    1    4    4    0    0  0.25419664040E+02  0.91153780907E+01 -0.62377480281E+02  0.67972049284E+02  0.00000000000E+00 0.  1.
         11    1    4    4    0    0 -0.67203063073E+02  0.32066204373E+02 -0.41178378164E+03  0.41846191699E+03  0.00000000000E+00 0. -1.
</event>
<event>
 8    1  0.6850220E-009  0.2615770E+03  0.7561462E-02  0.1106199E+00
          1   -1    0    0  501    0  0.00000000000E+00  0.00000000000E+00  0.12518358852E+04  0.12518358852E+04  0.00000000000E+00 0. -1.
         -1   -1    0    0    0  501 -0.00000000000E+00 -0.00000000000E+00 -0.65617387212E+02  0.65617387212E+02  0.00000000000E+00 0.  1.
         25    2    1    2    0    0  0.12891817864E+03 -0.22462541838E+03  0.49920636785E+03  0.57613483759E+03  0.12509147860E+03 0.  0.
         23    2    1    2    0    0 -0.12891817864E+03  0.22462541838E+03  0.68701213013E+03  0.74131843481E+03  0.10242499439E+03 0.  0.
          5    1    3    3  502    0  0.71778835250E+02 -0.10094873280E+03  0.36244595594E+03  0.38305011581E+03  0.41800000000E+01 0.  1.
         -5    1    3    3    0  502  0.57139343390E+02 -0.12367668559E+03  0.13676041191E+03  0.19308472178E+03  0.41800000000E+01 0.  1.
        -11    1    4    4    0    0 -0.11012926399E+03  0.21553857911E+03  0.67534165749E+03  0.71740622259E+03  0.00000000000E+00 0. -1.
         11    1    4    4    0    0 -0.18788914649E+02  0.90868392783E+01  0.11670472645E+02  0.23912212225E+02  0.00000000000E+00 0.  1.
</event>
<event>
 8    1  0.6850220E-009  0.9450360E+02  0.7561462E-02  0.1292298E+00
          1   -1    0    0  501    0  0.00000000000E+00  0.00000000000E+00  0.52837009442E+02  0.52837009442E+02  0.00000000000E+00 0. -1.
         -1   -1    0    0    0  501 -0.00000000000E+00 -0.00000000000E+00 -0.29905865223E+03  0.29905865223E+03  0.00000000000E+00 0.  1.
         25    2    1    2    0    0 -0.30508481269E+02  0.17615750533E+02 -0.14323530759E+03  0.19340381085E+03  0.12509036180E+03 0.  0.
         23    2    1    2    0    0  0.30508481269E+02 -0.17615750533E+02 -0.10298633520E+03  0.15849185082E+03  0.11520590021E+03 0.  0.
          5    1    3    3  502    0  0.60132759971E+01 -0.51107340072E+02 -0.64495345462E+02  0.82615020933E+02  0.41800000000E+01 0.  1.
         -5    1    3    3    0  502 -0.36521757266E+02  0.68723090604E+02 -0.78739962124E+02  0.11078878992E+03  0.41800000000E+01 0.  1.
        -11    1    4    4    0    0  0.43339738824E+02 -0.17124367292E+02 -0.12477942829E+03  0.13319715703E+03  0.00000000000E+00 0.  1.
         11    1    4    4    0    0 -0.12831257555E+02 -0.49138324107E+00  0.21793093086E+02  0.25294693795E+02  0.00000000000E+00 0. -1.
</event>
<event>
 8    1  0.6850220E-009  0.8696187E+02  0.7561462E-02  0.1310380E+00
          2   -1    0    0  501    0  0.00000000000E+00  0.00000000000E+00  0.10394609666E+03  0.10394609666E+03  0.00000000000E+00 0.  1.
         -2   -1    0    0    0  501 -0.00000000000E+00 -0.00000000000E+00 -0.15717336398E+03  0.15717336398E+03  0.00000000000E+00 0. -1.
         25    2    1    2    0    0 -0.25816981686E+02  0.53857210806E+02 -0.61797089431E+02  0.15176915769E+03  0.12509149158E+03 0.  0.
         23    2    1    2    0    0  0.25816981686E+02 -0.53857210806E+02  0.85698221104E+01  0.10935030295E+03  0.91197210515E+02 0.  0.
          5    1    3    3  502    0 -0.52505941347E+01  0.39273381617E+02 -0.98952759784E+02  0.10667280962E+03  0.41800000000E+01 0.  1.
         -5    1    3    3    0  502 -0.20566387551E+02  0.14583829189E+02  0.37155670353E+02  0.45096348079E+02  0.41800000000E+01 0.  1.
        -11    1    4    4    0    0 -0.27865376272E+02 -0.46679946654E+02  0.94682315827E+01  0.55182823630E+02  0.00000000000E+00 0.  1.
         11    1    4    4    0    0  0.53682357958E+02 -0.71772641519E+01 -0.89840947224E+00  0.54167479323E+02  0.00000000000E+00 0. -1.
</event>
<event>
 8    1  0.6850220E-009  0.1380940E+03  0.7561462E-02  0.1215917E+00
          2   -1    0    0  501    0  0.00000000000E+00  0.00000000000E+00  0.85733708107E+02  0.85733708107E+02  0.00000000000E+00 0. -1.
         -2   -1    0    0    0  501 -0.00000000000E+00 -0.00000000000E+00 -0.26940927864E+03  0.26940927864E+03  0.00000000000E+00 0.  1.
         25    2    1    2    0    0 -0.68563760002E+02 -0.66902573289E+02 -0.15017255696E+03  0.21766107413E+03  0.12509037865E+03 0.  0.
         23    2    1    2    0    0  0.68563760002E+02  0.66902573289E+02 -0.33503013578E+02  0.13748191262E+03  0.92746325428E+02 0.  0.
          5    1    3    3  502    0  0.29993243819E+02 -0.32320987114E+02 -0.14950735743E+02  0.46746526952E+02  0.41800000000E+01 0.  1.
         -5    1    3    3    0  502 -0.98557003821E+02 -0.34581586175E+02 -0.13522182122E+03  0.17091454718E+03  0.41800000000E+01 0.  1.
        -11    1    4    4    0    0  0.82970218599E+02  0.74116623286E+02 -0.42421066443E+02  0.11906669517E+03  0.00000000000E+00 0.  1.
         11    1    4    4    0    0 -0.14406458596E+02 -0.72140499970E+01  0.89180528652E+01  0.18415217445E+02  0.00000000000E+00 0. -1.
</event>
<event>
 8    1  0.6850220E-009  0.1115471E+03  0.7561462E-02  0.1257731E+00
         -1   -1    0    0    0  501 -0.00000000000E+00  0.00000000000E+00  0.22515015916E+03  0.22515015916E+03  0.00000000000E+00 0.  1.
          1   -1    0    0  501    0  0.00000000000E+00 -0.00000000000E+00 -0.63391985976E+02  0.63391985976E+02  0.00000000000E+00 0. -1.
         25    2    1    2    0    0 -0.36805675401E+02 -0.13660744950E+02  0.13031121666E+03  0.18486773025E+03  0.12511511022E+03 0.  0.
         23    2    1    2    0    0  0.36805675401E+02  0.13660744950E+02  0.31446956524E+02  0.10367441489E+03  0.90654285798E+02 0.  0.
          5    1    3    3  502    0 -0.52566754792E+02  0.44497513630E+02  0.84307342337E+02  0.10894261242E+03  0.41800000000E+01 0. -1.
         -5    1    3    3    0  502  0.15761079391E+02 -0.58158258580E+02  0.46003874320E+02  0.75925117827E+02  0.41800000000E+01 0. -1.
        -11    1    4    4    0    0  0.46371651889E+02 -0.25817600956E+02  0.13021311880E+01  0.53090245466E+02  0.00000000000E+00 0. -1.
         11    1    4    4    0    0 -0.95659764875E+01  0.39478345906E+02  0.30144825336E+02  0.50584169423E+02  0.00000000000E+00 0.  1.
</event>
<event>
 8    1  0.6850220E-009  0.1153806E+03  0.7561462E-02  0.1250918E+00
          1   -1    0    0  501    0  0.00000000000E+00  0.00000000000E+00  0.19460621190E+03  0.19460621190E+03  0.00000000000E+00 0. -1.
         -1   -1    0    0    0  501 -0.00000000000E+00 -0.00000000000E+00 -0.92367863897E+02  0.92367863897E+02  0.00000000000E+00 0.  1.
         25    2    1    2    0    0  0.53513780432E+02 -0.32151069442E+02  0.38249333466E+01  0.13985631774E+03  0.12509094105E+03 0.  0.
         23    2    1    2    0    0 -0.53513780432E+02  0.32151069442E+02  0.98413414658E+02  0.14711775806E+03  0.89783175429E+02 0.  0.
          5    1    3    3  502    0  0.88105867765E+02 -0.14671202336E+00 -0.13978945510E+02  0.89305928004E+02  0.41800000000E+01 0. -1.
         -5    1    3    3    0  502 -0.34592087334E+02 -0.32004357419E+02  0.17803878857E+02  0.50550389734E+02  0.41800000000E+01 0. -1.
        -11    1    4    4    0    0  0.13374595738E+02  0.24509604487E+02  0.67478750378E+02  0.73027270768E+02  0.00000000000E+00 0. -1.
         11    1    4    4    0    0 -0.66888376170E+02  0.76414649553E+01  0.30934664281E+02  0.74090487294E+02  0.00000000000E+00 0.  1.
</event>
<event>
 8    1  0.6850220E-009  0.1625862E+03  0.7561462E-02  0.1185807E+00
         -2   -1    0    0    0  501 -0.00000000000E+00  0.00000000000E+00  0.41221099959E+02  0.41221099959E+02  0.00000000000E+00 0.  1.
          2   -1    0    0  501    0  0.00000000000E+00 -0.00000000000E+00 -0.64783472086E+03  0.64783472086E+03  0.00000000000E+00 0. -1.
         25    2    1    2    0    0 -0.78598815396E+02  0.94862010453E+02 -0.34789149793E+03  0.38968126338E+03  0.12508564222E+03 0.  0.
         23    2    1    2    0    0  0.78598815396E+02 -0.94862010453E+02 -0.25872212297E+03  0.29937455744E+03  0.86668413614E+02 0.  0.
          5    1    3    3  502    0 -0.59153192116E+02  0.12508891962E+03 -0.25827249663E+03  0.29303326238E+03  0.41800000000E+01 0. -1.
         -5    1    3    3    0  502 -0.19445623280E+02 -0.30226909165E+02 -0.89619001301E+02  0.96648000997E+02  0.41800000000E+01 0. -1.
        -11    1    4    4    0    0  0.28764200159E+02  0.13129990115E+02 -0.58127829200E+02  0.66171144608E+02  0.00000000000E+00 0.  1.
         11    1    4    4    0    0  0.49834615236E+02 -0.10799200057E+03 -0.20059429377E+03  0.23320341283E+03  0.00000000000E+00 0. -1.
</event>
<event>
 8    1  0.6850220E-009  0.8028463E+02  0.7561462E-02  0.1328246E+00
         -2   -1    0    0    0  501 -0.00000000000E+00  0.00000000000E+00  0.36410098035E+02  0.36410098035E+02  0.00000000000E+00 0.  1.
          2   -1    0    0  501    0  0.00000000000E+00 -0.00000000000E+00 -0.44664670047E+03  0.44664670047E+03  0.00000000000E+00 0. -1.
         25    2    1    2    0    0  0.46142433302E+02  0.10831593838E+02 -0.13266315680E+03  0.18839679799E+03  0.12508953892E+03 0.  0.
         23    2    1    2    0    0 -0.46142433302E+02 -0.10831593838E+02 -0.27757344564E+03  0.29466000051E+03  0.86781625940E+02 0.  0.
          5    1    3    3  502    0 -0.88650233569E+01  0.30412719184E+02  0.10575983864E+02  0.33657777140E+02  0.41800000000E+01 0.  1.
         -5    1    3    3    0  502  0.55007456659E+02 -0.19581125346E+02 -0.14323914066E+03  0.15473902085E+03  0.41800000000E+01 0.  1.
        -11    1    4    4    0    0  0.94694688542E+01  0.68900405512E+01 -0.73320579282E+00  0.11733758559E+02  0.00000000000E+00 0.  1.
         11    1    4    4    0    0 -0.55611902156E+02 -0.17721634389E+02 -0.27684023985E+03  0.28292624195E+03  0.00000000000E+00 0. -1.
</event>
<event>
 8    1  0.6850220E-009  0.1400572E+03  0.7561462E-02  0.1213252E+00
          1   -1    0    0  501    0  0.00000000000E+00  0.00000000000E+00  0.52853901240E+03  0.52853901240E+03  0.00000000000E+00 0. -1.
         -1   -1    0    0    0  501 -0.00000000000E+00 -0.00000000000E+00 -0.40416475703E+02  0.40416475703E+02  0.00000000000E+00 0.  1.
         25    2    1    2    0    0 -0.49031287054E+02  0.78334003463E+02  0.20640002460E+03  0.25843482833E+03  0.12508919668E+03 0.  0.
         23    2    1    2    0    0  0.49031287054E+02 -0.78334003463E+02  0.28172251209E+03  0.31052065978E+03  0.92277966599E+02 0.  0.
          5    1    3    3  502    0 -0.28481445245E+01  0.10236746925E+03  0.12398310329E+03  0.16086172009E+03  0.41800000000E+01 0.  1.
         -5    1    3    3    0  502 -0.46183142530E+02 -0.24033465792E+02  0.82416921313E+02  0.97573108235E+02  0.41800000000E+01 0.  1.
        -11    1    4    4    0    0  0.16913313440E+02  0.17489166530E+02  0.26281964974E+02  0.35814421681E+02  0.00000000000E+00 0. -1.
         11    1    4    4    0    0  0.32117973615E+02 -0.95823169993E+02  0.25544054712E+03  0.27470623810E+03  0.00000000000E+00 0.  1.
</event>
<event>
 8    1  0.6850220E-009  0.9480736E+02  0.7561462E-02  0.1291611E+00
          3   -1    0    0  501    0  0.00000000000E+00  0.00000000000E+00  0.69123601679E+03  0.69123601679E+03  0.00000000000E+00 0. -1.
         -3   -1    0    0    0  501 -0.00000000000E+00 -0.00000000000E+00 -0.18980503641E+02  0.18980503641E+02  0.00000000000E+00 0.  1.
         25    2    1    2    0    0  0.26792114529E+02 -0.85464957720E+01  0.46067252108E+03  0.47818248932E+03  0.12509381046E+03 0.  0.
         23    2    1    2    0    0 -0.26792114529E+02  0.85464957720E+01  0.21158299206E+03  0.23203403111E+03  0.91003126722E+02 0.  0.
          5    1    3    3  502    0 -0.22399492527E+02 -0.39770344797E+02  0.35047930321E+03  0.35346376331E+03  0.41800000000E+01 0.  1.
         -5    1    3    3    0  502  0.49191607055E+02  0.31223849025E+02  0.11019321787E+03  0.12471872601E+03  0.41800000000E+01 0.  1.
        -11    1    4    4    0    0 -0.37661777987E+02 -0.28196939921E+02  0.16572944795E+03  0.17227805101E+03  0.00000000000E+00 0. -1.
         11    1    4    4    0    0  0.10869663459E+02  0.36743435693E+02  0.45853544111E+02  0.59755980101E+02  0.00000000000E+00 0.  1.
</event>
<event>
 8    1  0.6850220E-009  0.1238062E+03  0.7561462E-02  0.1236947E+00
         -1   -1    0    0    0  501 -0.00000000000E+00  0.00000000000E+00  0.45376815633E+03  0.45376815633E+03  0.00000000000E+00 0.  1.
          1   -1    0    0  501    0  0.00000000000E+00 -0.00000000000E+00 -0.57057731313E+02  0.57057731313E+02  0.00000000000E+00 0. -1.
         25    2    1    2    0    0 -0.89662389314E+02 -0.51335772030E+02  0.30419096636E+03  0.34475359765E+03  0.12509273973E+03 0.  0.
         23    2    1    2    0    0  0.89662389314E+02  0.51335772030E+02  0.92519458661E+02  0.16607228999E+03  0.91353433024E+02 0.  0.
          5    1    3    3  502    0 -0.54318577091E+02 -0.82500968271E+01  0.27732722668E+03  0.28274800613E+03  0.41800000000E+01 0. -1.
         -5    1    3    3    0  502 -0.35343812224E+02 -0.43085675203E+02  0.26863739681E+02  0.62005591521E+02  0.41800000000E+01 0. -1.
        -11    1    4    4    0    0  0.99170185234E+02  0.16519239751E+02  0.77675152769E+02  0.12704739383E+03  0.00000000000E+00 0. -1.
         11    1    4    4    0    0 -0.95077959194E+01  0.34816532279E+02  0.14844305893E+02  0.39024896164E+02  0.00000000000E+00 0.  1.
</event>
<event>
 8    1  0.6850220E-009  0.1469445E+03  0.7561462E-02  0.1204279E+00
          2   -1    0    0  501    0  0.00000000000E+00  0.00000000000E+00  0.33371895690E+03  0.33371895690E+03  0.00000000000E+00 0. -1.
         -2   -1    0    0    0  501 -0.00000000000E+00 -0.00000000000E+00 -0.75725169595E+02  0.75725169595E+02  0.00000000000E+00 0.  1.
         25    2    1    2    0    0 -0.23746799319E+02  0.10266716521E+03  0.21104876350E+03  0.26700896342E+03  0.12509096163E+03 0.  0.
         23    2    1    2    0    0  0.23746799319E+02 -0.10266716521E+03  0.46945023809E+02  0.14243516308E+03  0.83543300928E+02 0.  0.
          5    1    3    3  502    0 -0.58339216473E+02  0.10931055625E+03  0.13616320652E+03  0.18414709636E+03  0.41800000000E+01 0. -1.
         -5    1    3    3    0  502  0.34592417154E+02 -0.66433910427E+01  0.74885556976E+02  0.82861867060E+02  0.41800000000E+01 0. -1.
        -11    1    4    4    0    0 -0.58310472156E+01 -0.10463675848E+03  0.35257806521E+02  0.11057108689E+03  0.00000000000E+00 0. -1.
         11    1    4    4    0    0  0.29577846534E+02  0.19695932631E+01  0.11687217288E+02  0.31864076185E+02  0.00000000000E+00 0.  1.
</event>
<event>
 8    1  0.6850220E-009  0.1401117E+03  0.7561462E-02  0.1213179E+00
          2   -1    0    0  501    0  0.00000000000E+00  0.00000000000E+00  0.18992119233E+03  0.18992119233E+03  0.00000000000E+00 0. -1.
         -2   -1    0    0    0  501 -0.00000000000E+00 -0.00000000000E+00 -0.14107648035E+03  0.14107648035E+03  0.00000000000E+00 0.  1.
         25    2    1    2    0    0  0.44603424706E+02 -0.10109876213E+03  0.81587303050E+02  0.18578517395E+03  0.12509683306E+03 0.  0.
         23    2    1    2    0    0 -0.44603424706E+02  0.10109876213E+03 -0.32742591071E+02  0.14521249873E+03  0.88341198308E+02 0.  0.
          5    1    3    3  502    0  0.63597798630E+02  0.93874479444E-01  0.27600056009E+02  0.69454476419E+02  0.41800000000E+01 0. -1.
         -5    1    3    3    0  502 -0.18994373924E+02 -0.10119263661E+03  0.53987247041E+02  0.11633069753E+03  0.41800000000E+01 0. -1.
        -11    1    4    4    0    0 -0.79244125182E+01  0.49536236890E+02  0.28040304404E+02  0.57470807807E+02  0.00000000000E+00 0. -1.
         11    1    4    4    0    0 -0.36679012188E+02  0.51562525239E+02 -0.60782895475E+02  0.87741690926E+02  0.00000000000E+00 0.  1.
</event>
<event>
 8    1  0.6850220E-009  0.1062221E+03  0.7561462E-02  0.1267730E+00
         -1   -1    0    0    0  501 -0.00000000000E+00  0.00000000000E+00  0.24650315654E+02  0.24650315654E+02  0.00000000000E+00 0.  1.
          1   -1    0    0  501    0  0.00000000000E+00 -0.00000000000E+00 -0.69294184295E+03  0.69294184295E+03  0.00000000000E+00 0. -1.
         25    2    1    2    0    0 -0.48522344857E+02 -0.22142481072E+02 -0.23609336849E+03  0.27245641108E+03  0.12509080653E+03 0.  0.
         23    2    1    2    0    0  0.48522344857E+02  0.22142481072E+02 -0.43219815880E+03  0.44513574752E+03  0.92227316044E+02 0.  0.
          5    1    3    3  502    0 -0.70815546039E+02 -0.36139427276E+02 -0.75682264130E+02  0.10984615273E+03  0.41800000000E+01 0. -1.
         -5    1    3    3    0  502  0.22293201182E+02  0.13996946204E+02 -0.16041110436E+03  0.16261025836E+03  0.41800000000E+01 0. -1.
        -11    1    4    4    0    0 -0.27487095473E+02  0.20848225880E+01 -0.12899740760E+03  0.13190988617E+03  0.00000000000E+00 0. -1.
         11    1    4    4    0    0  0.76009440330E+02  0.20057658484E+02 -0.30320075121E+03  0.31322586135E+03  0.00000000000E+00 0.  1.
</event>
<event>
 8    1  0.6850220E-009  0.8627165E+02  0.7561462E-02  0.1312140E+00
         -2   -1    0    0    0  501 -0.00000000000E+00  0.00000000000E+00  0.66309002884E+02  0.66309002884E+02  0.00000000000E+00 0. -1.
          2   -1    0    0  501    0  0.00000000000E+00 -0.00000000000E+00 -0.31676226176E+03  0.31676226176E+03  0.00000000000E+00 0.  1.
         25    2    1    2    0    0  0.12528030782E+02 -0.63225743582E+02 -0.42197018879E+02  0.14691367848E+03  0.12509434166E+03 0.  0.
         23    2    1    2    0    0 -0.12528030782E+02  0.63225743582E+02 -0.20825624000E+03  0.23615758616E+03  0.90803622158E+02 0.  0.
          5    1    3    3  502    0  0.32397065291E+02 -0.57957625967E+02 -0.79776071641E+02  0.10387661072E+03  0.41800000000E+01 0.  1.
         -5    1    3    3    0  502 -0.19869034509E+02 -0.52681176151E+01  0.37579052762E+02  0.43037067768E+02  0.41800000000E+01 0.  1.
        -11    1    4    4    0    0  0.22062105400E+02  0.21067332498E+02 -0.16140640605E+03  0.16426380280E+03  0.00000000000E+00 0.  1.
         11    1    4    4    0    0 -0.34590136181E+02  0.42158411084E+02 -0.46849833941E+02  0.71893783364E+02  0.00000000000E+00 0. -1.
</event>
<event>
 8    1  0.6850220E-009  0.1165528E+03  0.7561462E-02  0.1248895E+00
          2   -1    0    0  501    0  0.00000000000E+00  0.00000000000E+00  0.91510191032E+03  0.91510191032E+03  0.00000000000E+00 0. -1.
         -2   -1    0    0    0  501 -0.00000000000E+00 -0.00000000000E+00 -0.16313441216E+02  0.16313441216E+02  0.00000000000E+00 0.  1.
         25    2    1    2    0    0 -0.15460739290E+02  0.48463481328E+02  0.59899359026E+03  0.61402612266E+03  0.12508802763E+03 0.  0.
         23    2    1    2    0    0  0.15460739290E+02 -0.48463481328E+02  0.29979487884E+03  0.31738922887E+03  0.90946191467E+02 0.  0.
          5    1    3    3  502    0  0.44044192646E+02  0.57772099591E+02  0.37764836778E+03  0.38459494079E+03  0.41800000000E+01 0. -1.
         -5    1    3    3    0  502 -0.59504931936E+02 -0.93086182635E+01  0.22134522248E+03  0.22943118187E+03  0.41800000000E+01 0. -1.
        -11    1    4    4    0    0  0.51247187233E+02 -0.23805178956E+02  0.21236049326E+03  0.21974972091E+03  0.00000000000E+00 0. -1.
         11    1    4    4    0    0 -0.35786447943E+02 -0.24658302371E+02  0.87434385589E+02  0.97639507965E+02  0.00000000000E+00 0.  1.
</event>
<event>
 8    1  0.6850220E-009  0.1078494E+03  0.7561462E-02  0.1264605E+00
          2   -1    0    0  501    0  0.00000000000E+00  0.00000000000E+00  0.24909014880E+03  0.24909014880E+03  0.00000000000E+00 0. -1.
         -2   -1    0    0    0  501 -0.00000000000E+00 -0.00000000000E+00 -0.50686781123E+02  0.50686781123E+02  0.00000000000E+00 0.  1.
         25    2    1    2    0    0 -0.17214131081E+02 -0.21636862481E+02  0.13755202867E+03  0.18797081643E+03  0.12509191465E+03 0.  0.
         23    2    1    2    0    0  0.17214131081E+02  0.21636862481E+02  0.60851339006E+02  0.11180611349E+03  0.89628351704E+02 0.  0.
          5    1    3    3  502    0 -0.33111657454E+02 -0.69719529165E+02  0.82775706344E+02  0.11325407086E+03  0.41800000000E+01 0.  1.
         -5    1    3    3    0  502  0.15897526373E+02  0.48082666684E+02  0.54776322327E+02  0.74716745565E+02  0.41800000000E+01 0.  1.
        -11    1    4    4    0    0  0.47296753250E+02  0.30437638704E+02  0.57250902367E+02  0.80256454817E+02  0.00000000000E+00 0.  1.
         11    1    4    4    0    0 -0.30082622169E+02 -0.88007762235E+01  0.36004366388E+01  0.31549658678E+02  0.00000000000E+00 0. -1.
</event>
<event>
 8    1  0.6850220E-009  0.1085979E+03  0.7561462E-02  0.1263189E+00
         -1   -1    0    0    0  501 -0.00000000000E+00  0.00000000000E+00  0.28494325437E+02  0.28494325437E+02  0.00000000000E+00 0.  1.
          1   -1    0    0  501    0  0.00000000000E+00 -0.00000000000E+00 -0.73524914327E+03  0.73524914327E+03  0.00000000000E+00 0. -1.
         25    2    1    2    0    0  0.77964021603E+02 -0.17080631870E+02 -0.24618374116E+03  0.28744435716E+03  0.12509071668E+03 0.  0.
         23    2    1    2    0    0 -0.77964021603E+02  0.17080631870E+02 -0.46057107667E+03  0.47629911155E+03  0.91460321163E+02 0.  0.
          5    1    3    3  502    0  0.27481321621E+02 -0.32778697430E+02 -0.22702548248E+03  0.23105780260E+03  0.41800000000E+01 0. -1.
         -5    1    3    3    0  502  0.50482699982E+02  0.15698065559E+02 -0.19158258678E+02  0.56386554562E+02  0.41800000000E+01 0. -1.
        -11    1    4    4    0    0 -0.76204325271E+02 -0.24132887642E+02 -0.29050125577E+03  0.30129798383E+03  0.00000000000E+00 0.  1.
         11    1    4    4    0    0 -0.17596963318E+01  0.41213519513E+02 -0.17006982090E+03  0.17500112772E+03  0.00000000000E+00 0. -1.
</event>
<event>
 8    1  0.6850220E-009  0.2718367E+03  0.7561462E-02  0.1100233E+00
         -1   -1    0    0    0  501 -0.00000000000E+00  0.00000000000E+00  0.36162693131E+02  0.36162693131E+02  0.00000000000E+00 0.  1.
          1   -1    0    0  501    0  0.00000000000E+00 -0.00000000000E+00 -0.27771027671E+04  0.27771027671E+04  0.00000000000E+00 0. -1.
         25    2    1    2    0    0  0.19503878572E+03  0.17878149890E+03 -0.20023955812E+04  0.20236696238E+04  0.12509088849E+03 0.  0.
         23    2    1    2    0    0 -0.19503878572E+03 -0.17878149890E+03 -0.73854449280E+03  0.78959583647E+03  0.89502317473E+02 0.  0.
          5    1    3    3  502    0  0.13330219300E+03  0.64561083700E+02 -0.13753960977E+04  0.13833544398E+04  0.41800000000E+01 0. -1.
         -5    1    3    3    0  502  0.61736592725E+02  0.11422041520E+03 -0.62699948352E+03  0.64031518400E+03  0.41800000000E+01 0. -1.
        -11    1    4    4    0    0 -0.12649090317E+03 -0.13056867154E+03 -0.37804136051E+03  0.41947991231E+03  0.00000000000E+00 0.  1.
         11    1    4    4    0    0 -0.68547882556E+02 -0.48212827353E+02 -0.36050313229E+03  0.37011592416E+03  0.00000000000E+00 0. -1.
</event>
<event>
 8    1  0.6850220E-009  0.1756379E+03  0.7561462E-02  0.1172093E+00
          2   -1    0    0  501    0  0.00000000000E+00  0.00000000000E+00  0.87766855728E+03  0.87766855728E+03  0.00000000000E+00 0. -1.
         -2   -1    0    0    0  501 -0.00000000000E+00 -0.00000000000E+00 -0.74016669400E+02  0.74016669400E+02  0.00000000000E+00 0.  1.
         25    2    1    2    0    0 -0.11198458167E+03 -0.11154382290E+03  0.72915358432E+03  0.75650212368E+03  0.12509173692E+03 0.  0.
         23    2    1    2    0    0  0.11198458167E+03  0.11154382290E+03  0.74498303565E+02  0.19518310301E+03  0.86970543893E+02 0.  0.
          5    1    3    3  502    0  0.55712479613E+01 -0.66977625644E+02  0.15962036399E+03  0.17324310706E+03  0.41800000000E+01 0. -1.
         -5    1    3    3    0  502 -0.11755582963E+03 -0.44566197260E+02  0.56953322032E+03  0.58325901662E+03  0.41800000000E+01 0. -1.
        -11    1    4    4    0    0  0.78728602140E+02  0.74950996294E+02  0.36195906784E+01  0.10876095842E+03  0.00000000000E+00 0.  1.
         11    1    4    4    0    0  0.33255979530E+02  0.36592826610E+02  0.70878712886E+02  0.86422144582E+02  0.00000000000E+00 0. -1.
</event>
<event>
 8    1  0.6850220E-009  0.1380917E+03  0.7561462E-02  0.1215920E+00
          2   -1    0    0  501    0  0.00000000000E+00  0.00000000000E+00  0.15959850202E+03  0.15959850202E+03  0.00000000000E+00 0. -1.
         -2   -1    0    0    0  501 -0.00000000000E+00 -0.00000000000E+00 -0.16519953315E+03  0.16519953315E+03  0.00000000000E+00 0.  1.
         25    2    1    2    0    0  0.63021902271E+02 -0.84543533127E+02 -0.65682546178E+02  0.17629044490E+03  0.12507899476E+03 0.  0.
         23    2    1    2    0    0 -0.63021902271E+02  0.84543533127E+02  0.60081515044E+02  0.14850759028E+03  0.85588239616E+02 0.  0.
          5    1    3    3  502    0  0.63516489326E+02  0.86229311721E+01 -0.37634215983E+01  0.64345435738E+02  0.41800000000E+01 0. -1.
         -5    1    3    3    0  502 -0.49458705506E+00 -0.93166464299E+02 -0.61919124580E+02  0.11194500916E+03  0.41800000000E+01 0. -1.
        -11    1    4    4    0    0  0.10138896955E+02  0.10421736738E+02 -0.14403511452E+02  0.20466337490E+02  0.00000000000E+00 0.  1.
         11    1    4    4    0    0 -0.73160799225E+02  0.74121796390E+02  0.74485026496E+02  0.12804125279E+03  0.00000000000E+00 0. -1.
</event>
<event>
 8    1  0.6850220E-009  0.1164858E+03  0.7561462E-02  0.1249010E+00
         -2   -1    0    0    0  501 -0.00000000000E+00  0.00000000000E+00  0.52323294384E+02  0.52323294384E+02  0.00000000000E+00 0.  1.
          2   -1    0    0  501    0  0.00000000000E+00 -0.00000000000E+00 -0.45592823331E+03  0.45592823331E+03  0.00000000000E+00 0. -1.
         25    2    1    2    0    0  0.57931290727E+02 -0.17241078930E+01 -0.65139625926E+02  0.15247627277E+03  0.12508731310E+03 0.  0.
         23    2    1    2    0    0 -0.57931290727E+02  0.17241078930E+01 -0.33846531300E+03  0.35577525492E+03  0.93049755064E+02 0.  0.
          5    1    3    3  502    0  0.21805236007E+02  0.58353221130E+02 -0.10089683400E+02  0.63244294958E+02  0.41800000000E+01 0. -1.
         -5    1    3    3    0  502  0.36126054721E+02 -0.60077329023E+02 -0.55049942526E+02  0.89231977813E+02  0.41800000000E+01 0. -1.
        -11    1    4    4    0    0  0.21067056999E+02 -0.24051654663E+01 -0.26512954775E+02  0.33949116077E+02  0.00000000000E+00 0.  1.
         11    1    4    4    0    0 -0.78998347726E+02  0.41292733593E+01 -0.31195235823E+03  0.32182613885E+03  0.00000000000E+00 0. -1.
</event>
<event>
 8    1  0.6850220E-009  0.1769419E+03  0.7561462E-02  0.1170796E+00
          1   -1    0    0  501    0  0.00000000000E+00  0.00000000000E+00  0.25550239432E+03  0.25550239432E+03  0.00000000000E+00 0. -1.
         -1   -1    0    0    0  501 -0.00000000000E+00 -0.00000000000E+00 -0.13020848278E+03  0.13020848278E+03  0.00000000000E+00 0.  1.
         25    2    1    2    0    0  0.11767811340E+03  0.82518746912E+02  0.10320706106E+03  0.21669483815E+03  0.12508986155E+03 0.  0.
         23    2    1    2    0    0 -0.11767811340E+03 -0.82518746912E+02  0.22086850483E+02  0.16901603895E+03  0.86145867535E+02 0.  0.
          5    1    3    3  502    0  0.13870415256E+03  0.89566258982E+02  0.77355445683E+02  0.18237953301E+03  0.41800000000E+01 0. -1.
         -5    1    3    3    0  502 -0.21026039160E+02 -0.70475120698E+01  0.25851615372E+02  0.34315305134E+02  0.41800000000E+01 0. -1.
        -11    1    4    4    0    0 -0.22962454524E+02 -0.66168123940E+02  0.20149133411E+02  0.72879918501E+02  0.00000000000E+00 0. -1.
         11    1    4    4    0    0 -0.94715658877E+02 -0.16350622972E+02  0.19377170729E+01  0.96136120452E+02  0.00000000000E+00 0.  1.
</event>
<event>
 8    1  0.6850220E-009  0.1107883E+03  0.7561462E-02  0.1259117E+00
         -1   -1    0    0    0  501 -0.00000000000E+00  0.00000000000E+00  0.51355291349E+02  0.51355291349E+02  0.00000000000E+00 0.  1.
          1   -1    0    0  501    0  0.00000000000E+00 -0.00000000000E+00 -0.25920033258E+03  0.25920033258E+03  0.00000000000E+00 0. -1.
         25    2    1    2    0    0 -0.32731749014E+02 -0.44688390160E+01 -0.93280797328E+02  0.15950439011E+03  0.12509598474E+03 0.  0.
         23    2    1    2    0    0  0.32731749014E+02  0.44688390160E+01 -0.11456424390E+03  0.15105123382E+03  0.92737108768E+02 0.  0.
          5    1    3    3  502    0 -0.79505832714E+02  0.85982086859E+00 -0.73192505592E+02  0.10815050625E+03  0.41800000000E+01 0. -1.
         -5    1    3    3    0  502  0.46774083700E+02 -0.53286598846E+01 -0.20088291737E+02  0.51353883855E+02  0.41800000000E+01 0. -1.
        -11    1    4    4    0    0  0.22029842937E+02  0.46429417654E+02 -0.41228854762E+02  0.65884924440E+02  0.00000000000E+00 0.  1.
         11    1    4    4    0    0  0.10701906077E+02 -0.41960578638E+02 -0.73335389140E+02  0.85166309382E+02  0.00000000000E+00 0. -1.
</event>
<event>
 8    1  0.6850220E-009  0.9843773E+02  0.7561462E-02  0.1283616E+00
          1   -1    0    0  501    0  0.00000000000E+00  0.00000000000E+00  0.60634143523E+02  0.60634143523E+02  0.00000000000E+00 0. -1.
         -1   -1    0    0    0  501 -0.00000000000E+00 -0.00000000000E+00 -0.53540027075E+03  0.53540027075E+03  0.00000000000E+00 0.  1.
         25    2    1    2    0    0 -0.18017320960E+02  0.36263040598E+02 -0.47853102762E+03  0.49625907036E+03  0.12506593679E+03 0.  0.
         23    2    1    2    0    0  0.18017320960E+02 -0.36263040598E+02  0.37649003964E+01  0.99775343915E+02  0.91111540489E+02 0.  0.
          5    1    3    3  502    0 -0.43766315072E+02  0.72914950223E+02 -0.27814186642E+03  0.29088219361E+03  0.41800000000E+01 0. -1.
         -5    1    3    3    0  502  0.25748994111E+02 -0.36651909625E+02 -0.20038916120E+03  0.20537687675E+03  0.41800000000E+01 0. -1.
        -11    1    4    4    0    0 -0.14428302586E+02 -0.30568399421E+02 -0.35166075108E+02  0.48777615739E+02  0.00000000000E+00 0.  1.
         11    1    4    4    0    0  0.32445623546E+02 -0.56946411770E+01  0.38930975504E+02  0.50997728176E+02  0.00000000000E+00 0. -1.
</event>
<event>
 8    1  0.6850220E-009  0.3405792E+03  0.7561462E-02  0.1066549E+00
          3   -1    0    0  501    0  0.00000000000E+00  0.00000000000E+00  0.13669635382E+04  0.13669635382E+04  0.00000000000E+00 0. -1.
         -3   -1    0    0    0  501 -0.00000000000E+00 -0.00000000000E+00 -0.86755798651E+02  0.86755798651E+02  0.00000000000E+00 0.  1.
         25    2    1    2    0    0 -0.13407348239E+03 -0.29641506211E+03  0.70977555701E+03  0.79073845082E+03  0.12509343925E+03 0.  0.
         23    2    1    2    0    0  0.13407348239E+03  0.29641506211E+03  0.57043218257E+03  0.66298088607E+03  0.91176711144E+02 0.  0.
          5    1    3    3  502    0 -0.14459381672E+03 -0.20007219003E+03  0.44731839926E+03  0.51092805343E+03  0.41800000000E+01 0. -1.
         -5    1    3    3    0  502  0.10520334334E+02 -0.96342872076E+02  0.26245715775E+03  0.27981039739E+03  0.41800000000E+01 0. -1.
        -11    1    4    4    0    0  0.14664520525E+03  0.28383662165E+03  0.53058315594E+03  0.61934362787E+03  0.00000000000E+00 0. -1.
         11    1    4    4    0    0 -0.12571722858E+02  0.12578440459E+02  0.39849026629E+02  0.43637258201E+02  0.00000000000E+00 0.  1.
</event>
<event>
 8    1  0.6850220E-009  0.4517119E+03  0.7561462E-02  0.1027213E+00
         -2   -1    0    0    0  501 -0.00000000000E+00  0.00000000000E+00  0.16724316158E+03  0.16724316158E+03  0.00000000000E+00 0.  1.
          2   -1    0    0  501    0  0.00000000000E+00 -0.00000000000E+00 -0.12649461188E+04  0.12649461188E+04  0.00000000000E+00 0. -1.
         25    2    1    2    0    0 -0.25440941222E+03 -0.36426272006E+03 -0.48066586994E+03  0.66640736433E+03  0.12509044109E+03 0.  0.
         23    2    1    2    0    0  0.25440941222E+03  0.36426272006E+03 -0.61703708731E+03  0.76578191609E+03  0.90970861495E+02 0.  0.
          5    1    3    3  502    0 -0.92763087012E+02 -0.19865599953E+03 -0.30590408452E+03  0.37638275437E+03  0.41800000000E+01 0.  1.
         -5    1    3    3    0  502 -0.16164632520E+03 -0.16560672053E+03 -0.17476178543E+03  0.29002460996E+03  0.41800000000E+01 0.  1.
        -11    1    4    4    0    0  0.25520047250E+02  0.99375920974E+02 -0.16009443278E+03  0.19015013513E+03  0.00000000000E+00 0. -1.
         11    1    4    4    0    0  0.22888936497E+03  0.26488679908E+03 -0.45694265453E+03  0.57563178096E+03  0.00000000000E+00 0.  1.
</event>
<event>
 8    1  0.6850220E-009  0.9826236E+02  0.7561462E-02  0.1283993E+00
         -1   -1    0    0    0  501 -0.00000000000E+00  0.00000000000E+00  0.16512946143E+02  0.16512946143E+02  0.00000000000E+00 0.  1.
          1   -1    0    0  501    0  0.00000000000E+00 -0.00000000000E+00 -0.64501322229E+03  0.64501322229E+03  0.00000000000E+00 0. -1.
         25    2    1    2    0    0  0.13298244497E+02  0.56799779030E+01 -0.39452365349E+03  0.41413293621E+03  0.12509224689E+03 0.  0.
         23    2    1    2    0    0 -0.13298244497E+02 -0.56799779030E+01 -0.23397662266E+03  0.24739323223E+03  0.79052172297E+02 0.  0.
          5    1    3    3  502    0 -0.52599991712E+02 -0.45235515698E+01 -0.24015793953E+03  0.24592789587E+03  0.41800000000E+01 0.  1.
         -5    1    3    3    0  502  0.65898236209E+02  0.10203529473E+02 -0.15436571396E+03  0.16820504034E+03  0.41800000000E+01 0.  1.
        -11    1    4    4    0    0  0.95910187402E+01 -0.36850975901E+02 -0.79491960679E+02  0.88141669362E+02  0.00000000000E+00 0.  1.
         11    1    4    4    0    0 -0.22889263237E+02  0.31170997998E+02 -0.15448466198E+03  0.15925156287E+03  0.00000000000E+00 0. -1.
</event>
<event>
 8    1  0.6850220E-009  0.1329570E+03  0.7561462E-02  0.1223133E+00
         -1   -1    0    0    0  501 -0.00000000000E+00  0.00000000000E+00  0.35696690696E+03  0.35696690696E+03  0.00000000000E+00 0.  1.
          1   -1    0    0  501    0  0.00000000000E+00 -0.00000000000E+00 -0.66462040985E+02  0.66462040985E+02  0.00000000000E+00 0. -1.
         25    2    1    2    0    0 -0.75930697519E+01 -0.89023304290E+02  0.24730078463E+03  0.29118696124E+03  0.12509742166E+03 0.  0.
         23    2    1    2    0    0  0.75930697519E+01  0.89023304290E+02  0.43204081351E+02  0.13224198671E+03  0.87398781385E+02 0.  0.
          5    1    3    3  502    0  0.28538062839E+02  0.15286010566E+02  0.11122297922E+03  0.11591422111E+03  0.41800000000E+01 0. -1.
         -5    1    3    3    0  502 -0.36131132591E+02 -0.10430931486E+03  0.13607780541E+03  0.17527274013E+03  0.41800000000E+01 0. -1.
        -11    1    4    4    0    0 -0.32109381706E+02  0.88020471444E+01  0.23045484060E+02  0.40491761668E+02  0.00000000000E+00 0.  1.
         11    1    4    4    0    0  0.39702451458E+02  0.80221257146E+02  0.20158597291E+02  0.91750225038E+02  0.00000000000E+00 0. -1.
</event>
<event>
 8    1  0.6850220E-009  0.1422619E+03  0.7561462E-02  0.1210317E+00
         -1   -1    0    0    0  501 -0.00000000000E+00  0.00000000000E+00  0.43742222017E+03  0.43742222017E+03  0.00000000000E+00 0.  1.
          1   -1    0    0  501    0  0.00000000000E+00 -0.00000000000E+00 -0.74049273434E+02  0.74049273434E+02  0.00000000000E+00 0. -1.
         25    2    1    2    0    0 -0.11000097924E+03 -0.62865463434E+02  0.97674241163E+02  0.20307532591E+03  0.12508816364E+03 0.  0.
         23    2    1    2    0    0  0.11000097924E+03  0.62865463434E+02  0.26569870558E+03  0.30839616769E+03  0.91978868097E+02 0.  0.
          5    1    3    3  502    0 -0.62002853557E+02 -0.62642123883E+02 -0.63187012160E+01  0.88463483534E+02  0.41800000000E+01 0. -1.
         -5    1    3    3    0  502 -0.47998125681E+02 -0.22333955097E+00  0.10399294238E+03  0.11461184238E+03  0.41800000000E+01 0. -1.
        -11    1    4    4    0    0  0.88509684887E+02  0.76314185913E+01  0.20568243608E+03  0.22404791314E+03  0.00000000000E+00 0.  1.
         11    1    4    4    0    0  0.21491294351E+02  0.55234044843E+02  0.60016269497E+02  0.84348254558E+02  0.00000000000E+00 0. -1.
</event>
<event>
 8    1  0.6850220E-009  0.1027738E+03  0.7561462E-02  0.1274569E+00
          1   -1    0    0  501    0  0.00000000000E+00  0.00000000000E+00  0.18687646765E+03  0.18687646765E+03  0.00000000000E+00 0. -1.
         -1   -1    0    0    0  501 -0.00000000000E+00 -0.00000000000E+00 -0.13092159251E+03  0.13092159251E+03  0.00000000000E+00 0.  1.
         25    2    1    2    0    0  0.40531557496E+02 -0.44754744488E+02 -0.65955445843E+02  0.15376345284E+03  0.12508910538E+03 0.  0.
         23    2    1    2    0    0 -0.40531557496E+02  0.44754744488E+02  0.12191032098E+03  0.16403460732E+03  0.91648413681E+02 0.  0.
          5    1    3    3  502    0 -0.41766715526E+02 -0.29088924777E+01 -0.35056013627E+01  0.42221816899E+02  0.41800000000E+01 0.  1.
         -5    1    3    3    0  502  0.82298273023E+02 -0.41845852010E+02 -0.62449844481E+02  0.11154163594E+03  0.41800000000E+01 0.  1.
        -11    1    4    4    0    0 -0.28252662322E+02  0.40585178489E+01 -0.60686702088E+01  0.29180700017E+02  0.00000000000E+00 0.  1.
         11    1    4    4    0    0 -0.12278895175E+02  0.40696226639E+02  0.12797899119E+03  0.13485390730E+03  0.00000000000E+00 0. -1.
</event>
<event>
 8    1  0.6850220E-009  0.1396275E+03  0.7561462E-02  0.1213831E+00
          1   -1    0    0  501    0  0.00000000000E+00  0.00000000000E+00  0.80702227207E+03  0.80702227207E+03  0.00000000000E+00 0. -1.
         -1   -1    0    0    0  501 -0.00000000000E+00 -0.00000000000E+00 -0.28892171918E+02  0.28892171918E+02  0.00000000000E+00 0.  1.
         25    2    1    2    0    0 -0.70881142737E+02  0.79960455307E+02  0.43882461213E+03  0.46864791329E+03  0.12508403421E+03 0.  0.
         23    2    1    2    0    0  0.70881142737E+02 -0.79960455307E+02  0.33930548802E+03  0.36726653070E+03  0.91316370704E+02 0.  0.
          5    1    3    3  502    0  0.27236465706E+02  0.55305405658E+02  0.13693705453E+03  0.15023229434E+03  0.41800000000E+01 0.  1.
         -5    1    3    3    0  502 -0.98117608443E+02  0.24655049649E+02  0.30188755760E+03  0.31841561895E+03  0.41800000000E+01 0.  1.
        -11    1    4    4    0    0  0.32723837186E+02 -0.69228640096E+02  0.30617857447E+03  0.31560857655E+03  0.00000000000E+00 0. -1.
         11    1    4    4    0    0  0.38157305552E+02 -0.10731815212E+02  0.33126913554E+02  0.51657954144E+02  0.00000000000E+00 0.  1.
</event>
<event>
 8    1  0.6850220E-009  0.1466740E+03  0.7561462E-02  0.1204621E+00
         -1   -1    0    0    0  501 -0.00000000000E+00  0.00000000000E+00  0.18527403758E+02  0.18527403758E+02  0.00000000000E+00 0.  1.
          1   -1    0    0  501    0  0.00000000000E+00 -0.00000000000E+00 -0.17490610657E+04  0.17490610657E+04  0.00000000000E+00 0. -1.
         25    2    1    2    0    0  0.43612891398E+02 -0.10647179415E+03 -0.13300678238E+04  0.13408823244E+04  0.12508662847E+03 0.  0.
         23    2    1    2    0    0 -0.43612891398E+02  0.10647179415E+03 -0.40046583810E+03  0.42670614506E+03  0.92015865477E+02 0.  0.
          5    1    3    3  502    0 -0.28955812149E+02 -0.75521611430E+01 -0.94063865984E+02  0.98797558062E+02  0.41800000000E+01 0.  1.
         -5    1    3    3    0  502  0.72568703547E+02 -0.98919633009E+02 -0.12360039578E+04  0.12420847663E+04  0.41800000000E+01 0.  1.
        -11    1    4    4    0    0  0.18482126841E+01  0.92922207795E+02 -0.19757343697E+03  0.21834196937E+03  0.00000000000E+00 0.  1.
         11    1    4    4    0    0 -0.45461104082E+02  0.13549586358E+02 -0.20289240112E+03  0.20836417568E+03  0.00000000000E+00 0. -1.
</event>
<event>
 8    1  0.6850220E-009  0.1071735E+03  0.7561462E-02  0.1265895E+00
          4   -1    0    0  501    0  0.00000000000E+00  0.00000000000E+00  0.21855385378E+03  0.21855385378E+03  0.00000000000E+00 0. -1.
         -4   -1    0    0    0  501 -0.00000000000E+00 -0.00000000000E+00 -0.60919275272E+02  0.60919275272E+02  0.00000000000E+00 0.  1.
         25    2    1    2    0    0  0.31247517124E+02  0.15959706065E+02  0.10044165003E+03  0.16421760178E+03  0.12509107134E+03 0.  0.
         23    2    1    2    0    0 -0.31247517124E+02 -0.15959706065E+02  0.57192928472E+02  0.11525552727E+03  0.93710650163E+02 0.  0.
          5    1    3    3  502    0 -0.41223059191E+02 -0.13300420709E+02  0.65186884796E+02  0.78377574277E+02  0.41800000000E+01 0.  1.
         -5    1    3    3    0  502  0.72470576315E+02  0.29260126773E+02  0.35254765234E+02  0.85840027505E+02  0.41800000000E+01 0.  1.
        -11    1    4    4    0    0 -0.44519703218E+02  0.23916349755E+02  0.90354372709E+01  0.51338434792E+02  0.00000000000E+00 0.  1.
         11    1    4    4    0    0  0.13272186094E+02 -0.39876055820E+02  0.48157491201E+02  0.63917092473E+02  0.00000000000E+00 0. -1.
</event>
<event>
 8    1  0.6850220E-009  0.9849268E+02  0.7561462E-02  0.1283498E+00
         -2   -1    0    0    0  501 -0.00000000000E+00  0.00000000000E+00  0.26654825359E+02  0.26654825359E+02  0.00000000000E+00 0.  1.
          2   -1    0    0  501    0  0.00000000000E+00 -0.00000000000E+00 -0.46662958032E+03  0.46662958032E+03  0.00000000000E+00 0. -1.
         25    2    1    2    0    0  0.21725386527E+02  0.95097594726E+01 -0.27036119097E+03  0.29884073766E+03  0.12509270545E+03 0.  0.
         23    2    1    2    0    0 -0.21725386527E+02 -0.95097594726E+01 -0.16961356399E+03  0.19444366802E+03  0.92071445072E+02 0.  0.
          5    1    3    3  502    0  0.68008862414E+02  0.12441043550E+02 -0.21815065952E+03  0.22888243179E+03  0.41800000000E+01 0.  1.
         -5    1    3    3    0  502 -0.46283475887E+02 -0.29312840770E+01 -0.52210531451E+02  0.69958305875E+02  0.41800000000E+01 0.  1.
        -11    1    4    4    0    0 -0.41633321647E+02 -0.30967086230E+02 -0.52835604196E+02  0.74053325190E+02  0.00000000000E+00 0.  1.
         11    1    4    4    0    0  0.19907935121E+02  0.21457326758E+02 -0.11677795979E+03  0.12039034283E+03  0.00000000000E+00 0. -1.
</event>
<event>
 8    1  0.6850220E-009  0.1119093E+03  0.7561462E-02  0.1257074E+00
          1   -1    0    0  501    0  0.00000000000E+00  0.00000000000E+00  0.10619717527E+03  0.10619717527E+03  0.00000000000E+00 0. -1.
         -1   -1    0    0    0  501 -0.00000000000E+00 -0.00000000000E+00 -0.18882740700E+03  0.18882740700E+03  0.00000000000E+00 0.  1.
         25    2    1    2    0    0 -0.60353042506E+02 -0.10041612534E+02  0.24549384225E+02  0.14138658410E+03  0.12507665720E+03 0.  0.
         23    2    1    2    0    0  0.60353042506E+02  0.10041612534E+02 -0.10717961595E+03  0.15363799817E+03  0.91508691842E+02 0.  0.
          5    1    3    3  502    0 -0.40628157641E+02  0.47922463179E+02 -0.19417553226E+02  0.65891755506E+02  0.41800000000E+01 0.  1.
         -5    1    3    3    0  502 -0.19724884865E+02 -0.57964075713E+02  0.43966937451E+02  0.75494828598E+02  0.41800000000E+01 0.  1.
        -11    1    4    4    0    0  0.77077242901E+02  0.20500238737E+02 -0.52438144381E+02  0.95451140106E+02  0.00000000000E+00 0. -1.
         11    1    4    4    0    0 -0.16724200395E+02 -0.10458626203E+02 -0.54741471573E+02  0.58186858060E+02  0.00000000000E+00 0.  1.
</event>
<event>
 8    1  0.6850220E-009  0.1443817E+03  0.7561462E-02  0.1207552E+00
          1   -1    0    0  501    0  0.00000000000E+00  0.00000000000E+00  0.44971341846E+03  0.44971341846E+03  0.00000000000E+00 0. -1.
         -1   -1    0    0    0  501 -0.00000000000E+00 -0.00000000000E+00 -0.77485415089E+02  0.77485415089E+02  0.00000000000E+00 0.  1.
         25    2    1    2    0    0  0.31807040476E+02 -0.10351935559E+03  0.35338484397E+03  0.39020022269E+03  0.12508965200E+03 0.  0.
         23    2    1    2    0    0 -0.31807040476E+02  0.10351935559E+03  0.18843159405E+02  0.13699861086E+03  0.81765579039E+02 0.  0.
          5    1    3    3  502    0  0.73519380467E+02 -0.88939231832E+02  0.29549283261E+03  0.31725190746E+03  0.41800000000E+01 0.  1.
         -5    1    3    3    0  502 -0.41712339990E+02 -0.14580123756E+02  0.57892011360E+02  0.72948315235E+02  0.41800000000E+01 0.  1.
        -11    1    4    4    0    0  0.21911863296E+02  0.20362686609E+02 -0.13545000573E+02  0.32836501025E+02  0.00000000000E+00 0.  1.
         11    1    4    4    0    0 -0.53718903773E+02  0.83156668979E+02  0.32388159978E+02  0.10416210983E+03  0.00000000000E+00 0. -1.
</event>
<event>
 8    1  0.6850220E-009  0.1829283E+03  0.7561462E-02  0.1164999E+00
          1   -1    0    0  501    0  0.00000000000E+00  0.00000000000E+00  0.17772689993E+04  0.17772689993E+04  0.00000000000E+00 0. -1.
         -1   -1    0    0    0  501 -0.00000000000E+00 -0.00000000000E+00 -0.23720284826E+02  0.23720284826E+02  0.00000000000E+00 0.  1.
         25    2    1    2    0    0 -0.15725787900E+03  0.12918000834E+00  0.12450572159E+04  0.12611681690E+04  0.12509045721E+03 0.  0.
         23    2    1    2    0    0  0.15725787900E+03 -0.12918000834E+00  0.50849149860E+03  0.53982111513E+03  0.90073164706E+02 0.  0.
          5    1    3    3  502    0 -0.48727319354E+02 -0.57273265017E+02  0.37570723526E+03  0.38318138990E+03  0.41800000000E+01 0.  1.
         -5    1    3    3    0  502 -0.10853055965E+03  0.57402445025E+02  0.86934998065E+03  0.87798677913E+03  0.41800000000E+01 0.  1.
        -11    1    4    4    0    0  0.77493071615E+02 -0.29181826831E+02  0.14921146491E+03  0.17064822421E+03  0.00000000000E+00 0.  1.
         11    1    4    4    0    0  0.79764807386E+02  0.29052646822E+02  0.35928003369E+03  0.36917289092E+03  0.00000000000E+00 0. -1.
</event>
<event>
 8    1  0.6850220E-009  0.1375339E+03  0.7561462E-02  0.1216686E+00
          2   -1    0    0  501    0  0.00000000000E+00  0.00000000000E+00  0.11139569655E+03  0.11139569655E+03  0.00000000000E+00 0. -1.
         -2   -1    0    0    0  501 -0.00000000000E+00 -0.00000000000E+00 -0.24567086752E+03  0.24567086752E+03  0.00000000000E+00 0.  1.
         25    2    1    2    0    0  0.49978692729E+02  0.92171528509E+02  0.72870451021E+00  0.16322078867E+03  0.12508810675E+03 0.  0.
         23    2    1    2    0    0 -0.49978692729E+02 -0.92171528509E+02 -0.13500387547E+03  0.19384577540E+03  0.91414866700E+02 0.  0.
          5    1    3    3  502    0  0.10990434257E+02  0.10426972788E+03 -0.33112267628E+02  0.11003117951E+03  0.41800000000E+01 0.  1.
         -5    1    3    3    0  502  0.38988258472E+02 -0.12098199374E+02  0.33840972139E+02  0.53189609155E+02  0.41800000000E+01 0.  1.
        -11    1    4    4    0    0 -0.40610624527E+02 -0.10536500968E+03 -0.85135933249E+02  0.14141829874E+03  0.00000000000E+00 0.  1.
         11    1    4    4    0    0 -0.93680682021E+01  0.13193481170E+02 -0.49867942224E+02  0.52427476659E+02  0.00000000000E+00 0. -1.
</event>
<event>
 8    1  0.6850220E-009  0.3814432E+03  0.7561462E-02  0.1050402E+00
         -2   -1    0    0    0  501 -0.00000000000E+00  0.00000000000E+00  0.11678753400E+03  0.11678753400E+03  0.00000000000E+00 0.  1.
          2   -1    0    0  501    0  0.00000000000E+00 -0.00000000000E+00 -0.17728510407E+04  0.17728510407E+04  0.00000000000E+00 0. -1.
         25    2    1    2    0    0 -0.83630568296E+02  0.37035386777E+03 -0.36654701996E+03  0.54236560132E+03  0.12509064046E+03 0.  0.
         23    2    1    2    0    0  0.83630568296E+02 -0.37035386777E+03 -0.12895164867E+04  0.13472729734E+04  0.90197759831E+02 0.  0.
          5    1    3    3  502    0 -0.88037446991E+02  0.36344110690E+03 -0.37519033693E+03  0.52974077772E+03  0.41800000000E+01 0.  1.
         -5    1    3    3    0  502  0.44068786945E+01  0.69127608706E+01  0.86433169703E+01  0.12624823600E+02  0.41800000000E+01 0.  1.
        -11    1    4    4    0    0  0.36499131494E+02 -0.15095143719E+03 -0.68668612270E+03  0.70402866000E+03  0.00000000000E+00 0.  1.
         11    1    4    4    0    0  0.47131436803E+02 -0.21940243058E+03 -0.60283036404E+03  0.64324431337E+03  0.00000000000E+00 0. -1.
</event>
<event>
 8    1  0.6850220E-009  0.4660918E+02  0.7561462E-02  0.1464539E+00
         -2   -1    0    0    0  501 -0.00000000000E+00  0.00000000000E+00  0.27285836548E+02  0.27285836548E+02  0.00000000000E+00 0.  1.
          2   -1    0    0  501    0  0.00000000000E+00 -0.00000000000E+00 -0.89431873404E+03  0.89431873404E+03  0.00000000000E+00 0. -1.
         25    2    1    2    0    0 -0.43335744150E+02 -0.37994411384E+00 -0.76996764189E+03  0.78126591601E+03  0.12509248934E+03 0.  0.
         23    2    1    2    0    0  0.43335744150E+02  0.37994411384E+00 -0.97065255607E+02  0.14033865458E+03  0.91625013203E+02 0.  0.
          5    1    3    3  502    0 -0.60873710418E+01 -0.49206757628E+01  0.13925446063E+01  0.89822445215E+01  0.41800000000E+01 0.  1.
         -5    1    3    3    0  502 -0.37248373108E+02  0.45407316490E+01 -0.77136018649E+03  0.77228367149E+03  0.41800000000E+01 0.  1.
        -11    1    4    4    0    0  0.17983499486E+02 -0.82798795209E+01 -0.10916268476E+03  0.11094347390E+03  0.00000000000E+00 0. -1.
         11    1    4    4    0    0  0.25352244664E+02  0.86598236348E+01  0.12097429150E+02  0.29395180675E+02  0.00000000000E+00 0.  1.
</event>
<event>
 8    1  0.6850220E-009  0.1769966E+03  0.7561462E-02  0.1170742E+00
          2   -1    0    0  501    0  0.00000000000E+00  0.00000000000E+00  0.69545369022E+03  0.69545369022E+03  0.00000000000E+00 0.  1.
         -2   -1    0    0    0  501 -0.00000000000E+00 -0.00000000000E+00 -0.48718644349E+02  0.48718644349E+02  0.00000000000E+00 0. -1.
         25    2    1    2    0    0  0.91057447311E+02 -0.11231739142E+03  0.27496044420E+03  0.33489434697E+03  0.12507726664E+03 0.  0.
         23    2    1    2    0    0 -0.91057447311E+02  0.11231739142E+03  0.37177460166E+03  0.40927798760E+03  0.91572165874E+02 0.  0.
          5    1    3    3  502    0  0.11992618027E+03 -0.10762184736E+03  0.24023037329E+03  0.28929717488E+03  0.41800000000E+01 0.  1.
         -5    1    3    3    0  502 -0.28868732961E+02 -0.46955440559E+01  0.34730070917E+02  0.45597172090E+02  0.41800000000E+01 0.  1.
        -11    1    4    4    0    0 -0.43811413779E+02  0.10711244954E+03  0.31287515229E+03  0.33359163321E+03  0.00000000000E+00 0. -1.
         11    1    4    4    0    0 -0.47246033532E+02  0.52049418774E+01  0.58899449370E+02  0.75686354388E+02  0.00000000000E+00 0.  1.
</event>
<event>
 8    1  0.6850220E-009  0.1190838E+03  0.7561462E-02  0.1244616E+00
          1   -1    0    0  501    0  0.00000000000E+00  0.00000000000E+00  0.28199530303E+03  0.28199530303E+03  0.00000000000E+00 0. -1.
         -1   -1    0    0    0  501 -0.00000000000E+00 -0.00000000000E+00 -0.67179716590E+02  0.67179716590E+02  0.00000000000E+00 0.  1.
         25    2    1    2    0    0  0.22312714177E+02 -0.54724896721E+02  0.39858563529E+02  0.14395198786E+03  0.12506317678E+03 0.  0.
         23    2    1    2    0    0 -0.22312714177E+02  0.54724896721E+02  0.17495702291E+03  0.20522303176E+03  0.89520172947E+02 0.  0.
          5    1    3    3  502    0 -0.46386268158E+02 -0.14756583226E+01 -0.34987032516E+01  0.46728757372E+02  0.41800000000E+01 0.  1.
         -5    1    3    3    0  502  0.68698982335E+02 -0.53249238398E+02  0.43357266781E+02  0.97223230488E+02  0.41800000000E+01 0.  1.
        -11    1    4    4    0    0  0.97821057388E+01  0.68808908168E+02  0.13660138322E+03  0.15326543424E+03  0.00000000000E+00 0. -1.
         11    1    4    4    0    0 -0.32094819916E+02 -0.14084011447E+02  0.38355639695E+02  0.51957597522E+02  0.00000000000E+00 0.  1.
</event>
<event>
 8    1  0.6850220E-009  0.1209475E+03  0.7561462E-02  0.1241542E+00
         -2   -1    0    0    0  501 -0.00000000000E+00  0.00000000000E+00  0.60502139555E+02  0.60502139555E+02  0.00000000000E+00 0.  1.
          2   -1    0    0  501    0  0.00000000000E+00 -0.00000000000E+00 -0.46794702783E+03  0.46794702783E+03  0.00000000000E+00 0. -1.
         25    2    1    2    0    0 -0.70625056379E+02  0.41974126673E+02 -0.62324648601E+02  0.16211691523E+03  0.12509119266E+03 0.  0.
         23    2    1    2    0    0  0.70625056379E+02 -0.41974126673E+02 -0.34512023968E+03  0.36633225216E+03  0.91332432559E+02 0.  0.
          5    1    3    3  502    0 -0.92572562627E+02  0.40199937430E+02 -0.56466780584E+01  0.10116853114E+03  0.41800000000E+01 0.  1.
         -5    1    3    3    0  502  0.21947506248E+02  0.17741892429E+01 -0.56677970543E+02  0.60948384087E+02  0.41800000000E+01 0.  1.
        -11    1    4    4    0    0  0.50145362333E+02  0.19402801538E+02 -0.10949194306E+03  0.12198160380E+03  0.00000000000E+00 0.  1.
         11    1    4    4    0    0  0.20479694046E+02 -0.61376928211E+02 -0.23562829662E+03  0.24435064836E+03  0.00000000000E+00 0. -1.
</event>
<event>
 8    1  0.6850220E-009  0.1242984E+03  0.7561462E-02  0.1236170E+00
         -1   -1    0    0    0  501 -0.00000000000E+00  0.00000000000E+00  0.63225086823E+02  0.63225086823E+02  0.00000000000E+00 0.  1.
          1   -1    0    0  501    0  0.00000000000E+00 -0.00000000000E+00 -0.32248536996E+03  0.32248536996E+03  0.00000000000E+00 0. -1.
         25    2    1    2    0    0 -0.82622334499E+02  0.44108408914E+02 -0.14340134713E+03  0.21208976649E+03  0.12508445464E+03 0.  0.
         23    2    1    2    0    0  0.82622334499E+02 -0.44108408914E+02 -0.11585893601E+03  0.17362069030E+03  0.89156318633E+02 0.  0.
          5    1    3    3  502    0 -0.26632688271E+02  0.68640890527E+02 -0.12986253207E+03  0.14934062265E+03  0.41800000000E+01 0.  1.
         -5    1    3    3    0  502 -0.55989646229E+02 -0.24532481612E+02 -0.13538815057E+02  0.62749143835E+02  0.41800000000E+01 0.  1.
        -11    1    4    4    0    0  0.80647796227E+02 -0.12146173106E+02 -0.39091692024E+02  0.90442008728E+02  0.00000000000E+00 0.  1.
         11    1    4    4    0    0  0.19745382719E+01 -0.31962235808E+02 -0.76767243982E+02  0.83178681571E+02  0.00000000000E+00 0. -1.
</event>
<event>
 8    1  0.6850220E-009  0.9498645E+02  0.7561462E-02  0.1291207E+00
         -1   -1    0    0    0  501 -0.00000000000E+00  0.00000000000E+00  0.64926755646E+02  0.64926755646E+02  0.00000000000E+00 0.  1.
          1   -1    0    0  501    0  0.00000000000E+00 -0.00000000000E+00 -0.19536840282E+03  0.19536840282E+03  0.00000000000E+00 0. -1.
         25    2    1    2    0    0 -0.14318310824E+02  0.11392183306E+02 -0.45802093621E+02  0.13445771744E+03  0.12508497165E+03 0.  0.
         23    2    1    2    0    0  0.14318310824E+02 -0.11392183306E+02 -0.84639553551E+02  0.12583744103E+03  0.91303952125E+02 0.  0.
          5    1    3    3  502    0 -0.69905686806E+02  0.79469787069E+01 -0.28004629655E+02  0.75839905067E+02  0.41800000000E+01 0. -1.
         -5    1    3    3    0  502  0.55587375983E+02  0.34452045991E+01 -0.17797463967E+02  0.58617812370E+02  0.41800000000E+01 0. -1.
        -11    1    4    4    0    0  0.38210055074E+02 -0.10943347078E+02 -0.92503310306E+02  0.10068082028E+03  0.00000000000E+00 0. -1.
         11    1    4    4    0    0 -0.23891744250E+02 -0.44883622809E+00  0.78637567549E+01  0.25156620751E+02  0.00000000000E+00 0.  1.
</event>
<event>
 8    1  0.6850220E-009  0.1732990E+03  0.7561462E-02  0.1174451E+00
          1   -1    0    0  501    0  0.00000000000E+00  0.00000000000E+00  0.10010352530E+04  0.10010352530E+04  0.00000000000E+00 0. -1.
         -1   -1    0    0    0  501 -0.00000000000E+00 -0.00000000000E+00 -0.55773652597E+02  0.55773652597E+02  0.00000000000E+00 0.  1.
         25    2    1    2    0    0 -0.12478568967E+03  0.92463583322E+02  0.16570575098E+03  0.25925909643E+03  0.12504359473E+03 0.  0.
         23    2    1    2    0    0  0.12478568967E+03 -0.92463583322E+02  0.77955584945E+03  0.79754980920E+03  0.65248702311E+02 0.  0.
          5    1    3    3  502    0 -0.13815654209E+03  0.87678423536E+02  0.17666700195E+03  0.24083902934E+03  0.41800000000E+01 0. -1.
         -5    1    3    3    0  502  0.13370852420E+02  0.47851597862E+01 -0.10961250968E+02  0.18420067085E+02  0.41800000000E+01 0. -1.
        -11    1    4    4    0    0  0.11497555799E+03 -0.51488549320E+02  0.60559143325E+03  0.61855592607E+03  0.00000000000E+00 0.  1.
         11    1    4    4    0    0  0.98101316864E+01 -0.40975034002E+02  0.17396441620E+03  0.17899388313E+03  0.00000000000E+00 0. -1.
</event>
<event>
 8    1  0.6850220E-009  0.2510986E+03  0.7561462E-02  0.1112612E+00
         -1   -1    0    0    0  501 -0.00000000000E+00  0.00000000000E+00  0.59216206179E+03  0.59216206179E+03  0.00000000000E+00 0.  1.
          1   -1    0    0  501    0  0.00000000000E+00 -0.00000000000E+00 -0.15799410149E+03  0.15799410149E+03  0.00000000000E+00 0. -1.
         25    2    1    2    0    0 -0.71893631155E+02 -0.22502204691E+03  0.24059222053E+02  0.26838255011E+03  0.12508689476E+03 0.  0.
         23    2    1    2    0    0  0.71893631155E+02  0.22502204691E+03  0.41010873825E+03  0.48177361316E+03  0.90072311818E+02 0.  0.
          5    1    3    3  502    0 -0.96008114862E+02 -0.10072654254E+03  0.26314687870E+02  0.14168037863E+03  0.41800000000E+01 0.  1.
         -5    1    3    3    0  502  0.24114483707E+02 -0.12429550437E+03 -0.22554658171E+01  0.12670217148E+03  0.41800000000E+01 0.  1.
        -11    1    4    4    0    0  0.43430259516E+02  0.12643196093E+03  0.14361313513E+03  0.19620387552E+03  0.00000000000E+00 0.  1.
         11    1    4    4    0    0  0.28463371639E+02  0.98590085986E+02  0.26649560311E+03  0.28556973764E+03  0.00000000000E+00 0. -1.
</event>
<event>
 8    1  0.6850220E-009  0.1257770E+03  0.7561462E-02  0.1233860E+00
          1   -1    0    0  501    0  0.00000000000E+00  0.00000000000E+00  0.20357656758E+03  0.20357656758E+03  0.00000000000E+00 0. -1.
         -1   -1    0    0    0  501 -0.00000000000E+00 -0.00000000000E+00 -0.94994018112E+02  0.94994018112E+02  0.00000000000E+00 0.  1.
         25    2    1    2    0    0 -0.82742722865E+02  0.10563465033E+02  0.74121905276E+02  0.16762994462E+03  0.12509115280E+03 0.  0.
         23    2    1    2    0    0  0.82742722865E+02 -0.10563465033E+02  0.34460644188E+02  0.13094064107E+03  0.94868174357E+02 0.  0.
          5    1    3    3  502    0  0.20092563331E+02  0.18011326798E+02  0.56765150479E+02  0.62991060502E+02  0.41800000000E+01 0.  1.
         -5    1    3    3    0  502 -0.10283528620E+03 -0.74478617645E+01  0.17356754797E+02  0.10463888411E+03  0.41800000000E+01 0.  1.
        -11    1    4    4    0    0  0.81650452701E+02  0.25067194042E+02  0.65424454379E+01  0.85661918236E+02  0.00000000000E+00 0.  1.
         11    1    4    4    0    0  0.10922701634E+01 -0.35630659075E+02  0.27918198750E+02  0.45278722836E+02  0.00000000000E+00 0. -1.
</event>
<event>
 8    1  0.6850220E-009  0.1089779E+03  0.7561462E-02  0.1262474E+00
         -2   -1    0    0    0  501 -0.00000000000E+00  0.00000000000E+00  0.69932335978E+02  0.69932335978E+02  0.00000000000E+00 0. -1.
          2   -1    0    0  501    0  0.00000000000E+00 -0.00000000000E+00 -0.20736251409E+03  0.20736251409E+03  0.00000000000E+00 0.  1.
         25    2    1    2    0    0 -0.32316596024E+02 -0.32133121852E+02 -0.84801423615E+02  0.15785238476E+03  0.12509673869E+03 0.  0.
         23    2    1    2    0    0  0.32316596024E+02  0.32133121852E+02 -0.52628754497E+02  0.11944246530E+03  0.97055740786E+02 0.  0.
          5    1    3    3  502    0 -0.63736207722E+02 -0.61083322350E+02 -0.44411657326E+02  0.98910788849E+02  0.41800000000E+01 0.  1.
         -5    1    3    3    0  502  0.31419611698E+02  0.28950200498E+02 -0.40389766289E+02  0.58941595915E+02  0.41800000000E+01 0.  1.
        -11    1    4    4    0    0 -0.10444252799E+02  0.41567381639E+02  0.90457386384E+01  0.43803595976E+02  0.00000000000E+00 0. -1.
         11    1    4    4    0    0  0.42760848823E+02 -0.94342597872E+01 -0.61674493136E+02  0.75638869329E+02  0.00000000000E+00 0.  1.
</event>
<event>
 8    1  0.6850220E-009  0.1220419E+03  0.7561462E-02  0.1239766E+00
         -3   -1    0    0    0  501 -0.00000000000E+00  0.00000000000E+00  0.76628289632E+02  0.76628289632E+02  0.00000000000E+00 0.  1.
          3   -1    0    0  501    0  0.00000000000E+00 -0.00000000000E+00 -0.29336103296E+03  0.29336103296E+03  0.00000000000E+00 0. -1.
         25    2    1    2    0    0 -0.58697348260E+02 -0.44156998626E+02 -0.20776797956E+03  0.25339757217E+03  0.12509027553E+03 0.  0.
         23    2    1    2    0    0  0.58697348260E+02  0.44156998626E+02 -0.89647637762E+01  0.11659175043E+03  0.90100222293E+02 0.  0.
          5    1    3    3  502    0 -0.70995413364E+01  0.42730466484E+02 -0.54059442121E+02  0.69398789151E+02  0.41800000000E+01 0. -1.
         -5    1    3    3    0  502 -0.51597806923E+02 -0.86887465110E+02 -0.15370853743E+03  0.18399878302E+03  0.41800000000E+01 0. -1.
        -11    1    4    4    0    0  0.14642520483E+02 -0.18023258228E+02  0.24149511289E+02  0.33502837772E+02  0.00000000000E+00 0.  1.
         11    1    4    4    0    0  0.44054827777E+02  0.62180256854E+02 -0.33114275065E+02  0.83088912654E+02  0.00000000000E+00 0. -1.
</event>
<event>
 8    1  0.6850220E-009  0.1322210E+03  0.7561462E-02  0.1224197E+00
          1   -1    0    0  501    0  0.00000000000E+00  0.00000000000E+00  0.61127773698E+02  0.61127773698E+02  0.00000000000E+00 0.  1.
         -1   -1    0    0    0  501 -0.00000000000E+00 -0.00000000000E+00 -0.36042094991E+03  0.36042094991E+03  0.00000000000E+00 0. -1.
         25    2    1    2    0    0 -0.38225291630E+01  0.92426575043E+02 -0.10462306367E+03  0.18748579042E+03  0.12509057781E+03 0.  0.
         23    2    1    2    0    0  0.38225291630E+01 -0.92426575043E+02 -0.19467011255E+03  0.23406293319E+03  0.91278258471E+02 0.  0.
          5    1    3    3  502    0 -0.37186118339E+02 -0.15206477438E+02 -0.42949569103E+02  0.58959157383E+02  0.41800000000E+01 0.  1.
         -5    1    3    3    0  502  0.33363589176E+02  0.10763305248E+03 -0.61673494566E+02  0.12852663304E+03  0.41800000000E+01 0.  1.
        -11    1    4    4    0    0 -0.27615578709E+02 -0.26621678951E+02 -0.13342250536E+03  0.13882686669E+03  0.00000000000E+00 0.  1.
         11    1    4    4    0    0  0.31438107872E+02 -0.65804896091E+02 -0.61247607186E+02  0.95236066499E+02  0.00000000000E+00 0. -1.
</event>
<event>
 8    1  0.6850220E-009  0.1391379E+03  0.7561462E-02  0.1214494E+00
          1   -1    0    0  501    0  0.00000000000E+00  0.00000000000E+00  0.96414853267E+02  0.96414853267E+02  0.00000000000E+00 0. -1.
         -1   -1    0    0    0  501 -0.00000000000E+00 -0.00000000000E+00 -0.31924768314E+03  0.31924768314E+03  0.00000000000E+00 0.  1.
         25    2    1    2    0    0 -0.63735395170E+02  0.87416759586E+02 -0.17892128604E+02  0.16636278315E+03  0.12511017903E+03 0.  0.
         23    2    1    2    0    0  0.63735395170E+02 -0.87416759586E+02 -0.20494070126E+03  0.24929975325E+03  0.91900954745E+02 0.  0.
          5    1    3    3  502    0 -0.10175930269E+03  0.67869635048E+02 -0.15077287806E+02  0.12331277328E+03  0.41800000000E+01 0. -1.
         -5    1    3    3    0  502  0.38023907524E+02  0.19547124538E+02 -0.28148407977E+01  0.43050009870E+02  0.41800000000E+01 0. -1.
        -11    1    4    4    0    0  0.49919410676E+02 -0.41302379884E+02 -0.18703296322E+03  0.19793727157E+03  0.00000000000E+00 0.  1.
         11    1    4    4    0    0  0.13815984494E+02 -0.46114379702E+02 -0.17907738049E+02  0.51362481686E+02  0.00000000000E+00 0. -1.
</event>
<event>
 8    1  0.6850220E-009  0.1217685E+03  0.7561462E-02  0.1240208E+00
         -1   -1    0    0    0  501 -0.00000000000E+00  0.00000000000E+00  0.99450684450E+02  0.99450684450E+02  0.00000000000E+00 0.  1.
          1   -1    0    0  501    0  0.00000000000E+00 -0.00000000000E+00 -0.19935652326E+03  0.19935652326E+03  0.00000000000E+00 0. -1.
         25    2    1    2    0    0 -0.76922586635E+02 -0.33593114461E+02 -0.21588498863E+02  0.15218399700E+03  0.12509326115E+03 0.  0.
         23    2    1    2    0    0  0.76922586635E+02  0.33593114461E+02 -0.78317339947E+02  0.14662321071E+03  0.91209530802E+02 0.  0.
          5    1    3    3  502    0 -0.17844209784E+02  0.30693241289E+02  0.33394031779E+02  0.48919573200E+02  0.41800000000E+01 0. -1.
         -5    1    3    3    0  502 -0.59078376851E+02 -0.64286355750E+02 -0.54982530642E+02  0.10326442380E+03  0.41800000000E+01 0. -1.
        -11    1    4    4    0    0  0.30239367532E+02 -0.29264904159E+02 -0.44767192672E+02  0.61440666532E+02  0.00000000000E+00 0.  1.
         11    1    4    4    0    0  0.46683219103E+02  0.62858018620E+02 -0.33550147275E+02  0.85182544179E+02  0.00000000000E+00 0. -1.
</event>
<event>
 8    1  0.6850220E-009  0.3256146E+03  0.7561462E-02  0.1073094E+00
         -2   -1    0    0    0  501 -0.00000000000E+00  0.00000000000E+00  0.56391250095E+02  0.56391250095E+02  0.00000000000E+00 0.  1.
          2   -1    0    0  501    0  0.00000000000E+00 -0.00000000000E+00 -0.19713632898E+04  0.19713632898E+04  0.00000000000E+00 0. -1.
         25    2    1    2    0    0 -0.24229029037E+03  0.20059153243E+03 -0.10002967943E+04  0.10560219918E+04  0.12508885930E+03 0.  0.
         23    2    1    2    0    0  0.24229029037E+03 -0.20059153243E+03 -0.91467524539E+03  0.97173254811E+03  0.93229785133E+02 0.  0.
          5    1    3    3  502    0 -0.22410815201E+03  0.21211516839E+03 -0.85311284172E+03  0.90721348180E+03  0.41800000000E+01 0. -1.
         -5    1    3    3    0  502 -0.18182138365E+02 -0.11523635958E+02 -0.14718395259E+03  0.14880850997E+03  0.41800000000E+01 0. -1.
        -11    1    4    4    0    0  0.13644538945E+03 -0.72419634268E+02 -0.54370215947E+03  0.56522029859E+03  0.00000000000E+00 0.  1.
         11    1    4    4    0    0  0.10584490093E+03 -0.12817189817E+03 -0.37097308592E+03  0.40651224952E+03  0.00000000000E+00 0. -1.
</event>
<event>
 8    1  0.6850220E-009  0.1133961E+03  0.7561462E-02  0.1254407E+00
         -1   -1    0    0    0  501 -0.00000000000E+00  0.00000000000E+00  0.30774960541E+03  0.30774960541E+03  0.00000000000E+00 0.  1.
          1   -1    0    0  501    0  0.00000000000E+00 -0.00000000000E+00 -0.42222349124E+02  0.42222349124E+02  0.00000000000E+00 0. -1.
         25    2    1    2    0    0 -0.16453894792E+01 -0.33659372140E+02  0.14197116500E+03  0.19220428211E+03  0.12510401166E+03 0.  0.
         23    2    1    2    0    0  0.16453894792E+01  0.33659372140E+02  0.12355609129E+03  0.15776767242E+03  0.92135064593E+02 0.  0.
          5    1    3    3  502    0  0.53630110128E+02  0.14275963537E+02  0.70704533547E+02  0.89981083075E+02  0.41800000000E+01 0.  1.
         -5    1    3    3    0  502 -0.55275499607E+02 -0.47935335677E+02  0.71266631452E+02  0.10222319904E+03  0.41800000000E+01 0.  1.
        -11    1    4    4    0    0  0.43241426951E+02 -0.16762376771E+01  0.49063894250E+02  0.65420917882E+02  0.00000000000E+00 0.  1.
         11    1    4    4    0    0 -0.41596037472E+02  0.35335609817E+02  0.74492197037E+02  0.92346754539E+02  0.00000000000E+00 0. -1.
</event>
<event>
 8    1  0.6850220E-009  0.9438334E+02  0.7561462E-02  0.1292571E+00
         -1   -1    0    0    0  501 -0.00000000000E+00  0.00000000000E+00  0.16254135463E+02  0.16254135463E+02  0.00000000000E+00 0.  1.
          1   -1    0    0  501    0  0.00000000000E+00 -0.00000000000E+00 -0.61652825368E+03  0.61652825368E+03  0.00000000000E+00 0. -1.
         25    2    1    2    0    0 -0.53000881422E+01 -0.81930003028E+01 -0.31413857972E+03  0.33826916212E+03  0.12509101720E+03 0.  0.
         23    2    1    2    0    0  0.53000881422E+01  0.81930003028E+01 -0.28613553850E+03  0.29451322703E+03  0.69059961713E+02 0.  0.
          5    1    3    3  502    0 -0.53480148199E+02  0.26464101349E+02 -0.10511311408E+03  0.12094095279E+03  0.41800000000E+01 0. -1.
         -5    1    3    3    0  502  0.48180060057E+02 -0.34657101652E+02 -0.20902546564E+03  0.21732820932E+03  0.41800000000E+01 0. -1.
        -11    1    4    4    0    0 -0.26051786831E+02  0.23026754051E+02 -0.12977524060E+03  0.13435229835E+03  0.00000000000E+00 0.  1.
         11    1    4    4    0    0  0.31351874973E+02 -0.14833753749E+02 -0.15636029790E+03  0.16016092868E+03  0.00000000000E+00 0. -1.
</event>
<event>
 7    1  0.6850220E-009  0.9381935E+02  0.7561462E-02  0.1293858E+00
         -1   -1    0    0    0  501 -0.00000000000E+00  0.00000000000E+00  0.51581337095E+02  0.51581337095E+02  0.00000000000E+00 0.  1.
          1   -1    0    0  501    0  0.00000000000E+00 -0.00000000000E+00 -0.32673414143E+03  0.32673414143E+03  0.00000000000E+00 0. -1.
         23    2    1    2    0    0 -0.30327014138E+01  0.67093454837E+02 -0.88023455875E+02  0.14316669431E+03  0.90762572769E+02 0.  0.
          5    1    1    2  502    0 -0.18846398725E+02 -0.43262542676E+02 -0.19575623380E+03  0.20140707489E+03  0.41800000000E+01 0.  1.
         -5    1    1    2    0  502  0.21879100139E+02 -0.23830912161E+02  0.86268853434E+01  0.33741709323E+02  0.41800000000E+01 0.  1.
        -11    1    3    3    0    0 -0.40082504479E+02  0.56194280911E+02 -0.34504212505E+02  0.77168290463E+02  0.00000000000E+00 0.  1.
         11    1    3    3    0    0  0.37049803065E+02  0.10899173926E+02 -0.53519243369E+02  0.65998403846E+02  0.00000000000E+00 0. -1.
</event>
<event>
 8    1  0.6850220E-009  0.1412785E+03  0.7561462E-02  0.1211619E+00
          1   -1    0    0  501    0  0.00000000000E+00  0.00000000000E+00  0.98704217446E+03  0.98704217446E+03  0.00000000000E+00 0. -1.
         -1   -1    0    0    0  501 -0.00000000000E+00 -0.00000000000E+00 -0.20977059158E+02  0.20977059158E+02  0.00000000000E+00 0.  1.
         25    2    1    2    0    0  0.79005740538E+02 -0.50734693495E+02  0.52928347103E+03  0.55190943608E+03  0.12508843579E+03 0.  0.
         23    2    1    2    0    0 -0.79005740538E+02  0.50734693495E+02  0.43678164428E+03  0.45610979754E+03  0.91880501055E+02 0.  0.
          5    1    3    3  502    0  0.87453284674E+02  0.12596067113E+02  0.36560469614E+03  0.37615289996E+03  0.41800000000E+01 0.  1.
         -5    1    3    3    0  502 -0.84475441357E+01 -0.63330760607E+02  0.16367877489E+03  0.17575653612E+03  0.41800000000E+01 0.  1.
        -11    1    4    4    0    0 -0.86797461025E+02  0.85971079170E+01  0.26135548842E+03  0.27552568089E+03  0.00000000000E+00 0. -1.
         11    1    4    4    0    0  0.77917204874E+01  0.42137585578E+02  0.17542615586E+03  0.18058411665E+03  0.00000000000E+00 0.  1.
</event>
<event>
 8    1  0.6850220E-009  0.1120800E+03  0.7561462E-02  0.1256766E+00
          1   -1    0    0  501    0  0.00000000000E+00  0.00000000000E+00  0.15870621301E+03  0.15870621301E+03  0.00000000000E+00 0. -1.
         -1   -1    0    0    0  501 -0.00000000000E+00 -0.00000000000E+00 -0.17210392562E+03  0.17210392562E+03  0.00000000000E+00 0.  1.
         25    2    1    2    0    0 -0.39156280511E+02  0.55637931091E+02  0.97263206453E+02  0.17244292880E+03  0.12509052196E+03 0.  0.
         23    2    1    2    0    0  0.39156280511E+02 -0.55637931091E+02 -0.11066091906E+03  0.15836720982E+03  0.90584438293E+02 0.  0.
          5    1    3    3  502    0 -0.14987871397E+02  0.83238582278E+02  0.10482201057E+03  0.13475319724E+03  0.41800000000E+01 0. -1.
         -5    1    3    3    0  502 -0.24168409114E+02 -0.27600651188E+02 -0.75588041122E+01  0.37689731555E+02  0.41800000000E+01 0. -1.
        -11    1    4    4    0    0  0.44191064978E+02 -0.72528440314E+02 -0.11214947276E+03  0.14067952630E+03  0.00000000000E+00 0.  1.
         11    1    4    4    0    0 -0.50347844672E+01  0.16890509224E+02  0.14885537014E+01  0.17687683528E+02  0.00000000000E+00 0. -1.
</event>
<event>
 8    1  0.6850220E-009  0.7746323E+02  0.7561462E-02  0.1336409E+00
         -2   -1    0    0    0  501 -0.00000000000E+00  0.00000000000E+00  0.19110499409E+02  0.19110499409E+02  0.00000000000E+00 0.  1.
          2   -1    0    0  501    0  0.00000000000E+00 -0.00000000000E+00 -0.71981297044E+03  0.71981297044E+03  0.00000000000E+00 0. -1.
         25    2    1    2    0    0 -0.36820714717E+02  0.65504551654E+01 -0.47332188744E+03  0.49099962139E+03  0.12509334747E+03 0.  0.
         23    2    1    2    0    0  0.36820714717E+02 -0.65504551654E+01 -0.22738058359E+03  0.24792384846E+03  0.91463825336E+02 0.  0.
          5    1    3    3  502    0 -0.11338201311E+02 -0.19093363829E+02 -0.75734492978E+01  0.23831510350E+02  0.41800000000E+01 0. -1.
         -5    1    3    3    0  502 -0.25482513406E+02  0.25643818995E+02 -0.46574843814E+03  0.46716811104E+03  0.41800000000E+01 0. -1.
        -11    1    4    4    0    0  0.17045994813E+01 -0.44327329008E+02 -0.76013061891E+02  0.88010245622E+02  0.00000000000E+00 0. -1.
         11    1    4    4    0    0  0.35116115236E+02  0.37776873843E+02 -0.15136752170E+03  0.15991360284E+03  0.00000000000E+00 0.  1.
</event>
<event>
 8    1  0.6850220E-009  0.1317637E+03  0.7561462E-02  0.1224862E+00
          2   -1    0    0  501    0  0.00000000000E+00  0.00000000000E+00  0.86161486410E+03  0.86161486410E+03  0.00000000000E+00 0. -1.
         -2   -1    0    0    0  501 -0.00000000000E+00 -0.00000000000E+00 -0.21488574233E+02  0.21488574233E+02  0.00000000000E+00 0.  1.
         25    2    1    2    0    0 -0.43191280518E+02  0.12676948483E+02  0.34785982067E+03  0.37240494798E+03  0.12511114541E+03 0.  0.
         23    2    1    2    0    0  0.43191280518E+02 -0.12676948483E+02  0.49226646919E+03  0.51069849035E+03  0.12829840070E+03 0.  0.
          5    1    3    3  502    0  0.37764115764E+02  0.25451656354E+02  0.78802908225E+02  0.91111393334E+02  0.41800000000E+01 0. -1.
         -5    1    3    3    0  502 -0.80955396282E+02 -0.12774707871E+02  0.26905691245E+03  0.28129355464E+03  0.41800000000E+01 0. -1.
        -11    1    4    4    0    0  0.85192453789E+02 -0.29969714286E+02  0.34137882009E+03  0.35312241046E+03  0.00000000000E+00 0.  1.
         11    1    4    4    0    0 -0.42001173271E+02  0.17292765803E+02  0.15088764910E+03  0.15757607990E+03  0.00000000000E+00 0. -1.
</event>
<event>
 8    1  0.6850220E-009  0.8799477E+02  0.7561462E-02  0.1307782E+00
         -1   -1    0    0    0  501 -0.00000000000E+00  0.00000000000E+00  0.89022856851E+02  0.89022856851E+02  0.00000000000E+00 0.  1.
          1   -1    0    0  501    0  0.00000000000E+00 -0.00000000000E+00 -0.14095777245E+03  0.14095777245E+03  0.00000000000E+00 0. -1.
         25    2    1    2    0    0  0.15689591060E+02 -0.26955496956E+02 -0.32482092823E+02  0.13295477172E+03  0.12509645433E+03 0.  0.
         23    2    1    2    0    0 -0.15689591060E+02  0.26955496956E+02 -0.19452822771E+02  0.97025857576E+02  0.89793332942E+02 0.  0.
          5    1    3    3  502    0  0.22868717850E+02  0.45574872506E+02 -0.31228465831E+02  0.59939442259E+02  0.41800000000E+01 0. -1.
         -5    1    3    3    0  502 -0.71791267902E+01 -0.72530369462E+02 -0.12536269919E+01  0.73015329462E+02  0.41800000000E+01 0. -1.
        -11    1    4    4    0    0 -0.25387170609E+02  0.24936908583E+01 -0.50349128383E+02  0.56442551807E+02  0.00000000000E+00 0. -1.
         11    1    4    4    0    0  0.96975795488E+01  0.24461806098E+02  0.30896305611E+02  0.40583305769E+02  0.00000000000E+00 0.  1.
</event>
<event>
 8    1  0.6850220E-009  0.7216005E+02  0.7561462E-02  0.1352898E+00
         -1   -1    0    0    0  501 -0.00000000000E+00  0.00000000000E+00  0.22486286421E+02  0.22486286421E+02  0.00000000000E+00 0.  1.
          1   -1    0    0  501    0  0.00000000000E+00 -0.00000000000E+00 -0.76064426706E+03  0.76064426706E+03  0.00000000000E+00 0. -1.
         25    2    1    2    0    0 -0.11350369595E+02 -0.15090044214E+02 -0.62415613368E+03  0.63684759361E+03  0.12508971960E+03 0.  0.
         23    2    1    2    0    0  0.11350369595E+02  0.15090044214E+02 -0.11400184696E+03  0.14628295988E+03  0.89698065281E+02 0.  0.
          5    1    3    3  502    0 -0.23770828529E+02  0.27266321019E+02 -0.54968193529E+02  0.65935417272E+02  0.41800000000E+01 0. -1.
         -5    1    3    3    0  502  0.12420458934E+02 -0.42356365233E+02 -0.56918794015E+03  0.57091217634E+03  0.41800000000E+01 0. -1.
        -11    1    4    4    0    0  0.32295540517E+02  0.24568752792E+02 -0.11630220044E+03  0.12317803124E+03  0.00000000000E+00 0. -1.
         11    1    4    4    0    0 -0.20945170922E+02 -0.94787085775E+01  0.23003534835E+01  0.23104928639E+02  0.00000000000E+00 0.  1.
</event>
<event>
 8    1  0.6850220E-009  0.9695759E+02  0.7561462E-02  0.1286827E+00
          2   -1    0    0  501    0  0.00000000000E+00  0.00000000000E+00  0.46378148680E+02  0.46378148680E+02  0.00000000000E+00 0. -1.
         -2   -1    0    0    0  501 -0.00000000000E+00 -0.00000000000E+00 -0.30206985046E+03  0.30206985046E+03  0.00000000000E+00 0.  1.
         25    2    1    2    0    0  0.36523975491E+02  0.18414076225E+02 -0.11047369675E+03  0.17182491556E+03  0.12508511081E+03 0.  0.
         23    2    1    2    0    0 -0.36523975491E+02 -0.18414076225E+02 -0.14521800503E+03  0.17662308358E+03  0.91838802680E+02 0.  0.
          5    1    3    3  502    0 -0.12160033370E+02  0.62321422287E+02 -0.70297616097E+02  0.94821164918E+02  0.41800000000E+01 0.  1.
         -5    1    3    3    0  502  0.48684008861E+02 -0.43907346062E+02 -0.40176080649E+02  0.77003750644E+02  0.41800000000E+01 0.  1.
        -11    1    4    4    0    0 -0.58111519767E+01 -0.30895149176E+02 -0.13947917613E+03  0.14297804134E+03  0.00000000000E+00 0.  1.
         11    1    4    4    0    0 -0.30712823514E+02  0.12481072950E+02 -0.57388289001E+01  0.33645042240E+02  0.00000000000E+00 0. -1.
</event>
<event>
 8    1  0.6850220E-009  0.1135936E+03  0.7561462E-02  0.1254056E+00
         -1   -1    0    0    0  501 -0.00000000000E+00  0.00000000000E+00  0.30943527098E+02  0.30943527098E+02  0.00000000000E+00 0.  1.
          1   -1    0    0  501    0  0.00000000000E+00 -0.00000000000E+00 -0.67425067774E+03  0.67425067774E+03  0.00000000000E+00 0. -1.
         25    2    1    2    0    0  0.93532027498E+02  0.93235471155E+01 -0.30057437170E+03  0.33886132175E+03  0.12508746443E+03 0.  0.
         23    2    1    2    0    0 -0.93532027498E+02 -0.93235471155E+01 -0.34273277895E+03  0.36633288309E+03  0.88875501528E+02 0.  0.
          5    1    3    3  502    0  0.73861664931E+02  0.38139920740E+02 -0.79796832079E+02  0.11530483906E+03  0.41800000000E+01 0. -1.
         -5    1    3    3    0  502  0.19670362567E+02 -0.28816373624E+02 -0.22077753962E+03  0.22355648269E+03  0.41800000000E+01 0. -1.
        -11    1    4    4    0    0 -0.30456370654E+02 -0.29689517874E+02 -0.47537370472E+02  0.63787613033E+02  0.00000000000E+00 0. -1.
         11    1    4    4    0    0 -0.63075656844E+02  0.20365970759E+02 -0.29519540847E+03  0.30254527006E+03  0.00000000000E+00 0.  1.
</event>
<event>
 8    1  0.6850220E-009  0.2089620E+03  0.7561462E-02  0.1142391E+00
          3   -1    0    0  501    0  0.00000000000E+00  0.00000000000E+00  0.13705974732E+03  0.13705974732E+03  0.00000000000E+00 0. -1.
         -3   -1    0    0    0  501 -0.00000000000E+00 -0.00000000000E+00 -0.32966057868E+03  0.32966057868E+03  0.00000000000E+00 0.  1.
         25    2    1    2    0    0 -0.21235750271E+02  0.17754193229E+03 -0.62173007922E+02  0.22691515869E+03  0.12511159626E+03 0.  0.
         23    2    1    2    0    0  0.21235750271E+02 -0.17754193229E+03 -0.13042782344E+03  0.23980516731E+03  0.92320129611E+02 0.  0.
          5    1    3    3  502    0  0.16410541451E+02 -0.14587507781E+02 -0.78957679652E+01  0.23704784448E+02  0.41800000000E+01 0. -1.
         -5    1    3    3    0  502 -0.37646291722E+02  0.19212944007E+03 -0.54277239957E+02  0.20321037424E+03  0.41800000000E+01 0. -1.
        -11    1    4    4    0    0 -0.30360504993E+02 -0.27080794201E+02 -0.38906772289E+02  0.56292686984E+02  0.00000000000E+00 0.  1.
         11    1    4    4    0    0  0.51596255264E+02 -0.15046113809E+03 -0.91521051148E+02  0.18351248033E+03  0.00000000000E+00 0. -1.
</event>
<event>
 7    1  0.6850220E-009  0.8788609E+02  0.7561462E-02  0.1308053E+00
         -1   -1    0    0    0  501 -0.00000000000E+00  0.00000000000E+00  0.40045464177E+02  0.40045464177E+02  0.00000000000E+00 0.  1.
          1   -1    0    0  501    0  0.00000000000E+00 -0.00000000000E+00 -0.30277828858E+03  0.30277828858E+03  0.00000000000E+00 0. -1.
         23    2    1    2    0    0  0.26121849250E+02 -0.13418476325E+02 -0.11872874834E+03  0.14977585469E+03  0.86451630714E+02 0.  0.
          5    1    1    2  502    0  0.49400696028E+02 -0.48805965153E+01 -0.67763288650E+02  0.84104605576E+02  0.41800000000E+01 0.  1.
         -5    1    1    2    0  502 -0.75522545277E+02  0.18299072840E+02 -0.76240787422E+02  0.10894329249E+03  0.41800000000E+01 0.  1.
        -11    1    3    3    0    0  0.38679991089E+01 -0.23419853431E+02 -0.12277153538E+03  0.12504519524E+03  0.00000000000E+00 0. -1.
         11    1    3    3    0    0  0.22253850141E+02  0.10001377106E+02  0.40427870465E+01  0.24730659458E+02  0.00000000000E+00 0.  1.
</event>
<event>
 8    1  0.6850220E-009  0.6271165E+02  0.7561462E-02  0.1386792E+00
          1   -1    0    0  501    0  0.00000000000E+00  0.00000000000E+00  0.72251982840E+02  0.72251982840E+02  0.00000000000E+00 0. -1.
         -1   -1    0    0    0  501 -0.00000000000E+00 -0.00000000000E+00 -0.17321547713E+03  0.17321547713E+03  0.00000000000E+00 0.  1.
         25    2    1    2    0    0  0.15126252972E+02 -0.18302988406E+02 -0.19710369778E+02  0.12884169615E+03  0.12509149082E+03 0.  0.
         23    2    1    2    0    0 -0.15126252972E+02  0.18302988406E+02 -0.81253124514E+02  0.11662576382E+03  0.80222787478E+02 0.  0.
          5    1    3    3  502    0  0.10352051856E+02 -0.28274270730E+02  0.49793961081E+02  0.58339611955E+02  0.41800000000E+01 0. -1.
         -5    1    3    3    0  502  0.47742011166E+01  0.99712823244E+01 -0.69504330858E+02  0.70502084193E+02  0.41800000000E+01 0. -1.
        -11    1    4    4    0    0 -0.45280609003E+02 -0.43518108961E+01 -0.38317604532E+02  0.59476975603E+02  0.00000000000E+00 0. -1.
         11    1    4    4    0    0  0.30154356031E+02  0.22654799302E+02 -0.42935519982E+02  0.57148788221E+02  0.00000000000E+00 0.  1.
</event>
<event>
 8    1  0.6850220E-009  0.1357874E+03  0.7561462E-02  0.1219112E+00
          2   -1    0    0  501    0  0.00000000000E+00  0.00000000000E+00  0.55576278673E+03  0.55576278673E+03  0.00000000000E+00 0.  1.
         -2   -1    0    0    0  501 -0.00000000000E+00 -0.00000000000E+00 -0.46744060384E+02  0.46744060384E+02  0.00000000000E+00 0. -1.
         25    2    1    2    0    0 -0.97222760151E+02  0.67868127085E+02  0.29670610118E+03  0.34312973257E+03  0.12508059456E+03 0.  0.
         23    2    1    2    0    0  0.97222760151E+02 -0.67868127085E+02  0.21231262517E+03  0.25937711454E+03  0.90230199908E+02 0.  0.
          5    1    3    3  502    0  0.63522231950E+01 -0.16734371883E+02  0.12042811602E+03  0.12182279536E+03  0.41800000000E+01 0. -1.
         -5    1    3    3    0  502 -0.10357498335E+03  0.84602498969E+02  0.17627798516E+03  0.22130693721E+03  0.41800000000E+01 0. -1.
        -11    1    4    4    0    0  0.89218918188E+02 -0.56917056116E+02  0.21975200220E+03  0.24390676315E+03  0.00000000000E+00 0.  1.
         11    1    4    4    0    0  0.80038419635E+01 -0.10951070970E+02 -0.74393770300E+01  0.15470351391E+02  0.00000000000E+00 0. -1.
</event>
<event>
 8    1  0.6850220E-009  0.1254645E+03  0.7561462E-02  0.1234345E+00
         -2   -1    0    0    0  501 -0.00000000000E+00  0.00000000000E+00  0.33871575648E+02  0.33871575648E+02  0.00000000000E+00 0.  1.
          2   -1    0    0  501    0  0.00000000000E+00 -0.00000000000E+00 -0.74176940444E+03  0.74176940444E+03  0.00000000000E+00 0. -1.
         25    2    1    2    0    0  0.10387506400E+03  0.36370606634E+01 -0.25811128723E+03  0.30507666601E+03  0.12508828249E+03 0.  0.
         23    2    1    2    0    0 -0.10387506400E+03 -0.36370606634E+01 -0.44978654156E+03  0.47056431408E+03  0.91211751337E+02 0.  0.
          5    1    3    3  502    0 -0.88233150341E+00 -0.60147564801E+01 -0.16308028027E+03  0.16324707047E+03  0.41800000000E+01 0. -1.
         -5    1    3    3    0  502  0.10475739550E+03  0.96518171435E+01 -0.95031006958E+02  0.14182959554E+03  0.41800000000E+01 0. -1.
        -11    1    4    4    0    0 -0.78644785065E+02  0.39718160079E+02 -0.29023786888E+03  0.30331593264E+03  0.00000000000E+00 0.  1.
         11    1    4    4    0    0 -0.25230278936E+02 -0.43355220743E+02 -0.15954867268E+03  0.16724838144E+03  0.00000000000E+00 0. -1.
</event>
<event>
 8    1  0.6850220E-009  0.1956293E+03  0.7561462E-02  0.1153480E+00
         -2   -1    0    0    0  501 -0.00000000000E+00  0.00000000000E+00  0.49460924591E+03  0.49460924591E+03  0.00000000000E+00 0.  1.
          2   -1    0    0  501    0  0.00000000000E+00 -0.00000000000E+00 -0.86591616078E+02  0.86591616078E+02  0.00000000000E+00 0. -1.
         25    2    1    2    0    0  0.15586481327E+03 -0.81900476540E+02  0.19991279444E+03  0.29430197145E+03  0.12508795683E+03 0.  0.
         23    2    1    2    0    0 -0.15586481327E+03  0.81900476540E+02  0.20810483539E+03  0.28689889054E+03  0.89452908304E+02 0.  0.
          5    1    3    3  502    0  0.58099365765E+02 -0.93129871446E+02  0.66285880263E+02  0.12829652988E+03  0.41800000000E+01 0.  1.
         -5    1    3    3    0  502  0.97765447510E+02  0.11229394906E+02  0.13362691418E+03  0.16600544157E+03  0.41800000000E+01 0.  1.
        -11    1    4    4    0    0 -0.76322766142E+02  0.67892040508E+02  0.60715968109E+02  0.11883148816E+03  0.00000000000E+00 0. -1.
         11    1    4    4    0    0 -0.79542047133E+02  0.14008436032E+02  0.14738886728E+03  0.16806740237E+03  0.00000000000E+00 0.  1.
</event>
<event>
 8    1  0.6850220E-009  0.9253399E+02  0.7561462E-02  0.1296829E+00
         -1   -1    0    0    0  501 -0.00000000000E+00  0.00000000000E+00  0.14226459134E+03  0.14226459134E+03  0.00000000000E+00 0.  1.
          1   -1    0    0  501    0  0.00000000000E+00 -0.00000000000E+00 -0.99399754028E+02  0.99399754028E+02  0.00000000000E+00 0. -1.
         25    2    1    2    0    0 -0.10715860403E+02 -0.42095011946E+02  0.46526307401E+02  0.14035704435E+03  0.12509429613E+03 0.  0.
         23    2    1    2    0    0  0.10715860403E+02  0.42095011946E+02 -0.36614700850E+01  0.10130730102E+03  0.91449128931E+02 0.  0.
          5    1    3    3  502    0 -0.29869810510E+02 -0.75616784284E+02  0.57890892973E+02  0.99894602129E+02  0.41800000000E+01 0.  1.
         -5    1    3    3    0  502  0.19153950107E+02  0.33521772337E+02 -0.11364585572E+02  0.40462442222E+02  0.41800000000E+01 0.  1.
        -11    1    4    4    0    0  0.15505691461E+02 -0.59005045872E+01  0.35494775516E+02  0.39180626731E+02  0.00000000000E+00 0.  1.
         11    1    4    4    0    0 -0.47898310579E+01  0.47995516534E+02 -0.39156245601E+02  0.62126674291E+02  0.00000000000E+00 0. -1.
</event>
<event>
 8    1  0.6850220E-009  0.9363637E+02  0.7561462E-02  0.1294277E+00
         -2   -1    0    0    0  501 -0.00000000000E+00  0.00000000000E+00  0.23955045349E+02  0.23955045349E+02  0.00000000000E+00 0.  1.
          2   -1    0    0  501    0  0.00000000000E+00 -0.00000000000E+00 -0.64500104105E+03  0.64500104105E+03  0.00000000000E+00 0. -1.
         25    2    1    2    0    0 -0.49655275496E+02  0.30729934215E+02 -0.41199389129E+03  0.43450734967E+03  0.12509074792E+03 0.  0.
         23    2    1    2    0    0  0.49655275496E+02 -0.30729934215E+02 -0.20905210441E+03  0.23444873673E+03  0.88619707480E+02 0.  0.
          5    1    3    3  502    0  0.13376596962E+02  0.86473228863E+01  0.64230458092E+00  0.16480124228E+02  0.41800000000E+01 0. -1.
         -5    1    3    3    0  502 -0.63031872458E+02  0.22082611329E+02 -0.41263619587E+03  0.41802722544E+03  0.41800000000E+01 0. -1.
        -11    1    4    4    0    0  0.47326387025E+02  0.21232956111E+02 -0.12836045361E+03  0.13844504825E+03  0.00000000000E+00 0. -1.
         11    1    4    4    0    0  0.23288884712E+01 -0.51962890326E+02 -0.80691650800E+02  0.96003688478E+02  0.00000000000E+00 0.  1.
</event>
<event>
 8    1  0.6850220E-009  0.5818756E+02  0.7561462E-02  0.1405599E+00
          1   -1    0    0  501    0  0.00000000000E+00  0.00000000000E+00  0.17633680651E+03  0.17633680651E+03  0.00000000000E+00 0. -1.
         -1   -1    0    0    0  501 -0.00000000000E+00 -0.00000000000E+00 -0.82122232240E+02  0.82122232240E+02  0.00000000000E+00 0.  1.
         25    2    1    2    0    0 -0.21914798378E+02  0.46961821324E+02  0.47232723347E+02  0.14340384539E+03  0.12509221266E+03 0.  0.
         23    2    1    2    0    0  0.21914798378E+02 -0.46961821324E+02  0.46981850918E+02  0.11505519335E+03  0.91349505482E+02 0.  0.
          5    1    3    3  502    0 -0.68792062008E+01  0.11467354584E+02 -0.42982984274E+02  0.45208771673E+02  0.41800000000E+01 0.  1.
         -5    1    3    3    0  502 -0.15035592177E+02  0.35494466740E+02  0.90215707621E+02  0.98195073720E+02  0.41800000000E+01 0.  1.
        -11    1    4    4    0    0  0.32287400547E+02 -0.32679714650E+02 -0.16770089650E+02  0.48904763475E+02  0.00000000000E+00 0.  1.
         11    1    4    4    0    0 -0.10372602168E+02 -0.14282106674E+02  0.63751940568E+02  0.66150429878E+02  0.00000000000E+00 0. -1.
</event>
<event>
 8    1  0.6850220E-009  0.1083358E+03  0.7561462E-02  0.1263683E+00
          2   -1    0    0  501    0  0.00000000000E+00  0.00000000000E+00  0.83332922234E+03  0.83332922234E+03  0.00000000000E+00 0. -1.
         -2   -1    0    0    0  501 -0.00000000000E+00 -0.00000000000E+00 -0.16024837037E+02  0.16024837037E+02  0.00000000000E+00 0.  1.
         25    2    1    2    0    0  0.61012422861E+02  0.52001285759E+01  0.49588032804E+03  0.51506817512E+03  0.12509343790E+03 0.  0.
         23    2    1    2    0    0 -0.61012422861E+02 -0.52001285759E+01  0.32142405726E+03  0.33428588425E+03  0.68440271361E+02 0.  0.
          5    1    3    3  502    0  0.52172941342E+02 -0.49440552672E+02  0.37769707864E+03  0.38449829606E+03  0.41800000000E+01 0.  1.
         -5    1    3    3    0  502  0.88394815185E+01  0.54640681248E+02  0.11818324940E+03  0.13056987907E+03  0.41800000000E+01 0.  1.
        -11    1    4    4    0    0 -0.43078772023E+02  0.28035762332E+02  0.14430171519E+03  0.15318214509E+03  0.00000000000E+00 0.  1.
         11    1    4    4    0    0 -0.17933650838E+02 -0.33235890908E+02  0.17712234207E+03  0.18110373916E+03  0.00000000000E+00 0. -1.
</event>
<event>
 8    1  0.6850220E-009  0.1090270E+03  0.7561462E-02  0.1262382E+00
         -1   -1    0    0    0  501 -0.00000000000E+00  0.00000000000E+00  0.65694676568E+02  0.65694676568E+02  0.00000000000E+00 0.  1.
          1   -1    0    0  501    0  0.00000000000E+00 -0.00000000000E+00 -0.20684079379E+03  0.20684079379E+03  0.00000000000E+00 0. -1.
         25    2    1    2    0    0  0.14802940775E+02 -0.40607277538E+02 -0.59236156075E+02  0.14499838679E+03  0.12509009530E+03 0.  0.
         23    2    1    2    0    0 -0.14802940775E+02  0.40607277538E+02 -0.81909961146E+02  0.12753708356E+03  0.87683452853E+02 0.  0.
          5    1    3    3  502    0  0.57839620503E+02  0.40858304254E+01 -0.58976340465E+02  0.82811815852E+02  0.41800000000E+01 0. -1.
         -5    1    3    3    0  502 -0.43036679728E+02 -0.44693107963E+02 -0.25981561094E+00  0.62186570943E+02  0.41800000000E+01 0. -1.
        -11    1    4    4    0    0  0.12569590750E+02 -0.24262590332E+02 -0.24163876275E+02  0.36476853180E+02  0.00000000000E+00 0. -1.
         11    1    4    4    0    0 -0.27372531525E+02  0.64869867870E+02 -0.57746084871E+02  0.91060230384E+02  0.00000000000E+00 0.  1.
</event>
<event>
 8    1  0.6850220E-009  0.8787500E+02  0.7561462E-02  0.1308081E+00
         -1   -1    0    0    0  501 -0.00000000000E+00  0.00000000000E+00  0.29581924683E+02  0.29581924683E+02  0.00000000000E+00 0.  1.
          1   -1    0    0  501    0  0.00000000000E+00 -0.00000000000E+00 -0.49199573636E+03  0.49199573636E+03  0.00000000000E+00 0. -1.
         25    2    1    2    0    0 -0.39146684421E+02 -0.36347356277E+02 -0.34313213301E+03  0.36911371957E+03  0.12510669073E+03 0.  0.
         23    2    1    2    0    0  0.39146684421E+02  0.36347356277E+02 -0.11928167867E+03  0.15246394146E+03  0.78508224870E+02 0.  0.
          5    1    3    3  502    0  0.38655298993E+02 -0.12250246417E+02 -0.20234624991E+03  0.20641167101E+03  0.41800000000E+01 0. -1.
         -5    1    3    3    0  502 -0.77801983414E+02 -0.24097109861E+02 -0.14078588310E+03  0.16270204856E+03  0.41800000000E+01 0. -1.
        -11    1    4    4    0    0  0.17139715134E+02  0.16637955132E+02  0.52658611146E+01  0.24460594415E+02  0.00000000000E+00 0.  1.
         11    1    4    4    0    0  0.22006969286E+02  0.19709401145E+02 -0.12454753978E+03  0.12800334705E+03  0.00000000000E+00 0. -1.
</event>
<event>
 8    1  0.6850220E-009  0.1149510E+03  0.7561462E-02  0.1251667E+00
          4   -1    0    0  501    0  0.00000000000E+00  0.00000000000E+00  0.19051526022E+02  0.19051526022E+02  0.00000000000E+00 0.  1.
         -4   -1    0    0    0  501 -0.00000000000E+00 -0.00000000000E+00 -0.89523955790E+03  0.89523955790E+03  0.00000000000E+00 0. -1.
         25    2    1    2    0    0 -0.57524277930E+02  0.52245112360E+01 -0.32197997144E+03  0.35022225885E+03  0.12509272766E+03 0.  0.
         23    2    1    2    0    0  0.57524277930E+02 -0.52245112360E+01 -0.55420806044E+03  0.56406882508E+03  0.87696790700E+02 0.  0.
          5    1    3    3  502    0 -0.24240655371E+02  0.57920427287E+02 -0.88907191987E+02  0.10892358081E+03  0.41800000000E+01 0.  1.
         -5    1    3    3    0  502 -0.33283622559E+02 -0.52695916051E+02 -0.23307277945E+03  0.24129867803E+03  0.41800000000E+01 0.  1.
        -11    1    4    4    0    0  0.73199904687E+02  0.19025584824E+02 -0.42456921607E+03  0.43125307901E+03  0.00000000000E+00 0.  1.
         11    1    4    4    0    0 -0.15675626757E+02 -0.24250096060E+02 -0.12963884437E+03  0.13281574607E+03  0.00000000000E+00 0. -1.
</event>
<event>
 8    1  0.6850220E-009  0.9212889E+02  0.7561462E-02  0.1297777E+00
          1   -1    0    0  501    0  0.00000000000E+00  0.00000000000E+00  0.26357967484E+02  0.26357967484E+02  0.00000000000E+00 0. -1.
         -1   -1    0    0    0  501 -0.00000000000E+00 -0.00000000000E+00 -0.70909421662E+03  0.70909421662E+03  0.00000000000E+00 0.  1.
         25    2    1    2    0    0 -0.24768607016E+02 -0.66431435950E+02 -0.49167809757E+03  0.51227055426E+03  0.12508856686E+03 0.  0.
         23    2    1    2    0    0  0.24768607016E+02  0.66431435950E+02 -0.19105815157E+03  0.22318162984E+03  0.90995621006E+02 0.  0.
          5    1    3    3  502    0 -0.36569653426E+02 -0.12819637073E+02 -0.35305651488E+02  0.52589391263E+02  0.41800000000E+01 0. -1.
         -5    1    3    3    0  502  0.11801046411E+02 -0.53611798877E+02 -0.45637244608E+03  0.45968116300E+03  0.41800000000E+01 0. -1.
        -11    1    4    4    0    0  0.42909436894E+02  0.46129089834E+02 -0.18480201376E+03  0.19524573489E+03  0.00000000000E+00 0.  1.
         11    1    4    4    0    0 -0.18140829878E+02  0.20302346115E+02 -0.62561378089E+01  0.27935894951E+02  0.00000000000E+00 0. -1.
</event>
<event>
 8    1  0.6850220E-009  0.1783463E+03  0.7561462E-02  0.1169413E+00
          3   -1    0    0  501    0  0.00000000000E+00  0.00000000000E+00  0.25581044080E+03  0.25581044080E+03  0.00000000000E+00 0. -1.
         -3   -1    0    0    0  501 -0.00000000000E+00 -0.00000000000E+00 -0.14063814169E+03  0.14063814169E+03  0.00000000000E+00 0.  1.
         25    2    1    2    0    0 -0.14086725465E+03  0.64338901971E+02  0.49581944132E+02  0.20515672108E+03  0.12509129979E+03 0.  0.
         23    2    1    2    0    0  0.14086725465E+03 -0.64338901971E+02  0.65590354978E+02  0.19129186141E+03  0.91144960569E+02 0.  0.
          5    1    3    3  502    0  0.15739150028E+02  0.36460220285E+02  0.11114816261E+02  0.41449729159E+02  0.41800000000E+01 0.  1.
         -5    1    3    3    0  502 -0.15660640468E+03  0.27878681686E+02  0.38467127870E+02  0.16370699192E+03  0.41800000000E+01 0.  1.
        -11    1    4    4    0    0  0.13316276780E+03 -0.51723333842E+02  0.21093836495E+02  0.14440421022E+03  0.00000000000E+00 0.  1.
         11    1    4    4    0    0  0.77044868462E+01 -0.12615568129E+02  0.44496518482E+02  0.46887651187E+02  0.00000000000E+00 0. -1.
</event>
<event>
 8    1  0.6850220E-009  0.2128721E+03  0.7561462E-02  0.1139312E+00
          2   -1    0    0  501    0  0.00000000000E+00  0.00000000000E+00  0.17466540050E+04  0.17466540050E+04  0.00000000000E+00 0.  1.
         -2   -1    0    0    0  501 -0.00000000000E+00 -0.00000000000E+00 -0.33193106130E+02  0.33193106130E+02  0.00000000000E+00 0. -1.
         25    2    1    2    0    0 -0.19961017474E+03  0.51153175715E+02  0.65969140197E+03  0.70235667685E+03  0.12510510153E+03 0.  0.
         23    2    1    2    0    0  0.19961017474E+03 -0.51153175715E+02  0.10537694969E+04  0.10774904342E+04  0.89970073527E+02 0.  0.
          5    1    3    3  502    0 -0.64375069534E+02  0.81840316502E+01  0.41005884408E+03  0.41518291868E+03  0.41800000000E+01 0. -1.
         -5    1    3    3    0  502 -0.13523510521E+03  0.42969144065E+02  0.24963255789E+03  0.28717375817E+03  0.41800000000E+01 0. -1.
        -11    1    4    4    0    0  0.10199699255E+03  0.11689507674E+02  0.37197389697E+03  0.38588160245E+03  0.00000000000E+00 0. -1.
         11    1    4    4    0    0  0.97613182190E+02 -0.62842683389E+02  0.68179559989E+03  0.69160883180E+03  0.00000000000E+00 0.  1.
</event>
<event>
 8    1  0.6850220E-009  0.8216221E+02  0.7561462E-02  0.1323025E+00
         -1   -1    0    0    0  501 -0.00000000000E+00  0.00000000000E+00  0.70595124393E+02  0.70595124393E+02  0.00000000000E+00 0.  1.
          1   -1    0    0  501    0  0.00000000000E+00 -0.00000000000E+00 -0.22472870675E+03  0.22472870675E+03  0.00000000000E+00 0. -1.
         25    2    1    2    0    0  0.38558117069E+02  0.42332997783E+02 -0.58938885300E+02  0.14967028464E+03  0.12509432766E+03 0.  0.
         23    2    1    2    0    0 -0.38558117069E+02 -0.42332997783E+02 -0.95194697053E+02  0.14565354650E+03  0.94202516775E+02 0.  0.
          5    1    3    3  502    0  0.78790060502E+01  0.53348957372E+02 -0.89641503337E+02  0.10469604343E+03  0.41800000000E+01 0.  1.
         -5    1    3    3    0  502  0.30679111019E+02 -0.11015959589E+02  0.30702618037E+02  0.44974241215E+02  0.41800000000E+01 0.  1.
        -11    1    4    4    0    0 -0.22314521752E+02  0.85971899196E+01  0.11334635410E+02  0.26463626271E+02  0.00000000000E+00 0.  1.
         11    1    4    4    0    0 -0.16243595316E+02 -0.50930187703E+02 -0.10652933246E+03  0.11918992022E+03  0.00000000000E+00 0. -1.
</event>
<event>
 8    1  0.6850220E-009  0.1390073E+03  0.7561462E-02  0.1214671E+00
          2   -1    0    0  501    0  0.00000000000E+00  0.00000000000E+00  0.28459416325E+04  0.28459416325E+04  0.00000000000E+00 0. -1.
         -2   -1    0    0    0  501 -0.00000000000E+00 -0.00000000000E+00 -0.90477058000E+01  0.90477058000E+01  0.00000000000E+00 0.  1.
         25    2    1    2    0    0  0.50988334996E+02  0.73730856727E+02  0.21977724832E+04  0.22031541947E+04  0.12509383638E+03 0.  0.
         23    2    1    2    0    0 -0.50988334996E+02 -0.73730856727E+02  0.63912144351E+03  0.65183514367E+03  0.91524780426E+02 0.  0.
          5    1    3    3  502    0  0.50973812697E+02 -0.21338496074E+02  0.10410394094E+04  0.10425133982E+04  0.41800000000E+01 0. -1.
         -5    1    3    3    0  502  0.14522298577E-01  0.95069352801E+02  0.11567330738E+04  0.11606407965E+04  0.41800000000E+01 0. -1.
        -11    1    4    4    0    0  0.14760328068E+02 -0.57976290787E+02  0.26684698056E+03  0.27347107454E+03  0.00000000000E+00 0. -1.
         11    1    4    4    0    0 -0.65748663063E+02 -0.15754565940E+02  0.37227446295E+03  0.37836406913E+03  0.00000000000E+00 0.  1.
</event>
<event>
 8    1  0.6850220E-009  0.1329192E+03  0.7561462E-02  0.1223187E+00
         -1   -1    0    0    0  501 -0.00000000000E+00  0.00000000000E+00  0.36636177780E+03  0.36636177780E+03  0.00000000000E+00 0.  1.
          1   -1    0    0  501    0  0.00000000000E+00 -0.00000000000E+00 -0.90760464784E+02  0.90760464784E+02  0.00000000000E+00 0. -1.
         25    2    1    2    0    0 -0.26072842850E+02 -0.10184325830E+03  0.27276945738E+03  0.31796704051E+03  0.12509204441E+03 0.  0.
         23    2    1    2    0    0  0.26072842850E+02  0.10184325830E+03  0.28318556387E+01  0.13915520208E+03  0.91127978494E+02 0.  0.
          5    1    3    3  502    0 -0.27550323917E+02 -0.12811312792E+03  0.18869276658E+03  0.22977037767E+03  0.41800000000E+01 0.  1.
         -5    1    3    3    0  502  0.14774810668E+01  0.26269869626E+02  0.84076690799E+02  0.88196662841E+02  0.41800000000E+01 0.  1.
        -11    1    4    4    0    0  0.27265941004E+02  0.56555912208E+02 -0.41905636353E+02  0.75485661569E+02  0.00000000000E+00 0. -1.
         11    1    4    4    0    0 -0.11930981535E+01  0.45287346088E+02  0.44737491991E+02  0.63669540508E+02  0.00000000000E+00 0.  1.
</event>
<event>
 8    1  0.6850220E-009  0.1444660E+03  0.7561462E-02  0.1207443E+00
          2   -1    0    0  501    0  0.00000000000E+00  0.00000000000E+00  0.10043331920E+03  0.10043331920E+03  0.00000000000E+00 0. -1.
         -2   -1    0    0    0  501 -0.00000000000E+00 -0.00000000000E+00 -0.24171433613E+03  0.24171433613E+03  0.00000000000E+00 0.  1.
         25    2    1    2    0    0 -0.10114696813E+03 -0.28100978900E+02 -0.11629894712E+03  0.20048417763E+03  0.12509231073E+03 0.  0.
         23    2    1    2    0    0  0.10114696813E+03  0.28100978900E+02 -0.24982069819E+02  0.14166347770E+03  0.91782694039E+02 0.  0.
          5    1    3    3  502    0 -0.10371372351E+02 -0.61336148487E+02 -0.24133062525E+02  0.66854809719E+02  0.41800000000E+01 0.  1.
         -5    1    3    3    0  502 -0.90775595774E+02  0.33235169587E+02 -0.92165884593E+02  0.13362936791E+03  0.41800000000E+01 0.  1.
        -11    1    4    4    0    0  0.96023250284E+02  0.49354024369E+02  0.66077846082E+00  0.10796629541E+03  0.00000000000E+00 0. -1.
         11    1    4    4    0    0  0.51237178411E+01 -0.21253045469E+02 -0.25642848280E+02  0.33697182287E+02  0.00000000000E+00 0.  1.
</event>
<event>
 8    1  0.6850220E-009  0.9414778E+02  0.7561462E-02  0.1293107E+00
         -3   -1    0    0    0  501 -0.00000000000E+00  0.00000000000E+00  0.32421192966E+03  0.32421192966E+03  0.00000000000E+00 0.  1.
          3   -1    0    0  501    0  0.00000000000E+00 -0.00000000000E+00 -0.57653502369E+02  0.57653502369E+02  0.00000000000E+00 0. -1.
         25    2    1    2    0    0  0.39233319320E+02  0.36512036687E+02  0.23261882548E+03  0.26950154668E+03  0.12508870262E+03 0.  0.
         23    2    1    2    0    0 -0.39233319320E+02 -0.36512036687E+02  0.33939601806E+02  0.11236388535E+03  0.92743538819E+02 0.  0.
          5    1    3    3  502    0 -0.10174311602E+01  0.50596227976E+02  0.23348210090E+02  0.55889397617E+02  0.41800000000E+01 0.  1.
         -5    1    3    3    0  502  0.40250750480E+02 -0.14084191290E+02  0.20927061539E+03  0.21361214906E+03  0.41800000000E+01 0.  1.
        -11    1    4    4    0    0  0.20466161613E+02 -0.27519688221E+02  0.38813382354E+02  0.51794552423E+02  0.00000000000E+00 0.  1.
         11    1    4    4    0    0 -0.59699480933E+02 -0.89923484656E+01 -0.48737805479E+01  0.60569332928E+02  0.00000000000E+00 0. -1.
</event>
<event>
 8    1  0.6850220E-009  0.1523311E+03  0.7561462E-02  0.1197638E+00
          1   -1    0    0  501    0  0.00000000000E+00  0.00000000000E+00  0.60492363915E+03  0.60492363915E+03  0.00000000000E+00 0. -1.
         -1   -1    0    0    0  501 -0.00000000000E+00 -0.00000000000E+00 -0.53243237820E+02  0.53243237820E+02  0.00000000000E+00 0.  1.
         25    2    1    2    0    0 -0.10773035123E+03 -0.12335747378E+02  0.45647154944E+03  0.48556284676E+03  0.12508798290E+03 0.  0.
         23    2    1    2    0    0  0.10773035123E+03  0.12335747378E+02  0.95208851891E+02  0.17260403021E+03  0.94707056369E+02 0.  0.
          5    1    3    3  502    0 -0.89245365044E+02  0.47842368085E+02  0.25336174082E+03  0.27287959153E+03  0.41800000000E+01 0. -1.
         -5    1    3    3    0  502 -0.18484986190E+02 -0.60178115463E+02  0.20310980862E+03  0.21268325523E+03  0.41800000000E+01 0. -1.
        -11    1    4    4    0    0  0.33175558068E+02  0.47382794020E+02  0.20428374474E+02  0.61343828588E+02  0.00000000000E+00 0. -1.
         11    1    4    4    0    0  0.74554793166E+02 -0.35047046641E+02  0.74780477417E+02  0.11126020162E+03  0.00000000000E+00 0.  1.
</event>
<event>
 8    1  0.6850220E-009  0.1369663E+03  0.7561462E-02  0.1217470E+00
          2   -1    0    0  501    0  0.00000000000E+00  0.00000000000E+00  0.30483192527E+03  0.30483192527E+03  0.00000000000E+00 0. -1.
         -2   -1    0    0    0  501 -0.00000000000E+00 -0.00000000000E+00 -0.68229373999E+02  0.68229373999E+02  0.00000000000E+00 0.  1.
         25    2    1    2    0    0  0.18898351793E+02 -0.85151285808E+02  0.17640955106E+03  0.23318658127E+03  0.12509101808E+03 0.  0.
         23    2    1    2    0    0 -0.18898351793E+02  0.85151285808E+02  0.60193000211E+02  0.13987471800E+03  0.91289924338E+02 0.  0.
          5    1    3    3  502    0  0.69615996099E+02 -0.27994887402E+02  0.99480638702E+02  0.12467546074E+03  0.41800000000E+01 0.  1.
         -5    1    3    3    0  502 -0.50717644307E+02 -0.57156398406E+02  0.76928912358E+02  0.10851112053E+03  0.41800000000E+01 0.  1.
        -11    1    4    4    0    0 -0.30142153429E+02 -0.57279529206E+01  0.73053251348E+00  0.30690267770E+02  0.00000000000E+00 0.  1.
         11    1    4    4    0    0  0.11243801637E+02  0.90879238729E+02  0.59462467698E+02  0.10918445023E+03  0.00000000000E+00 0. -1.
</event>
<event>
 8    1  0.6850220E-009  0.2450646E+03  0.7561462E-02  0.1116464E+00
         -1   -1    0    0    0  501 -0.00000000000E+00  0.00000000000E+00  0.21746031972E+03  0.21746031972E+03  0.00000000000E+00 0.  1.
          1   -1    0    0  501    0  0.00000000000E+00 -0.00000000000E+00 -0.54776440964E+03  0.54776440964E+03  0.00000000000E+00 0. -1.
         25    2    1    2    0    0  0.89198344508E+01  0.22658807762E+03  0.94152691167E+02  0.27556055185E+03  0.12508864103E+03 0.  0.
         23    2    1    2    0    0 -0.89198344508E+01 -0.22658807762E+03 -0.42445678108E+03  0.48966417751E+03  0.90475009600E+02 0.  0.
          5    1    3    3  502    0  0.47879579840E+02  0.17545357548E+03  0.10528074798E+03  0.21018544100E+03  0.41800000000E+01 0. -1.
         -5    1    3    3    0  502 -0.38959745389E+02  0.51134502146E+02 -0.11128056809E+02  0.65375110851E+02  0.41800000000E+01 0. -1.
        -11    1    4    4    0    0  0.38505642643E+02 -0.66692616622E+02 -0.14659084746E+03  0.16558824290E+03  0.00000000000E+00 0. -1.
         11    1    4    4    0    0 -0.47425477094E+02 -0.15989546100E+03 -0.27786593362E+03  0.32407593461E+03  0.00000000000E+00 0.  1.
</event>
<event>
 8    1  0.6850220E-009  0.1021332E+03  0.7561462E-02  0.1275873E+00
          1   -1    0    0  501    0  0.00000000000E+00  0.00000000000E+00  0.85842675610E+02  0.85842675610E+02  0.00000000000E+00 0. -1.
         -1   -1    0    0    0  501 -0.00000000000E+00 -0.00000000000E+00 -0.18652605793E+03  0.18652605793E+03  0.00000000000E+00 0.  1.
         25    2    1    2    0    0 -0.59716821536E+02 -0.15132776317E+02 -0.72069799202E+02  0.15696823545E+03  0.12509944560E+03 0.  0.
         23    2    1    2    0    0  0.59716821536E+02  0.15132776317E+02 -0.28613583120E+02  0.11540049810E+03  0.93292219014E+02 0.  0.
          5    1    3    3  502    0 -0.82266939523E+01  0.39742822491E+02  0.13467518076E+02  0.42965298510E+02  0.41800000000E+01 0. -1.
         -5    1    3    3    0  502 -0.51490127583E+02 -0.54875598808E+02 -0.85537317278E+02  0.11400293694E+03  0.41800000000E+01 0. -1.
        -11    1    4    4    0    0 -0.69444602050E+01  0.20088700085E+02 -0.42143086963E+02  0.47199800607E+02  0.00000000000E+00 0.  1.
         11    1    4    4    0    0  0.66661281741E+02 -0.49559237677E+01  0.13529503843E+02  0.68200697489E+02  0.00000000000E+00 0. -1.
</event>
<event>
 8    1  0.6850220E-009  0.1082564E+03  0.7561462E-02  0.1263833E+00
          2   -1    0    0  501    0  0.00000000000E+00  0.00000000000E+00  0.63027567462E+03  0.63027567462E+03  0.00000000000E+00 0. -1.
         -2   -1    0    0    0  501 -0.00000000000E+00 -0.00000000000E+00 -0.31256067523E+02  0.31256067523E+02  0.00000000000E+00 0.  1.
         25    2    1    2    0    0 -0.77821756975E+02  0.38433301519E+02  0.34472769307E+03  0.37685299524E+03  0.12509057969E+03 0.  0.
         23    2    1    2    0    0  0.77821756975E+02 -0.38433301519E+02  0.25429191403E+03  0.28467874691E+03  0.94043962462E+02 0.  0.
          5    1    3    3  502    0 -0.24619607794E+02  0.44858118349E+01  0.29580668488E+03  0.29689276653E+03  0.41800000000E+01 0.  1.
         -5    1    3    3    0  502 -0.53202149180E+02  0.33947489684E+02  0.48921008186E+02  0.79960228709E+02  0.41800000000E+01 0.  1.
        -11    1    4    4    0    0 -0.14654664503E+02  0.15097546997E+02  0.38158156135E+02  0.43574533809E+02  0.00000000000E+00 0. -1.
         11    1    4    4    0    0  0.92476421478E+02 -0.53530848516E+02  0.21613375790E+03  0.24110421310E+03  0.00000000000E+00 0.  1.
</event>
<event>
 8    1  0.6850220E-009  0.9906489E+02  0.7561462E-02  0.1282275E+00
         -3   -1    0    0    0  501 -0.00000000000E+00  0.00000000000E+00  0.32403508150E+03  0.32403508150E+03  0.00000000000E+00 0. -1.
          3   -1    0    0  501    0  0.00000000000E+00 -0.00000000000E+00 -0.50052905416E+02  0.50052905416E+02  0.00000000000E+00 0.  1.
         25    2    1    2    0    0 -0.29841903880E+01 -0.61124076793E+02  0.11192747386E+03  0.17866403135E+03  0.12509204026E+03 0.  0.
         23    2    1    2    0    0  0.29841903880E+01  0.61124076793E+02  0.16205470222E+03  0.19542395557E+03  0.90464013508E+02 0.  0.
          5    1    3    3  502    0 -0.61612755708E+02 -0.27132359815E+02  0.34773658035E+02  0.75887919383E+02  0.41800000000E+01 0.  1.
         -5    1    3    3    0  502  0.58628565320E+02 -0.33991716978E+02  0.77153815822E+02  0.10277611196E+03  0.41800000000E+01 0.  1.
        -11    1    4    4    0    0 -0.56653627946E+01  0.23339610247E+02 -0.44852814246E+01  0.24432590766E+02  0.00000000000E+00 0.  1.
         11    1    4    4    0    0  0.86495531826E+01  0.37784466546E+02  0.16653998365E+03  0.17099136480E+03  0.00000000000E+00 0. -1.
</event>
<event>
 8    1  0.6850220E-009  0.1168344E+03  0.7561462E-02  0.1248413E+00
         -1   -1    0    0    0  501 -0.00000000000E+00  0.00000000000E+00  0.35699586185E+03  0.35699586185E+03  0.00000000000E+00 0.  1.
          1   -1    0    0  501    0  0.00000000000E+00 -0.00000000000E+00 -0.38368820147E+02  0.38368820147E+02  0.00000000000E+00 0. -1.
         25    2    1    2    0    0  0.28624223885E+02  0.29579056596E+02  0.17113405963E+03  0.21593466882E+03  0.12508656223E+03 0.  0.
         23    2    1    2    0    0 -0.28624223885E+02 -0.29579056596E+02  0.14749298207E+03  0.17943001318E+03  0.93523703343E+02 0.  0.
          5    1    3    3  502    0 -0.46058666525E+02  0.32928117198E+02  0.76361327703E+02  0.95153488810E+02  0.41800000000E+01 0. -1.
         -5    1    3    3    0  502  0.74682890410E+02 -0.33490606017E+01  0.94772731929E+02  0.12078118001E+03  0.41800000000E+01 0. -1.
        -11    1    4    4    0    0  0.30878726863E+02  0.76751587297E+01  0.50731077851E+02  0.59883604552E+02  0.00000000000E+00 0. -1.
         11    1    4    4    0    0 -0.59502950748E+02 -0.37254215326E+02  0.96761904222E+02  0.11954640863E+03  0.00000000000E+00 0.  1.
</event>
<event>
 8    1  0.6850220E-009  0.1049629E+03  0.7561462E-02  0.1270193E+00
          1   -1    0    0  501    0  0.00000000000E+00  0.00000000000E+00  0.11838886289E+03  0.11838886289E+03  0.00000000000E+00 0. -1.
         -1   -1    0    0    0  501 -0.00000000000E+00 -0.00000000000E+00 -0.12977455221E+03  0.12977455221E+03  0.00000000000E+00 0.  1.
         25    2    1    2    0    0  0.47256892517E+02 -0.33950551697E+02 -0.14798531655E+02  0.13875390087E+03  0.12509114524E+03 0.  0.
         23    2    1    2    0    0 -0.47256892517E+02  0.33950551697E+02  0.34128423361E+01  0.10940951423E+03  0.92590174748E+02 0.  0.
          5    1    3    3  502    0 -0.31471002877E+02 -0.44856530265E+02  0.89906103584E+01  0.55685148865E+02  0.41800000000E+01 0.  1.
         -5    1    3    3    0  502  0.78727895394E+02  0.10905978568E+02 -0.23789142013E+02  0.83068752004E+02  0.41800000000E+01 0.  1.
        -11    1    4    4    0    0  0.99162611875E+01  0.29553406463E+01  0.35437885644E+02  0.36917611152E+02  0.00000000000E+00 0. -1.
         11    1    4    4    0    0 -0.57173153705E+02  0.30995211051E+02 -0.32025043308E+02  0.72491903076E+02  0.00000000000E+00 0.  1.
</event>
<event>
 8    1  0.6850220E-009  0.1695944E+03  0.7561462E-02  0.1178271E+00
          2   -1    0    0  501    0  0.00000000000E+00  0.00000000000E+00  0.90991413631E+02  0.90991413631E+02  0.00000000000E+00 0. -1.
         -2   -1    0    0    0  501 -0.00000000000E+00 -0.00000000000E+00 -0.41972426114E+03  0.41972426114E+03  0.00000000000E+00 0.  1.
         25    2    1    2    0    0 -0.51525272768E+02 -0.13673377556E+03 -0.26365072976E+03  0.32635957320E+03  0.12509150492E+03 0.  0.
         23    2    1    2    0    0  0.51525272768E+02  0.13673377556E+03 -0.65082117746E+02  0.18435610157E+03  0.91654301709E+02 0.  0.
          5    1    3    3  502    0 -0.12645910635E+02  0.18463936888E+02 -0.68628208177E+01  0.23778282755E+02  0.41800000000E+01 0.  1.
         -5    1    3    3    0  502 -0.38879362133E+02 -0.15519771245E+03 -0.25678790894E+03  0.30258129045E+03  0.41800000000E+01 0.  1.
        -11    1    4    4    0    0  0.26170744322E+02  0.11476298396E+02  0.16249158314E+02  0.32873217505E+02  0.00000000000E+00 0. -1.
         11    1    4    4    0    0  0.25354528446E+02  0.12525747716E+03 -0.81331276059E+02  0.15148288406E+03  0.00000000000E+00 0.  1.
</event>
<event>
 8    1  0.6850220E-009  0.7275366E+02  0.7561462E-02  0.1350972E+00
         -2   -1    0    0    0  501 -0.00000000000E+00  0.00000000000E+00  0.10663792138E+02  0.10663792138E+02  0.00000000000E+00 0.  1.
          2   -1    0    0  501    0  0.00000000000E+00 -0.00000000000E+00 -0.17479779029E+04  0.17479779029E+04  0.00000000000E+00 0. -1.
         25    2    1    2    0    0  0.18381688868E+02  0.27971772935E+02 -0.15026858395E+04  0.15082545944E+04  0.12508750002E+03 0.  0.
         23    2    1    2    0    0 -0.18381688868E+02 -0.27971772935E+02 -0.23462827121E+03  0.25038710061E+03  0.80764892951E+02 0.  0.
          5    1    3    3  502    0  0.26595065978E+02  0.55646844916E+02 -0.36520611211E+03  0.37040092550E+03  0.41800000000E+01 0. -1.
         -5    1    3    3    0  502 -0.82133771095E+01 -0.27675071980E+02 -0.11374797274E+04  0.11378536689E+04  0.41800000000E+01 0. -1.
        -11    1    4    4    0    0  0.84562316888E-01  0.11207656663E+02  0.58104823632E+00  0.11223027030E+02  0.00000000000E+00 0.  1.
         11    1    4    4    0    0 -0.18466251185E+02 -0.39179429598E+02 -0.23520931944E+03  0.23916407358E+03  0.00000000000E+00 0. -1.
</event>
<event>
 8    1  0.6850220E-009  0.1131594E+03  0.7561462E-02  0.1254829E+00
         -1   -1    0    0    0  501 -0.00000000000E+00  0.00000000000E+00  0.86354282328E+02  0.86354282328E+02  0.00000000000E+00 0.  1.
          1   -1    0    0  501    0  0.00000000000E+00 -0.00000000000E+00 -0.30806633105E+03  0.30806633105E+03  0.00000000000E+00 0. -1.
         25    2    1    2    0    0  0.65227567355E+02 -0.15151252286E+02 -0.24350186193E+03  0.28182416391E+03  0.12508999406E+03 0.  0.
         23    2    1    2    0    0 -0.65227567355E+02  0.15151252286E+02  0.21789813202E+02  0.11259644947E+03  0.87857660366E+02 0.  0.
          5    1    3    3  502    0 -0.18449844546E+02  0.20797034041E+02 -0.14462189622E+03  0.14732915073E+03  0.41800000000E+01 0. -1.
         -5    1    3    3    0  502  0.83677411901E+02 -0.35948286327E+02 -0.98879965706E+02  0.13449501318E+03  0.41800000000E+01 0. -1.
        -11    1    4    4    0    0 -0.34991398587E+02 -0.34348429213E+02 -0.38391154511E+01  0.49182836152E+02  0.00000000000E+00 0.  1.
         11    1    4    4    0    0 -0.30236168768E+02  0.49499681498E+02  0.25628928654E+02  0.63413613319E+02  0.00000000000E+00 0. -1.
</event>
<event>
 8    1  0.6850220E-009  0.9779593E+02  0.7561462E-02  0.1285000E+00
         -1   -1    0    0    0  501 -0.00000000000E+00  0.00000000000E+00  0.63510592988E+02  0.63510592988E+02  0.00000000000E+00 0.  1.
          1   -1    0    0  501    0  0.00000000000E+00 -0.00000000000E+00 -0.28830037424E+03  0.28830037424E+03  0.00000000000E+00 0. -1.
         25    2    1    2    0    0 -0.12896726215E+02 -0.75722938089E+02 -0.89543265087E+02  0.17195042361E+03  0.12509461602E+03 0.  0.
         23    2    1    2    0    0  0.12896726215E+02  0.75722938089E+02 -0.13524651617E+03  0.17986054363E+03  0.90321127746E+02 0.  0.
          5    1    3    3  502    0  0.13717514363E+02 -0.86336423471E+02 -0.10692681787E+03  0.13817729552E+03  0.41800000000E+01 0.  1.
         -5    1    3    3    0  502 -0.26614240578E+02  0.10613485382E+02  0.17383552780E+02  0.33773128086E+02  0.41800000000E+01 0.  1.
        -11    1    4    4    0    0  0.15054709999E+02  0.32254949642E+02  0.22245798370E+01  0.35664756062E+02  0.00000000000E+00 0.  1.
         11    1    4    4    0    0 -0.21579837843E+01  0.43467988448E+02 -0.13747109601E+03  0.14419578756E+03  0.00000000000E+00 0. -1.
</event>
<event>
 8    1  0.6850220E-009  0.3067385E+03  0.7561462E-02  0.1081920E+00
         -2   -1    0    0    0  501 -0.00000000000E+00  0.00000000000E+00  0.40722676417E+02  0.40722676417E+02  0.00000000000E+00 0.  1.
          2   -1    0    0  501    0  0.00000000000E+00 -0.00000000000E+00 -0.30304367894E+04  0.30304367894E+04  0.00000000000E+00 0. -1.
         25    2    1    2    0    0  0.16318855416E+03 -0.24244371693E+03 -0.22242004522E+04  0.22468031990E+04  0.12508998062E+03 0.  0.
         23    2    1    2    0    0 -0.16318855416E+03  0.24244371693E+03 -0.76551366081E+03  0.82435626688E+03  0.90236521218E+02 0.  0.
          5    1    3    3  502    0  0.14854326010E+03 -0.13826186155E+03 -0.17046257612E+04  0.17166676733E+04  0.41800000000E+01 0. -1.
         -5    1    3    3    0  502  0.14645294059E+02 -0.10418185537E+03 -0.51957469097E+03  0.53013552562E+03  0.41800000000E+01 0. -1.
        -11    1    4    4    0    0 -0.79271314866E+02  0.19096343946E+03 -0.49289191425E+03  0.53450296136E+03  0.00000000000E+00 0.  1.
         11    1    4    4    0    0 -0.83917239295E+02  0.51480277463E+02 -0.27262174656E+03  0.28985330551E+03  0.00000000000E+00 0. -1.
</event>
<event>
 8    1  0.6850220E-009  0.7398735E+02  0.7561462E-02  0.1347036E+00
          2   -1    0    0  501    0  0.00000000000E+00  0.00000000000E+00  0.43182044655E+02  0.43182044655E+02  0.00000000000E+00 0.  1.
         -2   -1    0    0    0  501 -0.00000000000E+00 -0.00000000000E+00 -0.37243758619E+03  0.37243758619E+03  0.00000000000E+00 0. -1.
         25    2    1    2    0    0  0.35030403167E+02 -0.51942080050E+02 -0.14985076597E+03  0.20500720305E+03  0.12509033702E+03 0.  0.
         23    2    1    2    0    0 -0.35030403167E+02  0.51942080050E+02 -0.17940477556E+03  0.21061242779E+03  0.90809759492E+02 0.  0.
          5    1    3    3  502    0  0.15601726227E+02 -0.50914329244E+02 -0.16909095673E+03  0.17732711815E+03  0.41800000000E+01 0.  1.
         -5    1    3    3    0  502  0.19428676940E+02 -0.10277508059E+01  0.19240190764E+02  0.27680084898E+02  0.41800000000E+01 0.  1.
        -11    1    4    4    0    0 -0.39579083332E+02  0.23866095099E+02 -0.22966485183E+02  0.51609628698E+02  0.00000000000E+00 0.  1.
         11    1    4    4    0    0  0.45486801657E+01  0.28075984951E+02 -0.15643829038E+03  0.15900279909E+03  0.00000000000E+00 0. -1.
</event>
<event>
 8    1  0.6850220E-009  0.1295554E+03  0.7561462E-02  0.1228117E+00
          2   -1    0    0  501    0  0.00000000000E+00  0.00000000000E+00  0.25766126294E+02  0.25766126294E+02  0.00000000000E+00 0. -1.
         -2   -1    0    0    0  501 -0.00000000000E+00 -0.00000000000E+00 -0.69121825433E+03  0.69121825433E+03  0.00000000000E+00 0.  1.
         25    2    1    2    0    0  0.20299100836E+02  0.75122740600E+02 -0.36345259897E+03  0.39217481801E+03  0.12509123282E+03 0.  0.
         23    2    1    2    0    0 -0.20299100836E+02 -0.75122740600E+02 -0.30199952907E+03  0.32480956262E+03  0.90785774006E+02 0.  0.
          5    1    3    3  502    0  0.13391841116E+02 -0.31621288907E+02 -0.48851644485E+02  0.59859860420E+02  0.41800000000E+01 0.  1.
         -5    1    3    3    0  502  0.69072597206E+01  0.10674402951E+03 -0.31460095449E+03  0.33231495759E+03  0.41800000000E+01 0.  1.
        -11    1    4    4    0    0  0.94177482347E+01 -0.85480655658E+02 -0.24564286349E+03  0.26026150860E+03  0.00000000000E+00 0.  1.
         11    1    4    4    0    0 -0.29716849071E+02  0.10357915057E+02 -0.56356665572E+02  0.64548054018E+02  0.00000000000E+00 0. -1.
</event>
<event>
 8    1  0.6850220E-009  0.1070132E+03  0.7561462E-02  0.1266203E+00
         -2   -1    0    0    0  501 -0.00000000000E+00  0.00000000000E+00  0.38292848783E+02  0.38292848783E+02  0.00000000000E+00 0.  1.
          2   -1    0    0  501    0  0.00000000000E+00 -0.00000000000E+00 -0.50671186527E+03  0.50671186527E+03  0.00000000000E+00 0. -1.
         25    2    1    2    0    0  0.40652862148E+01 -0.89676121540E+00 -0.42669594500E+03  0.44467272483E+03  0.12508825683E+03 0.  0.
         23    2    1    2    0    0 -0.40652862148E+01  0.89676121540E+00 -0.41723071492E+02  0.10033198923E+03  0.91150220156E+02 0.  0.
          5    1    3    3  502    0  0.39070120638E+02 -0.49219604113E+02 -0.17566696718E+03  0.18661564649E+03  0.41800000000E+01 0. -1.
         -5    1    3    3    0  502 -0.35004834423E+02  0.48322842898E+02 -0.25102897781E+03  0.25805707834E+03  0.41800000000E+01 0. -1.
        -11    1    4    4    0    0  0.43566843202E+02 -0.68256853545E+00 -0.20828325334E+02  0.48294459958E+02  0.00000000000E+00 0.  1.
         11    1    4    4    0    0 -0.47632129417E+02  0.15793297508E+01 -0.20894746158E+02  0.52037529267E+02  0.00000000000E+00 0. -1.
</event>
<event>
 8    1  0.6850220E-009  0.1550729E+03  0.7561462E-02  0.1194374E+00
         -2   -1    0    0    0  501 -0.00000000000E+00  0.00000000000E+00  0.40848945269E+02  0.40848945269E+02  0.00000000000E+00 0.  1.
          2   -1    0    0  501    0  0.00000000000E+00 -0.00000000000E+00 -0.65348085313E+03  0.65348085313E+03  0.00000000000E+00 0. -1.
         25    2    1    2    0    0  0.12292606139E+03 -0.23818357571E+00 -0.34233718150E+03  0.38464358409E+03  0.12508024482E+03 0.  0.
         23    2    1    2    0    0 -0.12292606139E+03  0.23818357571E+00 -0.27029472636E+03  0.30968621431E+03  0.87951344115E+02 0.  0.
          5    1    3    3  502    0  0.14468095371E+02  0.52491296061E+02 -0.11261634821E+03  0.12515820480E+03  0.41800000000E+01 0.  1.
         -5    1    3    3    0  502  0.10845796602E+03 -0.52729479636E+02 -0.22972083329E+03  0.25948537929E+03  0.41800000000E+01 0.  1.
        -11    1    4    4    0    0 -0.10092586794E+03 -0.22312865228E+02 -0.13097254176E+03  0.16684634089E+03  0.00000000000E+00 0.  1.
         11    1    4    4    0    0 -0.22000193450E+02  0.22551048804E+02 -0.13932218461E+03  0.14283987341E+03  0.00000000000E+00 0. -1.
</event>
<event>
 8    1  0.6850220E-009  0.1693227E+03  0.7561462E-02  0.1178556E+00
         -1   -1    0    0    0  501 -0.00000000000E+00  0.00000000000E+00  0.17921429515E+03  0.17921429515E+03  0.00000000000E+00 0.  1.
          1   -1    0    0  501    0  0.00000000000E+00 -0.00000000000E+00 -0.20474050015E+03  0.20474050015E+03  0.00000000000E+00 0. -1.
         25    2    1    2    0    0  0.71205956223E+02  0.12558917152E+03  0.48446950089E+02  0.19707169355E+03  0.12508883731E+03 0.  0.
         23    2    1    2    0    0 -0.71205956223E+02 -0.12558917152E+03 -0.73973155083E+02  0.18688310176E+03  0.92791906133E+02 0.  0.
          5    1    3    3  502    0 -0.15151139184E+02  0.14993289947E+01 -0.24509929970E+02  0.29155000826E+02  0.41800000000E+01 0.  1.
         -5    1    3    3    0  502  0.86357095406E+02  0.12408984253E+03  0.72956880060E+02  0.16791669272E+03  0.41800000000E+01 0.  1.
        -11    1    4    4    0    0 -0.41101687820E+02  0.13835891735E+01 -0.18097481728E+02  0.44930856943E+02  0.00000000000E+00 0.  1.
         11    1    4    4    0    0 -0.30104268402E+02 -0.12697276070E+03 -0.55875673354E+02  0.14195224481E+03  0.00000000000E+00 0. -1.
</event>
<event>
 8    1  0.6850220E-009  0.1623131E+03  0.7561462E-02  0.1186110E+00
          2   -1    0    0  501    0  0.00000000000E+00  0.00000000000E+00  0.12863914731E+03  0.12863914731E+03  0.00000000000E+00 0.  1.
         -2   -1    0    0    0  501 -0.00000000000E+00 -0.00000000000E+00 -0.25495549185E+03  0.25495549185E+03  0.00000000000E+00 0. -1.
         25    2    1    2    0    0  0.12735575561E+03 -0.65881093373E+02 -0.79257453389E+02  0.20612777549E+03  0.12508840458E+03 0.  0.
         23    2    1    2    0    0 -0.12735575561E+03  0.65881093373E+02 -0.47058891152E+02  0.17746686368E+03  0.93381697977E+02 0.  0.
          5    1    3    3  502    0  0.13900311070E+03 -0.55895752499E+02 -0.28014628347E+02  0.15247456094E+03  0.41800000000E+01 0. -1.
         -5    1    3    3    0  502 -0.11647355097E+02 -0.99853408737E+01 -0.51242825042E+02  0.53653214549E+02  0.41800000000E+01 0. -1.
        -11    1    4    4    0    0 -0.88429617168E+02  0.75925572644E+01 -0.58707218666E+02  0.10641419850E+03  0.00000000000E+00 0. -1.
         11    1    4    4    0    0 -0.38926138439E+02  0.58288536109E+02  0.11648327514E+02  0.71052665181E+02  0.00000000000E+00 0.  1.
</event>
<event>
 8    1  0.6850220E-009  0.1429527E+03  0.7561462E-02  0.1209410E+00
          2   -1    0    0  501    0  0.00000000000E+00  0.00000000000E+00  0.24423465787E+04  0.24423465787E+04  0.00000000000E+00 0.  1.
         -2   -1    0    0    0  501 -0.00000000000E+00 -0.00000000000E+00 -0.14240229328E+02  0.14240229328E+02  0.00000000000E+00 0. -1.
         25    2    1    2    0    0  0.82387306567E+02 -0.62352011656E+02  0.19782492531E+04  0.19848915882E+04  0.12509623498E+03 0.  0.
         23    2    1    2    0    0 -0.82387306567E+02  0.62352011656E+02  0.44985709631E+03  0.47169521983E+03  0.97208701628E+02 0.  0.
          5    1    3    3  502    0  0.10609668060E+03 -0.51706234451E+02  0.11142106947E+04  0.11204521341E+04  0.41800000000E+01 0.  1.
         -5    1    3    3    0  502 -0.23709374037E+02 -0.10645777205E+02  0.86403855840E+03  0.86443945410E+03  0.41800000000E+01 0.  1.
        -11    1    4    4    0    0 -0.91751676648E+02  0.79852339530E+02  0.39790530248E+03  0.41608099697E+03  0.00000000000E+00 0. -1.
         11    1    4    4    0    0  0.93643700818E+01 -0.17500327874E+02  0.51951793829E+02  0.55614222864E+02  0.00000000000E+00 0.  1.
</event>
<event>
 8    1  0.6850220E-009  0.1095824E+03  0.7561462E-02  0.1261345E+00
          2   -1    0    0  501    0  0.00000000000E+00  0.00000000000E+00  0.19748215771E+03  0.19748215771E+03  0.00000000000E+00 0. -1.
         -2   -1    0    0    0  501 -0.00000000000E+00 -0.00000000000E+00 -0.10947423159E+03  0.10947423159E+03  0.00000000000E+00 0.  1.
         25    2    1    2    0    0  0.58659172902E+02  0.50099052796E+02 -0.14685175240E+02  0.14769642322E+03  0.12509102847E+03 0.  0.
         23    2    1    2    0    0 -0.58659172902E+02 -0.50099052796E+02  0.10269310136E+03  0.15925996607E+03  0.94165015104E+02 0.  0.
          5    1    3    3  502    0 -0.10365247015E+02  0.18312135936E+02 -0.56798418609E+02  0.60714952233E+02  0.41800000000E+01 0.  1.
         -5    1    3    3    0  502  0.69024419917E+02  0.31786916860E+02  0.42113243369E+02  0.86981470989E+02  0.41800000000E+01 0.  1.
        -11    1    4    4    0    0 -0.42979493257E+01  0.26960140298E+02  0.26112195536E+02  0.37777880949E+02  0.00000000000E+00 0.  1.
         11    1    4    4    0    0 -0.54361223576E+02 -0.77059193094E+02  0.76580905823E+02  0.12148208512E+03  0.00000000000E+00 0. -1.
</event>
<event>
 8    1  0.6850220E-009  0.1124034E+03  0.7561462E-02  0.1256183E+00
          1   -1    0    0  501    0  0.00000000000E+00  0.00000000000E+00  0.14424135921E+03  0.14424135921E+03  0.00000000000E+00 0. -1.
         -1   -1    0    0    0  501 -0.00000000000E+00 -0.00000000000E+00 -0.11830027611E+03  0.11830027611E+03  0.00000000000E+00 0.  1.
         25    2    1    2    0    0  0.16422348658E+02  0.33310032360E+02  0.77457327866E+02  0.15174257744E+03  0.12508765077E+03 0.  0.
         23    2    1    2    0    0 -0.16422348658E+02 -0.33310032360E+02 -0.51516244762E+02  0.11079905788E+03  0.90792378325E+02 0.  0.
          5    1    3    3  502    0 -0.42436728280E+02  0.52976273155E+02  0.45411402611E+02  0.81774258246E+02  0.41800000000E+01 0. -1.
         -5    1    3    3    0  502  0.58859076938E+02 -0.19666240795E+02  0.32045925255E+02  0.69968319191E+02  0.41800000000E+01 0. -1.
        -11    1    4    4    0    0  0.19943522865E+02  0.21180001353E+02 -0.29328095042E+01  0.29239321694E+02  0.00000000000E+00 0. -1.
         11    1    4    4    0    0 -0.36365871523E+02 -0.54490033713E+02 -0.48583435258E+02  0.81559736188E+02  0.00000000000E+00 0.  1.
</event>
<event>
 8    1  0.6850220E-009  0.1463098E+03  0.7561462E-02  0.1205082E+00
         -2   -1    0    0    0  501 -0.00000000000E+00  0.00000000000E+00  0.48464785123E+02  0.48464785123E+02  0.00000000000E+00 0.  1.
          2   -1    0    0  501    0  0.00000000000E+00 -0.00000000000E+00 -0.51414696216E+03  0.51414696216E+03  0.00000000000E+00 0. -1.
         25    2    1    2    0    0  0.90345881671E+02 -0.52469057249E+02 -0.31293636112E+03  0.35283439294E+03  0.12509021716E+03 0.  0.
         23    2    1    2    0    0 -0.90345881671E+02  0.52469057249E+02 -0.15274581592E+03  0.20977735434E+03  0.98792073619E+02 0.  0.
          5    1    3    3  502    0 -0.30438832211E+02  0.55894935938E+00 -0.67427700449E+02  0.74099946819E+02  0.41800000000E+01 0.  1.
         -5    1    3    3    0  502  0.12078471388E+03 -0.53028006608E+02 -0.24550866067E+03  0.27873444612E+03  0.41800000000E+01 0.  1.
        -11    1    4    4    0    0 -0.38623263982E+02 -0.17907180516E+02 -0.12167555304E+02  0.44277229326E+02  0.00000000000E+00 0.  1.
         11    1    4    4    0    0 -0.51722617689E+02  0.70376237765E+02 -0.14057826062E+03  0.16550012502E+03  0.00000000000E+00 0. -1.
</event>
<event>
 8    1  0.6850220E-009  0.1285909E+03  0.7561462E-02  0.1229562E+00
          2   -1    0    0  501    0  0.00000000000E+00  0.00000000000E+00  0.11209783839E+03  0.11209783839E+03  0.00000000000E+00 0. -1.
         -2   -1    0    0    0  501 -0.00000000000E+00 -0.00000000000E+00 -0.20839825898E+03  0.20839825898E+03  0.00000000000E+00 0.  1.
         25    2    1    2    0    0  0.91140627841E+02  0.42237864257E+02 -0.44058813917E+01  0.16051776045E+03  0.12512349263E+03 0.  0.
         23    2    1    2    0    0 -0.91140627841E+02 -0.42237864257E+02 -0.91894539200E+02  0.15997833691E+03  0.84010777440E+02 0.  0.
          5    1    3    3  502    0  0.67461298504E+02 -0.11394093195E+02 -0.51063838341E+02  0.85474207465E+02  0.41800000000E+01 0.  1.
         -5    1    3    3    0  502  0.23679329336E+02  0.53631957452E+02  0.46657956949E+02  0.75043552985E+02  0.41800000000E+01 0.  1.
        -11    1    4    4    0    0  0.13419778103E+02 -0.18133191923E+02 -0.24313629084E+02  0.33167086892E+02  0.00000000000E+00 0.  1.
         11    1    4    4    0    0 -0.10456040594E+03 -0.24104672334E+02 -0.67580910116E+02  0.12681125002E+03  0.00000000000E+00 0. -1.
</event>
<event>
 8    1  0.6850220E-009  0.6728396E+02  0.7561462E-02  0.1369580E+00
         -2   -1    0    0    0  501 -0.00000000000E+00  0.00000000000E+00  0.17049998065E+03  0.17049998065E+03  0.00000000000E+00 0. -1.
          2   -1    0    0  501    0  0.00000000000E+00 -0.00000000000E+00 -0.74498082121E+02  0.74498082121E+02  0.00000000000E+00 0.  1.
         25    2    1    2    0    0 -0.77997118701E+01  0.13825107007E+02  0.85853707728E+02  0.15254690775E+03  0.12509089033E+03 0.  0.
         23    2    1    2    0    0  0.77997118701E+01 -0.13825107007E+02  0.10148190803E+02  0.92451155022E+02  0.90511110916E+02 0.  0.
          5    1    3    3  502    0 -0.40373843044E+02  0.20619995018E+02 -0.13661609156E+02  0.47532550546E+02  0.41800000000E+01 0. -1.
         -5    1    3    3    0  502  0.32574131174E+02 -0.67948880114E+01  0.99515316883E+02  0.10501435720E+03  0.41800000000E+01 0. -1.
        -11    1    4    4    0    0  0.36298843210E+01  0.20554530662E+02 -0.31810131527E+02  0.38046672111E+02  0.00000000000E+00 0.  1.
         11    1    4    4    0    0  0.41698275491E+01 -0.34379637668E+02  0.41958322331E+02  0.54404482911E+02  0.00000000000E+00 0. -1.
</event>
<event>
 8    1  0.6850220E-009  0.9313396E+02  0.7561462E-02  0.1295435E+00
          2   -1    0    0  501    0  0.00000000000E+00  0.00000000000E+00  0.82541127522E+02  0.82541127522E+02  0.00000000000E+00 0. -1.
         -2   -1    0    0    0  501 -0.00000000000E+00 -0.00000000000E+00 -0.17295031522E+03  0.17295031522E+03  0.00000000000E+00 0.  1.
         25    2    1    2    0    0  0.11438019353E+02 -0.15827190967E+02 -0.10062035267E+03  0.16172075309E+03  0.12509124010E+03 0.  0.
         23    2    1    2    0    0 -0.11438019353E+02  0.15827190967E+02  0.10211164974E+02  0.93770689649E+02  0.91144643762E+02 0.  0.
          5    1    3    3  502    0  0.41106215850E+02 -0.53754648137E+02 -0.89224772585E+02  0.11206165991E+03  0.41800000000E+01 0.  1.
         -5    1    3    3    0  502 -0.29668196497E+02  0.37927457170E+02 -0.11395580087E+02  0.49659093188E+02  0.41800000000E+01 0.  1.
        -11    1    4    4    0    0 -0.35573621759E+01 -0.26673406110E+02  0.34839458378E+02  0.44021736440E+02  0.00000000000E+00 0. -1.
         11    1    4    4    0    0 -0.78806571771E+01  0.42500597077E+02 -0.24628293404E+02  0.49748953209E+02  0.00000000000E+00 0.  1.
</event>
<event>
 7    1  0.1016565E-008  0.9250983E+02  0.7561462E-02  0.1296885E+00
         -2   -1    0    0    0  501 -0.00000000000E+00  0.00000000000E+00  0.19331817714E+02  0.19331817714E+02  0.00000000000E+00 0.  1.
          2   -1    0    0  501    0  0.00000000000E+00 -0.00000000000E+00 -0.47783052584E+03  0.47783052584E+03  0.00000000000E+00 0. -1.
         25    2    1    2    0    0  0.11343995506E+02 -0.31681183074E+02 -0.35227123409E+03  0.37533214993E+03  0.12508723679E+03 0.  0.
          5    1    3    3  502    0  0.67335697838E+02 -0.24489441239E+02 -0.22141547720E+03  0.23275763119E+03  0.41800000000E+01 0.  1.
         -5    1    3    3    0  502 -0.55991702332E+02 -0.71917418355E+01 -0.13085575690E+03  0.14257451874E+03  0.41800000000E+01 0.  1.
        -11    1    1    2    0    0 -0.50315497696E+00  0.41804956943E+02 -0.58877292249E+02  0.72211101173E+02  0.00000000000E+00 0.  1.
         11    1    1    2    0    0 -0.10840840529E+02 -0.10123773869E+02 -0.47350181780E+02  0.49619092448E+02  0.00000000000E+00 0. -1.
</event>
<event>
 8    1  0.6850220E-009  0.1076264E+03  0.7561462E-02  0.1265030E+00
          2   -1    0    0  501    0  0.00000000000E+00  0.00000000000E+00  0.62378801360E+03  0.62378801360E+03  0.00000000000E+00 0. -1.
         -2   -1    0    0    0  501 -0.00000000000E+00 -0.00000000000E+00 -0.29792987799E+02  0.29792987799E+02  0.00000000000E+00 0.  1.
         25    2    1    2    0    0 -0.54142758875E+02 -0.52182565094E+02  0.36569199251E+03  0.39374225733E+03  0.12509146006E+03 0.  0.
         23    2    1    2    0    0  0.54142758875E+02  0.52182565094E+02  0.22830303329E+03  0.25983874407E+03  0.98688598496E+02 0.  0.
          5    1    3    3  502    0 -0.80708359875E+02 -0.64414795256E+02  0.19679697338E+03  0.22228276211E+03  0.41800000000E+01 0.  1.
         -5    1    3    3    0  502  0.26565601000E+02  0.12232230162E+02  0.16889501913E+03  0.17145949522E+03  0.41800000000E+01 0.  1.
        -11    1    4    4    0    0  0.55533676594E+02  0.36136079316E+02  0.23365422198E+03  0.24286642607E+03  0.00000000000E+00 0. -1.
         11    1    4    4    0    0 -0.13909177194E+01  0.16046485777E+02 -0.53511886890E+01  0.16972318000E+02  0.00000000000E+00 0.  1.
</event>
<event>
 8    1  0.6850220E-009  0.8519461E+02  0.7561462E-02  0.1314924E+00
         -1   -1    0    0    0  501 -0.00000000000E+00  0.00000000000E+00  0.23296640908E+03  0.23296640908E+03  0.00000000000E+00 0.  1.
          1   -1    0    0  501    0  0.00000000000E+00 -0.00000000000E+00 -0.10788688946E+03  0.10788688946E+03  0.00000000000E+00 0. -1.
         25    2    1    2    0    0  0.12740627824E+02  0.43755064956E+02  0.18024918413E+03  0.22408401084E+03  0.12508815384E+03 0.  0.
         23    2    1    2    0    0 -0.12740627824E+02 -0.43755064956E+02 -0.55169664511E+02  0.11676928770E+03  0.92274294156E+02 0.  0.
          5    1    3    3  502    0  0.50698417126E+02  0.45625634356E+02  0.41019078624E+02  0.79699844546E+02  0.41800000000E+01 0.  1.
         -5    1    3    3    0  502 -0.37957789302E+02 -0.18705694000E+01  0.13923010551E+03  0.14438416630E+03  0.41800000000E+01 0.  1.
        -11    1    4    4    0    0 -0.27698572080E+02 -0.15220363611E+02  0.18317930585E+02  0.36529672113E+02  0.00000000000E+00 0.  1.
         11    1    4    4    0    0  0.14957944257E+02 -0.28534701345E+02 -0.73487595096E+02  0.80239615591E+02  0.00000000000E+00 0. -1.
</event>
<event>
 8    1  0.6850220E-009  0.8773260E+02  0.7561462E-02  0.1308437E+00
         -1   -1    0    0    0  501 -0.00000000000E+00  0.00000000000E+00  0.33618027649E+02  0.33618027649E+02  0.00000000000E+00 0.  1.
          1   -1    0    0  501    0  0.00000000000E+00 -0.00000000000E+00 -0.46226692608E+03  0.46226692608E+03  0.00000000000E+00 0. -1.
         25    2    1    2    0    0 -0.13547351661E+02 -0.16185583027E+02 -0.35520886933E+03  0.37718382565E+03  0.12509513837E+03 0.  0.
         23    2    1    2    0    0  0.13547351661E+02  0.16185583027E+02 -0.73440029093E+02  0.11870112807E+03  0.90835103884E+02 0.  0.
          5    1    3    3  502    0 -0.64474330155E+02 -0.28706242445E+02 -0.24609205468E+03  0.25604640084E+03  0.41800000000E+01 0. -1.
         -5    1    3    3    0  502  0.50926978494E+02  0.12520659418E+02 -0.10911681465E+03  0.12113742482E+03  0.41800000000E+01 0. -1.
        -11    1    4    4    0    0  0.30088769262E+02  0.16481706687E+01 -0.87520410115E+02  0.92562804025E+02  0.00000000000E+00 0. -1.
         11    1    4    4    0    0 -0.16541417601E+02  0.14537412358E+02  0.14080381022E+02  0.26138324048E+02  0.00000000000E+00 0.  1.
</event>
<event>
 8    1  0.6850220E-009  0.1521338E+03  0.7561462E-02  0.1197875E+00
          2   -1    0    0  501    0  0.00000000000E+00  0.00000000000E+00  0.11467057001E+03  0.11467057001E+03  0.00000000000E+00 0. -1.
         -2   -1    0    0    0  501 -0.00000000000E+00 -0.00000000000E+00 -0.22448453494E+03  0.22448453494E+03  0.00000000000E+00 0.  1.
         25    2    1    2    0    0 -0.43741647300E+02 -0.10330608659E+03 -0.97388202178E+02  0.19421131403E+03  0.12509233926E+03 0.  0.
         23    2    1    2    0    0  0.43741647300E+02  0.10330608659E+03 -0.12425762752E+02  0.14494379092E+03  0.90933072712E+02 0.  0.
          5    1    3    3  502    0  0.33513009168E+02  0.75223421443E+00 -0.31743454884E+01  0.33929876349E+02  0.41800000000E+01 0.  1.
         -5    1    3    3    0  502 -0.77254656467E+02 -0.10405832080E+03 -0.94213856689E+02  0.16028143768E+03  0.41800000000E+01 0.  1.
        -11    1    4    4    0    0  0.65391010268E+02  0.47102673099E+02  0.88357120439E+01  0.81072287770E+02  0.00000000000E+00 0. -1.
         11    1    4    4    0    0 -0.21649362968E+02  0.56203413487E+02 -0.21261474796E+02  0.63871503153E+02  0.00000000000E+00 0.  1.
</event>
<event>
 8    1  0.6850220E-009  0.1125926E+03  0.7561462E-02  0.1255843E+00
         -1   -1    0    0    0  501 -0.00000000000E+00  0.00000000000E+00  0.22905716340E+03  0.22905716340E+03  0.00000000000E+00 0.  1.
          1   -1    0    0  501    0  0.00000000000E+00 -0.00000000000E+00 -0.71573588167E+02  0.71573588167E+02  0.00000000000E+00 0. -1.
         25    2    1    2    0    0  0.65457862944E+02 -0.17935717923E+02  0.10007199797E+03  0.17398124000E+03  0.12509454542E+03 0.  0.
         23    2    1    2    0    0 -0.65457862944E+02  0.17935717923E+02  0.57411577265E+02  0.12664951157E+03  0.90208579293E+02 0.  0.
          5    1    3    3  502    0  0.59642128960E+01  0.41208922291E+02 -0.18748450912E+01  0.41889551872E+02  0.41800000000E+01 0.  1.
         -5    1    3    3    0  502  0.59493650048E+02 -0.59144640215E+02  0.10194684306E+03  0.13209168812E+03  0.41800000000E+01 0.  1.
        -11    1    4    4    0    0  0.57884285740E+01 -0.18454774331E+02 -0.10234075725E+02  0.21881976760E+02  0.00000000000E+00 0. -1.
         11    1    4    4    0    0 -0.71246291518E+02  0.36390492255E+02  0.67645652990E+02  0.10476753481E+03  0.00000000000E+00 0.  1.
</event>
<event>
 7    1  0.6850220E-009  0.1719856E+03  0.7561462E-02  0.1175793E+00
          2   -1    0    0  501    0  0.00000000000E+00  0.00000000000E+00  0.64714092095E+03  0.64714092095E+03  0.00000000000E+00 0. -1.
         -2   -1    0    0    0  501 -0.00000000000E+00 -0.00000000000E+00 -0.47793647300E+02  0.47793647300E+02  0.00000000000E+00 0.  1.
         25    2    1    2    0    0 -0.40087009439E+02 -0.91296987079E+02  0.34735436836E+03  0.38242328537E+03  0.12510157390E+03 0.  0.
          5    1    3    3  502    0  0.15493285560E+02 -0.10172514501E+03  0.21282944645E+03  0.23643581095E+03  0.41800000000E+01 0.  1.
         -5    1    3    3    0  502 -0.55580294999E+02  0.10428157927E+02  0.13452492191E+03  0.14598747441E+03  0.41800000000E+01 0.  1.
        -11    1    1    2    0    0  0.95808787003E+02  0.27707876405E+02  0.12433093019E+03  0.15939018252E+03  0.00000000000E+00 0.  1.
         11    1    1    2    0    0 -0.55721777564E+02  0.63589110674E+02  0.12766197509E+03  0.15312110036E+03  0.00000000000E+00 0. -1.
</event>
<event>
 8    1  0.6850220E-009  0.1319098E+03  0.7561462E-02  0.1224649E+00
          3   -1    0    0  501    0  0.00000000000E+00  0.00000000000E+00  0.41657830844E+03  0.41657830844E+03  0.00000000000E+00 0. -1.
         -3   -1    0    0    0  501 -0.00000000000E+00 -0.00000000000E+00 -0.46875570008E+02  0.46875570008E+02  0.00000000000E+00 0.  1.
         25    2    1    2    0    0  0.30508255168E+02  0.80294753582E+02  0.16304476352E+03  0.22273097473E+03  0.12508993207E+03 0.  0.
         23    2    1    2    0    0 -0.30508255168E+02 -0.80294753582E+02  0.20665797491E+03  0.24072290372E+03  0.88667901152E+02 0.  0.
          5    1    3    3  502    0  0.67178693780E+02  0.89812517233E+02  0.13410540565E+03  0.17487423302E+03  0.41800000000E+01 0.  1.
         -5    1    3    3    0  502 -0.36670438611E+02 -0.95177636516E+01  0.28939357868E+02  0.47856741705E+02  0.41800000000E+01 0.  1.
        -11    1    4    4    0    0 -0.46235676092E+02 -0.85248821180E+02  0.20120153723E+03  0.22335433248E+03  0.00000000000E+00 0. -1.
         11    1    4    4    0    0  0.15727420923E+02  0.49540675987E+01  0.54564376868E+01  0.17368571239E+02  0.00000000000E+00 0.  1.
</event>
<event>
 8    1  0.6850220E-009  0.9979135E+02  0.7561462E-02  0.1280735E+00
          1   -1    0    0  501    0  0.00000000000E+00  0.00000000000E+00  0.80678822853E+02  0.80678822853E+02  0.00000000000E+00 0. -1.
         -1   -1    0    0    0  501 -0.00000000000E+00 -0.00000000000E+00 -0.18033162716E+03  0.18033162716E+03  0.00000000000E+00 0.  1.
         25    2    1    2    0    0  0.27017398227E+02  0.11343705451E+02 -0.10034686744E+03  0.16302064410E+03  0.12509043584E+03 0.  0.
         23    2    1    2    0    0 -0.27017398227E+02 -0.11343705451E+02  0.69406313160E+00  0.97989805915E+02  0.93503480573E+02 0.  0.
          5    1    3    3  502    0  0.68905675650E+02 -0.16533692110E+02 -0.31539533153E+02  0.77676055918E+02  0.41800000000E+01 0. -1.
         -5    1    3    3    0  502 -0.41888277423E+02  0.27877397560E+02 -0.68807334288E+02  0.85344588182E+02  0.41800000000E+01 0. -1.
        -11    1    4    4    0    0 -0.14397381503E+02 -0.42297322011E+02 -0.29009454242E+02  0.53271910787E+02  0.00000000000E+00 0.  1.
         11    1    4    4    0    0 -0.12620016724E+02  0.30953616560E+02  0.29703517374E+02  0.44717895128E+02  0.00000000000E+00 0. -1.
</event>
<event>
 7    1  0.6850220E-009  0.1120755E+03  0.7561462E-02  0.1256774E+00
          4   -1    0    0  501    0  0.00000000000E+00  0.00000000000E+00  0.40497932053E+03  0.40497932053E+03  0.00000000000E+00 0. -1.
         -4   -1    0    0    0  501 -0.00000000000E+00 -0.00000000000E+00 -0.46249113453E+02  0.46249113453E+02  0.00000000000E+00 0.  1.
         25    2    1    2    0    0  0.64671993999E+01 -0.74443225805E+02  0.33580706931E+03  0.36605711223E+03  0.12509117906E+03 0.  0.
          5    1    3    3  502    0  0.31066866155E+02 -0.10281604125E+03  0.23553617838E+03  0.25890355779E+03  0.41800000000E+01 0.  1.
         -5    1    3    3    0  502 -0.24599666755E+02  0.28372815445E+02  0.10027089092E+03  0.10715355443E+03  0.41800000000E+01 0.  1.
        -11    1    1    2    0    0 -0.16174698483E+02  0.41719310866E+02  0.24477285427E+02  0.51002541819E+02  0.00000000000E+00 0. -1.
         11    1    1    2    0    0  0.97074990830E+01  0.32723914939E+02 -0.15541476572E+01  0.34168779937E+02  0.00000000000E+00 0.  1.
</event>
<event>
 8    1  0.6850220E-009  0.1369925E+03  0.7561462E-02  0.1217434E+00
          2   -1    0    0  501    0  0.00000000000E+00  0.00000000000E+00  0.44671946213E+02  0.44671946213E+02  0.00000000000E+00 0. -1.
         -2   -1    0    0    0  501 -0.00000000000E+00 -0.00000000000E+00 -0.68250661425E+03  0.68250661425E+03  0.00000000000E+00 0.  1.
         25    2    1    2    0    0 -0.12798409843E+03 -0.25019981229E+02 -0.25415228772E+03  0.31184532682E+03  0.12509273998E+03 0.  0.
         23    2    1    2    0    0  0.12798409843E+03  0.25019981229E+02 -0.38368238031E+03  0.41533323363E+03  0.91014268606E+02 0.  0.
          5    1    3    3  502    0 -0.39981468596E+01 -0.59561462690E+01  0.13714085848E+02  0.16031512946E+02  0.41800000000E+01 0. -1.
         -5    1    3    3    0  502 -0.12398595157E+03 -0.19063834960E+02 -0.26786637357E+03  0.29581381388E+03  0.41800000000E+01 0. -1.
        -11    1    4    4    0    0  0.69791513625E+02  0.39511506983E+02 -0.31064204570E+03  0.32082782783E+03  0.00000000000E+00 0.  1.
         11    1    4    4    0    0  0.58192584807E+02 -0.14491525754E+02 -0.73040334610E+02  0.94505405799E+02  0.00000000000E+00 0. -1.
</event>
<event>
 8    1  0.6850220E-009  0.9278465E+02  0.7561462E-02  0.1296245E+00
         -2   -1    0    0    0  501 -0.00000000000E+00  0.00000000000E+00  0.22146378983E+02  0.22146378983E+02  0.00000000000E+00 0.  1.
          2   -1    0    0  501    0  0.00000000000E+00 -0.00000000000E+00 -0.86856596918E+03  0.86856596918E+03  0.00000000000E+00 0. -1.
         25    2    1    2    0    0  0.62879197298E+02  0.58285936698E+02 -0.49690282214E+03  0.51952891927E+03  0.12508732722E+03 0.  0.
         23    2    1    2    0    0 -0.62879197298E+02 -0.58285936698E+02 -0.34951676805E+03  0.37118342889E+03  0.90907221203E+02 0.  0.
          5    1    3    3  502    0  0.22632385673E+02 -0.60170197503E+01 -0.37589974987E+03  0.37665172741E+03  0.41800000000E+01 0.  1.
         -5    1    3    3    0  502  0.40246811624E+02  0.64302956448E+02 -0.12100307228E+03  0.14287719186E+03  0.41800000000E+01 0.  1.
        -11    1    4    4    0    0 -0.51798083388E+02 -0.49730377149E+02 -0.34988662340E+03  0.35717894827E+03  0.00000000000E+00 0. -1.
         11    1    4    4    0    0 -0.11081113909E+02 -0.85555595487E+01  0.36985534375E+00  0.14004480627E+02  0.00000000000E+00 0.  1.
</event>
<event>
 8    1  0.6850220E-009  0.8053974E+02  0.7561462E-02  0.1327527E+00
         -4   -1    0    0    0  501 -0.00000000000E+00  0.00000000000E+00  0.31218782469E+03  0.31218782469E+03  0.00000000000E+00 0.  1.
          4   -1    0    0  501    0  0.00000000000E+00 -0.00000000000E+00 -0.43731168912E+02  0.43731168912E+02  0.00000000000E+00 0. -1.
         25    2    1    2    0    0 -0.41197999135E+02  0.13868770446E+02  0.16234691538E+03  0.20950644860E+03  0.12508722215E+03 0.  0.
         23    2    1    2    0    0  0.41197999135E+02 -0.13868770446E+02  0.10610974040E+03  0.14641254500E+03  0.91037016648E+02 0.  0.
          5    1    3    3  502    0 -0.49122343630E+02  0.37036578575E+02  0.19728481486E+02  0.64741008472E+02  0.41800000000E+01 0.  1.
         -5    1    3    3    0  502  0.79243444951E+01 -0.23167808128E+02  0.14261843389E+03  0.14476544012E+03  0.41800000000E+01 0.  1.
        -11    1    4    4    0    0 -0.15968980612E+02 -0.49551397449E+01  0.82075792261E+02  0.83761551006E+02  0.00000000000E+00 0.  1.
         11    1    4    4    0    0  0.57166979747E+02 -0.89136307014E+01  0.24033948137E+02  0.62650993996E+02  0.00000000000E+00 0. -1.
</event>
<event>
 8    1  0.6850220E-009  0.1416205E+03  0.7561462E-02  0.1211165E+00
          4   -1    0    0  501    0  0.00000000000E+00  0.00000000000E+00  0.50416375453E+03  0.50416375453E+03  0.00000000000E+00 0.  1.
         -4   -1    0    0    0  501 -0.00000000000E+00 -0.00000000000E+00 -0.47816542550E+02  0.47816542550E+02  0.00000000000E+00 0. -1.
         25    2    1    2    0    0  0.11722467322E+02 -0.10832222156E+03  0.22615079676E+03  0.28048348222E+03  0.12512266382E+03 0.  0.
         23    2    1    2    0    0 -0.11722467322E+02  0.10832222156E+03  0.23019641522E+03  0.27149681486E+03  0.94069181854E+02 0.  0.
          5    1    3    3  502    0 -0.40010647436E+02 -0.23332864215E+02  0.18240933744E+02  0.49954764783E+02  0.41800000000E+01 0.  1.
         -5    1    3    3    0  502  0.51733114758E+02 -0.84989357345E+02  0.20790986302E+03  0.23052871744E+03  0.41800000000E+01 0.  1.
        -11    1    4    4    0    0 -0.41793875311E+02  0.25309286058E+02  0.12469028667E+03  0.13392145296E+03  0.00000000000E+00 0.  1.
         11    1    4    4    0    0  0.30071407990E+02  0.83012935502E+02  0.10550612856E+03  0.13757536190E+03  0.00000000000E+00 0. -1.
</event>
<event>
 8    1  0.6850220E-009  0.2029341E+03  0.7561462E-02  0.1147287E+00
         -2   -1    0    0    0  501 -0.00000000000E+00  0.00000000000E+00  0.33287162956E+02  0.33287162956E+02  0.00000000000E+00 0.  1.
          2   -1    0    0  501    0  0.00000000000E+00 -0.00000000000E+00 -0.13810534606E+04  0.13810534606E+04  0.00000000000E+00 0. -1.
         25    2    1    2    0    0 -0.12460299097E+03 -0.13295141248E+03 -0.80624380170E+03  0.83598966512E+03  0.12509064297E+03 0.  0.
         23    2    1    2    0    0  0.12460299097E+03  0.13295141248E+03 -0.54152249598E+03  0.57835095848E+03  0.89672928354E+02 0.  0.
          5    1    3    3  502    0 -0.10194409282E+03 -0.18480496149E+02 -0.34957191946E+03  0.36462600850E+03  0.41800000000E+01 0. -1.
         -5    1    3    3    0  502 -0.22658898159E+02 -0.11447091633E+03 -0.45667188224E+03  0.47136365662E+03  0.41800000000E+01 0. -1.
        -11    1    4    4    0    0  0.98415236336E+02  0.12269143742E+03 -0.51902706996E+03  0.54233554826E+03  0.00000000000E+00 0. -1.
         11    1    4    4    0    0  0.26187754639E+02  0.10259975052E+02 -0.22495426026E+02  0.36015410218E+02  0.00000000000E+00 0.  1.
</event>
<event>
 8    1  0.6850220E-009  0.9337272E+02  0.7561462E-02  0.1294884E+00
          1   -1    0    0  501    0  0.00000000000E+00  0.00000000000E+00  0.25118261967E+03  0.25118261967E+03  0.00000000000E+00 0. -1.
         -1   -1    0    0    0  501 -0.00000000000E+00 -0.00000000000E+00 -0.81888673376E+02  0.81888673376E+02  0.00000000000E+00 0.  1.
         25    2    1    2    0    0  0.32647010355E+02 -0.52259032705E+02  0.94555600397E+01  0.13976253323E+03  0.12508926531E+03 0.  0.
         23    2    1    2    0    0 -0.32647010355E+02  0.52259032705E+02  0.15983838625E+03  0.19330875981E+03  0.89571943799E+02 0.  0.
          5    1    3    3  502    0  0.67154459092E+02 -0.71293589516E+01  0.36307118576E+02  0.76786902492E+02  0.41800000000E+01 0.  1.
         -5    1    3    3    0  502 -0.34507448737E+02 -0.45129673753E+02 -0.26851558536E+02  0.62975630741E+02  0.41800000000E+01 0.  1.
        -11    1    4    4    0    0 -0.26594584949E+02  0.35901151230E+02  0.16815248406E+03  0.17398684578E+03  0.00000000000E+00 0. -1.
         11    1    4    4    0    0 -0.60524254062E+01  0.16357881474E+02 -0.83140978066E+01  0.19321914035E+02  0.00000000000E+00 0.  1.
</event>
<event>
 8    1  0.6850220E-009  0.9527837E+02  0.7561462E-02  0.1290550E+00
          1   -1    0    0  501    0  0.00000000000E+00  0.00000000000E+00  0.15051921178E+03  0.15051921178E+03  0.00000000000E+00 0. -1.
         -1   -1    0    0    0  501 -0.00000000000E+00 -0.00000000000E+00 -0.86004367619E+02  0.86004367619E+02  0.00000000000E+00 0.  1.
         25    2    1    2    0    0 -0.49375932279E+01  0.32091548740E+02  0.54386546380E+02  0.14021175723E+03  0.12508874095E+03 0.  0.
         23    2    1    2    0    0  0.49375932279E+01 -0.32091548740E+02  0.10128297784E+02  0.96311822169E+02  0.90106255866E+02 0.  0.
          5    1    3    3  502    0 -0.12250998920E+02  0.73967694804E+02  0.55001540159E+01  0.75292967423E+02  0.41800000000E+01 0.  1.
         -5    1    3    3    0  502  0.73134056918E+01 -0.41876146064E+02  0.48886392364E+02  0.64918789809E+02  0.41800000000E+01 0.  1.
        -11    1    4    4    0    0  0.32799132359E+02 -0.37598331712E+01  0.36038767896E+02  0.48874453658E+02  0.00000000000E+00 0. -1.
         11    1    4    4    0    0 -0.27861539131E+02 -0.28331715569E+02 -0.25910470112E+02  0.47437368511E+02  0.00000000000E+00 0.  1.
</event>
<event>
 8    1  0.6850220E-009  0.8236134E+02  0.7561462E-02  0.1322481E+00
          2   -1    0    0  501    0  0.00000000000E+00  0.00000000000E+00  0.10829069334E+04  0.10829069334E+04  0.00000000000E+00 0.  1.
         -2   -1    0    0    0  501 -0.00000000000E+00 -0.00000000000E+00 -0.15963600809E+02  0.15963600809E+02  0.00000000000E+00 0. -1.
         25    2    1    2    0    0  0.37616993304E+02  0.20823281691E+02  0.87165523785E+03  0.88163454907E+03  0.12509187500E+03 0.  0.
         23    2    1    2    0    0 -0.37616993304E+02 -0.20823281691E+02  0.19528809472E+03  0.21723598512E+03  0.84884545394E+02 0.  0.
          5    1    3    3  502    0  0.85714779884E+01  0.44133327683E+02  0.79527461518E+03  0.79655533819E+03  0.41800000000E+01 0. -1.
         -5    1    3    3    0  502  0.29045515316E+02 -0.23310045992E+02  0.76380622664E+02  0.85079210872E+02  0.41800000000E+01 0. -1.
        -11    1    4    4    0    0  0.11643689943E+02 -0.29825726700E+02  0.27736225774E+02  0.42360921955E+02  0.00000000000E+00 0. -1.
         11    1    4    4    0    0 -0.49260683247E+02  0.90024450093E+01  0.16755186895E+03  0.17487506317E+03  0.00000000000E+00 0.  1.
</event>
<event>
 8    1  0.6850220E-009  0.1917926E+03  0.7561462E-02  0.1156854E+00
          2   -1    0    0  501    0  0.00000000000E+00  0.00000000000E+00  0.16454346990E+03  0.16454346990E+03  0.00000000000E+00 0. -1.
         -2   -1    0    0    0  501 -0.00000000000E+00 -0.00000000000E+00 -0.25029236528E+03  0.25029236528E+03  0.00000000000E+00 0.  1.
         25    2    1    2    0    0 -0.16370679956E+03 -0.44708348331E+02 -0.65832267979E+02  0.22086211682E+03  0.12508970584E+03 0.  0.
         23    2    1    2    0    0  0.16370679956E+03  0.44708348331E+02 -0.19916627400E+02  0.19397371835E+03  0.91817093897E+02 0.  0.
          5    1    3    3  502    0 -0.18439732097E+03 -0.44029283176E+02 -0.60999370456E+02  0.19919675036E+03  0.41800000000E+01 0. -1.
         -5    1    3    3    0  502  0.20690521405E+02 -0.67906515460E+00 -0.48328975234E+01  0.21665366463E+02  0.41800000000E+01 0. -1.
        -11    1    4    4    0    0  0.11430180082E+03  0.46506948300E+02  0.26440160196E+02  0.12620174318E+03  0.00000000000E+00 0. -1.
         11    1    4    4    0    0  0.49404998743E+02 -0.17985999688E+01 -0.46356787596E+02  0.67771975173E+02  0.00000000000E+00 0.  1.
</event>
<event>
 8    1  0.6850220E-009  0.5800571E+02  0.7561462E-02  0.1406397E+00
          2   -1    0    0  501    0  0.00000000000E+00  0.00000000000E+00  0.32689166757E+03  0.32689166757E+03  0.00000000000E+00 0. -1.
         -2   -1    0    0    0  501 -0.00000000000E+00 -0.00000000000E+00 -0.32795643240E+02  0.32795643240E+02  0.00000000000E+00 0.  1.
         25    2    1    2    0    0  0.25857255664E+02  0.13472872183E+02  0.16770856350E+03  0.21124372156E+03  0.12509049392E+03 0.  0.
         23    2    1    2    0    0 -0.25857255664E+02 -0.13472872183E+02  0.12638746083E+03  0.14844358925E+03  0.72191363612E+02 0.  0.
          5    1    3    3  502    0  0.25622988558E+02  0.22917252048E+02 -0.77459382391E+01  0.35485348290E+02  0.41800000000E+01 0.  1.
         -5    1    3    3    0  502  0.23426710644E+00 -0.94443798656E+01  0.17545450174E+03  0.17575837327E+03  0.41800000000E+01 0.  1.
        -11    1    4    4    0    0 -0.38725487415E+02 -0.30791492473E+02  0.11219187311E+03  0.12261645802E+03  0.00000000000E+00 0. -1.
         11    1    4    4    0    0  0.12868231750E+02  0.17318620290E+02  0.14195587711E+02  0.25827131231E+02  0.00000000000E+00 0.  1.
</event>
<event>
 8    1  0.6850220E-009  0.1906325E+03  0.7561462E-02  0.1157892E+00
         -2   -1    0    0    0  501 -0.00000000000E+00  0.00000000000E+00  0.28462311576E+03  0.28462311576E+03  0.00000000000E+00 0.  1.
          2   -1    0    0  501    0  0.00000000000E+00 -0.00000000000E+00 -0.15957850036E+03  0.15957850036E+03  0.00000000000E+00 0. -1.
         25    2    1    2    0    0 -0.11361434023E+03  0.14246981373E+03  0.63533506191E+02  0.22997761090E+03  0.12508928402E+03 0.  0.
         23    2    1    2    0    0  0.11361434023E+03 -0.14246981373E+03  0.61511109218E+02  0.21422400522E+03  0.94352751558E+02 0.  0.
          5    1    3    3  502    0 -0.60510747050E+02  0.24578522865E+02  0.75666707162E+02  0.10004287715E+03  0.41800000000E+01 0. -1.
         -5    1    3    3    0  502 -0.53103593183E+02  0.11789129086E+03 -0.12133200971E+02  0.12993473375E+03  0.41800000000E+01 0. -1.
        -11    1    4    4    0    0  0.30707725500E+02 -0.69600782321E+02  0.70186103952E+02  0.10350518100E+03  0.00000000000E+00 0.  1.
         11    1    4    4    0    0  0.82906614733E+02 -0.72869031404E+02 -0.86749947340E+01  0.11071882423E+03  0.00000000000E+00 0. -1.
</event>
<event>
 8    1  0.6850220E-009  0.8781645E+02  0.7561462E-02  0.1308227E+00
         -2   -1    0    0    0  501 -0.00000000000E+00  0.00000000000E+00  0.68741638857E+02  0.68741638857E+02  0.00000000000E+00 0.  1.
          2   -1    0    0  501    0  0.00000000000E+00 -0.00000000000E+00 -0.17530458590E+03  0.17530458590E+03  0.00000000000E+00 0. -1.
         25    2    1    2    0    0 -0.71904415744E+01  0.13455713929E+02 -0.56272021496E+02  0.13801073154E+03  0.12509061887E+03 0.  0.
         23    2    1    2    0    0  0.71904415744E+01 -0.13455713929E+02 -0.50290925546E+02  0.10603549321E+03  0.92095547893E+02 0.  0.
          5    1    3    3  502    0 -0.45580353397E+02 -0.10981291783E+02 -0.75061561656E+02  0.88599479814E+02  0.41800000000E+01 0. -1.
         -5    1    3    3    0  502  0.38389911823E+02  0.24437005712E+02  0.18789540160E+02  0.49411251728E+02  0.41800000000E+01 0. -1.
        -11    1    4    4    0    0 -0.23365634806E+02 -0.37361825936E+02 -0.50781813049E+02  0.67235790051E+02  0.00000000000E+00 0. -1.
         11    1    4    4    0    0  0.30556076380E+02  0.23906112007E+02  0.49088750370E+00  0.38799703164E+02  0.00000000000E+00 0.  1.
</event>
<event>
 8    1  0.6850220E-009  0.7409954E+02  0.7561462E-02  0.1346682E+00
          2   -1    0    0  501    0  0.00000000000E+00  0.00000000000E+00  0.90967761499E+02  0.90967761499E+02  0.00000000000E+00 0. -1.
         -2   -1    0    0    0  501 -0.00000000000E+00 -0.00000000000E+00 -0.15608127218E+03  0.15608127218E+03  0.00000000000E+00 0.  1.
         25    2    1    2    0    0 -0.47713490057E+01  0.41773812090E+01 -0.69073621965E+02  0.14303524256E+03  0.12509076336E+03 0.  0.
         23    2    1    2    0    0  0.47713490057E+01 -0.41773812090E+01  0.39601112832E+01  0.10401379112E+03  0.10374473469E+03 0.  0.
          5    1    3    3  502    0 -0.62151861755E+02 -0.34532233645E+01 -0.16039069759E+02  0.64416634731E+02  0.41800000000E+01 0.  1.
         -5    1    3    3    0  502  0.57380512750E+02  0.76306045735E+01 -0.53034552206E+02  0.78618607831E+02  0.41800000000E+01 0.  1.
        -11    1    4    4    0    0  0.15100862387E+02  0.27340012107E+01  0.52090797121E+02  0.54304345610E+02  0.00000000000E+00 0. -1.
         11    1    4    4    0    0 -0.10329513381E+02 -0.69113824197E+01 -0.48130685838E+02  0.49709445509E+02  0.00000000000E+00 0.  1.
</event>
<event>
 8    1  0.6850220E-009  0.1934603E+03  0.7561462E-02  0.1155377E+00
          2   -1    0    0  501    0  0.00000000000E+00  0.00000000000E+00  0.78970507037E+03  0.78970507037E+03  0.00000000000E+00 0. -1.
         -2   -1    0    0    0  501 -0.00000000000E+00 -0.00000000000E+00 -0.67944551149E+02  0.67944551149E+02  0.00000000000E+00 0.  1.
         25    2    1    2    0    0 -0.12965987619E+03  0.12019196337E+03  0.56237485504E+03  0.60263680282E+03  0.12509135452E+03 0.  0.
         23    2    1    2    0    0  0.12965987619E+03 -0.12019196337E+03  0.15938566418E+03  0.25501281870E+03  0.91487464725E+02 0.  0.
          5    1    3    3  502    0 -0.57860036473E+02  0.98633296571E+02  0.18245363716E+03  0.21536739105E+03  0.41800000000E+01 0.  1.
         -5    1    3    3    0  502 -0.71799839718E+02  0.21558666801E+02  0.37992121788E+03  0.38726941177E+03  0.41800000000E+01 0.  1.
        -11    1    4    4    0    0 -0.12568146113E+02 -0.25300563161E+01  0.32012238159E+01  0.13213906145E+02  0.00000000000E+00 0.  1.
         11    1    4    4    0    0  0.14222802230E+03 -0.11766190706E+03  0.15618444036E+03  0.24179891255E+03  0.00000000000E+00 0. -1.
</event>
<event>
 8    1  0.6850220E-009  0.1625238E+03  0.7561462E-02  0.1185876E+00
          2   -1    0    0  501    0  0.00000000000E+00  0.00000000000E+00  0.23129922588E+03  0.23129922588E+03  0.00000000000E+00 0. -1.
         -2   -1    0    0    0  501 -0.00000000000E+00 -0.00000000000E+00 -0.13319162222E+03  0.13319162222E+03  0.00000000000E+00 0.  1.
         25    2    1    2    0    0  0.35421062640E+02 -0.11723932075E+03 -0.14814429790E+02  0.17568611646E+03  0.12508570732E+03 0.  0.
         23    2    1    2    0    0 -0.35421062640E+02  0.11723932075E+03  0.11292203344E+03  0.18880473165E+03  0.88860176938E+02 0.  0.
          5    1    3    3  502    0  0.82402178640E+02 -0.79436052900E+02 -0.12242497339E+02  0.11518488046E+03  0.41800000000E+01 0. -1.
         -5    1    3    3    0  502 -0.46981116000E+02 -0.37803267853E+02 -0.25719324504E+01  0.60501235999E+02  0.41800000000E+01 0. -1.
        -11    1    4    4    0    0 -0.22947543679E+02  0.13012602673E+03  0.90794043860E+02  0.16032133667E+03  0.00000000000E+00 0.  1.
         11    1    4    4    0    0 -0.12473518962E+02 -0.12886705973E+02  0.22127989585E+02  0.28483394973E+02  0.00000000000E+00 0. -1.
</event>
<event>
 8    1  0.6850220E-009  0.1291804E+03  0.7561462E-02  0.1228677E+00
          2   -1    0    0  501    0  0.00000000000E+00  0.00000000000E+00  0.15291416123E+04  0.15291416123E+04  0.00000000000E+00 0. -1.
         -2   -1    0    0    0  501 -0.00000000000E+00 -0.00000000000E+00 -0.32160939823E+02  0.32160939823E+02  0.00000000000E+00 0.  1.
         25    2    1    2    0    0  0.64544978254E+02 -0.73697979398E+02  0.13593097469E+04  0.13685642502E+04  0.12509065740E+03 0.  0.
         23    2    1    2    0    0 -0.64544978254E+02  0.73697979398E+02  0.13767092561E+03  0.19273830194E+03  0.92721749824E+02 0.  0.
          5    1    3    3  502    0  0.33186971752E+02 -0.10233774108E+03  0.74065768775E+03  0.74844216288E+03  0.41800000000E+01 0.  1.
         -5    1    3    3    0  502  0.31358006502E+02  0.28639761680E+02  0.61865205916E+03  0.62012208736E+03  0.41800000000E+01 0.  1.
        -11    1    4    4    0    0  0.60498631169E+01  0.15130102528E+02  0.85855399389E+02  0.87388045238E+02  0.00000000000E+00 0. -1.
         11    1    4    4    0    0 -0.70594841371E+02  0.58567876869E+02  0.51815526219E+02  0.10535025670E+03  0.00000000000E+00 0.  1.
</event>
<event>
 8    1  0.6850220E-009  0.1235968E+03  0.7561462E-02  0.1237279E+00
          2   -1    0    0  501    0  0.00000000000E+00  0.00000000000E+00  0.12955139219E+04  0.12955139219E+04  0.00000000000E+00 0. -1.
         -2   -1    0    0    0  501 -0.00000000000E+00 -0.00000000000E+00 -0.14524276235E+02  0.14524276235E+02  0.00000000000E+00 0.  1.
         25    2    1    2    0    0 -0.73555628834E+02 -0.67868741466E+01  0.89813297831E+03  0.90980581017E+03  0.12508906148E+03 0.  0.
         23    2    1    2    0    0  0.73555628834E+02  0.67868741466E+01  0.38285666731E+03  0.40023238792E+03  0.90278704249E+02 0.  0.
          5    1    3    3  502    0 -0.93745817572E+02 -0.32216324617E+02  0.46654025900E+03  0.47697322309E+03  0.41800000000E+01 0.  1.
         -5    1    3    3    0  502  0.20190188738E+02  0.25429450470E+02  0.43159271932E+03  0.43283258708E+03  0.41800000000E+01 0.  1.
        -11    1    4    4    0    0  0.95636461372E+01 -0.36664094108E+02  0.98289227512E+02  0.10533988499E+03  0.00000000000E+00 0. -1.
         11    1    4    4    0    0  0.63991982696E+02  0.43450968254E+02  0.28456743980E+03  0.29489250293E+03  0.00000000000E+00 0.  1.
</event>
<event>
 8    1  0.6850220E-009  0.1974566E+03  0.7561462E-02  0.1151903E+00
         -1   -1    0    0    0  501 -0.00000000000E+00  0.00000000000E+00  0.27207272888E+02  0.27207272888E+02  0.00000000000E+00 0.  1.
          1   -1    0    0  501    0  0.00000000000E+00 -0.00000000000E+00 -0.16099849946E+04  0.16099849946E+04  0.00000000000E+00 0. -1.
         25    2    1    2    0    0  0.17095720182E+03 -0.51487924595E+02 -0.80434788387E+03  0.83336685510E+03  0.12508967052E+03 0.  0.
         23    2    1    2    0    0 -0.17095720182E+03  0.51487924595E+02 -0.77842983780E+03  0.80382541234E+03  0.91131278445E+02 0.  0.
          5    1    3    3  502    0  0.10591461744E+03 -0.74510835191E+02 -0.66854302636E+03  0.68098239422E+03  0.41800000000E+01 0. -1.
         -5    1    3    3    0  502  0.65042584382E+02  0.23022910596E+02 -0.13580485750E+03  0.15238446088E+03  0.41800000000E+01 0. -1.
        -11    1    4    4    0    0 -0.48066318206E+02 -0.22187694764E+02 -0.29082712450E+03  0.29560629406E+03  0.00000000000E+00 0. -1.
         11    1    4    4    0    0 -0.12289088361E+03  0.73675619359E+02 -0.48760271331E+03  0.50821911828E+03  0.00000000000E+00 0.  1.
</event>
<event>
 8    1  0.6850220E-009  0.2474832E+03  0.7561462E-02  0.1114906E+00
          2   -1    0    0  501    0  0.00000000000E+00  0.00000000000E+00  0.19003464548E+04  0.19003464548E+04  0.00000000000E+00 0. -1.
         -2   -1    0    0    0  501 -0.00000000000E+00 -0.00000000000E+00 -0.43537620170E+02  0.43537620170E+02  0.00000000000E+00 0.  1.
         25    2    1    2    0    0 -0.24065035565E+02  0.23708587648E+03  0.13533388065E+04  0.13798415376E+04  0.12509158604E+03 0.  0.
         23    2    1    2    0    0  0.24065035565E+02 -0.23708587648E+03  0.50347002815E+03  0.56404253740E+03  0.88730355570E+02 0.  0.
          5    1    3    3  502    0  0.26763037303E+02  0.16491566970E+03  0.65724681400E+03  0.67816243275E+03  0.41800000000E+01 0. -1.
         -5    1    3    3    0  502 -0.50828072867E+02  0.72170206779E+02  0.69609199253E+03  0.70167910487E+03  0.41800000000E+01 0. -1.
        -11    1    4    4    0    0 -0.48083076262E+01 -0.36978778391E+02  0.17022942376E+03  0.17426590770E+03  0.00000000000E+00 0. -1.
         11    1    4    4    0    0  0.28873343191E+02 -0.20010709809E+03  0.33324060439E+03  0.38977662971E+03  0.00000000000E+00 0.  1.
</event>
<event>
 8    1  0.6850220E-009  0.9221070E+02  0.7561462E-02  0.1297585E+00
          1   -1    0    0  501    0  0.00000000000E+00  0.00000000000E+00  0.26076567371E+03  0.26076567371E+03  0.00000000000E+00 0. -1.
         -1   -1    0    0    0  501 -0.00000000000E+00 -0.00000000000E+00 -0.47140599288E+02  0.47140599288E+02  0.00000000000E+00 0.  1.
         25    2    1    2    0    0 -0.18703431177E+01  0.18350579711E+02  0.10417345416E+03  0.16384139351E+03  0.12510656144E+03 0.  0.
         23    2    1    2    0    0  0.18703431177E+01 -0.18350579711E+02  0.10945162026E+03  0.14406487949E+03  0.91841114786E+02 0.  0.
          5    1    3    3  502    0  0.53541238514E+02  0.35517621536E+02  0.74766134450E+02  0.98669209593E+02  0.41800000000E+01 0.  1.
         -5    1    3    3    0  502 -0.55411581631E+02 -0.17167041825E+02  0.29407319714E+02  0.65172183918E+02  0.41800000000E+01 0.  1.
        -11    1    4    4    0    0  0.30444134753E+02 -0.10998872743E+02  0.10988877429E+03  0.11455724882E+03  0.00000000000E+00 0. -1.
         11    1    4    4    0    0 -0.28573791635E+02 -0.73517069679E+01 -0.43715403318E+00  0.29507630664E+02  0.00000000000E+00 0.  1.
</event>
<event>
 8    1  0.6850220E-009  0.1699453E+03  0.7561462E-02  0.1177905E+00
         -1   -1    0    0    0  501 -0.00000000000E+00  0.00000000000E+00  0.30797744098E+03  0.30797744098E+03  0.00000000000E+00 0.  1.
          1   -1    0    0  501    0  0.00000000000E+00 -0.00000000000E+00 -0.21339278236E+03  0.21339278236E+03  0.00000000000E+00 0. -1.
         25    2    1    2    0    0 -0.11388318481E+03  0.94193732702E+02  0.22851909538E+03  0.29950590402E+03  0.12506386579E+03 0.  0.
         23    2    1    2    0    0  0.11388318481E+03 -0.94193732702E+02 -0.13393443676E+03  0.22186431932E+03  0.97177691748E+02 0.  0.
          5    1    3    3  502    0 -0.13393608581E+03  0.51782445863E+02  0.14822892189E+03  0.20642088670E+03  0.41800000000E+01 0.  1.
         -5    1    3    3    0  502  0.20052901000E+02  0.42411286839E+02  0.80290173492E+02  0.93085017319E+02  0.41800000000E+01 0.  1.
        -11    1    4    4    0    0  0.56701609820E+02 -0.34024783914E+02 -0.12095297493E+03  0.13784912267E+03  0.00000000000E+00 0. -1.
         11    1    4    4    0    0  0.57181574987E+02 -0.60168948789E+02 -0.12981461831E+02  0.84015196647E+02  0.00000000000E+00 0.  1.
</event>
<event>
 8    1  0.6850220E-009  0.1705986E+03  0.7561462E-02  0.1177225E+00
         -1   -1    0    0    0  501 -0.00000000000E+00  0.00000000000E+00  0.50688101061E+02  0.50688101061E+02  0.00000000000E+00 0. -1.
          1   -1    0    0  501    0  0.00000000000E+00 -0.00000000000E+00 -0.73881865968E+03  0.73881865968E+03  0.00000000000E+00 0.  1.
         25    2    1    2    0    0 -0.15089113362E+03  0.29356923289E+02 -0.27048080371E+03  0.33531691067E+03  0.12509037634E+03 0.  0.
         23    2    1    2    0    0  0.15089113362E+03 -0.29356923289E+02 -0.41764975490E+03  0.45418985007E+03  0.90703577588E+02 0.  0.
          5    1    3    3  502    0 -0.11119755863E+03 -0.19964073099E+02 -0.23921447984E+03  0.26458363711E+03  0.41800000000E+01 0.  1.
         -5    1    3    3    0  502 -0.39693574987E+02  0.49320996388E+02 -0.31266323872E+02  0.70733273559E+02  0.41800000000E+01 0.  1.
        -11    1    4    4    0    0  0.65909017411E+02 -0.42901817300E+02 -0.11337301481E+03  0.13797827724E+03  0.00000000000E+00 0. -1.
         11    1    4    4    0    0  0.84982116206E+02  0.13544894011E+02 -0.30427674010E+03  0.31621157283E+03  0.00000000000E+00 0.  1.
</event>
<event>
 8    1  0.6850220E-009  0.1746906E+03  0.7561462E-02  0.1173043E+00
         -1   -1    0    0    0  501 -0.00000000000E+00  0.00000000000E+00  0.10884855548E+03  0.10884855548E+03  0.00000000000E+00 0.  1.
          1   -1    0    0  501    0  0.00000000000E+00 -0.00000000000E+00 -0.34645133011E+03  0.34645133011E+03  0.00000000000E+00 0. -1.
         25    2    1    2    0    0 -0.70588702975E+02 -0.14517274928E+03 -0.12952653306E+03  0.24183224679E+03  0.12509124950E+03 0.  0.
         23    2    1    2    0    0  0.70588702975E+02  0.14517274928E+03 -0.10807624157E+03  0.21346763879E+03  0.88487664103E+02 0.  0.
          5    1    3    3  502    0 -0.80448191344E+02 -0.15036476672E+03 -0.14389876105E+03  0.22317213175E+03  0.41800000000E+01 0. -1.
         -5    1    3    3    0  502  0.98594883690E+01  0.51920174317E+01  0.14372227990E+02  0.18660115040E+02  0.41800000000E+01 0. -1.
        -11    1    4    4    0    0  0.63973047944E+02  0.85120716999E+02 -0.10990211745E+03  0.15302471286E+03  0.00000000000E+00 0. -1.
         11    1    4    4    0    0  0.66156550303E+01  0.60052032286E+02  0.18258758787E+01  0.60442925938E+02  0.00000000000E+00 0.  1.
</event>
<event>
 8    1  0.6850220E-009  0.1272706E+03  0.7561462E-02  0.1231563E+00
         -1   -1    0    0    0  501 -0.00000000000E+00  0.00000000000E+00  0.34798756883E+02  0.34798756883E+02  0.00000000000E+00 0.  1.
          1   -1    0    0  501    0  0.00000000000E+00 -0.00000000000E+00 -0.95200426596E+03  0.95200426596E+03  0.00000000000E+00 0. -1.
         25    2    1    2    0    0  0.24555501405E+02  0.10946096913E+03 -0.73512127920E+03  0.75407933295E+03  0.12509064250E+03 0.  0.
         23    2    1    2    0    0 -0.24555501405E+02 -0.10946096913E+03 -0.18208422988E+03  0.23272368989E+03  0.91765857775E+02 0.  0.
          5    1    3    3  502    0  0.12674987922E+02  0.68927490555E+02 -0.13237835193E+03  0.14984376775E+03  0.41800000000E+01 0.  1.
         -5    1    3    3    0  502  0.11880513483E+02  0.40533478579E+02 -0.60274292726E+03  0.60423556520E+03  0.41800000000E+01 0.  1.
        -11    1    4    4    0    0  0.32831622909E+02 -0.37322228678E+02 -0.87607032004E+02  0.10072664133E+03  0.00000000000E+00 0.  1.
         11    1    4    4    0    0 -0.57387124314E+02 -0.72138740456E+02 -0.94477197876E+02  0.13199704857E+03  0.00000000000E+00 0. -1.
</event>
<event>
 8    1  0.6850220E-009  0.1093216E+03  0.7561462E-02  0.1261831E+00
          1   -1    0    0  501    0  0.00000000000E+00  0.00000000000E+00  0.90910752166E+02  0.90910752166E+02  0.00000000000E+00 0. -1.
         -1   -1    0    0    0  501 -0.00000000000E+00 -0.00000000000E+00 -0.24770095548E+03  0.24770095548E+03  0.00000000000E+00 0.  1.
         25    2    1    2    0    0 -0.42813556621E+02  0.65606905577E+02 -0.99286628894E+01  0.14793108835E+03  0.12509101432E+03 0.  0.
         23    2    1    2    0    0  0.42813556621E+02 -0.65606905577E+02 -0.14686154043E+03  0.19068061930E+03  0.93024296984E+02 0.  0.
          5    1    3    3  502    0  0.13943926209E+02  0.23919448357E+02 -0.56735769269E+02  0.63269210541E+02  0.41800000000E+01 0. -1.
         -5    1    3    3    0  502 -0.56757482830E+02  0.41687457219E+02  0.46807106380E+02  0.84661877810E+02  0.41800000000E+01 0. -1.
        -11    1    4    4    0    0 -0.27607119474E+02 -0.70054354696E+01 -0.48635884821E+02  0.56362030341E+02  0.00000000000E+00 0.  1.
         11    1    4    4    0    0  0.70420676094E+02 -0.58601470107E+02 -0.98225655605E+02  0.13431858896E+03  0.00000000000E+00 0. -1.
</event>
<event>
 8    1  0.6850220E-009  0.1676919E+03  0.7561462E-02  0.1180276E+00
         -1   -1    0    0    0  501 -0.00000000000E+00  0.00000000000E+00  0.12345763201E+04  0.12345763201E+04  0.00000000000E+00 0.  1.
          1   -1    0    0  501    0  0.00000000000E+00 -0.00000000000E+00 -0.27513487228E+02  0.27513487228E+02  0.00000000000E+00 0. -1.
         25    2    1    2    0    0 -0.23436247295E+02  0.14436474082E+03  0.72789894850E+03  0.75291069404E+03  0.12508876005E+03 0.  0.
         23    2    1    2    0    0  0.23436247295E+02 -0.14436474082E+03  0.47916388438E+03  0.50917911330E+03  0.90966506181E+02 0.  0.
          5    1    3    3  502    0  0.47743764889E+02  0.49228989361E+02  0.35256465431E+03  0.35919669868E+03  0.41800000000E+01 0.  1.
         -5    1    3    3    0  502 -0.71180012183E+02  0.95135751455E+02  0.37533429419E+03  0.39371399535E+03  0.41800000000E+01 0.  1.
        -11    1    4    4    0    0  0.26504286806E+02 -0.10461625925E+03  0.44091681249E+03  0.45393245583E+03  0.00000000000E+00 0.  1.
         11    1    4    4    0    0 -0.30680395110E+01 -0.39748481570E+02  0.38247071893E+02  0.55246657473E+02  0.00000000000E+00 0. -1.
</event>
<event>
 8    1  0.6850220E-009  0.1168565E+03  0.7561462E-02  0.1248375E+00
         -2   -1    0    0    0  501 -0.00000000000E+00  0.00000000000E+00  0.19166801390E+03  0.19166801390E+03  0.00000000000E+00 0.  1.
          2   -1    0    0  501    0  0.00000000000E+00 -0.00000000000E+00 -0.15210136758E+03  0.15210136758E+03  0.00000000000E+00 0. -1.
         25    2    1    2    0    0  0.44283834676E+02  0.74850533156E+02 -0.78484986182E+02  0.17138141998E+03  0.12509211698E+03 0.  0.
         23    2    1    2    0    0 -0.44283834676E+02 -0.74850533156E+02  0.11805163250E+03  0.17238796150E+03  0.90651867098E+02 0.  0.
          5    1    3    3  502    0 -0.23413817812E+01 -0.13410406249E+02  0.24222068428E+02  0.28098079353E+02  0.41800000000E+01 0.  1.
         -5    1    3    3    0  502  0.46625216457E+02  0.88260939405E+02 -0.10270705461E+03  0.14328334063E+03  0.41800000000E+01 0.  1.
        -11    1    4    4    0    0 -0.60235054373E+02 -0.21621792088E+02  0.36410943446E+02  0.73630974942E+02  0.00000000000E+00 0. -1.
         11    1    4    4    0    0  0.15951219697E+02 -0.53228741069E+02  0.81640689054E+02  0.98756986562E+02  0.00000000000E+00 0.  1.
</event>
<event>
 8    1  0.6850220E-009  0.1372672E+03  0.7561462E-02  0.1217054E+00
         -3   -1    0    0    0  501 -0.00000000000E+00  0.00000000000E+00  0.29114822129E+03  0.29114822129E+03  0.00000000000E+00 0.  1.
          3   -1    0    0  501    0  0.00000000000E+00 -0.00000000000E+00 -0.71163830076E+02  0.71163830076E+02  0.00000000000E+00 0. -1.
         25    2    1    2    0    0  0.96518773968E+02 -0.39385625489E+02  0.11919411058E+03  0.20179833897E+03  0.12509289504E+03 0.  0.
         23    2    1    2    0    0 -0.96518773968E+02  0.39385625489E+02  0.10079028063E+03  0.16051371240E+03  0.68839450711E+02 0.  0.
          5    1    3    3  502    0  0.11340065529E+03 -0.58936066155E+02  0.69256223841E+02  0.14542030620E+03  0.41800000000E+01 0.  1.
         -5    1    3    3    0  502 -0.16881881321E+02  0.19550440666E+02  0.49937886738E+02  0.56378032770E+02  0.41800000000E+01 0.  1.
        -11    1    4    4    0    0 -0.88523547535E+02  0.54104303314E+02  0.69052875397E+02  0.12462741956E+03  0.00000000000E+00 0. -1.
         11    1    4    4    0    0 -0.79952264331E+01 -0.14718677824E+02  0.31737405238E+02  0.35886292841E+02  0.00000000000E+00 0.  1.
</event>
<event>
 8    1  0.6850220E-009  0.1684112E+03  0.7561462E-02  0.1179515E+00
          1   -1    0    0  501    0  0.00000000000E+00  0.00000000000E+00  0.33050429853E+03  0.33050429853E+03  0.00000000000E+00 0. -1.
         -1   -1    0    0    0  501 -0.00000000000E+00 -0.00000000000E+00 -0.22776067998E+03  0.22776067998E+03  0.00000000000E+00 0.  1.
         25    2    1    2    0    0 -0.23005342311E+02 -0.13932001087E+03  0.26136912191E+03  0.32233872676E+03  0.12509646548E+03 0.  0.
         23    2    1    2    0    0  0.23005342311E+02  0.13932001087E+03 -0.15862550337E+03  0.23592625176E+03  0.10276105658E+03 0.  0.
          5    1    3    3  502    0  0.24407512277E+02  0.68033918245E+01  0.83073184043E+02  0.86951935591E+02  0.41800000000E+01 0. -1.
         -5    1    3    3    0  502 -0.47412854588E+02 -0.14612340269E+03  0.17829593787E+03  0.23538679116E+03  0.41800000000E+01 0. -1.
        -11    1    4    4    0    0  0.12311273565E+02 -0.46019880006E+01 -0.59279674298E+02  0.60719235298E+02  0.00000000000E+00 0.  1.
         11    1    4    4    0    0  0.10694068746E+02  0.14392199887E+03 -0.99345829068E+02  0.17520701646E+03  0.00000000000E+00 0. -1.
</event>
<event>
 8    1  0.6850220E-009  0.1892646E+03  0.7561462E-02  0.1159126E+00
         -1   -1    0    0    0  501 -0.00000000000E+00  0.00000000000E+00  0.93170708592E+02  0.93170708592E+02  0.00000000000E+00 0.  1.
          1   -1    0    0  501    0  0.00000000000E+00 -0.00000000000E+00 -0.50287686411E+03  0.50287686411E+03  0.00000000000E+00 0. -1.
         25    2    1    2    0    0  0.13536961209E+03  0.12515723162E+03 -0.17198401770E+03  0.28145101156E+03  0.12508758954E+03 0.  0.
         23    2    1    2    0    0 -0.13536961209E+03 -0.12515723162E+03 -0.23772213782E+03  0.31459656114E+03  0.92032151833E+02 0.  0.
          5    1    3    3  502    0  0.10399566589E+03  0.92690520954E+02 -0.44748818123E+02  0.14637814155E+03  0.41800000000E+01 0. -1.
         -5    1    3    3    0  502  0.31373946199E+02  0.32466710668E+02 -0.12723519958E+03  0.13507287001E+03  0.41800000000E+01 0. -1.
        -11    1    4    4    0    0 -0.78312034941E+02 -0.32048260199E+02 -0.52498856070E+02  0.99579092620E+02  0.00000000000E+00 0.  1.
         11    1    4    4    0    0 -0.57057577149E+02 -0.93108971423E+02 -0.18522328175E+03  0.21501746852E+03  0.00000000000E+00 0. -1.
</event>
<event>
 8    1  0.6850220E-009  0.9990047E+02  0.7561462E-02  0.1280505E+00
         -1   -1    0    0    0  501 -0.00000000000E+00  0.00000000000E+00  0.16202493959E+02  0.16202493959E+02  0.00000000000E+00 0.  1.
          1   -1    0    0  501    0  0.00000000000E+00 -0.00000000000E+00 -0.74336335450E+03  0.74336335450E+03  0.00000000000E+00 0. -1.
         25    2    1    2    0    0  0.74954399865E+01  0.25984856132E+02 -0.44583621590E+03  0.46384153967E+03  0.12509055981E+03 0.  0.
         23    2    1    2    0    0 -0.74954399865E+01 -0.25984856132E+02 -0.28132464464E+03  0.29572430878E+03  0.87051230622E+02 0.  0.
          5    1    3    3  502    0  0.50587149321E+02 -0.27506127810E+02 -0.16937028931E+03  0.17893969388E+03  0.41800000000E+01 0. -1.
         -5    1    3    3    0  502 -0.43091709335E+02  0.53490983942E+02 -0.27646592658E+03  0.28490184580E+03  0.41800000000E+01 0. -1.
        -11    1    4    4    0    0  0.21096989277E+02 -0.37015302119E+02 -0.24273602121E+03  0.24644673165E+03  0.00000000000E+00 0. -1.
         11    1    4    4    0    0 -0.28592429263E+02  0.11030445986E+02 -0.38588623436E+02  0.49277577137E+02  0.00000000000E+00 0.  1.
</event>
<event>
 8    1  0.6850220E-009  0.1135803E+03  0.7561462E-02  0.1254080E+00
         -3   -1    0    0    0  501 -0.00000000000E+00  0.00000000000E+00  0.40531191204E+03  0.40531191204E+03  0.00000000000E+00 0.  1.
          3   -1    0    0  501    0  0.00000000000E+00 -0.00000000000E+00 -0.50064895655E+02  0.50064895655E+02  0.00000000000E+00 0. -1.
         25    2    1    2    0    0 -0.90638894938E+02 -0.15183387471E+02  0.20004690507E+03  0.25320693434E+03  0.12509613438E+03 0.  0.
         23    2    1    2    0    0  0.90638894938E+02  0.15183387471E+02  0.15520011131E+03  0.20216987335E+03  0.91321621814E+02 0.  0.
          5    1    3    3  502    0  0.16597185447E+02  0.48824724542E+01  0.11072498525E+03  0.11214633236E+03  0.41800000000E+01 0. -1.
         -5    1    3    3    0  502 -0.10723608038E+03 -0.20065859926E+02  0.89321919821E+02  0.14106060198E+03  0.41800000000E+01 0. -1.
        -11    1    4    4    0    0  0.47214158562E+02 -0.12304901064E+02  0.12312729199E+02  0.50320876972E+02  0.00000000000E+00 0. -1.
         11    1    4    4    0    0  0.43424736376E+02  0.27488288535E+02  0.14288738211E+03  0.15184899638E+03  0.00000000000E+00 0.  1.
</event>
<event>
 8    1  0.6850220E-009  0.1384745E+03  0.7561462E-02  0.1215396E+00
         -2   -1    0    0    0  501 -0.00000000000E+00  0.00000000000E+00  0.23113989611E+02  0.23113989611E+02  0.00000000000E+00 0.  1.
          2   -1    0    0  501    0  0.00000000000E+00 -0.00000000000E+00 -0.85099713993E+03  0.85099713993E+03  0.00000000000E+00 0. -1.
         25    2    1    2    0    0 -0.81119030871E+02 -0.16267927315E+02 -0.51397324061E+03  0.53541537386E+03  0.12512468933E+03 0.  0.
         23    2    1    2    0    0  0.81119030871E+02  0.16267927315E+02 -0.31390990971E+03  0.33869575568E+03  0.96594207230E+02 0.  0.
          5    1    3    3  502    0  0.30462268507E+02 -0.22389911978E+02 -0.12059683447E+03  0.12645286413E+03  0.41800000000E+01 0. -1.
         -5    1    3    3    0  502 -0.11158129938E+03  0.61219846633E+01 -0.39337640613E+03  0.40896250974E+03  0.41800000000E+01 0. -1.
        -11    1    4    4    0    0  0.35941346518E+02  0.56253165602E+02 -0.15828538939E+03  0.17178609817E+03  0.00000000000E+00 0. -1.
         11    1    4    4    0    0  0.45177684353E+02 -0.39985238287E+02 -0.15562452032E+03  0.16690965751E+03  0.00000000000E+00 0.  1.
</event>
<event>
 8    1  0.6850220E-009  0.1636805E+03  0.7561462E-02  0.1184603E+00
          1   -1    0    0  501    0  0.00000000000E+00  0.00000000000E+00  0.64728342189E+02  0.64728342189E+02  0.00000000000E+00 0. -1.
         -1   -1    0    0    0  501 -0.00000000000E+00 -0.00000000000E+00 -0.42312111746E+03  0.42312111746E+03  0.00000000000E+00 0.  1.
         25    2    1    2    0    0  0.11771820414E+03 -0.31911004817E+02 -0.17542522838E+03  0.24758365673E+03  0.12509104090E+03 0.  0.
         23    2    1    2    0    0 -0.11771820414E+03  0.31911004817E+02 -0.18296754689E+03  0.24026580292E+03  0.96822750545E+02 0.  0.
          5    1    3    3  502    0  0.28146061182E+02 -0.71291484948E+02 -0.75534786548E+02  0.10769239975E+03  0.41800000000E+01 0.  1.
         -5    1    3    3    0  502  0.89572142953E+02  0.39380480130E+02 -0.99890441828E+02  0.13989125697E+03  0.41800000000E+01 0.  1.
        -11    1    4    4    0    0 -0.13044334266E+02 -0.28829949726E+02 -0.59419656657E+02  0.67320251447E+02  0.00000000000E+00 0. -1.
         11    1    4    4    0    0 -0.10467386987E+03  0.60740954543E+02 -0.12354789023E+03  0.17294555147E+03  0.00000000000E+00 0.  1.
</event>
<event>
 8    1  0.6850220E-009  0.1925462E+03  0.7561462E-02  0.1156185E+00
          1   -1    0    0  501    0  0.00000000000E+00  0.00000000000E+00  0.19608200071E+04  0.19608200071E+04  0.00000000000E+00 0. -1.
         -1   -1    0    0    0  501 -0.00000000000E+00 -0.00000000000E+00 -0.21431619674E+02  0.21431619674E+02  0.00000000000E+00 0.  1.
         25    2    1    2    0    0 -0.75461781417E+02 -0.15257030934E+03  0.12163105355E+04  0.12345168632E+04  0.12509351249E+03 0.  0.
         23    2    1    2    0    0  0.75461781417E+02  0.15257030934E+03  0.72307785191E+03  0.74773476362E+03  0.85402090434E+02 0.  0.
          5    1    3    3  502    0 -0.10573614504E+03 -0.14542491095E+03  0.10352071225E+04  0.10507139459E+04  0.41800000000E+01 0. -1.
         -5    1    3    3    0  502  0.30274363625E+02 -0.71453983896E+01  0.18110341299E+03  0.18380291730E+03  0.41800000000E+01 0. -1.
        -11    1    4    4    0    0  0.10052987629E+02  0.58034230842E+02  0.11856542957E+03  0.13238880466E+03  0.00000000000E+00 0.  1.
         11    1    4    4    0    0  0.65408793788E+02  0.94536078500E+02  0.60451242234E+03  0.61534595896E+03  0.00000000000E+00 0. -1.
</event>
<event>
 8    1  0.6850220E-009  0.1304630E+03  0.7561462E-02  0.1226770E+00
          1   -1    0    0  501    0  0.00000000000E+00  0.00000000000E+00  0.10416712482E+04  0.10416712482E+04  0.00000000000E+00 0. -1.
         -1   -1    0    0    0  501 -0.00000000000E+00 -0.00000000000E+00 -0.22575131770E+02  0.22575131770E+02  0.00000000000E+00 0.  1.
         25    2    1    2    0    0  0.16429546984E+02  0.76492667068E+02  0.80736477433E+03  0.82073492974E+03  0.12508752112E+03 0.  0.
         23    2    1    2    0    0 -0.16429546984E+02 -0.76492667068E+02  0.21173134208E+03  0.24351145020E+03  0.91359767043E+02 0.  0.
          5    1    3    3  502    0 -0.54529835119E+02  0.35067567372E+02  0.38241678804E+03  0.38789600330E+03  0.41800000000E+01 0.  1.
         -5    1    3    3    0  502  0.70959382102E+02  0.41425099696E+02  0.42494798629E+03  0.43283892644E+03  0.41800000000E+01 0.  1.
        -11    1    4    4    0    0 -0.12303798135E+02 -0.94456780009E+02  0.20036994048E+03  0.22185936939E+03  0.00000000000E+00 0. -1.
         11    1    4    4    0    0 -0.41257488483E+01  0.17964112941E+02  0.11361401594E+02  0.21652080812E+02  0.00000000000E+00 0.  1.
</event>
<event>
 8    1  0.6850220E-009  0.7046989E+02  0.7561462E-02  0.1358502E+00
         -1   -1    0    0    0  501 -0.00000000000E+00  0.00000000000E+00  0.19514936308E+02  0.19514936308E+02  0.00000000000E+00 0.  1.
          1   -1    0    0  501    0  0.00000000000E+00 -0.00000000000E+00 -0.73812577040E+03  0.73812577040E+03  0.00000000000E+00 0. -1.
         25    2    1    2    0    0  0.29965534387E+02 -0.32087492302E+02 -0.31656202818E+03  0.34319974727E+03  0.12508800273E+03 0.  0.
         23    2    1    2    0    0 -0.29965534387E+02  0.32087492302E+02 -0.40204880591E+03  0.41444095943E+03  0.90501525458E+02 0.  0.
          5    1    3    3  502    0  0.34465958395E+02 -0.15474082891E+02 -0.14599449052E+02  0.40718126701E+02  0.41800000000E+01 0.  1.
         -5    1    3    3    0  502 -0.45004240083E+01 -0.16613409411E+02 -0.30196257913E+03  0.30248162057E+03  0.41800000000E+01 0.  1.
        -11    1    4    4    0    0  0.21931042976E+02 -0.36123334054E+01 -0.31356820530E+02  0.38435267560E+02  0.00000000000E+00 0.  1.
         11    1    4    4    0    0 -0.51896577363E+02  0.35699825707E+02 -0.37069198538E+03  0.37600569187E+03  0.00000000000E+00 0. -1.
</event>
<event>
 8    1  0.6850220E-009  0.6558178E+02  0.7561462E-02  0.1375796E+00
          2   -1    0    0  501    0  0.00000000000E+00  0.00000000000E+00  0.28279124677E+03  0.28279124677E+03  0.00000000000E+00 0. -1.
         -2   -1    0    0    0  501 -0.00000000000E+00 -0.00000000000E+00 -0.47140009131E+02  0.47140009131E+02  0.00000000000E+00 0.  1.
         25    2    1    2    0    0 -0.21671287129E+02 -0.29558772743E+02  0.15652816270E+03  0.20369687046E+03  0.12509190056E+03 0.  0.
         23    2    1    2    0    0  0.21671287129E+02  0.29558772743E+02  0.79123074938E+02  0.12623438544E+03  0.91275918769E+02 0.  0.
          5    1    3    3  502    0 -0.44470828252E+01 -0.23435899496E+02  0.17541690240E+03  0.17708071600E+03  0.41800000000E+01 0. -1.
         -5    1    3    3    0  502 -0.17224204304E+02 -0.61228732476E+01 -0.18888739703E+02  0.26616154461E+02  0.41800000000E+01 0. -1.
        -11    1    4    4    0    0 -0.29339480084E+02  0.20439649863E+00  0.22604349222E+01  0.29427137740E+02  0.00000000000E+00 0.  1.
         11    1    4    4    0    0  0.51010767214E+02  0.29354376245E+02  0.76862640016E+02  0.96807247697E+02  0.00000000000E+00 0. -1.
</event>
<event>
 8    1  0.6850220E-009  0.1818447E+03  0.7561462E-02  0.1166030E+00
          1   -1    0    0  501    0  0.00000000000E+00  0.00000000000E+00  0.47740812635E+03  0.47740812635E+03  0.00000000000E+00 0. -1.
         -1   -1    0    0    0  501 -0.00000000000E+00 -0.00000000000E+00 -0.81038793152E+02  0.81038793152E+02  0.00000000000E+00 0.  1.
         25    2    1    2    0    0  0.98682808165E+02 -0.12615195706E+03  0.15973725762E+03  0.25848381628E+03  0.12508108933E+03 0.  0.
         23    2    1    2    0    0 -0.98682808165E+02  0.12615195706E+03  0.23663207559E+03  0.29996310323E+03  0.91271634176E+02 0.  0.
          5    1    3    3  502    0  0.10600243075E+02  0.25042150631E+02  0.29327017865E+02  0.40212197632E+02  0.41800000000E+01 0.  1.
         -5    1    3    3    0  502  0.88082565090E+02 -0.15119410769E+03  0.13041023975E+03  0.21827161864E+03  0.41800000000E+01 0.  1.
        -11    1    4    4    0    0 -0.32680572960E+02  0.55908218545E+02  0.17232915516E+03  0.18409531898E+03  0.00000000000E+00 0. -1.
         11    1    4    4    0    0 -0.66002235205E+02  0.70243738518E+02  0.64302920425E+02  0.11586778426E+03  0.00000000000E+00 0.  1.
</event>
<event>
 8    1  0.6850220E-009  0.2548343E+03  0.7561462E-02  0.1110287E+00
         -2   -1    0    0    0  501 -0.00000000000E+00  0.00000000000E+00  0.13387621961E+03  0.13387621961E+03  0.00000000000E+00 0. -1.
          2   -1    0    0  501    0  0.00000000000E+00 -0.00000000000E+00 -0.56310651046E+03  0.56310651046E+03  0.00000000000E+00 0.  1.
         25    2    1    2    0    0  0.19505097277E+03 -0.13954207785E+03 -0.12056764141E+03  0.29614204985E+03  0.12508670619E+03 0.  0.
         23    2    1    2    0    0 -0.19505097277E+03  0.13954207785E+03 -0.30866264944E+03  0.40084068022E+03  0.88790462872E+02 0.  0.
          5    1    3    3  502    0  0.10280248308E+03 -0.69336562896E+01 -0.77241932875E+02  0.12884182051E+03  0.41800000000E+01 0.  1.
         -5    1    3    3    0  502  0.92248489687E+02 -0.13260842156E+03 -0.43325708537E+02  0.16730022934E+03  0.41800000000E+01 0.  1.
        -11    1    4    4    0    0 -0.90742089824E+02  0.34951528029E+02 -0.18160066179E+03  0.20599644788E+03  0.00000000000E+00 0.  1.
         11    1    4    4    0    0 -0.10430888295E+03  0.10459054982E+03 -0.12706198765E+03  0.19484423234E+03  0.00000000000E+00 0. -1.
</event>
<event>
 8    1  0.6850220E-009  0.1831726E+03  0.7561462E-02  0.1164767E+00
         -2   -1    0    0    0  501 -0.00000000000E+00  0.00000000000E+00  0.36918685811E+03  0.36918685811E+03  0.00000000000E+00 0.  1.
          2   -1    0    0  501    0  0.00000000000E+00 -0.00000000000E+00 -0.95083649295E+02  0.95083649295E+02  0.00000000000E+00 0. -1.
         25    2    1    2    0    0 -0.14965279165E+03 -0.21860290541E+02  0.11739580034E+03  0.22869722321E+03  0.12508723203E+03 0.  0.
         23    2    1    2    0    0  0.14965279165E+03  0.21860290541E+02  0.15670740847E+03  0.23557328419E+03  0.89798273935E+02 0.  0.
          5    1    3    3  502    0 -0.15736275084E+03 -0.51212294520E+02  0.10158699238E+03  0.19422441629E+03  0.41800000000E+01 0.  1.
         -5    1    3    3    0  502  0.77099591849E+01  0.29352003979E+02  0.15808807960E+02  0.34472806925E+02  0.41800000000E+01 0.  1.
        -11    1    4    4    0    0  0.13827378804E+03  0.44145389472E+02  0.15188761214E+03  0.21009117685E+03  0.00000000000E+00 0.  1.
         11    1    4    4    0    0  0.11379003615E+02 -0.22285098931E+02  0.48197963328E+01  0.25482107337E+02  0.00000000000E+00 0. -1.
</event>
<event>
 8    1  0.6850220E-009  0.1212753E+03  0.7561462E-02  0.1241008E+00
         -1   -1    0    0    0  501 -0.00000000000E+00  0.00000000000E+00  0.44829874671E+02  0.44829874671E+02  0.00000000000E+00 0.  1.
          1   -1    0    0  501    0  0.00000000000E+00 -0.00000000000E+00 -0.39196463769E+03  0.39196463769E+03  0.00000000000E+00 0. -1.
         25    2    1    2    0    0  0.71942573867E+02  0.13120880044E+02 -0.18873737861E+03  0.23793745882E+03  0.12507815475E+03 0.  0.
         23    2    1    2    0    0 -0.71942573867E+02 -0.13120880044E+02 -0.15839738440E+03  0.19885705354E+03  0.95428009143E+02 0.  0.
          5    1    3    3  502    0  0.80121064530E+02  0.57236947637E+02 -0.11428834275E+03  0.15091305724E+03  0.41800000000E+01 0.  1.
         -5    1    3    3    0  502 -0.81784906631E+01 -0.44116067593E+02 -0.74449035859E+02  0.87024401576E+02  0.41800000000E+01 0.  1.
        -11    1    4    4    0    0 -0.98320550052E+01  0.24444221504E+02 -0.19846099321E+01  0.26422110952E+02  0.00000000000E+00 0.  1.
         11    1    4    4    0    0 -0.62110518862E+02 -0.37565101548E+02 -0.15641277447E+03  0.17243494259E+03  0.00000000000E+00 0. -1.
</event>
<event>
 8    1  0.6850220E-009  0.8620521E+02  0.7561462E-02  0.1312311E+00
          1   -1    0    0  501    0  0.00000000000E+00  0.00000000000E+00  0.10542586521E+04  0.10542586521E+04  0.00000000000E+00 0. -1.
         -1   -1    0    0    0  501 -0.00000000000E+00 -0.00000000000E+00 -0.15113882926E+02  0.15113882926E+02  0.00000000000E+00 0.  1.
         25    2    1    2    0    0 -0.62043740076E+02 -0.14930936439E+02  0.61916820600E+03  0.63489315406E+03  0.12509073192E+03 0.  0.
         23    2    1    2    0    0  0.62043740076E+02  0.14930936439E+02  0.41997656314E+03  0.43447938092E+03  0.91212171978E+02 0.  0.
          5    1    3    3  502    0 -0.12594139940E+02  0.15020442966E+02  0.89871360523E+01  0.21965133329E+02  0.41800000000E+01 0.  1.
         -5    1    3    3    0  502 -0.49449600136E+02 -0.29951379406E+02  0.61018106994E+03  0.61292802073E+03  0.41800000000E+01 0.  1.
        -11    1    4    4    0    0  0.73136333325E+01 -0.25391637478E+02  0.36712196806E+02  0.45232840732E+02  0.00000000000E+00 0.  1.
         11    1    4    4    0    0  0.54730106744E+02  0.40322573918E+02  0.38326436633E+03  0.38924654019E+03  0.00000000000E+00 0. -1.
</event>
<event>
 8    1  0.6850220E-009  0.1000904E+03  0.7561462E-02  0.1280106E+00
         -1   -1    0    0    0  501 -0.00000000000E+00  0.00000000000E+00  0.18776977788E+02  0.18776977788E+02  0.00000000000E+00 0.  1.
          1   -1    0    0  501    0  0.00000000000E+00 -0.00000000000E+00 -0.88480822771E+03  0.88480822771E+03  0.00000000000E+00 0. -1.
         25    2    1    2    0    0 -0.38320488936E+02  0.57343677261E+02 -0.52787820443E+03  0.54686356527E+03  0.12509037978E+03 0.  0.
         23    2    1    2    0    0  0.38320488936E+02 -0.57343677261E+02 -0.33815304549E+03  0.35672164023E+03  0.90255688115E+02 0.  0.
          5    1    3    3  502    0 -0.52890417016E+02  0.48174423219E+02 -0.12881560707E+03  0.14740795192E+03  0.41800000000E+01 0. -1.
         -5    1    3    3    0  502  0.14569928080E+02  0.91692540415E+01 -0.39906259736E+03  0.39945561335E+03  0.41800000000E+01 0. -1.
        -11    1    4    4    0    0  0.24081461805E+02  0.20525425153E+02 -0.13575914650E+03  0.13939783262E+03  0.00000000000E+00 0.  1.
         11    1    4    4    0    0  0.14239027130E+02 -0.77869102414E+02 -0.20239389899E+03  0.21732380761E+03  0.00000000000E+00 0. -1.
</event>
<event>
 8    1  0.6850220E-009  0.1031074E+03  0.7561462E-02  0.1273894E+00
         -1   -1    0    0    0  501 -0.00000000000E+00  0.00000000000E+00  0.24946186703E+03  0.24946186703E+03  0.00000000000E+00 0.  1.
          1   -1    0    0  501    0  0.00000000000E+00 -0.00000000000E+00 -0.56194052598E+02  0.56194052598E+02  0.00000000000E+00 0. -1.
         25    2    1    2    0    0 -0.16483824463E+02  0.20020699753E+01  0.16160947212E+03  0.20504105858E+03  0.12509392260E+03 0.  0.
         23    2    1    2    0    0  0.16483824463E+02 -0.20020699753E+01  0.31658342314E+02  0.10061486105E+03  0.94049853124E+02 0.  0.
          5    1    3    3  502    0 -0.39939844387E+02 -0.45915906477E+02  0.42157885857E+02  0.74149992429E+02  0.41800000000E+01 0.  1.
         -5    1    3    3    0  502  0.23456019924E+02  0.47917976452E+02  0.11945158626E+03  0.13089106615E+03  0.41800000000E+01 0.  1.
        -11    1    4    4    0    0  0.48554014030E+00  0.43482358385E+02  0.10377562296E+01  0.43497450247E+02  0.00000000000E+00 0. -1.
         11    1    4    4    0    0  0.15998284323E+02 -0.45484428361E+02  0.30620586085E+02  0.57117410802E+02  0.00000000000E+00 0.  1.
</event>
<event>
 8    1  0.6850220E-009  0.1058857E+03  0.7561462E-02  0.1268384E+00
          1   -1    0    0  501    0  0.00000000000E+00  0.00000000000E+00  0.29528376160E+02  0.29528376160E+02  0.00000000000E+00 0. -1.
         -1   -1    0    0    0  501 -0.00000000000E+00 -0.00000000000E+00 -0.40089740503E+03  0.40089740503E+03  0.00000000000E+00 0.  1.
         25    2    1    2    0    0 -0.11668686789E+02  0.67200373092E+00 -0.22575179738E+03  0.25835764047E+03  0.12509271172E+03 0.  0.
         23    2    1    2    0    0  0.11668686789E+02 -0.67200373092E+00 -0.14561723149E+03  0.17206814073E+03  0.90920058873E+02 0.  0.
          5    1    3    3  502    0 -0.64465134442E+02 -0.11867299116E+02 -0.84791503491E+02  0.10725510622E+03  0.41800000000E+01 0.  1.
         -5    1    3    3    0  502  0.52796447653E+02  0.12539302847E+02 -0.14096029389E+03  0.15110253424E+03  0.41800000000E+01 0.  1.
        -11    1    4    4    0    0 -0.39572780676E+02  0.58732708085E+01 -0.62738944519E+02  0.74408839796E+02  0.00000000000E+00 0. -1.
         11    1    4    4    0    0  0.51241467465E+02 -0.65452745394E+01 -0.82878286971E+02  0.97659300929E+02  0.00000000000E+00 0.  1.
</event>
<event>
 8    1  0.6850220E-009  0.1552646E+03  0.7561462E-02  0.1194149E+00
         -1   -1    0    0    0  501 -0.00000000000E+00  0.00000000000E+00  0.13110432118E+03  0.13110432118E+03  0.00000000000E+00 0.  1.
          1   -1    0    0  501    0  0.00000000000E+00 -0.00000000000E+00 -0.22527743914E+03  0.22527743914E+03  0.00000000000E+00 0. -1.
         25    2    1    2    0    0  0.30531487394E+02 -0.12730040247E+03 -0.15043236679E+02  0.18168926317E+03  0.12508846946E+03 0.  0.
         23    2    1    2    0    0 -0.30531487394E+02  0.12730040247E+03 -0.79129881275E+02  0.17469249715E+03  0.84370411032E+02 0.  0.
          5    1    3    3  502    0  0.61513311035E+02 -0.12287661027E+03 -0.38022538386E+02  0.14263847521E+03  0.41800000000E+01 0. -1.
         -5    1    3    3    0  502 -0.30981823641E+02 -0.44237922005E+01  0.22979301707E+02  0.39050787962E+02  0.41800000000E+01 0. -1.
        -11    1    4    4    0    0  0.74038863230E+01  0.82251070704E+02 -0.81125498895E+02  0.11576442776E+03  0.00000000000E+00 0. -1.
         11    1    4    4    0    0 -0.37935373717E+02  0.45049331763E+02  0.19956176198E+01  0.58928069382E+02  0.00000000000E+00 0.  1.
</event>
<event>
 8    1  0.6850220E-009  0.1060128E+03  0.7561462E-02  0.1268137E+00
          1   -1    0    0  501    0  0.00000000000E+00  0.00000000000E+00  0.23325296812E+03  0.23325296812E+03  0.00000000000E+00 0. -1.
         -1   -1    0    0    0  501 -0.00000000000E+00 -0.00000000000E+00 -0.69327613894E+02  0.69327613894E+02  0.00000000000E+00 0.  1.
         25    2    1    2    0    0 -0.16044224602E+02 -0.10622197798E+02  0.18614589154E+02  0.12792311468E+03  0.12509025586E+03 0.  0.
         23    2    1    2    0    0  0.16044224602E+02  0.10622197798E+02  0.14531076507E+03  0.17465746734E+03  0.94972439273E+02 0.  0.
          5    1    3    3  502    0  0.44269440466E+02 -0.32993503967E+02  0.29196080177E+02  0.62595831818E+02  0.41800000000E+01 0.  1.
         -5    1    3    3    0  502 -0.60313665068E+02  0.22371306170E+02 -0.10581491023E+02  0.65327282861E+02  0.41800000000E+01 0.  1.
        -11    1    4    4    0    0 -0.55242143757E+01  0.48386933455E+02  0.49514071084E+02  0.69451101568E+02  0.00000000000E+00 0. -1.
         11    1    4    4    0    0  0.21568438977E+02 -0.37764735657E+02  0.95796693991E+02  0.10520636577E+03  0.00000000000E+00 0.  1.
</event>
<event>
 8    1  0.6850220E-009  0.9373900E+02  0.7561462E-02  0.1294042E+00
         -2   -1    0    0    0  501 -0.00000000000E+00  0.00000000000E+00  0.12404574369E+03  0.12404574369E+03  0.00000000000E+00 0. -1.
          2   -1    0    0  501    0  0.00000000000E+00 -0.00000000000E+00 -0.16662557657E+03  0.16662557657E+03  0.00000000000E+00 0.  1.
         25    2    1    2    0    0 -0.29238299911E+02 -0.32847729853E+02  0.57884095461E+02  0.14465334788E+03  0.12506066931E+03 0.  0.
         23    2    1    2    0    0  0.29238299911E+02  0.32847729853E+02 -0.10046392834E+03  0.14601797237E+03  0.96407446916E+02 0.  0.
          5    1    3    3  502    0 -0.52733903987E+02 -0.59548033983E+02  0.70815398834E+02  0.10657920103E+03  0.41800000000E+01 0.  1.
         -5    1    3    3    0  502  0.23495604076E+02  0.26700304129E+02 -0.12931303373E+02  0.38074146851E+02  0.41800000000E+01 0.  1.
        -11    1    4    4    0    0 -0.69296823413E+01 -0.12330128396E+02 -0.84926961556E+02  0.86096697746E+02  0.00000000000E+00 0.  1.
         11    1    4    4    0    0  0.36167982252E+02  0.45177858250E+02 -0.15536966782E+02  0.59921274628E+02  0.00000000000E+00 0. -1.
</event>
<event>
 8    1  0.6850220E-009  0.1361323E+03  0.7561462E-02  0.1218630E+00
          1   -1    0    0  501    0  0.00000000000E+00  0.00000000000E+00  0.34089236035E+02  0.34089236035E+02  0.00000000000E+00 0. -1.
         -1   -1    0    0    0  501 -0.00000000000E+00 -0.00000000000E+00 -0.54681824713E+03  0.54681824713E+03  0.00000000000E+00 0.  1.
         25    2    1    2    0    0  0.13155034532E+02 -0.72888334552E+02 -0.27969884066E+03  0.31522190334E+03  0.12509053773E+03 0.  0.
         23    2    1    2    0    0 -0.13155034532E+02  0.72888334552E+02 -0.23303017044E+03  0.26568557983E+03  0.10392306168E+03 0.  0.
          5    1    3    3  502    0 -0.55533638011E+02 -0.26395024683E+02 -0.13456206029E+03  0.14800372545E+03  0.41800000000E+01 0. -1.
         -5    1    3    3    0  502  0.68688672543E+02 -0.46493309869E+02 -0.14513678038E+03  0.16721817789E+03  0.41800000000E+01 0. -1.
        -11    1    4    4    0    0  0.38021900699E+02  0.65696723759E+02 -0.14145265825E+03  0.16053217426E+03  0.00000000000E+00 0.  1.
         11    1    4    4    0    0 -0.51176935230E+02  0.71916107930E+01 -0.91577512182E+02  0.10515340557E+03  0.00000000000E+00 0. -1.
</event>
<event>
 8    1  0.6850220E-009  0.9886134E+02  0.7561462E-02  0.1282709E+00
          2   -1    0    0  501    0  0.00000000000E+00  0.00000000000E+00  0.22356117355E+03  0.22356117355E+03  0.00000000000E+00 0. -1.
         -2   -1    0    0    0  501 -0.00000000000E+00 -0.00000000000E+00 -0.73892600841E+02  0.73892600841E+02  0.00000000000E+00 0.  1.
         25    2    1    2    0    0 -0.68003436749E+02 -0.11734121084E+02  0.73295606250E+02  0.16056478704E+03  0.12508656177E+03 0.  0.
         23    2    1    2    0    0  0.68003436749E+02  0.11734121084E+02  0.76372966462E+02  0.13688898735E+03  0.90241940607E+02 0.  0.
          5    1    3    3  502    0 -0.77718015889E+02  0.18586286884E+02  0.93158044916E+02  0.12280648919E+03  0.41800000000E+01 0.  1.
         -5    1    3    3    0  502  0.97145791404E+01 -0.30320407968E+02 -0.19862438666E+02  0.37758297856E+02  0.41800000000E+01 0.  1.
        -11    1    4    4    0    0  0.13563064724E+02  0.25989877741E+02 -0.12360013406E+02  0.31815097062E+02  0.00000000000E+00 0.  1.
         11    1    4    4    0    0  0.54440372025E+02 -0.14255756657E+02  0.88732979868E+02  0.10507389029E+03  0.00000000000E+00 0. -1.
</event>
<event>
 8    1  0.6850220E-009  0.1013541E+03  0.7561462E-02  0.1277474E+00
         -2   -1    0    0    0  501 -0.00000000000E+00  0.00000000000E+00  0.20173989643E+03  0.20173989643E+03  0.00000000000E+00 0. -1.
          2   -1    0    0  501    0  0.00000000000E+00 -0.00000000000E+00 -0.80861841260E+02  0.80861841260E+02  0.00000000000E+00 0.  1.
         25    2    1    2    0    0  0.50686208781E+02  0.50695190342E+02  0.72979635490E+02  0.16158913524E+03  0.12508368137E+03 0.  0.
         23    2    1    2    0    0 -0.50686208781E+02 -0.50695190342E+02  0.47898419682E+02  0.12101260246E+03  0.84915824560E+02 0.  0.
          5    1    3    3  502    0  0.67318338759E+01  0.65307203529E+02  0.90505617135E+02  0.11188872845E+03  0.41800000000E+01 0. -1.
         -5    1    3    3    0  502  0.43954374905E+02 -0.14612013187E+02 -0.17525981644E+02  0.49700406792E+02  0.41800000000E+01 0. -1.
        -11    1    4    4    0    0 -0.30532624241E+02 -0.60675726875E+02 -0.19007538496E+00  0.67925113938E+02  0.00000000000E+00 0.  1.
         11    1    4    4    0    0 -0.20153584540E+02  0.99805365332E+01  0.48088495067E+02  0.53087488518E+02  0.00000000000E+00 0. -1.
</event>
<event>
 8    1  0.6850220E-009  0.1129739E+03  0.7561462E-02  0.1255160E+00
          2   -1    0    0  501    0  0.00000000000E+00  0.00000000000E+00  0.26183702649E+02  0.26183702649E+02  0.00000000000E+00 0. -1.
         -2   -1    0    0    0  501 -0.00000000000E+00 -0.00000000000E+00 -0.49929792504E+03  0.49929792504E+03  0.00000000000E+00 0.  1.
         25    2    1    2    0    0  0.33971156934E+02  0.13517444956E+02 -0.28668710809E+03  0.31491801535E+03  0.12508835927E+03 0.  0.
         23    2    1    2    0    0 -0.33971156934E+02 -0.13517444956E+02 -0.18642711431E+03  0.21056361235E+03  0.90803111586E+02 0.  0.
          5    1    3    3  502    0  0.81047499488E+02  0.66903870497E+01 -0.20013424186E+03  0.21606629913E+03  0.41800000000E+01 0.  1.
         -5    1    3    3    0  502 -0.47076342554E+02  0.68270579063E+01 -0.86552866224E+02  0.98851716219E+02  0.41800000000E+01 0.  1.
        -11    1    4    4    0    0 -0.23485685130E+02 -0.51905109469E+02 -0.93732414786E+02  0.10968811867E+03  0.00000000000E+00 0.  1.
         11    1    4    4    0    0 -0.10485471804E+02  0.38387664513E+02 -0.92694699520E+02  0.10087549368E+03  0.00000000000E+00 0. -1.
</event>
<event>
 8    1  0.6850220E-009  0.1012558E+03  0.7561462E-02  0.1277677E+00
          4   -1    0    0  501    0  0.00000000000E+00  0.00000000000E+00  0.37694221999E+03  0.37694221999E+03  0.00000000000E+00 0. -1.
         -4   -1    0    0    0  501 -0.00000000000E+00 -0.00000000000E+00 -0.36355427530E+02  0.36355427530E+02  0.00000000000E+00 0.  1.
         25    2    1    2    0    0  0.11304553861E+02  0.69198268092E+01  0.26475379512E+03  0.29311626450E+03  0.12508755152E+03 0.  0.
         23    2    1    2    0    0 -0.11304553861E+02 -0.69198268092E+01  0.75832997340E+02  0.12018138302E+03  0.92288918063E+02 0.  0.
          5    1    3    3  502    0 -0.39677600923E+02 -0.30284829636E+02  0.18310948812E+03  0.18983687724E+03  0.41800000000E+01 0.  1.
         -5    1    3    3    0  502  0.50982154784E+02  0.37204656445E+02  0.81644306998E+02  0.10327938726E+03  0.41800000000E+01 0.  1.
        -11    1    4    4    0    0  0.33011742631E+02 -0.24895401756E+02  0.17888186898E+02  0.45050454056E+02  0.00000000000E+00 0. -1.
         11    1    4    4    0    0 -0.44316296492E+02  0.17975574947E+02  0.57944810442E+02  0.75130928961E+02  0.00000000000E+00 0.  1.
</event>
<event>
 8    1  0.6850220E-009  0.1608249E+03  0.7561462E-02  0.1187769E+00
          1   -1    0    0  501    0  0.00000000000E+00  0.00000000000E+00  0.22821019224E+03  0.22821019224E+03  0.00000000000E+00 0. -1.
         -1   -1    0    0    0  501 -0.00000000000E+00 -0.00000000000E+00 -0.16493372974E+03  0.16493372974E+03  0.00000000000E+00 0.  1.
         25    2    1    2    0    0  0.22261197849E+02  0.12775748679E+03 -0.63056186194E+02  0.19090026578E+03  0.12509713225E+03 0.  0.
         23    2    1    2    0    0 -0.22261197849E+02 -0.12775748679E+03  0.12633264869E+03  0.20224365621E+03  0.90138903877E+02 0.  0.
          5    1    3    3  502    0  0.73422419224E+02  0.90970656285E+02 -0.43187269530E+02  0.12469612905E+03  0.41800000000E+01 0.  1.
         -5    1    3    3    0  502 -0.51161221375E+02  0.36786830502E+02 -0.19868916664E+02  0.66204136731E+02  0.41800000000E+01 0.  1.
        -11    1    4    4    0    0 -0.24036188710E+02 -0.14138588675E+02  0.70131561733E+02  0.75472339361E+02  0.00000000000E+00 0. -1.
         11    1    4    4    0    0  0.17749908606E+01 -0.11361889811E+03  0.56201086961E+02  0.12677131685E+03  0.00000000000E+00 0.  1.
</event>
<event>
 8    1  0.6850220E-009  0.8452262E+02  0.7561462E-02  0.1316686E+00
         -2   -1    0    0    0  501 -0.00000000000E+00  0.00000000000E+00  0.12452134121E+03  0.12452134121E+03  0.00000000000E+00 0.  1.
          2   -1    0    0  501    0  0.00000000000E+00 -0.00000000000E+00 -0.10052690115E+03  0.10052690115E+03  0.00000000000E+00 0. -1.
         25    2    1    2    0    0  0.93872254966E+01  0.22112469846E+02  0.45768289080E+01  0.12745870140E+03  0.12509073457E+03 0.  0.
         23    2    1    2    0    0 -0.93872254966E+01 -0.22112469846E+02  0.19417611153E+02  0.97589540961E+02  0.92572099235E+02 0.  0.
          5    1    3    3  502    0 -0.30677543617E+02  0.46703159935E+01 -0.49028414823E+02  0.58173717381E+02  0.41800000000E+01 0. -1.
         -5    1    3    3    0  502  0.40064769113E+02  0.17442153852E+02  0.53605243731E+02  0.69284984020E+02  0.41800000000E+01 0. -1.
        -11    1    4    4    0    0  0.67519800755E+00 -0.57267194277E+02  0.20971433637E+02  0.60990068548E+02  0.00000000000E+00 0. -1.
         11    1    4    4    0    0 -0.10062423504E+02  0.35154724431E+02 -0.15538224843E+01  0.36599472413E+02  0.00000000000E+00 0.  1.
</event>
<event>
 8    1  0.6850220E-009  0.9549849E+02  0.7561462E-02  0.1290057E+00
         -1   -1    0    0    0  501 -0.00000000000E+00  0.00000000000E+00  0.44517251063E+02  0.44517251063E+02  0.00000000000E+00 0.  1.
          1   -1    0    0  501    0  0.00000000000E+00 -0.00000000000E+00 -0.36262052558E+03  0.36262052558E+03  0.00000000000E+00 0. -1.
         25    2    1    2    0    0  0.99503034835E+01  0.91358655861E+01 -0.13696357741E+03  0.18598071035E+03  0.12508929014E+03 0.  0.
         23    2    1    2    0    0 -0.99503034835E+01 -0.91358655861E+01 -0.18113969711E+03  0.22115706630E+03  0.12616015822E+03 0.  0.
          5    1    3    3  502    0  0.19329374700E+02 -0.23119420812E+02  0.12382049015E+02  0.32846915880E+02  0.41800000000E+01 0.  1.
         -5    1    3    3    0  502 -0.93790712168E+01  0.32255286398E+02 -0.14934562642E+03  0.15313379447E+03  0.41800000000E+01 0.  1.
        -11    1    4    4    0    0 -0.68160457503E+02 -0.61211990148E+01 -0.10330865563E+03  0.12391930993E+03  0.00000000000E+00 0. -1.
         11    1    4    4    0    0  0.58210154019E+02 -0.30146665713E+01 -0.77831041485E+02  0.97237756371E+02  0.00000000000E+00 0.  1.
</event>
<event>
 8    1  0.6850220E-009  0.9442391E+02  0.7561462E-02  0.1292479E+00
         -3   -1    0    0    0  501 -0.00000000000E+00  0.00000000000E+00  0.37480120570E+03  0.37480120570E+03  0.00000000000E+00 0.  1.
          3   -1    0    0  501    0  0.00000000000E+00 -0.00000000000E+00 -0.31729705304E+02  0.31729705304E+02  0.00000000000E+00 0. -1.
         25    2    1    2    0    0  0.88441717034E+01  0.11506391751E+01  0.23341752790E+03  0.26497266526E+03  0.12508887905E+03 0.  0.
         23    2    1    2    0    0 -0.88441717034E+01 -0.11506391751E+01  0.10965397250E+03  0.14155824575E+03  0.89079739056E+02 0.  0.
          5    1    3    3  502    0  0.38223963893E+02  0.41535515244E+02  0.19133553999E+03  0.19953203178E+03  0.41800000000E+01 0.  1.
         -5    1    3    3    0  502 -0.29379792189E+02 -0.40384876069E+02  0.42081987910E+02  0.65440633483E+02  0.41800000000E+01 0.  1.
        -11    1    4    4    0    0 -0.42966985416E+02 -0.14705823524E+02  0.31679316000E+02  0.55371492156E+02  0.00000000000E+00 0.  1.
         11    1    4    4    0    0  0.34122813713E+02  0.13555184349E+02  0.77974656498E+02  0.86186753590E+02  0.00000000000E+00 0. -1.
</event>
<event>
 8    1  0.6850220E-009  0.1175921E+03  0.7561462E-02  0.1247123E+00
          4   -1    0    0  501    0  0.00000000000E+00  0.00000000000E+00  0.11743341862E+03  0.11743341862E+03  0.00000000000E+00 0. -1.
         -4   -1    0    0    0  501 -0.00000000000E+00 -0.00000000000E+00 -0.14164243870E+03  0.14164243870E+03  0.00000000000E+00 0.  1.
         25    2    1    2    0    0  0.75710588280E+01 -0.67461690866E+02 -0.26094910266E+02  0.14467549819E+03  0.12506660134E+03 0.  0.
         23    2    1    2    0    0 -0.75710588280E+01  0.67461690866E+02  0.18858901874E+01  0.11440035912E+03  0.92062396882E+02 0.  0.
          5    1    3    3  502    0 -0.34934834815E+02  0.20194621838E+02  0.80558755513E+01  0.41359823085E+02  0.41800000000E+01 0. -1.
         -5    1    3    3    0  502  0.42505893643E+02 -0.87656312704E+02 -0.34150785817E+02  0.10331567511E+03  0.41800000000E+01 0. -1.
        -11    1    4    4    0    0  0.43606963703E+01  0.79814761062E+02  0.26653725009E+02  0.84260505654E+02  0.00000000000E+00 0. -1.
         11    1    4    4    0    0 -0.11931755198E+02 -0.12353070197E+02 -0.24767834822E+02  0.30139853469E+02  0.00000000000E+00 0.  1.
</event>
<event>
 8    1  0.6850220E-009  0.9876466E+02  0.7561462E-02  0.1282915E+00
          1   -1    0    0  501    0  0.00000000000E+00  0.00000000000E+00  0.36877248189E+03  0.36877248189E+03  0.00000000000E+00 0. -1.
         -1   -1    0    0    0  501 -0.00000000000E+00 -0.00000000000E+00 -0.48253549928E+02  0.48253549928E+02  0.00000000000E+00 0.  1.
         25    2    1    2    0    0  0.73439928108E+02  0.82463655042E+00  0.14112207638E+03  0.20237916428E+03  0.12509109731E+03 0.  0.
         23    2    1    2    0    0 -0.73439928108E+02 -0.82463655042E+00  0.17939685558E+03  0.21464686754E+03  0.92173439160E+02 0.  0.
          5    1    3    3  502    0  0.14492342503E+02  0.21557518698E+02 -0.17663401035E+02  0.31689473644E+02  0.41800000000E+01 0.  1.
         -5    1    3    3    0  502  0.58947585605E+02 -0.20732882148E+02  0.15878547742E+03  0.17068969064E+03  0.41800000000E+01 0.  1.
        -11    1    4    4    0    0 -0.19245028485E+02  0.37544587413E+02  0.31900110293E+02  0.52892194150E+02  0.00000000000E+00 0.  1.
         11    1    4    4    0    0 -0.54194899623E+02 -0.38369223963E+02  0.14749674529E+03  0.16175467339E+03  0.00000000000E+00 0. -1.
</event>
<event>
 8    1  0.6850220E-009  0.1327412E+03  0.7561462E-02  0.1223444E+00
          4   -1    0    0  501    0  0.00000000000E+00  0.00000000000E+00  0.25964305683E+03  0.25964305683E+03  0.00000000000E+00 0. -1.
         -4   -1    0    0    0  501 -0.00000000000E+00 -0.00000000000E+00 -0.11311386783E+03  0.11311386783E+03  0.00000000000E+00 0.  1.
         25    2    1    2    0    0 -0.95713996245E+02  0.62142167383E+02 -0.29898243063E+00  0.16932038864E+03  0.12508591678E+03 0.  0.
         23    2    1    2    0    0  0.95713996245E+02 -0.62142167383E+02  0.14682817143E+03  0.20343653602E+03  0.82492994960E+02 0.  0.
          5    1    3    3  502    0 -0.11186713990E+03  0.56305853065E+02 -0.35234589892E+02  0.13016741068E+03  0.41800000000E+01 0. -1.
         -5    1    3    3    0  502  0.16153143654E+02  0.58363143181E+01  0.34935607461E+02  0.39152977963E+02  0.41800000000E+01 0. -1.
        -11    1    4    4    0    0  0.23978375531E+02 -0.41367734018E+02  0.11986623471E+02  0.49294330842E+02  0.00000000000E+00 0.  1.
         11    1    4    4    0    0  0.71735620714E+02 -0.20774433365E+02  0.13484154796E+03  0.15414220518E+03  0.00000000000E+00 0. -1.
</event>
<event>
 8    1  0.6850220E-009  0.2175119E+03  0.7561462E-02  0.1135752E+00
          1   -1    0    0  501    0  0.00000000000E+00  0.00000000000E+00  0.33137523541E+03  0.33137523541E+03  0.00000000000E+00 0. -1.
         -1   -1    0    0    0  501 -0.00000000000E+00 -0.00000000000E+00 -0.17048355181E+03  0.17048355181E+03  0.00000000000E+00 0.  1.
         25    2    1    2    0    0 -0.20147197472E+03 -0.11268888684E+02  0.14790365907E+03  0.27971655605E+03  0.12509162608E+03 0.  0.
         23    2    1    2    0    0  0.20147197472E+03  0.11268888684E+02  0.12988024524E+02  0.22214223117E+03  0.91981180895E+02 0.  0.
          5    1    3    3  502    0 -0.12266234247E+03  0.27638277586E+02  0.14459576910E+03  0.19166463808E+03  0.41800000000E+01 0.  1.
         -5    1    3    3    0  502 -0.78809632252E+02 -0.38907166270E+02  0.33078899675E+01  0.88051917974E+02  0.41800000000E+01 0.  1.
        -11    1    4    4    0    0  0.27915282598E+02 -0.31892627489E+02 -0.35712564351E+01  0.42534181116E+02  0.00000000000E+00 0. -1.
         11    1    4    4    0    0  0.17355669212E+03  0.43161516173E+02  0.16559280959E+02  0.17960805005E+03  0.00000000000E+00 0.  1.
</event>
<event>
 8    1  0.6850220E-009  0.1431444E+03  0.7561462E-02  0.1209159E+00
          2   -1    0    0  501    0  0.00000000000E+00  0.00000000000E+00  0.22391319389E+03  0.22391319389E+03  0.00000000000E+00 0.  1.
         -2   -1    0    0    0  501 -0.00000000000E+00 -0.00000000000E+00 -0.11312604365E+03  0.11312604365E+03  0.00000000000E+00 0. -1.
         25    2    1    2    0    0  0.10011893865E+03 -0.57115998538E+02  0.47940947869E+02  0.17672428391E+03  0.12508836427E+03 0.  0.
         23    2    1    2    0    0 -0.10011893865E+03  0.57115998538E+02  0.62846202376E+02  0.16031495363E+03  0.92006521726E+02 0.  0.
          5    1    3    3  502    0  0.69813169479E+02  0.86516404824E+01 -0.24114532226E+02  0.74482968391E+02  0.41800000000E+01 0.  1.
         -5    1    3    3    0  502  0.30305769169E+02 -0.65767639021E+02  0.72055480095E+02  0.10224131552E+03  0.41800000000E+01 0.  1.
        -11    1    4    4    0    0 -0.41326322611E+02 -0.20323984786E+02  0.38643627115E+02  0.60118709357E+02  0.00000000000E+00 0. -1.
         11    1    4    4    0    0 -0.58792616038E+02  0.77439983324E+02  0.24202575261E+02  0.10019624428E+03  0.00000000000E+00 0.  1.
</event>
<event>
 8    1  0.6850220E-009  0.1168673E+03  0.7561462E-02  0.1248356E+00
          1   -1    0    0  501    0  0.00000000000E+00  0.00000000000E+00  0.52895722373E+03  0.52895722373E+03  0.00000000000E+00 0. -1.
         -1   -1    0    0    0  501 -0.00000000000E+00 -0.00000000000E+00 -0.34051830850E+02  0.34051830850E+02  0.00000000000E+00 0.  1.
         25    2    1    2    0    0 -0.58637747325E+02  0.19911598946E+02  0.16672550884E+03  0.21743945603E+03  0.12509062538E+03 0.  0.
         23    2    1    2    0    0  0.58637747325E+02 -0.19911598946E+02  0.32817988404E+03  0.34556959855E+03  0.88777553291E+02 0.  0.
          5    1    3    3  502    0  0.36336121637E+02  0.21649756443E+02  0.69376852840E+02  0.81361205741E+02  0.41800000000E+01 0. -1.
         -5    1    3    3    0  502 -0.94973868962E+02 -0.17381574973E+01  0.97348655997E+02  0.13607825029E+03  0.41800000000E+01 0. -1.
        -11    1    4    4    0    0  0.73264353397E+01 -0.40282223550E+02  0.66216523353E+02  0.77852181433E+02  0.00000000000E+00 0.  1.
         11    1    4    4    0    0  0.51311311986E+02  0.20370624604E+02  0.26196336069E+03  0.26771741712E+03  0.00000000000E+00 0. -1.
</event>
<event>
 8    1  0.6850220E-009  0.1095137E+03  0.7561462E-02  0.1261473E+00
          1   -1    0    0  501    0  0.00000000000E+00  0.00000000000E+00  0.10505484694E+03  0.10505484694E+03  0.00000000000E+00 0. -1.
         -1   -1    0    0    0  501 -0.00000000000E+00 -0.00000000000E+00 -0.17035077617E+03  0.17035077617E+03  0.00000000000E+00 0.  1.
         25    2    1    2    0    0 -0.47192675615E+02  0.28059381569E+01  0.29438672569E+02  0.13690470269E+03  0.12506494415E+03 0.  0.
         23    2    1    2    0    0  0.47192675615E+02 -0.28059381569E+01 -0.94734601804E+02  0.13850092042E+03  0.89290751245E+02 0.  0.
          5    1    3    3  502    0 -0.59890112620E+02 -0.50403463436E+02  0.22827060204E+02  0.81644851605E+02  0.41800000000E+01 0. -1.
         -5    1    3    3    0  502  0.12697437005E+02  0.53209401593E+02  0.66116123645E+01  0.55259851089E+02  0.41800000000E+01 0. -1.
        -11    1    4    4    0    0  0.11575565850E+02  0.33181675438E+02 -0.50407252009E+01  0.35502481888E+02  0.00000000000E+00 0. -1.
         11    1    4    4    0    0  0.35617109765E+02 -0.35987613595E+02 -0.89693876603E+02  0.10299843853E+03  0.00000000000E+00 0.  1.
</event>
<event>
 8    1  0.6850220E-009  0.1312617E+03  0.7561462E-02  0.1225596E+00
          2   -1    0    0  501    0  0.00000000000E+00  0.00000000000E+00  0.12742614477E+04  0.12742614477E+04  0.00000000000E+00 0. -1.
         -2   -1    0    0    0  501 -0.00000000000E+00 -0.00000000000E+00 -0.40237557680E+02  0.40237557680E+02  0.00000000000E+00 0.  1.
         25    2    1    2    0    0  0.10538686616E+03  0.32612338530E+02  0.11158545376E+04  0.11282501324E+04  0.12508819252E+03 0.  0.
         23    2    1    2    0    0 -0.10538686616E+03 -0.32612338530E+02  0.11816935240E+03  0.18624887300E+03  0.92491570768E+02 0.  0.
          5    1    3    3  502    0  0.88213003568E+02  0.44144063157E+02  0.10917792223E+04  0.10962342701E+04  0.41800000000E+01 0.  1.
         -5    1    3    3    0  502  0.17173862593E+02 -0.11531724626E+02  0.24075315304E+02  0.32015862260E+02  0.41800000000E+01 0.  1.
        -11    1    4    4    0    0 -0.99662043103E+02 -0.58912681461E+02  0.10494968336E+03  0.15626152088E+03  0.00000000000E+00 0. -1.
         11    1    4    4    0    0 -0.57248230577E+01  0.26300342930E+02  0.13219669049E+02  0.29987352118E+02  0.00000000000E+00 0.  1.
</event>
<event>
 8    1  0.6850220E-009  0.1182699E+03  0.7561462E-02  0.1245979E+00
          1   -1    0    0  501    0  0.00000000000E+00  0.00000000000E+00  0.41993506512E+02  0.41993506512E+02  0.00000000000E+00 0. -1.
         -1   -1    0    0    0  501 -0.00000000000E+00 -0.00000000000E+00 -0.35734488600E+03  0.35734488600E+03  0.00000000000E+00 0.  1.
         25    2    1    2    0    0  0.51833320505E+02  0.20390038098E+02 -0.16359689035E+03  0.21333947757E+03  0.12508934162E+03 0.  0.
         23    2    1    2    0    0 -0.51833320505E+02 -0.20390038098E+02 -0.15175448914E+03  0.18599891495E+03  0.91998503357E+02 0.  0.
          5    1    3    3  502    0  0.86862969231E+02  0.39431761616E+02 -0.12825354424E+03  0.15989522587E+03  0.41800000000E+01 0.  1.
         -5    1    3    3    0  502 -0.35029648726E+02 -0.19041723518E+02 -0.35343346116E+02  0.53444251693E+02  0.41800000000E+01 0.  1.
        -11    1    4    4    0    0 -0.54556506108E+02  0.21753591443E+02 -0.55153818502E+02  0.80570309635E+02  0.00000000000E+00 0. -1.
         11    1    4    4    0    0  0.27231856030E+01 -0.42143629541E+02 -0.96600670635E+02  0.10542860531E+03  0.00000000000E+00 0.  1.
</event>
<event>
 8    1  0.6850220E-009  0.2229677E+03  0.7561462E-02  0.1131690E+00
         -2   -1    0    0    0  501 -0.00000000000E+00  0.00000000000E+00  0.63942160328E+02  0.63942160328E+02  0.00000000000E+00 0.  1.
          2   -1    0    0  501    0  0.00000000000E+00 -0.00000000000E+00 -0.92125276258E+03  0.92125276258E+03  0.00000000000E+00 0. -1.
         25    2    1    2    0    0 -0.82140081846E+02 -0.19585287054E+03 -0.52737790804E+03  0.58213439931E+03  0.12509061122E+03 0.  0.
         23    2    1    2    0    0  0.82140081846E+02  0.19585287054E+03 -0.32993269421E+03  0.40306052360E+03  0.92178430428E+02 0.  0.
          5    1    3    3  502    0 -0.30233052966E+02 -0.11107903080E+03 -0.42102598826E+03  0.43650079469E+03  0.41800000000E+01 0.  1.
         -5    1    3    3    0  502 -0.51907028880E+02 -0.84773839739E+02 -0.10635191979E+03  0.14563360462E+03  0.41800000000E+01 0.  1.
        -11    1    4    4    0    0  0.35233324061E+02  0.17736417568E+03 -0.26585749027E+03  0.32152704874E+03  0.00000000000E+00 0.  1.
         11    1    4    4    0    0  0.46906757785E+02  0.18488694858E+02 -0.64075203936E+02  0.81533474860E+02  0.00000000000E+00 0. -1.
</event>
<event>
 8    1  0.6850220E-009  0.1118163E+03  0.7561462E-02  0.1257243E+00
         -4   -1    0    0    0  501 -0.00000000000E+00  0.00000000000E+00  0.13029596038E+03  0.13029596038E+03  0.00000000000E+00 0. -1.
          4   -1    0    0  501    0  0.00000000000E+00 -0.00000000000E+00 -0.15960968792E+03  0.15960968792E+03  0.00000000000E+00 0.  1.
         25    2    1    2    0    0 -0.48641801714E+02  0.76686519174E+02  0.12916693831E+02  0.15512000776E+03  0.12509407952E+03 0.  0.
         23    2    1    2    0    0  0.48641801714E+02 -0.76686519174E+02 -0.42230421372E+02  0.13478564054E+03  0.90204840831E+02 0.  0.
          5    1    3    3  502    0 -0.67726388001E+02  0.61712685638E+02  0.54577265672E+02  0.10673082745E+03  0.41800000000E+01 0.  1.
         -5    1    3    3    0  502  0.19084586287E+02  0.14973833536E+02 -0.41660571841E+02  0.48389180305E+02  0.41800000000E+01 0.  1.
        -11    1    4    4    0    0  0.40858160598E+02 -0.85967690329E+02 -0.60559776595E+02  0.11281542275E+03  0.00000000000E+00 0.  1.
         11    1    4    4    0    0  0.77836411166E+01  0.92811711553E+01  0.18329355223E+02  0.21970217794E+02  0.00000000000E+00 0. -1.
</event>
<event>
 8    1  0.6850220E-009  0.9763639E+02  0.7561462E-02  0.1285346E+00
         -1   -1    0    0    0  501 -0.00000000000E+00  0.00000000000E+00  0.26751211465E+02  0.26751211465E+02  0.00000000000E+00 0.  1.
          1   -1    0    0  501    0  0.00000000000E+00 -0.00000000000E+00 -0.56846988515E+03  0.56846988515E+03  0.00000000000E+00 0. -1.
         25    2    1    2    0    0  0.56771971395E+02 -0.89401392938E+01 -0.34812275366E+03  0.37435260474E+03  0.12508972074E+03 0.  0.
         23    2    1    2    0    0 -0.56771971395E+02  0.89401392938E+01 -0.19359592003E+03  0.22086849187E+03  0.89445668563E+02 0.  0.
          5    1    3    3  502    0 -0.89746111206E+01  0.39991972469E+02 -0.20737726461E+03  0.21143013925E+03  0.41800000000E+01 0. -1.
         -5    1    3    3    0  502  0.65746582515E+02 -0.48932111763E+02 -0.14074548904E+03  0.16292246549E+03  0.41800000000E+01 0. -1.
        -11    1    4    4    0    0 -0.19558829898E+02  0.24777473931E+02 -0.10361590487E+02  0.33223991314E+02  0.00000000000E+00 0.  1.
         11    1    4    4    0    0 -0.37213141497E+02 -0.15837334637E+02 -0.18323432954E+03  0.18764450056E+03  0.00000000000E+00 0. -1.
</event>
<event>
 8    1  0.6850220E-009  0.9913760E+02  0.7561462E-02  0.1282120E+00
          3   -1    0    0  501    0  0.00000000000E+00  0.00000000000E+00  0.54224533164E+03  0.54224533164E+03  0.00000000000E+00 0. -1.
         -3   -1    0    0    0  501 -0.00000000000E+00 -0.00000000000E+00 -0.23036323128E+02  0.23036323128E+02  0.00000000000E+00 0.  1.
         25    2    1    2    0    0 -0.13391632109E+02 -0.26301848821E+02  0.30399208929E+03  0.33004481020E+03  0.12508902161E+03 0.  0.
         23    2    1    2    0    0  0.13391632109E+02  0.26301848821E+02  0.21521691922E+03  0.23523684457E+03  0.90260332710E+02 0.  0.
          5    1    3    3  502    0  0.12989924856E+01 -0.66659140960E+02  0.91939042705E+02  0.11364589050E+03  0.41800000000E+01 0.  1.
         -5    1    3    3    0  502 -0.14690624595E+02  0.40357292139E+02  0.21205304658E+03  0.21639891969E+03  0.41800000000E+01 0.  1.
        -11    1    4    4    0    0 -0.22796008043E+02 -0.19465557030E+02  0.36469120019E+02  0.47207654127E+02  0.00000000000E+00 0.  1.
         11    1    4    4    0    0  0.36187640152E+02  0.45767405851E+02  0.17874779920E+03  0.18802919044E+03  0.00000000000E+00 0. -1.
</event>
<event>
 8    1  0.6850220E-009  0.7299029E+02  0.7561462E-02  0.1350210E+00
         -1   -1    0    0    0  501 -0.00000000000E+00  0.00000000000E+00  0.43244757306E+02  0.43244757306E+02  0.00000000000E+00 0.  1.
          1   -1    0    0  501    0  0.00000000000E+00 -0.00000000000E+00 -0.48725132345E+03  0.48725132345E+03  0.00000000000E+00 0. -1.
         25    2    1    2    0    0 -0.52391685141E+02 -0.30125177593E+02 -0.37245071966E+03  0.39751790767E+03  0.12509409798E+03 0.  0.
         23    2    1    2    0    0  0.52391685141E+02  0.30125177593E+02 -0.71555846484E+02  0.13297817308E+03  0.94395658550E+02 0.  0.
          5    1    3    3  502    0 -0.40877090013E+02  0.92596940206E+01 -0.34592237651E+03  0.34847731833E+03  0.41800000000E+01 0.  1.
         -5    1    3    3    0  502 -0.11514595128E+02 -0.39384871614E+02 -0.26528343154E+02  0.49040589347E+02  0.41800000000E+01 0.  1.
        -11    1    4    4    0    0  0.22540326669E+02  0.22403225205E+02 -0.91091773850E+02  0.96476329164E+02  0.00000000000E+00 0. -1.
         11    1    4    4    0    0  0.29851358472E+02  0.77219523886E+01  0.19535927366E+02  0.36501843917E+02  0.00000000000E+00 0.  1.
</event>
<event>
 8    1  0.6850220E-009  0.9765703E+02  0.7561462E-02  0.1285301E+00
          2   -1    0    0  501    0  0.00000000000E+00  0.00000000000E+00  0.15326896343E+03  0.15326896343E+03  0.00000000000E+00 0. -1.
         -2   -1    0    0    0  501 -0.00000000000E+00 -0.00000000000E+00 -0.98369475413E+02  0.98369475413E+02  0.00000000000E+00 0.  1.
         25    2    1    2    0    0  0.25992826689E+02  0.58867338643E+02  0.14168928267E+02  0.14138454446E+03  0.12509132779E+03 0.  0.
         23    2    1    2    0    0 -0.25992826689E+02 -0.58867338643E+02  0.40730559751E+02  0.11025389438E+03  0.79724225490E+02 0.  0.
          5    1    3    3  502    0 -0.38561093393E+02  0.46052782375E+02  0.38075030082E+02  0.71239013215E+02  0.41800000000E+01 0.  1.
         -5    1    3    3    0  502  0.64553920082E+02  0.12814556268E+02 -0.23906101815E+02  0.70145531250E+02  0.41800000000E+01 0.  1.
        -11    1    4    4    0    0  0.69658266800E+00 -0.29368763613E+02 -0.21493655578E+02  0.36400367220E+02  0.00000000000E+00 0.  1.
         11    1    4    4    0    0 -0.26689409357E+02 -0.29498575030E+02  0.62224215329E+02  0.73853527160E+02  0.00000000000E+00 0. -1.
</event>
<event>
 8    1  0.6850220E-009  0.1102708E+03  0.7561462E-02  0.1260069E+00
         -2   -1    0    0    0  501 -0.00000000000E+00  0.00000000000E+00  0.13188463839E+04  0.13188463839E+04  0.00000000000E+00 0.  1.
          2   -1    0    0  501    0  0.00000000000E+00 -0.00000000000E+00 -0.16048957472E+02  0.16048957472E+02  0.00000000000E+00 0. -1.
         25    2    1    2    0    0  0.76254941754E+01 -0.33604168685E+02  0.10953522834E+04  0.11030101499E+04  0.12508947918E+03 0.  0.
         23    2    1    2    0    0 -0.76254941754E+01  0.33604168685E+02  0.20744514297E+03  0.23188519138E+03  0.97723417478E+02 0.  0.
          5    1    3    3  502    0 -0.18244838490E+01 -0.78922824206E+02  0.81562987668E+03  0.81945207856E+03  0.41800000000E+01 0.  1.
         -5    1    3    3    0  502  0.94499780244E+01  0.45318655521E+02  0.27972240672E+03  0.28355807138E+03  0.41800000000E+01 0.  1.
        -11    1    4    4    0    0 -0.13270250921E+02 -0.29133886809E+02  0.11946220625E+03  0.12367740959E+03  0.00000000000E+00 0.  1.
         11    1    4    4    0    0  0.56447567457E+01  0.62738055494E+02  0.87982936722E+02  0.10820778179E+03  0.00000000000E+00 0. -1.
</event>
<event>
 8    1  0.6850220E-009  0.3312684E+03  0.7561462E-02  0.1070577E+00
          2   -1    0    0  501    0  0.00000000000E+00  0.00000000000E+00  0.20853748843E+03  0.20853748843E+03  0.00000000000E+00 0. -1.
         -2   -1    0    0    0  501 -0.00000000000E+00 -0.00000000000E+00 -0.58030104940E+03  0.58030104940E+03  0.00000000000E+00 0.  1.
         25    2    1    2    0    0  0.24818181283E+03  0.20876465129E+03 -0.11955486608E+03  0.36758640630E+03  0.12509799456E+03 0.  0.
         23    2    1    2    0    0 -0.24818181283E+03 -0.20876465129E+03 -0.25220869488E+03  0.42125213153E+03  0.93098016592E+02 0.  0.
          5    1    3    3  502    0  0.85575264432E+02  0.13425244281E+03 -0.14049386118E+02  0.15988027375E+03  0.41800000000E+01 0. -1.
         -5    1    3    3    0  502  0.16260654840E+03  0.74512208472E+02 -0.10550547997E+03  0.20770613255E+03  0.41800000000E+01 0. -1.
        -11    1    4    4    0    0 -0.15246090124E+03 -0.12459140054E+03 -0.20781411822E+03  0.28627617998E+03  0.00000000000E+00 0.  1.
         11    1    4    4    0    0 -0.95720911598E+02 -0.84173250747E+02 -0.44394576666E+02  0.13497595155E+03  0.00000000000E+00 0. -1.
</event>
<event>
 8    1  0.6850220E-009  0.1583786E+03  0.7561462E-02  0.1190540E+00
         -1   -1    0    0    0  501 -0.00000000000E+00  0.00000000000E+00  0.13233650719E+04  0.13233650719E+04  0.00000000000E+00 0.  1.
          1   -1    0    0  501    0  0.00000000000E+00 -0.00000000000E+00 -0.24395575462E+02  0.24395575462E+02  0.00000000000E+00 0. -1.
         25    2    1    2    0    0 -0.11000986079E+03  0.79077268972E+02  0.85420061374E+03  0.87387748741E+03  0.12509112901E+03 0.  0.
         23    2    1    2    0    0  0.11000986079E+03 -0.79077268972E+02  0.44476888271E+03  0.47388315996E+03  0.91599707028E+02 0.  0.
          5    1    3    3  502    0 -0.69467992878E+02 -0.11900819009E+02  0.53038956145E+03  0.53506821138E+03  0.41800000000E+01 0. -1.
         -5    1    3    3    0  502 -0.40541867911E+02  0.90978087980E+02  0.32381105229E+03  0.33880927604E+03  0.41800000000E+01 0. -1.
        -11    1    4    4    0    0  0.66320833734E+02 -0.13524734992E+02  0.31405441870E+03  0.32126554335E+03  0.00000000000E+00 0.  1.
         11    1    4    4    0    0  0.43689027055E+02 -0.65552533980E+02  0.13071446402E+03  0.15261761661E+03  0.00000000000E+00 0. -1.
</event>
<event>
 8    1  0.6850220E-009  0.3062724E+03  0.7561462E-02  0.1082146E+00
          3   -1    0    0  501    0  0.00000000000E+00  0.00000000000E+00  0.49953957212E+03  0.49953957212E+03  0.00000000000E+00 0. -1.
         -3   -1    0    0    0  501 -0.00000000000E+00 -0.00000000000E+00 -0.20827492262E+03  0.20827492262E+03  0.00000000000E+00 0.  1.
         25    2    1    2    0    0 -0.24382237106E+03 -0.17352133428E+03  0.20378926510E+03  0.38306155674E+03  0.12508832720E+03 0.  0.
         23    2    1    2    0    0  0.24382237106E+03  0.17352133428E+03  0.87475384407E+02  0.32475293800E+03  0.90848917346E+02 0.  0.
          5    1    3    3  502    0 -0.13928810103E+03 -0.89420995525E+02  0.18375034798E+03  0.24734379376E+03  0.41800000000E+01 0. -1.
         -5    1    3    3    0  502 -0.10453427003E+03 -0.84100338754E+02  0.20038917123E+02  0.13571776298E+03  0.41800000000E+01 0. -1.
        -11    1    4    4    0    0  0.94202991262E+02  0.12277174988E+03  0.44542751203E+02  0.16103155845E+03  0.00000000000E+00 0. -1.
         11    1    4    4    0    0  0.14961937980E+03  0.50749584395E+02  0.42932633204E+02  0.16372137955E+03  0.00000000000E+00 0.  1.
</event>
<event>
 8    1  0.6850220E-009  0.1735893E+03  0.7561462E-02  0.1174156E+00
          1   -1    0    0  501    0  0.00000000000E+00  0.00000000000E+00  0.96511918609E+02  0.96511918609E+02  0.00000000000E+00 0. -1.
         -1   -1    0    0    0  501 -0.00000000000E+00 -0.00000000000E+00 -0.53795246718E+03  0.53795246718E+03  0.00000000000E+00 0.  1.
         25    2    1    2    0    0 -0.15690140717E+03 -0.24552911871E+02 -0.57362559844E+02  0.21012720562E+03  0.12506831019E+03 0.  0.
         23    2    1    2    0    0  0.15690140717E+03  0.24552911871E+02 -0.38407798873E+03  0.42433718017E+03  0.85587639273E+02 0.  0.
          5    1    3    3  502    0 -0.11073287823E+02 -0.39071237771E+02 -0.48295440016E+02  0.63238447566E+02  0.41800000000E+01 0. -1.
         -5    1    3    3    0  502 -0.14582811935E+03  0.14518325901E+02 -0.90671198277E+01  0.14688875805E+03  0.41800000000E+01 0. -1.
        -11    1    4    4    0    0  0.11626287864E+03  0.10460107263E+02 -0.35150904364E+03  0.37038504095E+03  0.00000000000E+00 0.  1.
         11    1    4    4    0    0  0.40638528535E+02  0.14092804608E+02 -0.32568945087E+02  0.53952139228E+02  0.00000000000E+00 0. -1.
</event>
<event>
 8    1  0.6850220E-009  0.2451211E+03  0.7561462E-02  0.1116428E+00
          1   -1    0    0  501    0  0.00000000000E+00  0.00000000000E+00  0.12157957294E+04  0.12157957294E+04  0.00000000000E+00 0. -1.
         -1   -1    0    0    0  501 -0.00000000000E+00 -0.00000000000E+00 -0.49655469069E+02  0.49655469069E+02  0.00000000000E+00 0.  1.
         25    2    1    2    0    0 -0.17439673377E+03  0.13316227749E+03  0.55880510385E+03  0.61323423827E+03  0.12508666593E+03 0.  0.
         23    2    1    2    0    0  0.17439673377E+03 -0.13316227749E+03  0.60733515649E+03  0.65221696021E+03  0.91567232055E+02 0.  0.
          5    1    3    3  502    0 -0.11978502650E+03  0.13166934207E+02  0.27503015648E+03  0.30030131552E+03  0.41800000000E+01 0. -1.
         -5    1    3    3    0  502 -0.54611707272E+02  0.11999534329E+03  0.28377494738E+03  0.31293292275E+03  0.41800000000E+01 0. -1.
        -11    1    4    4    0    0  0.10664196837E+03 -0.24048451281E+02  0.27743584708E+03  0.29819706013E+03  0.00000000000E+00 0.  1.
         11    1    4    4    0    0  0.67754765404E+02 -0.10911382621E+03  0.32989930941E+03  0.35401990008E+03  0.00000000000E+00 0. -1.
</event>
<event>
 8    1  0.6850220E-009  0.1019773E+03  0.7561462E-02  0.1276192E+00
         -1   -1    0    0    0  501 -0.00000000000E+00  0.00000000000E+00  0.42720024338E+02  0.42720024338E+02  0.00000000000E+00 0.  1.
          1   -1    0    0  501    0  0.00000000000E+00 -0.00000000000E+00 -0.29665212783E+03  0.29665212783E+03  0.00000000000E+00 0. -1.
         25    2    1    2    0    0  0.17441460202E+02  0.12965615271E+02 -0.18129529077E+03  0.22133314066E+03  0.12509222592E+03 0.  0.
         23    2    1    2    0    0 -0.17441460202E+02 -0.12965615271E+02 -0.72636812721E+02  0.11803901150E+03  0.90469829011E+02 0.  0.
          5    1    3    3  502    0  0.43468508922E+02  0.55616423587E+02 -0.71146588685E+02  0.10030955748E+03  0.41800000000E+01 0.  1.
         -5    1    3    3    0  502 -0.26027048720E+02 -0.42650808316E+02 -0.11014870209E+03  0.12102358318E+03  0.41800000000E+01 0.  1.
        -11    1    4    4    0    0 -0.49357336352E+02 -0.13544442661E+02 -0.17065467181E+02  0.53952096798E+02  0.00000000000E+00 0.  1.
         11    1    4    4    0    0  0.31915876150E+02  0.57882738952E+00 -0.55571345539E+02  0.64086914706E+02  0.00000000000E+00 0. -1.
</event>
<event>
 8    1  0.6850220E-009  0.2104958E+03  0.7561462E-02  0.1141174E+00
         -1   -1    0    0    0  501 -0.00000000000E+00  0.00000000000E+00  0.21017157524E+03  0.21017157524E+03  0.00000000000E+00 0.  1.
          1   -1    0    0  501    0  0.00000000000E+00 -0.00000000000E+00 -0.94846026597E+03  0.94846026597E+03  0.00000000000E+00 0. -1.
         25    2    1    2    0    0 -0.15230537216E+03  0.11472787243E+03 -0.87673896771E+03  0.90591286782E+03  0.12508994951E+03 0.  0.
         23    2    1    2    0    0  0.15230537216E+03 -0.11472787243E+03  0.13845027698E+03  0.25271897339E+03  0.91318066188E+02 0.  0.
          5    1    3    3  502    0 -0.12785602306E+03  0.29618170624E+02 -0.63493500264E+03  0.64837051802E+03  0.41800000000E+01 0.  1.
         -5    1    3    3    0  502 -0.24449349104E+02  0.85109701804E+02 -0.24180396507E+03  0.25754234979E+03  0.41800000000E+01 0.  1.
        -11    1    4    4    0    0  0.65573376044E+01 -0.33585850133E+02 -0.25269501377E+01  0.34313167773E+02  0.00000000000E+00 0. -1.
         11    1    4    4    0    0  0.14574803456E+03 -0.81142022295E+02  0.14097722712E+03  0.21840580562E+03  0.00000000000E+00 0.  1.
</event>
<event>
 8    1  0.6850220E-009  0.1239845E+03  0.7561462E-02  0.1236665E+00
          2   -1    0    0  501    0  0.00000000000E+00  0.00000000000E+00  0.51591575780E+02  0.51591575780E+02  0.00000000000E+00 0.  1.
         -2   -1    0    0    0  501 -0.00000000000E+00 -0.00000000000E+00 -0.51225547276E+03  0.51225547276E+03  0.00000000000E+00 0. -1.
         25    2    1    2    0    0 -0.55745591388E+02  0.66814396917E+02 -0.38792643972E+03  0.41678109088E+03  0.12509124863E+03 0.  0.
         23    2    1    2    0    0  0.55745591388E+02 -0.66814396917E+02 -0.72737457260E+02  0.14706595766E+03  0.93626511310E+02 0.  0.
          5    1    3    3  502    0  0.10286497366E+02  0.57373221642E+02 -0.30364011522E+03  0.30921237129E+03  0.41800000000E+01 0.  1.
         -5    1    3    3    0  502 -0.66032088753E+02  0.94411752752E+01 -0.84286324507E+02  0.10756871959E+03  0.41800000000E+01 0.  1.
        -11    1    4    4    0    0  0.70742364871E+02 -0.19964937758E+02 -0.22778614383E+02  0.76954182475E+02  0.00000000000E+00 0.  1.
         11    1    4    4    0    0 -0.14996773483E+02 -0.46849459159E+02 -0.49958842878E+02  0.70111775189E+02  0.00000000000E+00 0. -1.
</event>
<event>
 8    1  0.6850220E-009  0.1765572E+03  0.7561462E-02  0.1171177E+00
         -1   -1    0    0    0  501 -0.00000000000E+00  0.00000000000E+00  0.98161855680E+02  0.98161855680E+02  0.00000000000E+00 0.  1.
          1   -1    0    0  501    0  0.00000000000E+00 -0.00000000000E+00 -0.42232578345E+03  0.42232578345E+03  0.00000000000E+00 0. -1.
         25    2    1    2    0    0 -0.16876435474E+03 -0.33343143565E+02 -0.16356113824E+03  0.26831306703E+03  0.12508590386E+03 0.  0.
         23    2    1    2    0    0  0.16876435474E+03  0.33343143565E+02 -0.16060278953E+03  0.25217457210E+03  0.90584690515E+02 0.  0.
          5    1    3    3  502    0 -0.16155619911E+03 -0.22366560030E+02 -0.18256198043E+03  0.24484080047E+03  0.41800000000E+01 0.  1.
         -5    1    3    3    0  502 -0.72081556251E+01 -0.10976583535E+02  0.19000842187E+02  0.23472266559E+02  0.41800000000E+01 0.  1.
        -11    1    4    4    0    0  0.60373818005E+02 -0.64524832053E+01 -0.11096795694E+03  0.12649316150E+03  0.00000000000E+00 0. -1.
         11    1    4    4    0    0  0.10839053673E+03  0.39795626770E+02 -0.49634832592E+02  0.12568141059E+03  0.00000000000E+00 0.  1.
</event>
<event>
 8    1  0.6850220E-009  0.1060251E+03  0.7561462E-02  0.1268113E+00
         -2   -1    0    0    0  501 -0.00000000000E+00  0.00000000000E+00  0.24440940363E+02  0.24440940363E+02  0.00000000000E+00 0.  1.
          2   -1    0    0  501    0  0.00000000000E+00 -0.00000000000E+00 -0.61166092062E+03  0.61166092062E+03  0.00000000000E+00 0. -1.
         25    2    1    2    0    0  0.26174360823E+02  0.38833385644E+02 -0.40981804065E+03  0.43103739149E+03  0.12509707194E+03 0.  0.
         23    2    1    2    0    0 -0.26174360823E+02 -0.38833385644E+02 -0.17740193960E+03  0.20506446950E+03  0.91579798370E+02 0.  0.
          5    1    3    3  502    0 -0.20541530684E+02  0.63260323716E+02 -0.31950227990E+03  0.32637861802E+03  0.41800000000E+01 0.  1.
         -5    1    3    3    0  502  0.46715891507E+02 -0.24426938072E+02 -0.90315760750E+02  0.10465877346E+03  0.41800000000E+01 0.  1.
        -11    1    4    4    0    0  0.17242112570E+02  0.15355465529E+02 -0.92735038854E+02  0.95566041033E+02  0.00000000000E+00 0. -1.
         11    1    4    4    0    0 -0.43416473393E+02 -0.54188851173E+02 -0.84666900750E+02  0.10949842846E+03  0.00000000000E+00 0.  1.
</event>
<event>
 8    1  0.6850220E-009  0.7933480E+02  0.7561462E-02  0.1330950E+00
         -2   -1    0    0    0  501 -0.00000000000E+00  0.00000000000E+00  0.14943973609E+02  0.14943973609E+02  0.00000000000E+00 0.  1.
          2   -1    0    0  501    0  0.00000000000E+00 -0.00000000000E+00 -0.89674142456E+03  0.89674142456E+03  0.00000000000E+00 0. -1.
         25    2    1    2    0    0  0.18757774123E+02 -0.30258908613E+02 -0.56858243568E+03  0.58326609344E+03  0.12508354791E+03 0.  0.
         23    2    1    2    0    0 -0.18757774123E+02  0.30258908613E+02 -0.31321501528E+03  0.32841930473E+03  0.92131092929E+02 0.  0.
          5    1    3    3  502    0  0.33293948995E+02 -0.88849360043E+01 -0.55015154013E+03  0.55124551575E+03  0.41800000000E+01 0.  1.
         -5    1    3    3    0  502 -0.14536174873E+02 -0.21373972609E+02 -0.18430895547E+02  0.32020577691E+02  0.41800000000E+01 0.  1.
        -11    1    4    4    0    0 -0.44105237931E+02  0.49241558638E+02 -0.23247160984E+03  0.24168792376E+03  0.00000000000E+00 0. -1.
         11    1    4    4    0    0  0.25347463808E+02 -0.18982650025E+02 -0.80743405441E+02  0.86731380974E+02  0.00000000000E+00 0.  1.
</event>
<event>
 8    1  0.6850220E-009  0.2080013E+03  0.7561462E-02  0.1143159E+00
          1   -1    0    0  501    0  0.00000000000E+00  0.00000000000E+00  0.45570156453E+03  0.45570156453E+03  0.00000000000E+00 0. -1.
         -1   -1    0    0    0  501 -0.00000000000E+00 -0.00000000000E+00 -0.12211961271E+03  0.12211961271E+03  0.00000000000E+00 0.  1.
         25    2    1    2    0    0 -0.10137942872E+03  0.15823622080E+03  0.60664138659E+02  0.23376156749E+03  0.12509133693E+03 0.  0.
         23    2    1    2    0    0  0.10137942872E+03 -0.15823622080E+03  0.27291781317E+03  0.34405960975E+03  0.92608812637E+02 0.  0.
          5    1    3    3  502    0 -0.74058845726E+02  0.17296305215E+03  0.70448942361E+02  0.20095137700E+03  0.41800000000E+01 0.  1.
         -5    1    3    3    0  502 -0.27320582990E+02 -0.14726831345E+02 -0.97848037021E+01  0.32810190488E+02  0.41800000000E+01 0.  1.
        -11    1    4    4    0    0  0.27120241634E+02 -0.95497181133E+02  0.19741026902E+03  0.22096613637E+03  0.00000000000E+00 0. -1.
         11    1    4    4    0    0  0.74259187082E+02 -0.62739039670E+02  0.75507544151E+02  0.12309347338E+03  0.00000000000E+00 0.  1.
</event>
<event>
 8    1  0.6850220E-009  0.1466993E+03  0.7561462E-02  0.1204589E+00
          2   -1    0    0  501    0  0.00000000000E+00  0.00000000000E+00  0.28250167596E+03  0.28250167596E+03  0.00000000000E+00 0. -1.
         -2   -1    0    0    0  501 -0.00000000000E+00 -0.00000000000E+00 -0.12981216007E+03  0.12981216007E+03  0.00000000000E+00 0.  1.
         25    2    1    2    0    0  0.32025716444E+02 -0.11442592486E+03  0.18794814962E+03  0.25512865001E+03  0.12508869780E+03 0.  0.
         23    2    1    2    0    0 -0.32025716444E+02  0.11442592486E+03 -0.35258633728E+02  0.15718518602E+03  0.96669915999E+02 0.  0.
          5    1    3    3  502    0  0.46907210799E+02 -0.33245035240E+02  0.94313754815E+01  0.58411831305E+02  0.41800000000E+01 0.  1.
         -5    1    3    3    0  502 -0.14881494354E+02 -0.81180889621E+02  0.17851677414E+03  0.19671681871E+03  0.41800000000E+01 0.  1.
        -11    1    4    4    0    0 -0.47772333367E+02  0.11695014082E+02 -0.91778754174E+01  0.50032015619E+02  0.00000000000E+00 0. -1.
         11    1    4    4    0    0  0.15746616923E+02  0.10273091078E+03 -0.26080758311E+02  0.10715317041E+03  0.00000000000E+00 0.  1.
</event>
<event>
 8    1  0.6850220E-009  0.9569356E+02  0.7561462E-02  0.1289622E+00
          1   -1    0    0  501    0  0.00000000000E+00  0.00000000000E+00  0.94155693793E+02  0.94155693793E+02  0.00000000000E+00 0. -1.
         -1   -1    0    0    0  501 -0.00000000000E+00 -0.00000000000E+00 -0.25548588837E+03  0.25548588837E+03  0.00000000000E+00 0.  1.
         25    2    1    2    0    0  0.34818687094E+02  0.26732243597E+01  0.30300059418E+02  0.13335029965E+03  0.12507886199E+03 0.  0.
         23    2    1    2    0    0 -0.34818687094E+02 -0.26732243597E+01 -0.19163025400E+03  0.21629128252E+03  0.94022750161E+02 0.  0.
          5    1    3    3  502    0  0.59202519988E+02 -0.21416243008E+02  0.60545991212E+02  0.87446459559E+02  0.41800000000E+01 0. -1.
         -5    1    3    3    0  502 -0.24383832894E+02  0.24089467368E+02 -0.30245931794E+02  0.45903840087E+02  0.41800000000E+01 0. -1.
        -11    1    4    4    0    0 -0.22833393977E+02  0.41838675988E+02 -0.58814286614E+02  0.75703097684E+02  0.00000000000E+00 0. -1.
         11    1    4    4    0    0 -0.11985293117E+02 -0.44511900348E+02 -0.13281596738E+03  0.14058818484E+03  0.00000000000E+00 0.  1.
</event>
<event>
 8    1  0.6850220E-009  0.7685524E+02  0.7561462E-02  0.1338220E+00
         -1   -1    0    0    0  501 -0.00000000000E+00  0.00000000000E+00  0.43531447314E+02  0.43531447314E+02  0.00000000000E+00 0.  1.
          1   -1    0    0  501    0  0.00000000000E+00 -0.00000000000E+00 -0.38073714651E+03  0.38073714651E+03  0.00000000000E+00 0. -1.
         25    2    1    2    0    0  0.42005696404E+01 -0.10224791132E+02 -0.28749377513E+03  0.31372704384E+03  0.12509914531E+03 0.  0.
         23    2    1    2    0    0 -0.42005696404E+01  0.10224791132E+02 -0.49711924065E+02  0.11054154998E+03  0.98112016286E+02 0.  0.
          5    1    3    3  502    0 -0.21127610535E+02  0.47434540182E+02 -0.69981972703E+02  0.87243111090E+02  0.41800000000E+01 0.  1.
         -5    1    3    3    0  502  0.25328180176E+02 -0.57659331314E+02 -0.21751180243E+03  0.22648393275E+03  0.41800000000E+01 0.  1.
        -11    1    4    4    0    0 -0.11647504923E+02 -0.10991289847E+02  0.26565360356E+02  0.31019206861E+02  0.00000000000E+00 0.  1.
         11    1    4    4    0    0  0.74469352825E+01  0.21216080979E+02 -0.76277284421E+02  0.79522343123E+02  0.00000000000E+00 0. -1.
</event>
<event>
 8    1  0.6850220E-009  0.8442593E+02  0.7561462E-02  0.1316941E+00
         -2   -1    0    0    0  501 -0.00000000000E+00  0.00000000000E+00  0.36480710734E+02  0.36480710734E+02  0.00000000000E+00 0. -1.
          2   -1    0    0  501    0  0.00000000000E+00 -0.00000000000E+00 -0.44777892694E+03  0.44777892694E+03  0.00000000000E+00 0.  1.
         25    2    1    2    0    0  0.64704825669E+02 -0.11704718581E+02 -0.25263768563E+03  0.28947724215E+03  0.12509020195E+03 0.  0.
         23    2    1    2    0    0 -0.64704825669E+02  0.11704718581E+02 -0.15866053058E+03  0.19478239552E+03  0.91887446038E+02 0.  0.
          5    1    3    3  502    0  0.71323545613E+02 -0.34082281821E+02 -0.71111241149E+02  0.10640926234E+03  0.41800000000E+01 0.  1.
         -5    1    3    3    0  502 -0.66187199439E+01  0.22377563240E+02 -0.18152644448E+03  0.18306797982E+03  0.41800000000E+01 0.  1.
        -11    1    4    4    0    0 -0.31730614091E+02  0.29398202344E+01  0.63603551065E+00  0.31872856081E+02  0.00000000000E+00 0. -1.
         11    1    4    4    0    0 -0.32974211578E+02  0.87648983469E+01 -0.15929656609E+03  0.16290953944E+03  0.00000000000E+00 0.  1.
</event>
<event>
 8    1  0.6850220E-009  0.2036381E+03  0.7561462E-02  0.1146705E+00
          2   -1    0    0  501    0  0.00000000000E+00  0.00000000000E+00  0.10418960011E+04  0.10418960011E+04  0.00000000000E+00 0. -1.
         -2   -1    0    0    0  501 -0.00000000000E+00 -0.00000000000E+00 -0.45909838600E+02  0.45909838600E+02  0.00000000000E+00 0.  1.
         25    2    1    2    0    0  0.94023436237E+02  0.14990280625E+03  0.66379228415E+03  0.69826890078E+03  0.12509197984E+03 0.  0.
         23    2    1    2    0    0 -0.94023436237E+02 -0.14990280625E+03  0.33219387840E+03  0.38953693896E+03  0.10037428001E+03 0.  0.
          5    1    3    3  502    0  0.12060628343E+03  0.89316273671E+02  0.44403747903E+03  0.46873236236E+03  0.41800000000E+01 0. -1.
         -5    1    3    3    0  502 -0.26582847194E+02  0.60586532583E+02  0.21975480512E+03  0.22953653842E+03  0.41800000000E+01 0. -1.
        -11    1    4    4    0    0  0.23949903999E+01 -0.56681766055E+02  0.16920954256E+03  0.17846688174E+03  0.00000000000E+00 0.  1.
         11    1    4    4    0    0 -0.96418426637E+02 -0.93221040199E+02  0.16298433583E+03  0.21107005723E+03  0.00000000000E+00 0. -1.
</event>
<event>
 8    1  0.6850220E-009  0.8910497E+02  0.7561462E-02  0.1305034E+00
         -2   -1    0    0    0  501 -0.00000000000E+00  0.00000000000E+00  0.24779589464E+02  0.24779589464E+02  0.00000000000E+00 0.  1.
          2   -1    0    0  501    0  0.00000000000E+00 -0.00000000000E+00 -0.53680402166E+03  0.53680402166E+03  0.00000000000E+00 0. -1.
         25    2    1    2    0    0 -0.20584371264E+02  0.42050301797E+02 -0.30412053418E+03  0.33215845820E+03  0.12509195747E+03 0.  0.
         23    2    1    2    0    0  0.20584371264E+02 -0.42050301797E+02 -0.20790389802E+03  0.22942515292E+03  0.84970146297E+02 0.  0.
          5    1    3    3  502    0 -0.58030052751E+02  0.26803621037E+02 -0.71435988516E+02  0.95950476696E+02  0.41800000000E+01 0.  1.
         -5    1    3    3    0  502  0.37445681487E+02  0.15246680760E+02 -0.23268454567E+03  0.23620798151E+03  0.41800000000E+01 0.  1.
        -11    1    4    4    0    0  0.25373399891E+02  0.52942600527E+01 -0.13388209288E+02  0.29173322736E+02  0.00000000000E+00 0. -1.
         11    1    4    4    0    0 -0.47890286264E+01 -0.47344561850E+02 -0.19451568873E+03  0.20025183019E+03  0.00000000000E+00 0.  1.
</event>
<event>
 8    1  0.6850220E-009  0.1063882E+03  0.7561462E-02  0.1267408E+00
         -3   -1    0    0    0  501 -0.00000000000E+00  0.00000000000E+00  0.20552897535E+03  0.20552897535E+03  0.00000000000E+00 0.  1.
          3   -1    0    0  501    0  0.00000000000E+00 -0.00000000000E+00 -0.10883692176E+03  0.10883692176E+03  0.00000000000E+00 0. -1.
         25    2    1    2    0    0 -0.93502493718E+02  0.36027008735E+02  0.73648236316E+02  0.17638921291E+03  0.12509368500E+03 0.  0.
         23    2    1    2    0    0  0.93502493718E+02 -0.36027008735E+02  0.23043817271E+02  0.13797668421E+03  0.92010250409E+02 0.  0.
          5    1    3    3  502    0 -0.21579115028E+02 -0.88458149993E+01  0.87267743376E+02  0.90426976519E+02  0.41800000000E+01 0. -1.
         -5    1    3    3    0  502 -0.71923378690E+02  0.44872823735E+02 -0.13619507060E+02  0.85962236387E+02  0.41800000000E+01 0. -1.
        -11    1    4    4    0    0  0.67503603468E+02 -0.11523118110E+02  0.56690281643E+02  0.88900544233E+02  0.00000000000E+00 0.  1.
         11    1    4    4    0    0  0.25998890250E+02 -0.24503890625E+02 -0.33646464372E+02  0.49076139974E+02  0.00000000000E+00 0. -1.
</event>
<event>
 8    1  0.6850220E-009  0.9134151E+02  0.7561462E-02  0.1299635E+00
         -1   -1    0    0    0  501 -0.00000000000E+00  0.00000000000E+00  0.69444527822E+02  0.69444527822E+02  0.00000000000E+00 0.  1.
          1   -1    0    0  501    0  0.00000000000E+00 -0.00000000000E+00 -0.23087729625E+03  0.23087729625E+03  0.00000000000E+00 0. -1.
         25    2    1    2    0    0 -0.13120326995E+02 -0.49725879898E+02 -0.14122217176E+03  0.19554162193E+03  0.12509203811E+03 0.  0.
         23    2    1    2    0    0  0.13120326995E+02  0.49725879898E+02 -0.20210596666E+02  0.10478020214E+03  0.89025931226E+02 0.  0.
          5    1    3    3  502    0 -0.63038675911E+02 -0.93017123958E+01 -0.39261673699E+02  0.74962310101E+02  0.41800000000E+01 0.  1.
         -5    1    3    3    0  502  0.49918348916E+02 -0.40424167502E+02 -0.10196049806E+03  0.12057931183E+03  0.41800000000E+01 0.  1.
        -11    1    4    4    0    0  0.39454598457E+00  0.34960609661E+02 -0.54842635691E+02  0.65039331054E+02  0.00000000000E+00 0. -1.
         11    1    4    4    0    0  0.12725781011E+02  0.14765270236E+02  0.34632039026E+02  0.39740871084E+02  0.00000000000E+00 0.  1.
</event>
<event>
 8    1  0.6850220E-009  0.1186628E+03  0.7561462E-02  0.1245319E+00
          1   -1    0    0  501    0  0.00000000000E+00  0.00000000000E+00  0.80948737199E+02  0.80948737199E+02  0.00000000000E+00 0. -1.
         -1   -1    0    0    0  501 -0.00000000000E+00 -0.00000000000E+00 -0.31797140216E+03  0.31797140216E+03  0.00000000000E+00 0.  1.
         25    2    1    2    0    0  0.64998124597E+02  0.52034475834E+02 -0.22939323702E+03  0.27422763319E+03  0.12508874745E+03 0.  0.
         23    2    1    2    0    0 -0.64998124597E+02 -0.52034475834E+02 -0.76294279405E+01  0.12469250617E+03  0.92507675613E+02 0.  0.
          5    1    3    3  502    0 -0.80574524169E+01 -0.16307903686E+02 -0.13610096056E+03  0.13737472157E+03  0.41800000000E+01 0. -1.
         -5    1    3    3    0  502  0.73055577014E+02  0.68342379521E+02 -0.93292276465E+02  0.13685291162E+03  0.41800000000E+01 0. -1.
        -11    1    4    4    0    0  0.17906799862E+02 -0.26131419890E+02 -0.19239052669E+02  0.37062727023E+02  0.00000000000E+00 0.  1.
         11    1    4    4    0    0 -0.82904924459E+02 -0.25903055945E+02  0.11609624729E+02  0.87629779145E+02  0.00000000000E+00 0. -1.
</event>
<event>
 8    1  0.6850220E-009  0.2397647E+03  0.7561462E-02  0.1119950E+00
          2   -1    0    0  501    0  0.00000000000E+00  0.00000000000E+00  0.15988598706E+03  0.15988598706E+03  0.00000000000E+00 0. -1.
         -2   -1    0    0    0  501 -0.00000000000E+00 -0.00000000000E+00 -0.41755599405E+03  0.41755599405E+03  0.00000000000E+00 0.  1.
         25    2    1    2    0    0  0.48280791866E+02 -0.22843084487E+03 -0.16316934229E+03  0.31109995697E+03  0.12508902116E+03 0.  0.
         23    2    1    2    0    0 -0.48280791866E+02  0.22843084487E+03 -0.94500664708E+02  0.26634202413E+03  0.86579515103E+02 0.  0.
          5    1    3    3  502    0 -0.17690402334E+02 -0.79910127550E+02 -0.16983895016E+01  0.81969114590E+02  0.41800000000E+01 0.  1.
         -5    1    3    3    0  502  0.65971194200E+02 -0.14852071732E+03 -0.16147095278E+03  0.22913084238E+03  0.41800000000E+01 0.  1.
        -11    1    4    4    0    0 -0.24906188974E+02  0.17399672833E+03 -0.10702774566E+03  0.20579144311E+03  0.00000000000E+00 0.  1.
         11    1    4    4    0    0 -0.23374602892E+02  0.54434116549E+02  0.12527080951E+02  0.60550581021E+02  0.00000000000E+00 0. -1.
</event>
<event>
 8    1  0.6850220E-009  0.9608055E+02  0.7561462E-02  0.1288761E+00
          2   -1    0    0  501    0  0.00000000000E+00  0.00000000000E+00  0.13310289707E+03  0.13310289707E+03  0.00000000000E+00 0. -1.
         -2   -1    0    0    0  501 -0.00000000000E+00 -0.00000000000E+00 -0.14519481113E+03  0.14519481113E+03  0.00000000000E+00 0.  1.
         25    2    1    2    0    0  0.28019694093E+02 -0.75536600273E+02 -0.41431008733E+02  0.15444868195E+03  0.12508791162E+03 0.  0.
         23    2    1    2    0    0 -0.28019694093E+02  0.75536600273E+02  0.29339094668E+02  0.12384902625E+03  0.89369556276E+02 0.  0.
          5    1    3    3  502    0  0.30028001692E+02 -0.47592070271E+02 -0.85272332873E+02  0.10225228209E+03  0.41800000000E+01 0. -1.
         -5    1    3    3    0  502 -0.20083075992E+01 -0.27944530002E+02  0.43841324139E+02  0.52196399864E+02  0.41800000000E+01 0. -1.
        -11    1    4    4    0    0  0.23652876077E+02  0.32277012960E+02 -0.15491028699E+02  0.42909626921E+02  0.00000000000E+00 0.  1.
         11    1    4    4    0    0 -0.51672570170E+02  0.43259587313E+02  0.44830123367E+02  0.80939399328E+02  0.00000000000E+00 0. -1.
</event>
<event>
 8    1  0.6850220E-009  0.1099685E+03  0.7561462E-02  0.1260628E+00
          2   -1    0    0  501    0  0.00000000000E+00  0.00000000000E+00  0.77199103669E+03  0.77199103669E+03  0.00000000000E+00 0. -1.
         -2   -1    0    0    0  501 -0.00000000000E+00 -0.00000000000E+00 -0.27396583844E+02  0.27396583844E+02  0.00000000000E+00 0.  1.
         25    2    1    2    0    0 -0.30197647048E+02  0.88371801554E+02  0.46501593076E+03  0.49051911587E+03  0.12509082291E+03 0.  0.
         23    2    1    2    0    0  0.30197647048E+02 -0.88371801554E+02  0.27957852209E+03  0.30886850467E+03  0.92272043245E+02 0.  0.
          5    1    3    3  502    0 -0.32979101424E+02  0.89238208972E+01  0.23012413538E+02  0.41404097467E+02  0.41800000000E+01 0.  1.
         -5    1    3    3    0  502  0.27814543760E+01  0.79447980656E+02  0.44200351722E+03  0.44911501840E+03  0.41800000000E+01 0.  1.
        -11    1    4    4    0    0 -0.13481413303E+02 -0.12611326080E+02  0.28853518036E+01  0.18684734549E+02  0.00000000000E+00 0. -1.
         11    1    4    4    0    0  0.43679060352E+02 -0.75760475474E+02  0.27669317029E+03  0.29018377012E+03  0.00000000000E+00 0.  1.
</event>
<event>
 8    1  0.6850220E-009  0.1463531E+03  0.7561462E-02  0.1205027E+00
          2   -1    0    0  501    0  0.00000000000E+00  0.00000000000E+00  0.11905195135E+04  0.11905195135E+04  0.00000000000E+00 0. -1.
         -2   -1    0    0    0  501 -0.00000000000E+00 -0.00000000000E+00 -0.23683446244E+02  0.23683446244E+02  0.00000000000E+00 0.  1.
         25    2    1    2    0    0  0.87664106548E+02  0.86467582533E+02  0.74586215061E+03  0.76623783898E+03  0.12509372391E+03 0.  0.
         23    2    1    2    0    0 -0.87664106548E+02 -0.86467582533E+02  0.42097391665E+03  0.44796512077E+03  0.91060817714E+02 0.  0.
          5    1    3    3  502    0 -0.67405496426E+01  0.34088223692E+02  0.44557257882E+02  0.56659188433E+02  0.41800000000E+01 0.  1.
         -5    1    3    3    0  502  0.94404656191E+02  0.52379358840E+02  0.70130489273E+03  0.70957865055E+03  0.41800000000E+01 0.  1.
        -11    1    4    4    0    0 -0.54998967652E+02 -0.10014308618E+03  0.27566971844E+03  0.29840797211E+03  0.00000000000E+00 0.  1.
         11    1    4    4    0    0 -0.32665138896E+02  0.13675503648E+02  0.14530419821E+03  0.14955714867E+03  0.00000000000E+00 0. -1.
</event>
<event>
 8    1  0.6850220E-009  0.1214010E+03  0.7561462E-02  0.1240804E+00
          2   -1    0    0  501    0  0.00000000000E+00  0.00000000000E+00  0.12633431380E+03  0.12633431380E+03  0.00000000000E+00 0. -1.
         -2   -1    0    0    0  501 -0.00000000000E+00 -0.00000000000E+00 -0.11804169899E+03  0.11804169899E+03  0.00000000000E+00 0.  1.
         25    2    1    2    0    0  0.39644096901E+02 -0.40712228257E+02  0.15303136454E+02  0.13824085611E+03  0.12508880191E+03 0.  0.
         23    2    1    2    0    0 -0.39644096901E+02  0.40712228257E+02 -0.70105216481E+01  0.10613515668E+03  0.89366571603E+02 0.  0.
          5    1    3    3  502    0  0.36200579838E+02 -0.85104094456E+02  0.12690287609E+02  0.93443590863E+02  0.41800000000E+01 0.  1.
         -5    1    3    3    0  502  0.34435170632E+01  0.44391866199E+02  0.26128488454E+01  0.44797265246E+02  0.41800000000E+01 0.  1.
        -11    1    4    4    0    0  0.58303624420E+01  0.56926640808E+02 -0.83930557640E+01  0.57836657450E+02  0.00000000000E+00 0. -1.
         11    1    4    4    0    0 -0.45474459343E+02 -0.16214412551E+02  0.13825341160E+01  0.48298499226E+02  0.00000000000E+00 0.  1.
</event>
<event>
 8    1  0.6850220E-009  0.7828716E+02  0.7561462E-02  0.1333984E+00
         -1   -1    0    0    0  501 -0.00000000000E+00  0.00000000000E+00  0.60504377059E+02  0.60504377059E+02  0.00000000000E+00 0.  1.
          1   -1    0    0  501    0  0.00000000000E+00 -0.00000000000E+00 -0.24213757876E+03  0.24213757876E+03  0.00000000000E+00 0. -1.
         25    2    1    2    0    0  0.15023329653E+00 -0.11339617632E+02 -0.16394231158E+03  0.20652611731E+03  0.12508935249E+03 0.  0.
         23    2    1    2    0    0 -0.15023329653E+00  0.11339617632E+02 -0.17690890119E+02  0.96115838510E+02  0.93790603587E+02 0.  0.
          5    1    3    3  502    0  0.40660318505E+02 -0.18411134239E+01 -0.15927707759E+03  0.16444850575E+03  0.41800000000E+01 0.  1.
         -5    1    3    3    0  502 -0.40510085208E+02 -0.94985042078E+01 -0.46652339911E+01  0.42077611552E+02  0.41800000000E+01 0.  1.
        -11    1    4    4    0    0  0.20807116264E+02  0.35936627519E+02  0.20315608923E+02  0.46228792441E+02  0.00000000000E+00 0.  1.
         11    1    4    4    0    0 -0.20957349561E+02 -0.24597009888E+02 -0.38006499041E+02  0.49887046068E+02  0.00000000000E+00 0. -1.
</event>
<event>
 8    1  0.6850220E-009  0.1221007E+03  0.7561462E-02  0.1239671E+00
          1   -1    0    0  501    0  0.00000000000E+00  0.00000000000E+00  0.10095272594E+03  0.10095272594E+03  0.00000000000E+00 0. -1.
         -1   -1    0    0    0  501 -0.00000000000E+00 -0.00000000000E+00 -0.21078799631E+03  0.21078799631E+03  0.00000000000E+00 0.  1.
         25    2    1    2    0    0  0.36918698306E+02 -0.47673292242E+02 -0.13910646195E+03  0.19655488944E+03  0.12508990258E+03 0.  0.
         23    2    1    2    0    0 -0.36918698306E+02  0.47673292242E+02  0.29271191578E+02  0.11518583281E+03  0.93676252844E+02 0.  0.
          5    1    3    3  502    0 -0.77540105618E+01 -0.78435894555E+02 -0.10838516102E+03  0.13407881922E+03  0.41800000000E+01 0.  1.
         -5    1    3    3    0  502  0.44672708868E+02  0.30762602312E+02 -0.30721300932E+02  0.62476070216E+02  0.41800000000E+01 0.  1.
        -11    1    4    4    0    0  0.30641691981E+02  0.52287234289E+01  0.32069758706E+01  0.31249600484E+02  0.00000000000E+00 0. -1.
         11    1    4    4    0    0 -0.67560390287E+02  0.42444568813E+02  0.26064215707E+02  0.83936232331E+02  0.00000000000E+00 0.  1.
</event>
<event>
 8    1  0.6850220E-009  0.1427701E+03  0.7561462E-02  0.1209649E+00
          2   -1    0    0  501    0  0.00000000000E+00  0.00000000000E+00  0.53225079153E+03  0.53225079153E+03  0.00000000000E+00 0. -1.
         -2   -1    0    0    0  501 -0.00000000000E+00 -0.00000000000E+00 -0.53423282667E+02  0.53423282667E+02  0.00000000000E+00 0.  1.
         25    2    1    2    0    0  0.16201096746E+02  0.10627283078E+03  0.37569423914E+03  0.41030552034E+03  0.12509224035E+03 0.  0.
         23    2    1    2    0    0 -0.16201096746E+02 -0.10627283078E+03  0.10313326972E+03  0.17536855386E+03  0.92527121763E+02 0.  0.
          5    1    3    3  502    0  0.43761667817E+02 -0.47956794361E+01  0.16122085198E+03  0.16717570884E+03  0.41800000000E+01 0.  1.
         -5    1    3    3    0  502 -0.27560571071E+02  0.11106851022E+03  0.21447338716E+03  0.24312981150E+03  0.41800000000E+01 0.  1.
        -11    1    4    4    0    0 -0.38103556705E+02 -0.33258750142E+02  0.81865564032E+02  0.96228873363E+02  0.00000000000E+00 0. -1.
         11    1    4    4    0    0  0.21902459959E+02 -0.73014080639E+02  0.21267705687E+02  0.79139680496E+02  0.00000000000E+00 0.  1.
</event>
<event>
 8    1  0.6850220E-009  0.8116417E+02  0.7561462E-02  0.1325780E+00
          2   -1    0    0  501    0  0.00000000000E+00  0.00000000000E+00  0.24979698489E+03  0.24979698489E+03  0.00000000000E+00 0. -1.
         -2   -1    0    0    0  501 -0.00000000000E+00 -0.00000000000E+00 -0.55183298883E+02  0.55183298883E+02  0.00000000000E+00 0.  1.
         25    2    1    2    0    0 -0.25307920664E+02  0.35253321237E+02  0.14897108821E+03  0.19930702560E+03  0.12509043858E+03 0.  0.
         23    2    1    2    0    0  0.25307920664E+02 -0.35253321237E+02  0.45642597801E+02  0.10567325818E+03  0.84854600662E+02 0.  0.
          5    1    3    3  502    0  0.31681765754E+02  0.22864952656E+02  0.13301673801E+03  0.13869919010E+03  0.41800000000E+01 0.  1.
         -5    1    3    3    0  502 -0.56989686418E+02  0.12388368581E+02  0.15954350195E+02  0.60607835502E+02  0.41800000000E+01 0.  1.
        -11    1    4    4    0    0 -0.10762244486E+00  0.11419501295E+02 -0.18890463014E+02  0.22074106671E+02  0.00000000000E+00 0.  1.
         11    1    4    4    0    0  0.25415543109E+02 -0.46672822532E+02  0.64533060816E+02  0.83599151508E+02  0.00000000000E+00 0. -1.
</event>
<event>
 8    1  0.6850220E-009  0.7543104E+02  0.7561462E-02  0.1342541E+00
          2   -1    0    0  501    0  0.00000000000E+00  0.00000000000E+00  0.30942542479E+03  0.30942542479E+03  0.00000000000E+00 0. -1.
         -2   -1    0    0    0  501 -0.00000000000E+00 -0.00000000000E+00 -0.47466677449E+02  0.47466677449E+02  0.00000000000E+00 0.  1.
         25    2    1    2    0    0 -0.77132494243E+01 -0.13294560973E+01  0.22486073812E+03  0.25743109324E+03  0.12508858679E+03 0.  0.
         23    2    1    2    0    0  0.77132494243E+01  0.13294560973E+01  0.37098009215E+02  0.99461009001E+02  0.91950901864E+02 0.  0.
          5    1    3    3  502    0 -0.60482122182E+02 -0.12396608843E+02  0.16765292159E+03  0.17870852674E+03  0.41800000000E+01 0. -1.
         -5    1    3    3    0  502  0.52768872758E+02  0.11067152746E+02  0.57207816538E+02  0.78722566492E+02  0.41800000000E+01 0. -1.
        -11    1    4    4    0    0  0.20916582108E+02  0.43358620050E+01  0.65014406422E+02  0.68433735459E+02  0.00000000000E+00 0. -1.
         11    1    4    4    0    0 -0.13203332684E+02 -0.30064059077E+01 -0.27916397207E+02  0.31027273542E+02  0.00000000000E+00 0.  1.
</event>
<event>
 8    1  0.6850220E-009  0.8999716E+02  0.7561462E-02  0.1302859E+00
         -3   -1    0    0    0  501 -0.00000000000E+00  0.00000000000E+00  0.61543475267E+02  0.61543475267E+02  0.00000000000E+00 0.  1.
          3   -1    0    0  501    0  0.00000000000E+00 -0.00000000000E+00 -0.25204803173E+03  0.25204803173E+03  0.00000000000E+00 0. -1.
         25    2    1    2    0    0  0.35542251096E+02  0.11676677629E+02 -0.16829665634E+03  0.21300406704E+03  0.12508945450E+03 0.  0.
         23    2    1    2    0    0 -0.35542251096E+02 -0.11676677629E+02 -0.22207900121E+02  0.10058743995E+03  0.90692038433E+02 0.  0.
          5    1    3    3  502    0  0.67278472203E+02 -0.70022154853E+01 -0.38336386154E+02  0.77862537507E+02  0.41800000000E+01 0. -1.
         -5    1    3    3    0  502 -0.31736221107E+02  0.18678893114E+02 -0.12996027019E+03  0.13514152953E+03  0.41800000000E+01 0. -1.
        -11    1    4    4    0    0 -0.50469765005E+02 -0.23924105552E+02  0.15723725364E+02  0.58024094524E+02  0.00000000000E+00 0.  1.
         11    1    4    4    0    0  0.14927513908E+02  0.12247427923E+02 -0.37931625485E+02  0.42563345429E+02  0.00000000000E+00 0. -1.
</event>
<event>
 8    1  0.6850220E-009  0.2227446E+03  0.7561462E-02  0.1131853E+00
          4   -1    0    0  501    0  0.00000000000E+00  0.00000000000E+00  0.28918738575E+03  0.28918738575E+03  0.00000000000E+00 0. -1.
         -4   -1    0    0    0  501 -0.00000000000E+00 -0.00000000000E+00 -0.18050751107E+03  0.18050751107E+03  0.00000000000E+00 0.  1.
         25    2    1    2    0    0 -0.11973243752E+03 -0.15555468795E+03  0.10398738902E+03  0.25493907853E+03  0.12508972439E+03 0.  0.
         23    2    1    2    0    0  0.11973243752E+03  0.15555468795E+03  0.46924856542E+01  0.21475581829E+03  0.86976574595E+02 0.  0.
          5    1    3    3  502    0 -0.73660077107E+02 -0.36726435066E+01  0.29133977406E+02  0.79407533076E+02  0.41800000000E+01 0.  1.
         -5    1    3    3    0  502 -0.46072360411E+02 -0.15188204445E+03  0.74853411614E+02  0.17553154546E+03  0.41800000000E+01 0.  1.
        -11    1    4    4    0    0  0.79027948070E+02  0.36542706692E+02 -0.11932164682E+02  0.87881525604E+02  0.00000000000E+00 0. -1.
         11    1    4    4    0    0  0.40704489449E+02  0.11901198126E+03  0.16624650336E+02  0.12687429268E+03  0.00000000000E+00 0.  1.
</event>
<event>
 8    1  0.6850220E-009  0.2186677E+03  0.7561462E-02  0.1134880E+00
          1   -1    0    0  501    0  0.00000000000E+00  0.00000000000E+00  0.38721582368E+04  0.38721582368E+04  0.00000000000E+00 0. -1.
         -1   -1    0    0    0  501 -0.00000000000E+00 -0.00000000000E+00 -0.17868245290E+02  0.17868245290E+02  0.00000000000E+00 0.  1.
         25    2    1    2    0    0  0.21661137299E+02 -0.19240090327E+03  0.30078614381E+04  0.30166812147E+04  0.12509119689E+03 0.  0.
         23    2    1    2    0    0 -0.21661137299E+02  0.19240090327E+03  0.84642855339E+03  0.87334526742E+03  0.93826156738E+02 0.  0.
          5    1    3    3  502    0 -0.20741489862E+02  0.10184119789E+02  0.31563108929E+03  0.31650336905E+03  0.41800000000E+01 0. -1.
         -5    1    3    3    0  502  0.42402627161E+02 -0.20258502306E+03  0.26922303488E+04  0.27001778456E+04  0.41800000000E+01 0. -1.
        -11    1    4    4    0    0 -0.39225488700E+02  0.50956765948E+02  0.38729592888E+03  0.39259822655E+03  0.00000000000E+00 0. -1.
         11    1    4    4    0    0  0.17564351401E+02  0.14144413732E+03  0.45913262450E+03  0.48074704087E+03  0.00000000000E+00 0.  1.
</event>
<event>
 8    1  0.6850220E-009  0.2349914E+03  0.7561462E-02  0.1123175E+00
          1   -1    0    0  501    0  0.00000000000E+00  0.00000000000E+00  0.65593886427E+03  0.65593886427E+03  0.00000000000E+00 0. -1.
         -1   -1    0    0    0  501 -0.00000000000E+00 -0.00000000000E+00 -0.10441741362E+03  0.10441741362E+03  0.00000000000E+00 0.  1.
         25    2    1    2    0    0  0.21137696710E+03 -0.45345794023E+02  0.42593555872E+03  0.49376643579E+03  0.12509088566E+03 0.  0.
         23    2    1    2    0    0 -0.21137696710E+03  0.45345794023E+02  0.12558589193E+03  0.26658984210E+03  0.92530343146E+02 0.  0.
          5    1    3    3  502    0  0.96375546485E+02  0.25537530518E+02  0.26754093468E+03  0.28554515502E+03  0.41800000000E+01 0.  1.
         -5    1    3    3    0  502  0.11500142062E+03 -0.70883324542E+02  0.15839462404E+03  0.20822128077E+03  0.41800000000E+01 0.  1.
        -11    1    4    4    0    0 -0.21648769139E+03  0.55658179653E+02  0.12121044565E+03  0.25427686804E+03  0.00000000000E+00 0.  1.
         11    1    4    4    0    0  0.51107242861E+01 -0.10312385630E+02  0.43754462807E+01  0.12312974062E+02  0.00000000000E+00 0. -1.
</event>
<event>
 8    1  0.6850220E-009  0.1076689E+03  0.7561462E-02  0.1264949E+00
         -1   -1    0    0    0  501 -0.00000000000E+00  0.00000000000E+00  0.18248807435E+03  0.18248807435E+03  0.00000000000E+00 0.  1.
          1   -1    0    0  501    0  0.00000000000E+00 -0.00000000000E+00 -0.12272765715E+03  0.12272765715E+03  0.00000000000E+00 0. -1.
         25    2    1    2    0    0  0.79283929468E+02 -0.46650215083E+02  0.78754502914E+02  0.17410304863E+03  0.12508963096E+03 0.  0.
         23    2    1    2    0    0 -0.79283929468E+02  0.46650215083E+02 -0.18994085712E+02  0.13111268287E+03  0.91474456970E+02 0.  0.
          5    1    3    3  502    0  0.60440515378E+01 -0.29168292027E+02  0.92658551135E+02  0.97418680536E+02  0.41800000000E+01 0.  1.
         -5    1    3    3    0  502  0.73239877930E+02 -0.17481923055E+02 -0.13904048222E+02  0.76684368094E+02  0.41800000000E+01 0.  1.
        -11    1    4    4    0    0 -0.67351589896E+02  0.61216581474E+02  0.15008950916E+02  0.92244106134E+02  0.00000000000E+00 0.  1.
         11    1    4    4    0    0 -0.11932339572E+02 -0.14566366391E+02 -0.34003036628E+02  0.38868576735E+02  0.00000000000E+00 0. -1.
</event>
<event>
 8    1  0.6850220E-009  0.1127568E+03  0.7561462E-02  0.1255548E+00
         -1   -1    0    0    0  501 -0.00000000000E+00  0.00000000000E+00  0.42526629884E+02  0.42526629884E+02  0.00000000000E+00 0.  1.
          1   -1    0    0  501    0  0.00000000000E+00 -0.00000000000E+00 -0.38314511623E+03  0.38314511623E+03  0.00000000000E+00 0. -1.
         25    2    1    2    0    0 -0.40011625374E+02 -0.49351296984E+02 -0.22406215597E+03  0.26436314329E+03  0.12509013196E+03 0.  0.
         23    2    1    2    0    0  0.40011625374E+02  0.49351296984E+02 -0.11655633038E+03  0.16130860282E+03  0.91643911497E+02 0.  0.
          5    1    3    3  502    0 -0.77650543566E+02 -0.59620772185E+02 -0.13292954539E+03  0.16514230175E+03  0.41800000000E+01 0. -1.
         -5    1    3    3    0  502  0.37638918192E+02  0.10269475201E+02 -0.91132610579E+02  0.99220841533E+02  0.41800000000E+01 0. -1.
        -11    1    4    4    0    0  0.40584413761E+02  0.16870266596E+01 -0.10453345793E+03  0.11214804735E+03  0.00000000000E+00 0. -1.
         11    1    4    4    0    0 -0.57278838688E+00  0.47664270325E+02 -0.12022872453E+02  0.49160555470E+02  0.00000000000E+00 0.  1.
</event>
<event>
 8    1  0.6850220E-009  0.1389677E+03  0.7561462E-02  0.1214725E+00
         -2   -1    0    0    0  501 -0.00000000000E+00  0.00000000000E+00  0.30899568296E+02  0.30899568296E+02  0.00000000000E+00 0. -1.
          2   -1    0    0  501    0  0.00000000000E+00 -0.00000000000E+00 -0.79826484189E+03  0.79826484189E+03  0.00000000000E+00 0.  1.
         25    2    1    2    0    0 -0.76038796159E+02  0.81388306528E+02 -0.34992726943E+03  0.38794642888E+03  0.12508949929E+03 0.  0.
         23    2    1    2    0    0  0.76038796159E+02 -0.81388306528E+02 -0.41743800417E+03  0.44121798130E+03  0.89514606300E+02 0.  0.
          5    1    3    3  502    0  0.65481525390E+01  0.44597190674E+02 -0.24601097693E+03  0.25014128186E+03  0.41800000000E+01 0.  1.
         -5    1    3    3    0  502 -0.82586948699E+02  0.36791115854E+02 -0.10391629250E+03  0.13780514703E+03  0.41800000000E+01 0.  1.
        -11    1    4    4    0    0 -0.19006959657E+02 -0.25818560864E+02 -0.76591686462E+02  0.83031012493E+02  0.00000000000E+00 0.  1.
         11    1    4    4    0    0  0.95045755817E+02 -0.55569745663E+02 -0.34084631771E+03  0.35818696881E+03  0.00000000000E+00 0. -1.
</event>
<event>
 8    1  0.6850220E-009  0.2105389E+03  0.7561462E-02  0.1141140E+00
          1   -1    0    0  501    0  0.00000000000E+00  0.00000000000E+00  0.53319672781E+03  0.53319672781E+03  0.00000000000E+00 0. -1.
         -1   -1    0    0    0  501 -0.00000000000E+00 -0.00000000000E+00 -0.10292440196E+03  0.10292440196E+03  0.00000000000E+00 0.  1.
         25    2    1    2    0    0 -0.16118331405E+03  0.93380756127E+02  0.10044968441E+03  0.24584063139E+03  0.12508977016E+03 0.  0.
         23    2    1    2    0    0  0.16118331405E+03 -0.93380756127E+02  0.32982264145E+03  0.39028049838E+03  0.93999288632E+02 0.  0.
          5    1    3    3  502    0 -0.13082354106E+03  0.14332378692E+02  0.92022097681E+02  0.16064169707E+03  0.41800000000E+01 0.  1.
         -5    1    3    3    0  502 -0.30359772991E+02  0.79048377435E+02  0.84275867247E+01  0.85198934320E+02  0.41800000000E+01 0.  1.
        -11    1    4    4    0    0  0.12488105863E+03 -0.10837279887E+03  0.29303703748E+03  0.33646789992E+03  0.00000000000E+00 0. -1.
         11    1    4    4    0    0  0.36302255419E+02  0.14992042746E+02  0.36785603968E+02  0.53812598465E+02  0.00000000000E+00 0.  1.
</event>
<event>
 8    1  0.6850220E-009  0.1101876E+03  0.7561462E-02  0.1260223E+00
          1   -1    0    0  501    0  0.00000000000E+00  0.00000000000E+00  0.66779207185E+03  0.66779207185E+03  0.00000000000E+00 0. -1.
         -1   -1    0    0    0  501 -0.00000000000E+00 -0.00000000000E+00 -0.18686291392E+02  0.18686291392E+02  0.00000000000E+00 0.  1.
         25    2    1    2    0    0 -0.29524667906E+02  0.16575717683E+02  0.35857262006E+03  0.38127302615E+03  0.12509330991E+03 0.  0.
         23    2    1    2    0    0  0.29524667906E+02 -0.16575717683E+02  0.29053316040E+03  0.30520533710E+03  0.87145396124E+02 0.  0.
          5    1    3    3  502    0 -0.44462362295E+02  0.63900758053E+02  0.24887547259E+03  0.26080008013E+03  0.41800000000E+01 0.  1.
         -5    1    3    3    0  502  0.14937694389E+02 -0.47325040370E+02  0.10969714747E+03  0.12047294602E+03  0.41800000000E+01 0.  1.
        -11    1    4    4    0    0 -0.20058643913E+02 -0.34485376550E+02  0.10485232219E+03  0.11218555995E+03  0.00000000000E+00 0.  1.
         11    1    4    4    0    0  0.49583311819E+02  0.17909658867E+02  0.18568083821E+03  0.19301977715E+03  0.00000000000E+00 0. -1.
</event>
<event>
 8    1  0.6850220E-009  0.1527955E+03  0.7561462E-02  0.1197079E+00
          1   -1    0    0  501    0  0.00000000000E+00  0.00000000000E+00  0.64662111819E+03  0.64662111819E+03  0.00000000000E+00 0. -1.
         -1   -1    0    0    0  501 -0.00000000000E+00 -0.00000000000E+00 -0.52590414850E+02  0.52590414850E+02  0.00000000000E+00 0.  1.
         25    2    1    2    0    0  0.10975979691E+03 -0.19070794581E+01  0.50135672440E+03  0.52825845269E+03  0.12509027849E+03 0.  0.
         23    2    1    2    0    0 -0.10975979691E+03  0.19070794581E+01  0.92673978943E+02  0.17095308035E+03  0.92658725096E+02 0.  0.
          5    1    3    3  502    0 -0.17852076754E+02 -0.28716540233E+02  0.13952376785E+03  0.14362343306E+03  0.41800000000E+01 0.  1.
         -5    1    3    3    0  502  0.12761187367E+03  0.26809460775E+02  0.36183295654E+03  0.38463501963E+03  0.41800000000E+01 0.  1.
        -11    1    4    4    0    0 -0.30242856098E+02 -0.40807410709E+02  0.18275007077E+02  0.53980098160E+02  0.00000000000E+00 0.  1.
         11    1    4    4    0    0 -0.79516940817E+02  0.42714490167E+02  0.74398971867E+02  0.11697298219E+03  0.00000000000E+00 0. -1.
</event>
<event>
 8    1  0.6850220E-009  0.1290744E+03  0.7561462E-02  0.1228836E+00
         -1   -1    0    0    0  501 -0.00000000000E+00  0.00000000000E+00  0.16032239238E+02  0.16032239238E+02  0.00000000000E+00 0.  1.
          1   -1    0    0  501    0  0.00000000000E+00 -0.00000000000E+00 -0.10664978437E+04  0.10664978437E+04  0.00000000000E+00 0. -1.
         25    2    1    2    0    0 -0.36006423452E+02  0.60488460090E+02 -0.50115594551E+03  0.52130628872E+03  0.12509056161E+03 0.  0.
         23    2    1    2    0    0  0.36006423452E+02 -0.60488460090E+02 -0.54930965897E+03  0.56122379424E+03  0.90971036313E+02 0.  0.
          5    1    3    3  502    0  0.42556476927E+02  0.47168336132E+02 -0.21392726864E+03  0.22320003210E+03  0.41800000000E+01 0. -1.
         -5    1    3    3    0  502 -0.78562900379E+02  0.13320123958E+02 -0.28722867687E+03  0.29810625662E+03  0.41800000000E+01 0. -1.
        -11    1    4    4    0    0  0.34762664611E+02  0.15945300003E+02 -0.20396541270E+03  0.20752008342E+03  0.00000000000E+00 0.  1.
         11    1    4    4    0    0  0.12437588416E+01 -0.76433760093E+02 -0.34534424627E+03  0.35370371082E+03  0.00000000000E+00 0. -1.
</event>
<event>
 8    1  0.6850220E-009  0.9335170E+02  0.7561462E-02  0.1294932E+00
         -2   -1    0    0    0  501 -0.00000000000E+00  0.00000000000E+00  0.26357747280E+02  0.26357747280E+02  0.00000000000E+00 0.  1.
          2   -1    0    0  501    0  0.00000000000E+00 -0.00000000000E+00 -0.62230438795E+03  0.62230438795E+03  0.00000000000E+00 0. -1.
         25    2    1    2    0    0  0.59779047038E+02  0.40867999706E+01 -0.25598946789E+03  0.29114866798E+03  0.12508678107E+03 0.  0.
         23    2    1    2    0    0 -0.59779047038E+02 -0.40867999706E+01 -0.33995717278E+03  0.35751346725E+03  0.93030981615E+02 0.  0.
          5    1    3    3  502    0  0.21871501527E+02  0.28186659448E+02 -0.24092200860E+03  0.24358517397E+03  0.41800000000E+01 0.  1.
         -5    1    3    3    0  502  0.37907545511E+02 -0.24099859477E+02 -0.15067459294E+02  0.47563494017E+02  0.41800000000E+01 0.  1.
        -11    1    4    4    0    0  0.10418555547E+02 -0.29286743139E+02 -0.57377403595E+02  0.65256617034E+02  0.00000000000E+00 0. -1.
         11    1    4    4    0    0 -0.70197602585E+02  0.25199943169E+02 -0.28257976919E+03  0.29225685022E+03  0.00000000000E+00 0.  1.
</event>
<event>
 8    1  0.6850220E-009  0.1332762E+03  0.7561462E-02  0.1222674E+00
          1   -1    0    0  501    0  0.00000000000E+00  0.00000000000E+00  0.12093977462E+04  0.12093977462E+04  0.00000000000E+00 0. -1.
         -1   -1    0    0    0  501 -0.00000000000E+00 -0.00000000000E+00 -0.28778345513E+02  0.28778345513E+02  0.00000000000E+00 0.  1.
         25    2    1    2    0    0 -0.66823342343E+02  0.81522105049E+02  0.98224026593E+03  0.99576904083E+03  0.12509528356E+03 0.  0.
         23    2    1    2    0    0  0.66823342343E+02 -0.81522105049E+02  0.19837913477E+03  0.24240705090E+03  0.91080648430E+02 0.  0.
          5    1    3    3  502    0 -0.31737064974E+02  0.85870797281E+02  0.32803341977E+03  0.34059423367E+03  0.41800000000E+01 0.  1.
         -5    1    3    3    0  502 -0.35086277369E+02 -0.43486922322E+01  0.65420684616E+03  0.65517480717E+03  0.41800000000E+01 0.  1.
        -11    1    4    4    0    0  0.88034655923E+02 -0.49789781410E+02  0.14368836329E+03  0.17571416767E+03  0.00000000000E+00 0. -1.
         11    1    4    4    0    0 -0.21211313581E+02 -0.31732323638E+02  0.54690771485E+02  0.66692883225E+02  0.00000000000E+00 0.  1.
</event>
<event>
 8    1  0.6850220E-009  0.1505949E+03  0.7561462E-02  0.1199744E+00
         -1   -1    0    0    0  501 -0.00000000000E+00  0.00000000000E+00  0.42274123798E+03  0.42274123798E+03  0.00000000000E+00 0.  1.
          1   -1    0    0  501    0  0.00000000000E+00 -0.00000000000E+00 -0.79363137270E+02  0.79363137270E+02  0.00000000000E+00 0. -1.
         25    2    1    2    0    0  0.12662951358E+03  0.67404614622E+02  0.22452913429E+03  0.29434550905E+03  0.12509009061E+03 0.  0.
         23    2    1    2    0    0 -0.12662951358E+03 -0.67404614622E+02  0.11884896642E+03  0.20775886620E+03  0.91979638424E+02 0.  0.
          5    1    3    3  502    0  0.34108649505E+02  0.15649431179E+02  0.17174166918E+03  0.17584361803E+03  0.41800000000E+01 0. -1.
         -5    1    3    3    0  502  0.92520864076E+02  0.51755183443E+02  0.52787465106E+02  0.11850189102E+03  0.41800000000E+01 0. -1.
        -11    1    4    4    0    0 -0.38731455974E+01  0.11009880015E+02 -0.83691834403E+01  0.14361822524E+02  0.00000000000E+00 0. -1.
         11    1    4    4    0    0 -0.12275636798E+03 -0.78414494637E+02  0.12721814986E+03  0.19339704368E+03  0.00000000000E+00 0.  1.
</event>
<event>
 8    1  0.6850220E-009  0.1373462E+03  0.7561462E-02  0.1216945E+00
         -2   -1    0    0    0  501 -0.00000000000E+00  0.00000000000E+00  0.27512124920E+03  0.27512124920E+03  0.00000000000E+00 0.  1.
          2   -1    0    0  501    0  0.00000000000E+00 -0.00000000000E+00 -0.94169496622E+02  0.94169496622E+02  0.00000000000E+00 0. -1.
         25    2    1    2    0    0  0.66039134637E+02 -0.85877856519E+02  0.14742140562E+03  0.22162128102E+03  0.12508696103E+03 0.  0.
         23    2    1    2    0    0 -0.66039134637E+02  0.85877856519E+02  0.33530346964E+02  0.14766946481E+03  0.94582308737E+02 0.  0.
          5    1    3    3  502    0  0.15663863984E+02  0.22542428138E+02  0.79164666966E+02  0.83892994923E+02  0.41800000000E+01 0. -1.
         -5    1    3    3    0  502  0.50375270652E+02 -0.10842028466E+03  0.68256738652E+02  0.13772828609E+03  0.41800000000E+01 0. -1.
        -11    1    4    4    0    0  0.13803057858E+02  0.16633282902E+02  0.35959092833E+02  0.41955296014E+02  0.00000000000E+00 0.  1.
         11    1    4    4    0    0 -0.79842192494E+02  0.69244573617E+02 -0.24287458690E+01  0.10571416880E+03  0.00000000000E+00 0. -1.
</event>
<event>
 8    1  0.6850220E-009  0.1825855E+03  0.7561462E-02  0.1165324E+00
          4   -1    0    0  501    0  0.00000000000E+00  0.00000000000E+00  0.18931115546E+03  0.18931115546E+03  0.00000000000E+00 0. -1.
         -4   -1    0    0    0  501 -0.00000000000E+00 -0.00000000000E+00 -0.21206340863E+03  0.21206340863E+03  0.00000000000E+00 0.  1.
         25    2    1    2    0    0 -0.14812788330E+03 -0.68357198423E+02 -0.52695724754E+02  0.21222331365E+03  0.12508924440E+03 0.  0.
         23    2    1    2    0    0  0.14812788330E+03  0.68357198423E+02  0.29943471581E+02  0.18915125044E+03  0.90923086543E+02 0.  0.
          5    1    3    3  502    0 -0.77638578730E+01 -0.53523263726E+02 -0.45553730916E+02  0.70835245812E+02  0.41800000000E+01 0.  1.
         -5    1    3    3    0  502 -0.14036402542E+03 -0.14833934697E+02 -0.71419938384E+01  0.14138806784E+03  0.41800000000E+01 0.  1.
        -11    1    4    4    0    0  0.73114531087E+02  0.82191601812E+01  0.52514318881E+02  0.90393821346E+02  0.00000000000E+00 0. -1.
         11    1    4    4    0    0  0.75013352209E+02  0.60138038242E+02 -0.22570847299E+02  0.98757429093E+02  0.00000000000E+00 0.  1.
</event>
<event>
 8    1  0.6850220E-009  0.1435190E+03  0.7561462E-02  0.1208671E+00
         -1   -1    0    0    0  501 -0.00000000000E+00  0.00000000000E+00  0.36051539289E+03  0.36051539289E+03  0.00000000000E+00 0.  1.
          1   -1    0    0  501    0  0.00000000000E+00 -0.00000000000E+00 -0.73073337353E+02  0.73073337353E+02  0.00000000000E+00 0. -1.
         25    2    1    2    0    0  0.87495559477E+02  0.80632781096E+02  0.17065019967E+03  0.24274720758E+03  0.12509035865E+03 0.  0.
         23    2    1    2    0    0 -0.87495559477E+02 -0.80632781096E+02  0.11679185587E+03  0.19084152267E+03  0.92860276007E+02 0.  0.
          5    1    3    3  502    0  0.42418295672E+02  0.80853532988E+02  0.17483300563E+03  0.19728319204E+03  0.41800000000E+01 0. -1.
         -5    1    3    3    0  502  0.45077263805E+02 -0.22075189250E+00 -0.41828059588E+01  0.45464015542E+02  0.41800000000E+01 0. -1.
        -11    1    4    4    0    0  0.19373202998E+02 -0.18287661197E+02  0.27288757052E+02  0.38137066063E+02  0.00000000000E+00 0.  1.
         11    1    4    4    0    0 -0.10686876247E+03 -0.62345119899E+02  0.89503098820E+02  0.15270445660E+03  0.00000000000E+00 0. -1.
</event>
<event>
 8    1  0.6850220E-009  0.1437770E+03  0.7561462E-02  0.1208335E+00
          2   -1    0    0  501    0  0.00000000000E+00  0.00000000000E+00  0.46266314092E+02  0.46266314092E+02  0.00000000000E+00 0. -1.
         -2   -1    0    0    0  501 -0.00000000000E+00 -0.00000000000E+00 -0.63368621502E+03  0.63368621502E+03  0.00000000000E+00 0.  1.
         25    2    1    2    0    0  0.21610106731E+02 -0.12867883587E+03 -0.27770693338E+03  0.33135110857E+03  0.12508867570E+03 0.  0.
         23    2    1    2    0    0 -0.21610106731E+02  0.12867883587E+03 -0.30971296755E+03  0.34860142054E+03  0.92604474115E+02 0.  0.
          5    1    3    3  502    0  0.35287957553E+02 -0.10901633162E+03 -0.28396833193E+03  0.30624383496E+03  0.41800000000E+01 0. -1.
         -5    1    3    3    0  502 -0.13677850821E+02 -0.19662504249E+02  0.62613985499E+01  0.25107273612E+02  0.41800000000E+01 0. -1.
        -11    1    4    4    0    0  0.11653250002E+02  0.10962854746E+03 -0.16170929000E+03  0.19571436107E+03  0.00000000000E+00 0.  1.
         11    1    4    4    0    0 -0.33263356733E+02  0.19050288405E+02 -0.14800367754E+03  0.15288705948E+03  0.00000000000E+00 0. -1.
</event>
<event>
 7    1  0.6850220E-009  0.1131336E+03  0.7561462E-02  0.1254875E+00
          2   -1    0    0  501    0  0.00000000000E+00  0.00000000000E+00  0.35225232759E+02  0.35225232759E+02  0.00000000000E+00 0. -1.
         -2   -1    0    0    0  501 -0.00000000000E+00 -0.00000000000E+00 -0.46272190906E+03  0.46272190906E+03  0.00000000000E+00 0.  1.
         23    2    1    2    0    0  0.10377880522E+02  0.18609874420E+02 -0.30617617834E+03  0.32246193433E+03  0.98913189618E+02 0.  0.
          5    1    1    2  502    0 -0.46468187920E+02 -0.57072113587E+02 -0.75061599376E+02  0.10520567826E+03  0.41800000000E+01 0. -1.
         -5    1    1    2    0  502  0.36090307398E+02  0.38462239167E+02 -0.46258898589E+02  0.70279529227E+02  0.41800000000E+01 0. -1.
        -11    1    3    3    0    0  0.27419620067E+02 -0.34382779897E+02 -0.10784324315E+03  0.11646534339E+03  0.00000000000E+00 0. -1.
         11    1    3    3    0    0 -0.17041739545E+02  0.52992654318E+02 -0.19833293519E+03  0.20599659094E+03  0.00000000000E+00 0.  1.
</event>
<event>
 8    1  0.6850220E-009  0.2949009E+03  0.7561462E-02  0.1087818E+00
          2   -1    0    0  501    0  0.00000000000E+00  0.00000000000E+00  0.10059508418E+04  0.10059508418E+04  0.00000000000E+00 0. -1.
         -2   -1    0    0    0  501 -0.00000000000E+00 -0.00000000000E+00 -0.99671052385E+02  0.99671052385E+02  0.00000000000E+00 0.  1.
         25    2    1    2    0    0 -0.23892588062E+03 -0.16960933291E+03  0.37669631467E+03  0.49335668703E+03  0.12509118637E+03 0.  0.
         23    2    1    2    0    0  0.23892588062E+03  0.16960933291E+03  0.52958347476E+03  0.61226520717E+03  0.92504729258E+02 0.  0.
          5    1    3    3  502    0 -0.43916391641E+02 -0.42892959086E+02  0.17494363806E+03  0.18544865676E+03  0.41800000000E+01 0.  1.
         -5    1    3    3    0  502 -0.19500948898E+03 -0.12671637382E+03  0.20175267661E+03  0.30790803027E+03  0.41800000000E+01 0.  1.
        -11    1    4    4    0    0  0.15790487900E+03  0.88440148256E+02  0.40110080347E+03  0.44004257201E+03  0.00000000000E+00 0. -1.
         11    1    4    4    0    0  0.81021001625E+02  0.81169184653E+02  0.12848267129E+03  0.17222263516E+03  0.00000000000E+00 0.  1.
</event>
<event>
 8    1  0.6850220E-009  0.1722604E+03  0.7561462E-02  0.1175511E+00
         -1   -1    0    0    0  501 -0.00000000000E+00  0.00000000000E+00  0.63087119262E+02  0.63087119262E+02  0.00000000000E+00 0. -1.
          1   -1    0    0  501    0  0.00000000000E+00 -0.00000000000E+00 -0.56651783952E+03  0.56651783952E+03  0.00000000000E+00 0.  1.
         25    2    1    2    0    0  0.14450172437E+03 -0.20160398336E+02 -0.20060638526E+03  0.27780873077E+03  0.12509028370E+03 0.  0.
         23    2    1    2    0    0 -0.14450172437E+03  0.20160398336E+02 -0.30282433500E+03  0.35179622801E+03  0.10378255234E+03 0.  0.
          5    1    3    3  502    0  0.11654411620E+03  0.27210490422E+02 -0.76783959889E+02  0.14225396552E+03  0.41800000000E+01 0.  1.
         -5    1    3    3    0  502  0.27957608166E+02 -0.47370888758E+02 -0.12382242537E+03  0.13555476524E+03  0.41800000000E+01 0.  1.
        -11    1    4    4    0    0 -0.11373520578E+03  0.52237988318E+02 -0.26638194659E+03  0.29431929248E+03  0.00000000000E+00 0.  1.
         11    1    4    4    0    0 -0.30766518592E+02 -0.32077589982E+02 -0.36442388402E+02  0.57476935528E+02  0.00000000000E+00 0. -1.
</event>
<event>
 8    1  0.6850220E-009  0.1531851E+03  0.7561462E-02  0.1196613E+00
         -3   -1    0    0    0  501 -0.00000000000E+00  0.00000000000E+00  0.17713531273E+02  0.17713531273E+02  0.00000000000E+00 0.  1.
          3   -1    0    0  501    0  0.00000000000E+00 -0.00000000000E+00 -0.22196817671E+04  0.22196817671E+04  0.00000000000E+00 0. -1.
         25    2    1    2    0    0 -0.97769750049E+02  0.10265319524E+03 -0.16259788818E+04  0.16369329398E+04  0.12508206452E+03 0.  0.
         23    2    1    2    0    0  0.97769750049E+02 -0.10265319524E+03 -0.57598935403E+03  0.60046235856E+03  0.93245405131E+02 0.  0.
          5    1    3    3  502    0 -0.81328173746E+02  0.82091571945E+02 -0.15764600186E+04  0.15806950878E+04  0.41800000000E+01 0.  1.
         -5    1    3    3    0  502 -0.16441576303E+02  0.20561623300E+02 -0.49518863236E+02  0.56237852024E+02  0.41800000000E+01 0.  1.
        -11    1    4    4    0    0 -0.11752399865E+02 -0.31127792217E+02 -0.65323462233E+02  0.73309024472E+02  0.00000000000E+00 0.  1.
         11    1    4    4    0    0  0.10952214991E+03 -0.71525403028E+02 -0.51066589179E+03  0.52715333409E+03  0.00000000000E+00 0. -1.
</event>
<event>
 8    1  0.6850220E-009  0.1531021E+03  0.7561462E-02  0.1196712E+00
          2   -1    0    0  501    0  0.00000000000E+00  0.00000000000E+00  0.13654484739E+03  0.13654484739E+03  0.00000000000E+00 0. -1.
         -2   -1    0    0    0  501 -0.00000000000E+00 -0.00000000000E+00 -0.30507744962E+03  0.30507744962E+03  0.00000000000E+00 0.  1.
         25    2    1    2    0    0 -0.12558041078E+03 -0.57668734649E+02 -0.20154327773E+03  0.27452538877E+03  0.12509346007E+03 0.  0.
         23    2    1    2    0    0  0.12558041078E+03  0.57668734649E+02  0.33010675511E+02  0.16709690824E+03  0.87951972802E+02 0.  0.
          5    1    3    3  502    0 -0.11646682576E+03 -0.73061984157E+02 -0.21250180033E+03  0.25313447528E+03  0.41800000000E+01 0. -1.
         -5    1    3    3    0  502 -0.91135850220E+01  0.15393249508E+02  0.10958522598E+02  0.21390913489E+02  0.41800000000E+01 0. -1.
        -11    1    4    4    0    0  0.66347861056E+02  0.62112348746E+02 -0.13202039040E+02  0.91838316449E+02  0.00000000000E+00 0.  1.
         11    1    4    4    0    0  0.59232549721E+02 -0.44436140967E+01  0.46212714550E+02  0.75258591794E+02  0.00000000000E+00 0. -1.
</event>
<event>
 8    1  0.6850220E-009  0.9275185E+02  0.7561462E-02  0.1296321E+00
          1   -1    0    0  501    0  0.00000000000E+00  0.00000000000E+00  0.72853494810E+03  0.72853494810E+03  0.00000000000E+00 0. -1.
         -1   -1    0    0    0  501 -0.00000000000E+00 -0.00000000000E+00 -0.19492758741E+02  0.19492758741E+02  0.00000000000E+00 0.  1.
         25    2    1    2    0    0 -0.13789644849E+02  0.40765697388E+02  0.44541692263E+03  0.46464541909E+03  0.12508850517E+03 0.  0.
         23    2    1    2    0    0  0.13789644849E+02 -0.40765697388E+02  0.26362526673E+03  0.28338228775E+03  0.94632147633E+02 0.  0.
          5    1    3    3  502    0  0.26576059027E+02  0.62560148173E+02  0.13899968748E+03  0.15478515617E+03  0.41800000000E+01 0.  1.
         -5    1    3    3    0  502 -0.40365703876E+02 -0.21794450785E+02  0.30641723515E+03  0.30986026291E+03  0.41800000000E+01 0.  1.
        -11    1    4    4    0    0  0.36133640984E+02 -0.26853753612E+02  0.24946368516E+03  0.25349338119E+03  0.00000000000E+00 0. -1.
         11    1    4    4    0    0 -0.22343996135E+02 -0.13911943776E+02  0.14161581568E+02  0.29888906561E+02  0.00000000000E+00 0.  1.
</event>
<event>
 8    1  0.6850220E-009  0.1485535E+03  0.7561462E-02  0.1202262E+00
         -2   -1    0    0    0  501 -0.00000000000E+00  0.00000000000E+00  0.21754874182E+03  0.21754874182E+03  0.00000000000E+00 0.  1.
          2   -1    0    0  501    0  0.00000000000E+00 -0.00000000000E+00 -0.12608535932E+03  0.12608535932E+03  0.00000000000E+00 0. -1.
         25    2    1    2    0    0  0.11647565614E+03  0.29112487869E+01  0.33679036225E+01  0.17098080357E+03  0.12509212034E+03 0.  0.
         23    2    1    2    0    0 -0.11647565614E+03 -0.29112487869E+01  0.88095478879E+02  0.17265329756E+03  0.92050496572E+02 0.  0.
          5    1    3    3  502    0  0.10443088632E+03 -0.34914850291E+02  0.39580690930E+02  0.11708526928E+03  0.41800000000E+01 0. -1.
         -5    1    3    3    0  502  0.12044769820E+02  0.37826099078E+02 -0.36212787308E+02  0.53895534287E+02  0.41800000000E+01 0. -1.
        -11    1    4    4    0    0 -0.35501449124E+02 -0.43722401810E+02  0.22094258514E+02  0.60499236104E+02  0.00000000000E+00 0.  1.
         11    1    4    4    0    0 -0.80974207013E+02  0.40811153023E+02  0.66001220365E+02  0.11215406146E+03  0.00000000000E+00 0. -1.
</event>
<event>
 8    1  0.6850220E-009  0.2368235E+03  0.7561462E-02  0.1121927E+00
         -2   -1    0    0    0  501 -0.00000000000E+00  0.00000000000E+00  0.49408270945E+02  0.49408270945E+02  0.00000000000E+00 0.  1.
          2   -1    0    0  501    0  0.00000000000E+00 -0.00000000000E+00 -0.12362471684E+04  0.12362471684E+04  0.00000000000E+00 0. -1.
         25    2    1    2    0    0  0.20417239544E+03  0.86128406808E+02 -0.59344080475E+03  0.64569191775E+03  0.12506635988E+03 0.  0.
         23    2    1    2    0    0 -0.20417239544E+03 -0.86128406808E+02 -0.59339809271E+03  0.63996352161E+03  0.91255372661E+02 0.  0.
          5    1    3    3  502    0  0.18978946785E+03  0.28259896515E+02 -0.40871050006E+03  0.45153118288E+03  0.41800000000E+01 0. -1.
         -5    1    3    3    0  502  0.14382927594E+02  0.57868510293E+02 -0.18473030470E+03  0.19416073486E+03  0.41800000000E+01 0. -1.
        -11    1    4    4    0    0 -0.14614225252E+03 -0.67670682330E+02 -0.30187389492E+03  0.34214723096E+03  0.00000000000E+00 0. -1.
         11    1    4    4    0    0 -0.58030142925E+02 -0.18457724478E+02 -0.29152419779E+03  0.29781629065E+03  0.00000000000E+00 0.  1.
</event>
<event>
 8    1  0.6850220E-009  0.1439478E+03  0.7561462E-02  0.1208113E+00
          2   -1    0    0  501    0  0.00000000000E+00  0.00000000000E+00  0.84445403109E+03  0.84445403109E+03  0.00000000000E+00 0. -1.
         -2   -1    0    0    0  501 -0.00000000000E+00 -0.00000000000E+00 -0.32543804466E+02  0.32543804466E+02  0.00000000000E+00 0.  1.
         25    2    1    2    0    0 -0.11366983700E+03 -0.35811307592E+02  0.33019247087E+03  0.37266334726E+03  0.12509045116E+03 0.  0.
         23    2    1    2    0    0  0.11366983700E+03  0.35811307592E+02  0.48171775575E+03  0.50433448830E+03  0.89988878677E+02 0.  0.
          5    1    3    3  502    0 -0.10649417538E+02 -0.61406426389E+02  0.85332101743E+02  0.10575064673E+03  0.41800000000E+01 0.  1.
         -5    1    3    3    0  502 -0.10302041946E+03  0.25595118798E+02  0.24486036913E+03  0.26691270053E+03  0.41800000000E+01 0.  1.
        -11    1    4    4    0    0  0.86289393056E+02  0.26191870405E+02  0.45817513721E+03  0.46696501988E+03  0.00000000000E+00 0. -1.
         11    1    4    4    0    0  0.27380443945E+02  0.96194371868E+01  0.23542618541E+02  0.37369468423E+02  0.00000000000E+00 0.  1.
</event>
<event>
 8    1  0.6850220E-009  0.1177662E+03  0.7561462E-02  0.1246828E+00
         -2   -1    0    0    0  501 -0.00000000000E+00  0.00000000000E+00  0.26549712648E+02  0.26549712648E+02  0.00000000000E+00 0.  1.
          2   -1    0    0  501    0  0.00000000000E+00 -0.00000000000E+00 -0.59739417015E+03  0.59739417015E+03  0.00000000000E+00 0. -1.
         25    2    1    2    0    0 -0.25977484302E+02  0.57330890061E+02 -0.29720183269E+03  0.32854056059E+03  0.12509320506E+03 0.  0.
         23    2    1    2    0    0  0.25977484302E+02 -0.57330890061E+02 -0.27364262481E+03  0.29540332221E+03  0.91766965803E+02 0.  0.
          5    1    3    3  502    0  0.26500901309E+02 -0.25005182825E+02 -0.44910392909E+02  0.57982520897E+02  0.41800000000E+01 0.  1.
         -5    1    3    3    0  502 -0.52478385611E+02  0.82336072886E+02 -0.25229143978E+03  0.27055803969E+03  0.41800000000E+01 0.  1.
        -11    1    4    4    0    0 -0.27366268455E+02 -0.31914202197E+02 -0.17866737399E+03  0.18354688633E+03  0.00000000000E+00 0. -1.
         11    1    4    4    0    0  0.53343752757E+02 -0.25416687864E+02 -0.94975250822E+02  0.11185643588E+03  0.00000000000E+00 0.  1.
</event>
<event>
 8    1  0.6850220E-009  0.1081487E+03  0.7561462E-02  0.1264037E+00
         -1   -1    0    0    0  501 -0.00000000000E+00  0.00000000000E+00  0.34136377113E+03  0.34136377113E+03  0.00000000000E+00 0.  1.
          1   -1    0    0  501    0  0.00000000000E+00 -0.00000000000E+00 -0.43552217088E+02  0.43552217088E+02  0.00000000000E+00 0. -1.
         25    2    1    2    0    0  0.35929498652E+02 -0.36929495951E+02  0.20187055679E+03  0.24301212579E+03  0.12509378497E+03 0.  0.
         23    2    1    2    0    0 -0.35929498652E+02  0.36929495951E+02  0.95940997247E+02  0.14190386242E+03  0.90979748700E+02 0.  0.
          5    1    3    3  502    0 -0.43107770435E+02 -0.29640575091E+02  0.10751972766E+03  0.11964450593E+03  0.41800000000E+01 0.  1.
         -5    1    3    3    0  502  0.79037269087E+02 -0.72889208597E+01  0.94350829133E+02  0.12336761986E+03  0.41800000000E+01 0.  1.
        -11    1    4    4    0    0  0.14292190802E+02 -0.84863519156E+01 -0.75291355733E+01  0.18247541458E+02  0.00000000000E+00 0. -1.
         11    1    4    4    0    0 -0.50221689454E+02  0.45415847866E+02  0.10347013282E+03  0.12365632097E+03  0.00000000000E+00 0.  1.
</event>
<event>
 8    1  0.6850220E-009  0.8151890E+02  0.7561462E-02  0.1324795E+00
         -1   -1    0    0    0  501 -0.00000000000E+00  0.00000000000E+00  0.64556794185E+02  0.64556794185E+02  0.00000000000E+00 0.  1.
          1   -1    0    0  501    0  0.00000000000E+00 -0.00000000000E+00 -0.20526681793E+03  0.20526681793E+03  0.00000000000E+00 0. -1.
         25    2    1    2    0    0 -0.62955977754E+01  0.20601481489E+02 -0.45531931047E+02  0.13485016296E+03  0.12508938450E+03 0.  0.
         23    2    1    2    0    0  0.62955977754E+01 -0.20601481489E+02 -0.95178092700E+02  0.13497344915E+03  0.93246485487E+02 0.  0.
          5    1    3    3  502    0 -0.41717286693E+02  0.32172617391E+02  0.22287196882E+02  0.57355042182E+02  0.41800000000E+01 0. -1.
         -5    1    3    3    0  502  0.35421688917E+02 -0.11571135902E+02 -0.67819127929E+02  0.77495120781E+02  0.41800000000E+01 0. -1.
        -11    1    4    4    0    0  0.35155713154E+02 -0.25486252861E+02 -0.96346730395E+02  0.10567954253E+03  0.00000000000E+00 0. -1.
         11    1    4    4    0    0 -0.28860115379E+02  0.48847713721E+01  0.11686376947E+01  0.29293906621E+02  0.00000000000E+00 0.  1.
</event>
<event>
 8    1  0.6850220E-009  0.1204645E+03  0.7561462E-02  0.1242333E+00
          2   -1    0    0  501    0  0.00000000000E+00  0.00000000000E+00  0.60391802418E+03  0.60391802418E+03  0.00000000000E+00 0.  1.
         -2   -1    0    0    0  501 -0.00000000000E+00 -0.00000000000E+00 -0.27117183159E+02  0.27117183159E+02  0.00000000000E+00 0. -1.
         25    2    1    2    0    0  0.49871151951E+02 -0.39852527797E+02  0.37813862853E+03  0.40337530951E+03  0.12508981639E+03 0.  0.
         23    2    1    2    0    0 -0.49871151951E+02  0.39852527797E+02  0.19866221249E+03  0.22765989783E+03  0.91032953594E+02 0.  0.
          5    1    3    3  502    0  0.75896435802E+02 -0.61895555405E+02  0.20986481527E+03  0.23162910403E+03  0.41800000000E+01 0. -1.
         -5    1    3    3    0  502 -0.26025283851E+02  0.22043027608E+02  0.16827381326E+03  0.17174620548E+03  0.41800000000E+01 0. -1.
        -11    1    4    4    0    0  0.13940343362E+02  0.42448661415E+02  0.10689931918E+03  0.11586063382E+03  0.00000000000E+00 0.  1.
         11    1    4    4    0    0 -0.63811495313E+02 -0.25961336178E+01  0.91762893309E+02  0.11179926401E+03  0.00000000000E+00 0. -1.
</event>
<event>
 8    1  0.6850220E-009  0.7969583E+02  0.7561462E-02  0.1329917E+00
          2   -1    0    0  501    0  0.00000000000E+00  0.00000000000E+00  0.65866316669E+02  0.65866316669E+02  0.00000000000E+00 0. -1.
         -2   -1    0    0    0  501 -0.00000000000E+00 -0.00000000000E+00 -0.25422542425E+03  0.25422542425E+03  0.00000000000E+00 0.  1.
         25    2    1    2    0    0  0.17853505852E+02  0.36938570830E+02 -0.36505177447E+02  0.13661302194E+03  0.12508910463E+03 0.  0.
         23    2    1    2    0    0 -0.17853505852E+02 -0.36938570830E+02 -0.15185393013E+03  0.18347871898E+03  0.94454319831E+02 0.  0.
          5    1    3    3  502    0  0.85179404375E+01 -0.17736080445E+02  0.38379066891E+02  0.43330693904E+02  0.41800000000E+01 0. -1.
         -5    1    3    3    0  502  0.93355654147E+01  0.54674651275E+02 -0.74884244338E+02  0.93282328036E+02  0.41800000000E+01 0. -1.
        -11    1    4    4    0    0 -0.42377165643E+02 -0.39674982036E+01 -0.13030438904E+03  0.13707953535E+03  0.00000000000E+00 0.  1.
         11    1    4    4    0    0  0.24523659791E+02 -0.32971072627E+02 -0.21549541094E+02  0.46399183625E+02  0.00000000000E+00 0. -1.
</event>
<event>
 8    1  0.6850220E-009  0.1099145E+03  0.7561462E-02  0.1260728E+00
         -2   -1    0    0    0  501 -0.00000000000E+00  0.00000000000E+00  0.18134196176E+02  0.18134196176E+02  0.00000000000E+00 0.  1.
          2   -1    0    0  501    0  0.00000000000E+00 -0.00000000000E+00 -0.78381714072E+03  0.78381714072E+03  0.00000000000E+00 0. -1.
         25    2    1    2    0    0  0.35982511372E+01 -0.47412749462E+02 -0.48606243439E+03  0.50414714168E+03  0.12508690626E+03 0.  0.
         23    2    1    2    0    0 -0.35982511372E+01  0.47412749462E+02 -0.27962051015E+03  0.29780419521E+03  0.90767795864E+02 0.  0.
          5    1    3    3  502    0 -0.56418895276E+02 -0.75099322366E+01 -0.28130664434E+03  0.28703726478E+03  0.41800000000E+01 0.  1.
         -5    1    3    3    0  502  0.60017146414E+02 -0.39902817225E+02 -0.20475579005E+03  0.21710987689E+03  0.41800000000E+01 0.  1.
        -11    1    4    4    0    0  0.19079234102E+02  0.61146921568E+02 -0.12027587124E+03  0.13626902947E+03  0.00000000000E+00 0.  1.
         11    1    4    4    0    0 -0.22677485239E+02 -0.13734172106E+02 -0.15934463892E+03  0.16153516574E+03  0.00000000000E+00 0. -1.
</event>
<event>
 8    1  0.6850220E-009  0.6698332E+02  0.7561462E-02  0.1370663E+00
         -2   -1    0    0    0  501 -0.00000000000E+00  0.00000000000E+00  0.16986863122E+03  0.16986863122E+03  0.00000000000E+00 0.  1.
          2   -1    0    0  501    0  0.00000000000E+00 -0.00000000000E+00 -0.73840127007E+02  0.73840127007E+02  0.00000000000E+00 0. -1.
         25    2    1    2    0    0 -0.38805944493E+01  0.19245402078E+02  0.79029796695E+02  0.14925817171E+03  0.12508736364E+03 0.  0.
         23    2    1    2    0    0  0.38805944493E+01 -0.19245402078E+02  0.16998707519E+02  0.94450586517E+02  0.90810311758E+02 0.  0.
          5    1    3    3  502    0  0.12909429941E+02  0.19533600848E+02 -0.30326762538E+02  0.38540885687E+02  0.41800000000E+01 0. -1.
         -5    1    3    3    0  502 -0.16790024390E+02 -0.28819877011E+00  0.10935655923E+03  0.11071728603E+03  0.41800000000E+01 0. -1.
        -11    1    4    4    0    0  0.41692988261E+02 -0.32442584785E+02  0.84636798196E+01  0.53501966821E+02  0.00000000000E+00 0. -1.
         11    1    4    4    0    0 -0.37812393811E+02  0.13197182707E+02  0.85350276990E+01  0.40948619695E+02  0.00000000000E+00 0.  1.
</event>
<event>
 8    1  0.6850220E-009  0.8390723E+02  0.7561462E-02  0.1318315E+00
         -2   -1    0    0    0  501 -0.00000000000E+00  0.00000000000E+00  0.87737714507E+02  0.87737714507E+02  0.00000000000E+00 0.  1.
          2   -1    0    0  501    0  0.00000000000E+00 -0.00000000000E+00 -0.18722140757E+03  0.18722140757E+03  0.00000000000E+00 0. -1.
         25    2    1    2    0    0  0.10745482853E+02  0.17278347536E+02  0.16694612785E+02  0.12782743896E+03  0.12508851809E+03 0.  0.
         23    2    1    2    0    0 -0.10745482853E+02 -0.17278347536E+02 -0.11617830585E+03  0.14713168312E+03  0.87956391085E+02 0.  0.
          5    1    3    3  502    0 -0.15979096785E+02  0.44170422880E+02 -0.38402427482E+02  0.60815924131E+02  0.41800000000E+01 0.  1.
         -5    1    3    3    0  502  0.26724579638E+02 -0.26892075344E+02  0.55097040267E+02  0.67011514826E+02  0.41800000000E+01 0.  1.
        -11    1    4    4    0    0 -0.39567247924E+02  0.12082822925E+02 -0.28374906576E+02  0.50166692549E+02  0.00000000000E+00 0.  1.
         11    1    4    4    0    0  0.28821765071E+02 -0.29361170461E+02 -0.87803399276E+02  0.96964990574E+02  0.00000000000E+00 0. -1.
</event>
<event>
 8    1  0.6850220E-009  0.1101887E+03  0.7561462E-02  0.1260221E+00
          1   -1    0    0  501    0  0.00000000000E+00  0.00000000000E+00  0.14139325804E+02  0.14139325804E+02  0.00000000000E+00 0. -1.
         -1   -1    0    0    0  501 -0.00000000000E+00 -0.00000000000E+00 -0.10443200480E+04  0.10443200480E+04  0.00000000000E+00 0.  1.
         25    2    1    2    0    0 -0.48592024829E+02 -0.26466583748E+02 -0.59188018202E+03  0.60747895752E+03  0.12508744554E+03 0.  0.
         23    2    1    2    0    0  0.48592024829E+02  0.26466583748E+02 -0.43830054014E+03  0.45098041624E+03  0.90632816453E+02 0.  0.
          5    1    3    3  502    0 -0.37599004613E+02  0.42034299120E+02 -0.15274337556E+03  0.16287596087E+03  0.41800000000E+01 0.  1.
         -5    1    3    3    0  502 -0.10993020216E+02 -0.68500882868E+02 -0.43913680646E+03  0.44460299665E+03  0.41800000000E+01 0.  1.
        -11    1    4    4    0    0  0.69086776227E+02  0.26017589919E+02 -0.40647238416E+03  0.41312189087E+03  0.00000000000E+00 0.  1.
         11    1    4    4    0    0 -0.20494751397E+02  0.44899382894E+00 -0.31828155982E+02  0.37858525374E+02  0.00000000000E+00 0. -1.
</event>
<event>
 8    1  0.6850220E-009  0.1050134E+03  0.7561462E-02  0.1270093E+00
          1   -1    0    0  501    0  0.00000000000E+00  0.00000000000E+00  0.49378836440E+03  0.49378836440E+03  0.00000000000E+00 0. -1.
         -1   -1    0    0    0  501 -0.00000000000E+00 -0.00000000000E+00 -0.36200420617E+02  0.36200420617E+02  0.00000000000E+00 0.  1.
         25    2    1    2    0    0 -0.72035191985E+02  0.19960151357E+02  0.24414713089E+03  0.28432932079E+03  0.12509142501E+03 0.  0.
         23    2    1    2    0    0  0.72035191985E+02 -0.19960151357E+02  0.21344081289E+03  0.24565946423E+03  0.95938080196E+02 0.  0.
          5    1    3    3  502    0 -0.32451900280E+00  0.25230706953E+02 -0.40476322988E+01  0.25894972739E+02  0.41800000000E+01 0.  1.
         -5    1    3    3    0  502 -0.71710672983E+02 -0.52705555961E+01  0.24819476319E+03  0.25843434805E+03  0.41800000000E+01 0.  1.
        -11    1    4    4    0    0  0.77393389962E+02  0.13479496306E+02  0.99396227880E+02  0.12669271387E+03  0.00000000000E+00 0.  1.
         11    1    4    4    0    0 -0.53581979764E+01 -0.33439647663E+02  0.11404458501E+03  0.11896675036E+03  0.00000000000E+00 0. -1.
</event>
<event>
 8    1  0.6850220E-009  0.1081005E+03  0.7561462E-02  0.1264128E+00
          1   -1    0    0  501    0  0.00000000000E+00  0.00000000000E+00  0.64184864152E+02  0.64184864152E+02  0.00000000000E+00 0. -1.
         -1   -1    0    0    0  501 -0.00000000000E+00 -0.00000000000E+00 -0.21543471938E+03  0.21543471938E+03  0.00000000000E+00 0.  1.
         25    2    1    2    0    0  0.11027680612E+02  0.54114244392E+02 -0.83668139335E+02  0.16030335353E+03  0.12508735518E+03 0.  0.
         23    2    1    2    0    0 -0.11027680612E+02 -0.54114244392E+02 -0.67581715895E+02  0.11931623001E+03  0.81357932832E+02 0.  0.
          5    1    3    3  502    0  0.57135259715E+02  0.45707522328E+01 -0.69101082202E+01  0.57883950057E+02  0.41800000000E+01 0.  1.
         -5    1    3    3    0  502 -0.46107579103E+02  0.49543492159E+02 -0.76758031115E+02  0.10241940347E+03  0.41800000000E+01 0.  1.
        -11    1    4    4    0    0  0.21357638116E+02 -0.54499868922E+02 -0.63999183788E+02  0.86731078305E+02  0.00000000000E+00 0. -1.
         11    1    4    4    0    0 -0.32385318727E+02  0.38562453028E+00 -0.35825321070E+01  0.32585151705E+02  0.00000000000E+00 0.  1.
</event>
<event>
 8    1  0.6850220E-009  0.8212891E+02  0.7561462E-02  0.1323116E+00
         -2   -1    0    0    0  501 -0.00000000000E+00  0.00000000000E+00  0.25289380089E+02  0.25289380089E+02  0.00000000000E+00 0.  1.
          2   -1    0    0  501    0  0.00000000000E+00 -0.00000000000E+00 -0.52615865273E+03  0.52615865273E+03  0.00000000000E+00 0. -1.
         25    2    1    2    0    0  0.42187360908E+01  0.28358278103E+02 -0.35068274642E+03  0.37342677268E+03  0.12508867352E+03 0.  0.
         23    2    1    2    0    0 -0.42187360908E+01 -0.28358278103E+02 -0.15018652622E+03  0.17802126014E+03  0.91178872189E+02 0.  0.
          5    1    3    3  502    0 -0.42398774304E+02  0.41660570457E+02 -0.88008030923E+02  0.10628332466E+03  0.41800000000E+01 0. -1.
         -5    1    3    3    0  502  0.46617510395E+02 -0.13302292354E+02 -0.26267471550E+03  0.26714344802E+03  0.41800000000E+01 0. -1.
        -11    1    4    4    0    0 -0.26132952543E+02 -0.18274744859E+02 -0.15055551562E+03  0.15389561655E+03  0.00000000000E+00 0. -1.
         11    1    4    4    0    0  0.21914216452E+02 -0.10083533244E+02  0.36898940959E+00  0.24125643589E+02  0.00000000000E+00 0.  1.
</event>
<event>
 8    1  0.6850220E-009  0.1235132E+03  0.7561462E-02  0.1237411E+00
         -1   -1    0    0    0  501 -0.00000000000E+00  0.00000000000E+00  0.17596790946E+02  0.17596790946E+02  0.00000000000E+00 0.  1.
          1   -1    0    0  501    0  0.00000000000E+00 -0.00000000000E+00 -0.15039058548E+04  0.15039058548E+04  0.00000000000E+00 0. -1.
         25    2    1    2    0    0  0.29226630760E+02 -0.60932780954E+02 -0.12671705400E+04  0.12751216200E+04  0.12508784329E+03 0.  0.
         23    2    1    2    0    0 -0.29226630760E+02  0.60932780954E+02 -0.21913852386E+03  0.24638102578E+03  0.90082836789E+02 0.  0.
          5    1    3    3  502    0  0.27880792116E+02  0.32442525105E+02 -0.58490142380E+03  0.58647847699E+03  0.41800000000E+01 0.  1.
         -5    1    3    3    0  502  0.13458386432E+01 -0.93375306058E+02 -0.68226911620E+03  0.68864314298E+03  0.41800000000E+01 0.  1.
        -11    1    4    4    0    0 -0.37726220597E+02 -0.10078478639E+02 -0.10093907624E+03  0.10822911144E+03  0.00000000000E+00 0. -1.
         11    1    4    4    0    0  0.84995898369E+01  0.71011259592E+02 -0.11819944762E+03  0.13815191433E+03  0.00000000000E+00 0.  1.
</event>
<event>
 8    1  0.6850220E-009  0.8555288E+02  0.7561462E-02  0.1313993E+00
          2   -1    0    0  501    0  0.00000000000E+00  0.00000000000E+00  0.20199974092E+03  0.20199974092E+03  0.00000000000E+00 0. -1.
         -2   -1    0    0    0  501 -0.00000000000E+00 -0.00000000000E+00 -0.87640689590E+02  0.87640689590E+02  0.00000000000E+00 0.  1.
         25    2    1    2    0    0 -0.17356248776E+02  0.31347323499E+02  0.13700712781E+03  0.18894930169E+03  0.12508793498E+03 0.  0.
         23    2    1    2    0    0  0.17356248776E+02 -0.31347323499E+02 -0.22648076478E+02  0.10069112882E+03  0.91333860054E+02 0.  0.
          5    1    3    3  502    0 -0.71488905248E+01 -0.20040630448E+02 -0.16141853942E+02  0.27032671958E+02  0.41800000000E+01 0. -1.
         -5    1    3    3    0  502 -0.10207358251E+02  0.51387953947E+02  0.15314898175E+03  0.16191662973E+03  0.41800000000E+01 0. -1.
        -11    1    4    4    0    0  0.42735485904E+02  0.13938057503E+02 -0.25468190577E+01  0.45023077301E+02  0.00000000000E+00 0.  1.
         11    1    4    4    0    0 -0.25379237128E+02 -0.45285381003E+02 -0.20101257420E+02  0.55668051516E+02  0.00000000000E+00 0. -1.
</event>
<event>
 8    1  0.6850220E-009  0.1853020E+03  0.7561462E-02  0.1162768E+00
          3   -1    0    0  501    0  0.00000000000E+00  0.00000000000E+00  0.45543671374E+02  0.45543671374E+02  0.00000000000E+00 0. -1.
         -3   -1    0    0    0  501 -0.00000000000E+00 -0.00000000000E+00 -0.11642058399E+04  0.11642058399E+04  0.00000000000E+00 0.  1.
         25    2    1    2    0    0 -0.77501875095E+02 -0.12656143104E+03 -0.21805490207E+03  0.29192361970E+03  0.12508846051E+03 0.  0.
         23    2    1    2    0    0  0.77501875095E+02  0.12656143104E+03 -0.90060726648E+03  0.91782589160E+03  0.96366915401E+02 0.  0.
          5    1    3    3  502    0 -0.11079322150E+03 -0.11024610511E+03 -0.18339834876E+03  0.24100159408E+03  0.41800000000E+01 0. -1.
         -5    1    3    3    0  502  0.33291346407E+02 -0.16315325928E+02 -0.34656553312E+02  0.50922025620E+02  0.41800000000E+01 0. -1.
        -11    1    4    4    0    0 -0.22187277737E+02  0.35829935689E+02 -0.21059396690E+03  0.21476936112E+03  0.00000000000E+00 0.  1.
         11    1    4    4    0    0  0.99689152831E+02  0.90731495347E+02 -0.69001329959E+03  0.70305653048E+03  0.00000000000E+00 0. -1.
</event>
<event>
 8    1  0.6850220E-009  0.1016160E+03  0.7561462E-02  0.1276934E+00
         -2   -1    0    0    0  501 -0.00000000000E+00  0.00000000000E+00  0.81612163929E+03  0.81612163929E+03  0.00000000000E+00 0.  1.
          2   -1    0    0  501    0  0.00000000000E+00 -0.00000000000E+00 -0.36235704057E+02  0.36235704057E+02  0.00000000000E+00 0. -1.
         25    2    1    2    0    0  0.24836773131E+02  0.50144529765E+01  0.73783710526E+03  0.74879468803E+03  0.12509149006E+03 0.  0.
         23    2    1    2    0    0 -0.24836773131E+02 -0.50144529765E+01  0.42048829974E+02  0.10356265532E+03  0.91187221890E+02 0.  0.
          5    1    3    3  502    0  0.61418177829E+02  0.39255836609E+02  0.52763981940E+03  0.53266731146E+03  0.41800000000E+01 0. -1.
         -5    1    3    3    0  502 -0.36581404698E+02 -0.34241383632E+02  0.21019728586E+03  0.21612737657E+03  0.41800000000E+01 0. -1.
        -11    1    4    4    0    0  0.27454843841E+02 -0.58835601898E+00  0.43063488379E+02  0.51074246392E+02  0.00000000000E+00 0.  1.
         11    1    4    4    0    0 -0.52291616972E+02 -0.44260969575E+01 -0.10146584054E+01  0.52488408925E+02  0.00000000000E+00 0. -1.
</event>
<event>
 8    1  0.6850220E-009  0.1229019E+03  0.7561462E-02  0.1238385E+00
         -2   -1    0    0    0  501 -0.00000000000E+00  0.00000000000E+00  0.44832502601E+02  0.44832502601E+02  0.00000000000E+00 0. -1.
          2   -1    0    0  501    0  0.00000000000E+00 -0.00000000000E+00 -0.42205977010E+03  0.42205977010E+03  0.00000000000E+00 0.  1.
         25    2    1    2    0    0 -0.12649365595E+01 -0.83108427595E+02 -0.22697279763E+03  0.27216717846E+03  0.12509880640E+03 0.  0.
         23    2    1    2    0    0  0.12649365595E+01  0.83108427595E+02 -0.15025446987E+03  0.19472509425E+03  0.91830527670E+02 0.  0.
          5    1    3    3  502    0  0.36077796639E+01  0.32784006147E+02 -0.63530361375E+02  0.71703461211E+02  0.41800000000E+01 0. -1.
         -5    1    3    3    0  502 -0.48727162233E+01 -0.11589243374E+03 -0.16344243626E+03  0.20046371725E+03  0.41800000000E+01 0. -1.
        -11    1    4    4    0    0  0.25087585720E+02  0.45841446977E+02 -0.13983972743E+03  0.14928487729E+03  0.00000000000E+00 0.  1.
         11    1    4    4    0    0 -0.23822649160E+02  0.37266980618E+02 -0.10414742436E+02  0.45440216960E+02  0.00000000000E+00 0. -1.
</event>
<event>
 8    1  0.6850220E-009  0.1131551E+03  0.7561462E-02  0.1254836E+00
          1   -1    0    0  501    0  0.00000000000E+00  0.00000000000E+00  0.90915178251E+02  0.90915178251E+02  0.00000000000E+00 0. -1.
         -1   -1    0    0    0  501 -0.00000000000E+00 -0.00000000000E+00 -0.15128275976E+03  0.15128275976E+03  0.00000000000E+00 0.  1.
         25    2    1    2    0    0 -0.11502261092E+02  0.41226331884E+02 -0.43998669951E+02  0.13933729859E+03  0.12508831828E+03 0.  0.
         23    2    1    2    0    0  0.11502261092E+02 -0.41226331884E+02 -0.16368911559E+02  0.10286063942E+03  0.92089399097E+02 0.  0.
          5    1    3    3  502    0 -0.41296238868E+02 -0.31772939851E+02 -0.25885232413E+02  0.58330238372E+02  0.41800000000E+01 0. -1.
         -5    1    3    3    0  502  0.29793977776E+02  0.72999271735E+02 -0.18113437538E+02  0.81007060217E+02  0.41800000000E+01 0. -1.
        -11    1    4    4    0    0  0.34519309070E+02 -0.57379419155E+02 -0.27803316845E+02  0.72505205805E+02  0.00000000000E+00 0.  1.
         11    1    4    4    0    0 -0.23017047977E+02  0.16153087270E+02  0.11434405286E+02  0.30355433619E+02  0.00000000000E+00 0. -1.
</event>
<event>
 8    1  0.6850220E-009  0.7557363E+02  0.7561462E-02  0.1342104E+00
         -2   -1    0    0    0  501 -0.00000000000E+00  0.00000000000E+00  0.72549754448E+02  0.72549754448E+02  0.00000000000E+00 0.  1.
          2   -1    0    0  501    0  0.00000000000E+00 -0.00000000000E+00 -0.24087806192E+03  0.24087806192E+03  0.00000000000E+00 0. -1.
         25    2    1    2    0    0  0.19733563075E+02 -0.24761064801E+02 -0.81207829420E+01  0.12924905320E+03  0.12504737820E+03 0.  0.
         23    2    1    2    0    0 -0.19733563075E+02  0.24761064801E+02 -0.16020752453E+03  0.18417876316E+03  0.85163619255E+02 0.  0.
          5    1    3    3  502    0 -0.99889398931E+01  0.10284994700E+02 -0.58825621241E+02  0.60691730496E+02  0.41800000000E+01 0.  1.
         -5    1    3    3    0  502  0.29722502968E+02 -0.35046059500E+02  0.50704838299E+02  0.68557322703E+02  0.41800000000E+01 0.  1.
        -11    1    4    4    0    0  0.29780542772E+02  0.27425154998E+02 -0.60104696068E+02  0.72467884914E+02  0.00000000000E+00 0.  1.
         11    1    4    4    0    0 -0.49514105847E+02 -0.26640901971E+01 -0.10010282846E+03  0.11171087825E+03  0.00000000000E+00 0. -1.
</event>
<event>
 8    1  0.6850220E-009  0.1227681E+03  0.7561462E-02  0.1238599E+00
          1   -1    0    0  501    0  0.00000000000E+00  0.00000000000E+00  0.39027523261E+03  0.39027523261E+03  0.00000000000E+00 0. -1.
         -1   -1    0    0    0  501 -0.00000000000E+00 -0.00000000000E+00 -0.42102084545E+02  0.42102084545E+02  0.00000000000E+00 0.  1.
         25    2    1    2    0    0  0.51690816534E+02 -0.46433930340E+02  0.20245524268E+03  0.24792180831E+03  0.12509615240E+03 0.  0.
         23    2    1    2    0    0 -0.51690816534E+02  0.46433930340E+02  0.14571790539E+03  0.18445550885E+03  0.89230467849E+02 0.  0.
          5    1    3    3  502    0  0.86834603737E+02 -0.42949623317E+02  0.99222769940E+02  0.13873553627E+03  0.41800000000E+01 0. -1.
         -5    1    3    3    0  502 -0.35143787203E+02 -0.34843070235E+01  0.10323247274E+03  0.10918627204E+03  0.41800000000E+01 0. -1.
        -11    1    4    4    0    0 -0.45728336334E+02 -0.17377008131E+02  0.59533300441E+02  0.77053585360E+02  0.00000000000E+00 0. -1.
         11    1    4    4    0    0 -0.59624801996E+01  0.63810938471E+02  0.86184604946E+02  0.10740192349E+03  0.00000000000E+00 0.  1.
</event>
<event>
 8    1  0.6850220E-009  0.1082250E+03  0.7561462E-02  0.1263893E+00
          1   -1    0    0  501    0  0.00000000000E+00  0.00000000000E+00  0.23674436792E+03  0.23674436792E+03  0.00000000000E+00 0. -1.
         -1   -1    0    0    0  501 -0.00000000000E+00 -0.00000000000E+00 -0.60634789097E+02  0.60634789097E+02  0.00000000000E+00 0.  1.
         25    2    1    2    0    0  0.31094123063E+02 -0.28701653845E+02  0.65667815640E+02  0.14748049498E+03  0.12509038719E+03 0.  0.
         23    2    1    2    0    0 -0.31094123063E+02  0.28701653845E+02  0.11044176318E+03  0.14989866204E+03  0.92095582970E+02 0.  0.
          5    1    3    3  502    0 -0.31722114228E+02  0.26637558478E+02  0.10532118053E+01  0.41646532963E+02  0.41800000000E+01 0. -1.
         -5    1    3    3    0  502  0.62816237291E+02 -0.55339212323E+02  0.64614603835E+02  0.10583396202E+03  0.41800000000E+01 0. -1.
        -11    1    4    4    0    0  0.24976369513E+02  0.24149105422E+02  0.12445913360E+02  0.36903916948E+02  0.00000000000E+00 0.  1.
         11    1    4    4    0    0 -0.56070492576E+02  0.45525484231E+01  0.97995849823E+02  0.11299474509E+03  0.00000000000E+00 0. -1.
</event>
<event>
 8    1  0.6850220E-009  0.9936620E+02  0.7561462E-02  0.1281634E+00
         -2   -1    0    0    0  501 -0.00000000000E+00  0.00000000000E+00  0.41855970441E+02  0.41855970441E+02  0.00000000000E+00 0. -1.
          2   -1    0    0  501    0  0.00000000000E+00 -0.00000000000E+00 -0.41427118092E+03  0.41427118092E+03  0.00000000000E+00 0.  1.
         25    2    1    2    0    0 -0.11664047391E+01 -0.23044501121E+02 -0.32490755083E+03  0.34891534201E+03  0.12507833454E+03 0.  0.
         23    2    1    2    0    0  0.11664047391E+01  0.23044501121E+02 -0.47507659647E+02  0.10721180935E+03  0.93300508072E+02 0.  0.
          5    1    3    3  502    0 -0.51125748511E+02 -0.27548044920E+02 -0.26177615730E+03  0.26817338770E+03  0.41800000000E+01 0. -1.
         -5    1    3    3    0  502  0.49959343772E+02  0.45035437988E+01 -0.63131393531E+02  0.80741954312E+02  0.41800000000E+01 0. -1.
        -11    1    4    4    0    0  0.41968129077E+02  0.25820673102E+02 -0.44179571743E+02  0.66180552861E+02  0.00000000000E+00 0. -1.
         11    1    4    4    0    0 -0.40801724337E+02 -0.27761719812E+01 -0.33280879047E+01  0.41031256487E+02  0.00000000000E+00 0.  1.
</event>
<event>
 8    1  0.6850220E-009  0.1319628E+03  0.7561462E-02  0.1224572E+00
          1   -1    0    0  501    0  0.00000000000E+00  0.00000000000E+00  0.10255993316E+04  0.10255993316E+04  0.00000000000E+00 0. -1.
         -1   -1    0    0    0  501 -0.00000000000E+00 -0.00000000000E+00 -0.18872442022E+02  0.18872442022E+02  0.00000000000E+00 0.  1.
         25    2    1    2    0    0  0.54184704858E+02 -0.61910608825E+02  0.65108536404E+03  0.66807868838E+03  0.12509227345E+03 0.  0.
         23    2    1    2    0    0 -0.54184704858E+02  0.61910608825E+02  0.35564152557E+03  0.37639308527E+03  0.91771205748E+02 0.  0.
          5    1    3    3  502    0  0.22426664725E+02  0.34508324543E+02  0.29130992470E+03  0.29423243258E+03  0.41800000000E+01 0. -1.
         -5    1    3    3    0  502  0.31758040133E+02 -0.96418933368E+02  0.35977543934E+03  0.37384625581E+03  0.41800000000E+01 0. -1.
        -11    1    4    4    0    0 -0.33202483678E+02 -0.18394089881E+02  0.14768031188E+03  0.15248023473E+03  0.00000000000E+00 0.  1.
         11    1    4    4    0    0 -0.20982221180E+02  0.80304698706E+02  0.20796121368E+03  0.22391285054E+03  0.00000000000E+00 0. -1.
</event>
<event>
 8    1  0.6850220E-009  0.1339094E+03  0.7561462E-02  0.1221767E+00
          2   -1    0    0  501    0  0.00000000000E+00  0.00000000000E+00  0.13829476583E+03  0.13829476583E+03  0.00000000000E+00 0. -1.
         -2   -1    0    0    0  501 -0.00000000000E+00 -0.00000000000E+00 -0.18399972635E+03  0.18399972635E+03  0.00000000000E+00 0.  1.
         25    2    1    2    0    0  0.82150515824E+01  0.82568153590E+02 -0.10690031715E+03  0.18428388001E+03  0.12509150077E+03 0.  0.
         23    2    1    2    0    0 -0.82150515824E+01 -0.82568153590E+02  0.61195356637E+02  0.13801061217E+03  0.91744592966E+02 0.  0.
          5    1    3    3  502    0  0.15399924484E+02 -0.30261787597E+02 -0.10896594140E+02  0.35904618457E+02  0.41800000000E+01 0. -1.
         -5    1    3    3    0  502 -0.71848729016E+01  0.11282994119E+03 -0.96003723012E+02  0.14837926155E+03  0.41800000000E+01 0. -1.
        -11    1    4    4    0    0 -0.42164795811E+02 -0.14820156020E+02  0.38271732558E+02  0.58840738806E+02  0.00000000000E+00 0. -1.
         11    1    4    4    0    0  0.33949744229E+02 -0.67747997570E+02  0.22923624079E+02  0.79169873366E+02  0.00000000000E+00 0.  1.
</event>
<event>
 8    1  0.6850220E-009  0.1584199E+03  0.7561462E-02  0.1190492E+00
         -2   -1    0    0    0  501 -0.00000000000E+00  0.00000000000E+00  0.53804023569E+03  0.53804023569E+03  0.00000000000E+00 0.  1.
          2   -1    0    0  501    0  0.00000000000E+00 -0.00000000000E+00 -0.48942249926E+02  0.48942249926E+02  0.00000000000E+00 0. -1.
         25    2    1    2    0    0  0.56914993449E+02 -0.10562351695E+03  0.27632305931E+03  0.32618613031E+03  0.12508922690E+03 0.  0.
         23    2    1    2    0    0 -0.56914993449E+02  0.10562351695E+03  0.21277492645E+03  0.26079635531E+03  0.91356038668E+02 0.  0.
          5    1    3    3  502    0 -0.88712098844E+00 -0.11099608980E+03  0.21270129025E+03  0.23995880940E+03  0.41800000000E+01 0. -1.
         -5    1    3    3    0  502  0.57802114437E+02  0.53725728537E+01  0.63621769056E+02  0.86227320904E+02  0.41800000000E+01 0. -1.
        -11    1    4    4    0    0 -0.78542293422E+02  0.66749217621E+02  0.17161652073E+03  0.20019135869E+03  0.00000000000E+00 0.  1.
         11    1    4    4    0    0  0.21627299973E+02  0.38874299329E+02  0.41158405725E+02  0.60604996612E+02  0.00000000000E+00 0. -1.
</event>
<event>
 8    1  0.6850220E-009  0.9609288E+02  0.7561462E-02  0.1288733E+00
         -1   -1    0    0    0  501 -0.00000000000E+00  0.00000000000E+00  0.34630754765E+02  0.34630754765E+02  0.00000000000E+00 0.  1.
          1   -1    0    0  501    0  0.00000000000E+00 -0.00000000000E+00 -0.47580301582E+03  0.47580301582E+03  0.00000000000E+00 0. -1.
         25    2    1    2    0    0 -0.26118113517E+02  0.16744036635E+02 -0.36667106483E+03  0.38866396983E+03  0.12509793380E+03 0.  0.
         23    2    1    2    0    0  0.26118113517E+02 -0.16744036635E+02 -0.74501196220E+02  0.12176980076E+03  0.91186279238E+02 0.  0.
          5    1    3    3  502    0 -0.59082217228E+02  0.60430757500E+00 -0.33442229242E+03  0.33962746598E+03  0.41800000000E+01 0. -1.
         -5    1    3    3    0  502  0.32964103711E+02  0.16139729060E+02 -0.32248772417E+02  0.49036503852E+02  0.41800000000E+01 0. -1.
        -11    1    4    4    0    0  0.31175730004E+02 -0.51873350364E+02 -0.42207626752E+02  0.73785190758E+02  0.00000000000E+00 0.  1.
         11    1    4    4    0    0 -0.50576164868E+01  0.35129313729E+02 -0.32293569468E+02  0.47984609997E+02  0.00000000000E+00 0. -1.
</event>
<event>
 8    1  0.6850220E-009  0.1273939E+03  0.7561462E-02  0.1231375E+00
          3   -1    0    0  501    0  0.00000000000E+00  0.00000000000E+00  0.14211822833E+03  0.14211822833E+03  0.00000000000E+00 0. -1.
         -3   -1    0    0    0  501 -0.00000000000E+00 -0.00000000000E+00 -0.18368129803E+03  0.18368129803E+03  0.00000000000E+00 0.  1.
         25    2    1    2    0    0  0.64666520946E+02 -0.88993726489E+02  0.22861741204E+02  0.16814185421E+03  0.12508949452E+03 0.  0.
         23    2    1    2    0    0 -0.64666520946E+02  0.88993726489E+02 -0.64424810909E+02  0.15765767215E+03  0.92756363891E+02 0.  0.
          5    1    3    3  502    0  0.16030567227E+02 -0.80376154917E+02  0.63723410428E+02  0.10390115881E+03  0.41800000000E+01 0.  1.
         -5    1    3    3    0  502  0.48635953719E+02 -0.86175715727E+01 -0.40861669224E+02  0.64240695402E+02  0.41800000000E+01 0.  1.
        -11    1    4    4    0    0 -0.41157102879E+02  0.12329488576E+02 -0.64464267937E+02  0.77469769889E+02  0.00000000000E+00 0.  1.
         11    1    4    4    0    0 -0.23509418067E+02  0.76664237913E+02  0.39457028151E-01  0.80187902264E+02  0.00000000000E+00 0. -1.
</event>
<event>
 8    1  0.6850220E-009  0.1688469E+03  0.7561462E-02  0.1179056E+00
         -1   -1    0    0    0  501 -0.00000000000E+00  0.00000000000E+00  0.12934882982E+03  0.12934882982E+03  0.00000000000E+00 0.  1.
          1   -1    0    0  501    0  0.00000000000E+00 -0.00000000000E+00 -0.29036924135E+03  0.29036924135E+03  0.00000000000E+00 0. -1.
         25    2    1    2    0    0 -0.11301290538E+03 -0.10878455537E+03 -0.11258851282E+03  0.23006714568E+03  0.12509485214E+03 0.  0.
         23    2    1    2    0    0  0.11301290538E+03  0.10878455537E+03 -0.48431898709E+02  0.18965092549E+03  0.94951716447E+02 0.  0.
          5    1    3    3  502    0 -0.10492216334E+03 -0.51511582151E+02 -0.12454620305E+03  0.17085471182E+03  0.41800000000E+01 0.  1.
         -5    1    3    3    0  502 -0.80907420356E+01 -0.57272973219E+02  0.11957690231E+02  0.59212433861E+02  0.41800000000E+01 0.  1.
        -11    1    4    4    0    0  0.45382871160E+02  0.73701212300E+02 -0.69049971814E+02  0.11072204973E+03  0.00000000000E+00 0. -1.
         11    1    4    4    0    0  0.67630034219E+02  0.35083343069E+02  0.20618073105E+02  0.78928875755E+02  0.00000000000E+00 0.  1.
</event>
<event>
 8    1  0.6850220E-009  0.2882634E+03  0.7561462E-02  0.1091259E+00
          1   -1    0    0  501    0  0.00000000000E+00  0.00000000000E+00  0.18896907863E+03  0.18896907863E+03  0.00000000000E+00 0. -1.
         -1   -1    0    0    0  501 -0.00000000000E+00 -0.00000000000E+00 -0.64521102915E+03  0.64521102915E+03  0.00000000000E+00 0.  1.
         25    2    1    2    0    0  0.63455691980E+01 -0.28144123880E+03 -0.22197978139E+02  0.30884909434E+03  0.12508227570E+03 0.  0.
         23    2    1    2    0    0 -0.63455691980E+01  0.28144123880E+03 -0.43404397238E+03  0.52533101344E+03  0.91263719956E+02 0.  0.
          5    1    3    3  502    0  0.16379248949E+02 -0.12022625090E+03 -0.70257939858E+02  0.14027217013E+03  0.41800000000E+01 0. -1.
         -5    1    3    3    0  502 -0.10033679751E+02 -0.16121498791E+03  0.48059961719E+02  0.16857692421E+03  0.41800000000E+01 0. -1.
        -11    1    4    4    0    0 -0.44055976730E+02  0.12243391348E+03 -0.22597041449E+03  0.26075586375E+03  0.00000000000E+00 0.  1.
         11    1    4    4    0    0  0.37710407532E+02  0.15900732532E+03 -0.20807355789E+03  0.26457514969E+03  0.00000000000E+00 0. -1.
</event>
<event>
 8    1  0.6850220E-009  0.9436821E+02  0.7561462E-02  0.1292605E+00
         -2   -1    0    0    0  501 -0.00000000000E+00  0.00000000000E+00  0.31251225379E+02  0.31251225379E+02  0.00000000000E+00 0.  1.
          2   -1    0    0  501    0  0.00000000000E+00 -0.00000000000E+00 -0.43775107529E+03  0.43775107529E+03  0.00000000000E+00 0. -1.
         25    2    1    2    0    0 -0.38593500212E+02 -0.10432805779E+02 -0.24269211309E+03  0.27594408930E+03  0.12508947584E+03 0.  0.
         23    2    1    2    0    0  0.38593500212E+02  0.10432805779E+02 -0.16380773682E+03  0.19305821137E+03  0.94022319909E+02 0.  0.
          5    1    3    3  502    0 -0.68787235302E+02  0.98333942127E+01 -0.67484321091E+02  0.96953521728E+02  0.41800000000E+01 0.  1.
         -5    1    3    3    0  502  0.30193735091E+02 -0.20266199992E+02 -0.17520779200E+03  0.17899056757E+03  0.41800000000E+01 0.  1.
        -11    1    4    4    0    0  0.57384388875E+02 -0.58159559613E+01 -0.49269396997E+02  0.75856884399E+02  0.00000000000E+00 0.  1.
         11    1    4    4    0    0 -0.18790888663E+02  0.16248761741E+02 -0.11453833982E+03  0.11720132697E+03  0.00000000000E+00 0. -1.
</event>
<event>
 8    1  0.6850220E-009  0.6309310E+02  0.7561462E-02  0.1385291E+00
         -2   -1    0    0    0  501 -0.00000000000E+00  0.00000000000E+00  0.18902430863E+02  0.18902430863E+02  0.00000000000E+00 0.  1.
          2   -1    0    0  501    0  0.00000000000E+00 -0.00000000000E+00 -0.86397090155E+03  0.86397090155E+03  0.00000000000E+00 0. -1.
         25    2    1    2    0    0  0.40344347394E+02 -0.38041901643E+01 -0.65586408080E+03  0.66891334314E+03  0.12508089352E+03 0.  0.
         23    2    1    2    0    0 -0.40344347394E+02  0.38041901643E+01 -0.18920438989E+03  0.21395998927E+03  0.91315046001E+02 0.  0.
          5    1    3    3  502    0  0.30917450969E+02 -0.45628283612E+01 -0.65766272361E+03  0.65841813356E+03  0.41800000000E+01 0. -1.
         -5    1    3    3    0  502  0.94268964254E+01  0.75863819685E+00  0.17986428134E+01  0.10495209579E+02  0.41800000000E+01 0. -1.
        -11    1    4    4    0    0  0.18052083699E+02 -0.14460271598E+02 -0.11724304403E+03  0.11950275543E+03  0.00000000000E+00 0. -1.
         11    1    4    4    0    0 -0.58396431094E+02  0.18264461762E+02 -0.71961345854E+02  0.94457233842E+02  0.00000000000E+00 0.  1.
</event>
<event>
 7    1  0.6850220E-009  0.2250915E+03  0.7561462E-02  0.1130143E+00
         -1   -1    0    0    0  501 -0.00000000000E+00  0.00000000000E+00  0.27489435694E+03  0.27489435694E+03  0.00000000000E+00 0.  1.
          1   -1    0    0  501    0  0.00000000000E+00 -0.00000000000E+00 -0.20168277618E+03  0.20168277618E+03  0.00000000000E+00 0. -1.
         23    2    1    2    0    0  0.61828027995E+02  0.19923334853E+03  0.19153572313E+02  0.22737337427E+03  0.88403392351E+02 0.  0.
          5    1    1    2  502    0  0.52280886356E+01 -0.15528733685E+03  0.64425932707E+02  0.16825475655E+03  0.41800000000E+01 0.  1.
         -5    1    1    2    0  502 -0.67056116631E+02 -0.43946011682E+02 -0.10367924258E+02  0.80949002303E+02  0.41800000000E+01 0.  1.
        -11    1    3    3    0    0  0.62350271532E+02  0.11997727182E+03  0.47330471767E+02  0.14325597953E+03  0.00000000000E+00 0.  1.
         11    1    3    3    0    0 -0.52224353707E+00  0.79256076711E+02 -0.28176899454E+02  0.84117394733E+02  0.00000000000E+00 0. -1.
</event>
<event>
 8    1  0.6850220E-009  0.1071638E+03  0.7561462E-02  0.1265914E+00
          2   -1    0    0  501    0  0.00000000000E+00  0.00000000000E+00  0.10500529112E+03  0.10500529112E+03  0.00000000000E+00 0.  1.
         -2   -1    0    0    0  501 -0.00000000000E+00 -0.00000000000E+00 -0.11619805770E+03  0.11619805770E+03  0.00000000000E+00 0. -1.
         25    2    1    2    0    0 -0.18163595063E+02 -0.92209942128E+00 -0.62100763542E+01  0.12656293692E+03  0.12509534564E+03 0.  0.
         23    2    1    2    0    0  0.18163595063E+02  0.92209942128E+00 -0.49826902302E+01  0.94640411898E+02  0.92742729684E+02 0.  0.
          5    1    3    3  502    0  0.23094126469E+02 -0.54087609827E+02 -0.41442590225E+01  0.59105460806E+02  0.41800000000E+01 0.  1.
         -5    1    3    3    0  502 -0.41257721532E+02  0.53165510406E+02 -0.20658173317E+01  0.67457476117E+02  0.41800000000E+01 0.  1.
        -11    1    4    4    0    0 -0.33672414468E+02 -0.96723969956E+01  0.14966142019E+02  0.38096878700E+02  0.00000000000E+00 0. -1.
         11    1    4    4    0    0  0.51836009531E+02  0.10594496417E+02 -0.19948832249E+02  0.56543533198E+02  0.00000000000E+00 0.  1.
</event>
<event>
 8    1  0.6850220E-009  0.1304852E+03  0.7561462E-02  0.1226738E+00
          2   -1    0    0  501    0  0.00000000000E+00  0.00000000000E+00  0.33219072403E+03  0.33219072403E+03  0.00000000000E+00 0. -1.
         -2   -1    0    0    0  501 -0.00000000000E+00 -0.00000000000E+00 -0.68602203502E+02  0.68602203502E+02  0.00000000000E+00 0.  1.
         25    2    1    2    0    0  0.36892839429E+02  0.72154669564E+02  0.56991753527E+02  0.15956409155E+03  0.12508101935E+03 0.  0.
         23    2    1    2    0    0 -0.36892839429E+02 -0.72154669564E+02  0.20659676700E+03  0.24122883598E+03  0.94560822920E+02 0.  0.
          5    1    3    3  502    0  0.49688739546E+02  0.97680534653E+02  0.18131493503E+02  0.11116060968E+03  0.41800000000E+01 0. -1.
         -5    1    3    3    0  502 -0.12795900116E+02 -0.25525865089E+02  0.38860260024E+02  0.48403481873E+02  0.41800000000E+01 0. -1.
        -11    1    4    4    0    0  0.30704222440E+02 -0.29056341797E+02  0.51409209826E+02  0.66557697746E+02  0.00000000000E+00 0. -1.
         11    1    4    4    0    0 -0.67597061869E+02 -0.43098327767E+02  0.15518755717E+03  0.17467113823E+03  0.00000000000E+00 0.  1.
</event>
<event>
 8    1  0.6850220E-009  0.1075952E+03  0.7561462E-02  0.1265089E+00
          1   -1    0    0  501    0  0.00000000000E+00  0.00000000000E+00  0.22382265729E+03  0.22382265729E+03  0.00000000000E+00 0. -1.
         -1   -1    0    0    0  501 -0.00000000000E+00 -0.00000000000E+00 -0.63660660644E+02  0.63660660644E+02  0.00000000000E+00 0.  1.
         25    2    1    2    0    0  0.27690580779E+02 -0.22347796515E+02  0.13235318195E+03  0.18556796127E+03  0.12510759851E+03 0.  0.
         23    2    1    2    0    0 -0.27690580779E+02  0.22347796515E+02  0.27808814699E+02  0.10191535667E+03  0.91363107853E+02 0.  0.
          5    1    3    3  502    0  0.38439299635E+02  0.39273830756E+02  0.10194925111E+03  0.11589277691E+03  0.41800000000E+01 0.  1.
         -5    1    3    3    0  502 -0.10748718856E+02 -0.61621627271E+02  0.30403930839E+02  0.69675184355E+02  0.41800000000E+01 0.  1.
        -11    1    4    4    0    0  0.25842058584E+02 -0.17013263256E+02  0.14415974873E+02  0.34133318766E+02  0.00000000000E+00 0.  1.
         11    1    4    4    0    0 -0.53532639363E+02  0.39361059770E+02  0.13392839826E+02  0.67782037901E+02  0.00000000000E+00 0. -1.
</event>
<event>
 8    1  0.6850220E-009  0.1024794E+03  0.7561462E-02  0.1275167E+00
          2   -1    0    0  501    0  0.00000000000E+00  0.00000000000E+00  0.38193888679E+02  0.38193888679E+02  0.00000000000E+00 0. -1.
         -2   -1    0    0    0  501 -0.00000000000E+00 -0.00000000000E+00 -0.51197216613E+03  0.51197216613E+03  0.00000000000E+00 0.  1.
         25    2    1    2    0    0 -0.30889181616E+02  0.12610099814E+02 -0.10137463861E+03  0.16443234554E+03  0.12509205709E+03 0.  0.
         23    2    1    2    0    0  0.30889181616E+02 -0.12610099814E+02 -0.37240363884E+03  0.38573370927E+03  0.94830733875E+02 0.  0.
          5    1    3    3  502    0 -0.60308305156E+02  0.34310028158E+02 -0.15801647395E+02  0.71284178914E+02  0.41800000000E+01 0. -1.
         -5    1    3    3    0  502  0.29419123541E+02 -0.21699928344E+02 -0.85572991211E+02  0.93148166621E+02  0.41800000000E+01 0. -1.
        -11    1    4    4    0    0  0.13117778025E+01  0.39078596728E+02 -0.11272325075E+03  0.11931214834E+03  0.00000000000E+00 0. -1.
         11    1    4    4    0    0  0.29577403813E+02 -0.51688696541E+02 -0.25968038810E+03  0.26642156093E+03  0.00000000000E+00 0.  1.
</event>
<event>
 8    1  0.6850220E-009  0.2185930E+03  0.7561462E-02  0.1134936E+00
         -3   -1    0    0    0  501 -0.00000000000E+00  0.00000000000E+00  0.27453159408E+03  0.27453159408E+03  0.00000000000E+00 0.  1.
          3   -1    0    0  501    0  0.00000000000E+00 -0.00000000000E+00 -0.19559362963E+03  0.19559362963E+03  0.00000000000E+00 0. -1.
         25    2    1    2    0    0  0.11000838246E+03 -0.16363282179E+03  0.23744115756E+00  0.23350127522E+03  0.12508095207E+03 0.  0.
         23    2    1    2    0    0 -0.11000838246E+03  0.16363282179E+03  0.78700523298E+02  0.23662394849E+03  0.10449677533E+03 0.  0.
          5    1    3    3  502    0  0.45196673867E+02 -0.15967200777E+03 -0.14998379866E+02  0.16667427273E+03  0.41800000000E+01 0. -1.
         -5    1    3    3    0  502  0.64811708596E+02 -0.39608140259E+01  0.15235821024E+02  0.66827002485E+02  0.41800000000E+01 0. -1.
        -11    1    4    4    0    0 -0.53680969918E+01  0.55095198841E+02 -0.17171449247E+02  0.57958226939E+02  0.00000000000E+00 0.  1.
         11    1    4    4    0    0 -0.10464028547E+03  0.10853762295E+03  0.95871972546E+02  0.17866572156E+03  0.00000000000E+00 0. -1.
</event>
<event>
 8    1  0.6850220E-009  0.1397571E+03  0.7561462E-02  0.1213656E+00
         -2   -1    0    0    0  501 -0.00000000000E+00  0.00000000000E+00  0.21802675383E+02  0.21802675383E+02  0.00000000000E+00 0.  1.
          2   -1    0    0  501    0  0.00000000000E+00 -0.00000000000E+00 -0.10720655271E+04  0.10720655271E+04  0.00000000000E+00 0. -1.
         25    2    1    2    0    0  0.74464210670E+02  0.69744442320E+02 -0.45611956181E+03  0.48384128591E+03  0.12509248331E+03 0.  0.
         23    2    1    2    0    0 -0.74464210670E+02 -0.69744442320E+02 -0.59414328996E+03  0.61002691662E+03  0.93366932572E+02 0.  0.
          5    1    3    3  502    0  0.20483140617E+02 -0.25000096432E+02 -0.31138104274E+02  0.45073471232E+02  0.41800000000E+01 0.  1.
         -5    1    3    3    0  502  0.53981070052E+02  0.94744538752E+02 -0.42498145753E+03  0.43876781468E+03  0.41800000000E+01 0.  1.
        -11    1    4    4    0    0 -0.70523509697E+02 -0.26309464921E+01 -0.27839336849E+03  0.28719915549E+03  0.00000000000E+00 0.  1.
         11    1    4    4    0    0 -0.39407009724E+01 -0.67113495828E+02 -0.31574992147E+03  0.32282776113E+03  0.00000000000E+00 0. -1.
</event>
<event>
 8    1  0.6850220E-009  0.1110275E+03  0.7561462E-02  0.1258679E+00
          1   -1    0    0  501    0  0.00000000000E+00  0.00000000000E+00  0.23132267928E+02  0.23132267928E+02  0.00000000000E+00 0. -1.
         -1   -1    0    0    0  501 -0.00000000000E+00 -0.00000000000E+00 -0.90670547132E+03  0.90670547132E+03  0.00000000000E+00 0.  1.
         25    2    1    2    0    0  0.92567314033E+02 -0.15695473774E+02 -0.42185610806E+03  0.44991714945E+03  0.12509120645E+03 0.  0.
         23    2    1    2    0    0 -0.92567314033E+02  0.15695473774E+02 -0.46171709533E+03  0.47992058981E+03  0.91247141720E+02 0.  0.
          5    1    3    3  502    0  0.67795267401E+02 -0.20200002857E+02 -0.41816711917E+03  0.42412904917E+03  0.41800000000E+01 0.  1.
         -5    1    3    3    0  502  0.24772046632E+02  0.45045290830E+01 -0.36889888903E+01  0.25788100271E+02  0.41800000000E+01 0.  1.
        -11    1    4    4    0    0 -0.72129305065E+02 -0.28043840036E+02 -0.34575194848E+03  0.35430707513E+03  0.00000000000E+00 0.  1.
         11    1    4    4    0    0 -0.20438008967E+02  0.43739313810E+02 -0.11596514686E+03  0.12561351467E+03  0.00000000000E+00 0. -1.
</event>
<event>
 8    1  0.6850220E-009  0.2712145E+03  0.7561462E-02  0.1100586E+00
         -1   -1    0    0    0  501 -0.00000000000E+00  0.00000000000E+00  0.11269984450E+03  0.11269984450E+03  0.00000000000E+00 0.  1.
          1   -1    0    0  501    0  0.00000000000E+00 -0.00000000000E+00 -0.70253484833E+03  0.70253484833E+03  0.00000000000E+00 0. -1.
         25    2    1    2    0    0 -0.25882272375E+03 -0.11560432749E+02 -0.28285697164E+03  0.40345770291E+03  0.12508879125E+03 0.  0.
         23    2    1    2    0    0  0.25882272375E+03  0.11560432749E+02 -0.30697803219E+03  0.41177698992E+03  0.90564514288E+02 0.  0.
          5    1    3    3  502    0 -0.90311871986E+02 -0.58674230222E+02 -0.14496418521E+03  0.18064049077E+03  0.41800000000E+01 0.  1.
         -5    1    3    3    0  502 -0.16851085176E+03  0.47113797473E+02 -0.13789278643E+03  0.22281721213E+03  0.41800000000E+01 0.  1.
        -11    1    4    4    0    0  0.22315020843E+03  0.15769649040E+02 -0.20415215389E+03  0.30285772120E+03  0.00000000000E+00 0. -1.
         11    1    4    4    0    0  0.35672515320E+02 -0.42092162904E+01 -0.10282587830E+03  0.10891926872E+03  0.00000000000E+00 0.  1.
</event>
<event>
 8    1  0.6850220E-009  0.1721708E+03  0.7561462E-02  0.1175603E+00
          2   -1    0    0  501    0  0.00000000000E+00  0.00000000000E+00  0.17914035336E+03  0.17914035336E+03  0.00000000000E+00 0. -1.
         -2   -1    0    0    0  501 -0.00000000000E+00 -0.00000000000E+00 -0.18037782874E+03  0.18037782874E+03  0.00000000000E+00 0.  1.
         25    2    1    2    0    0  0.12426497378E+02 -0.14087462673E+03  0.26111712453E+02  0.19059908181E+03  0.12508441216E+03 0.  0.
         23    2    1    2    0    0 -0.12426497378E+02  0.14087462673E+03 -0.27349187833E+02  0.16891910029E+03  0.88236081465E+02 0.  0.
          5    1    3    3  502    0 -0.48123584104E+02 -0.90247354387E+02  0.40827301756E+02  0.11020347222E+03  0.41800000000E+01 0.  1.
         -5    1    3    3    0  502  0.60550081482E+02 -0.50627272344E+02 -0.14715589304E+02  0.80395609588E+02  0.41800000000E+01 0.  1.
        -11    1    4    4    0    0  0.25738297169E+02  0.11745978023E+02 -0.18858732064E+02  0.34001172273E+02  0.00000000000E+00 0.  1.
         11    1    4    4    0    0 -0.38164794547E+02  0.12912864871E+03 -0.84904557686E+01  0.13491792801E+03  0.00000000000E+00 0. -1.
</event>
<event>
 8    1  0.6850220E-009  0.1429797E+03  0.7561462E-02  0.1209375E+00
          2   -1    0    0  501    0  0.00000000000E+00  0.00000000000E+00  0.40323048550E+03  0.40323048550E+03  0.00000000000E+00 0. -1.
         -2   -1    0    0    0  501 -0.00000000000E+00 -0.00000000000E+00 -0.72192193944E+02  0.72192193944E+02  0.00000000000E+00 0.  1.
         25    2    1    2    0    0  0.10760233261E+03 -0.18998290372E+00  0.28059355891E+03  0.32551298220E+03  0.12509059997E+03 0.  0.
         23    2    1    2    0    0 -0.10760233261E+03  0.18998290372E+00  0.50444732654E+02  0.14990969725E+03  0.91378050974E+02 0.  0.
          5    1    3    3  502    0  0.74697415031E+02 -0.57659120658E+02  0.19951003825E+03  0.22073967874E+03  0.41800000000E+01 0.  1.
         -5    1    3    3    0  502  0.32904917583E+02  0.57469137754E+02  0.81083520657E+02  0.10477330346E+03  0.41800000000E+01 0.  1.
        -11    1    4    4    0    0 -0.55365495196E+02 -0.31846908526E+02 -0.90397387956E+01  0.64507988020E+02  0.00000000000E+00 0.  1.
         11    1    4    4    0    0 -0.52236837418E+02  0.32036891429E+02  0.59484471449E+02  0.85401709231E+02  0.00000000000E+00 0. -1.
</event>
<event>
 8    1  0.6850220E-009  0.1255100E+03  0.7561462E-02  0.1234274E+00
          1   -1    0    0  501    0  0.00000000000E+00  0.00000000000E+00  0.76333375784E+03  0.76333375784E+03  0.00000000000E+00 0. -1.
         -1   -1    0    0    0  501 -0.00000000000E+00 -0.00000000000E+00 -0.23189653550E+02  0.23189653550E+02  0.00000000000E+00 0.  1.
         25    2    1    2    0    0  0.64871141448E+02  0.31832387072E+02  0.33126370671E+03  0.36139291919E+03  0.12509049842E+03 0.  0.
         23    2    1    2    0    0 -0.64871141448E+02 -0.31832387072E+02  0.40888039758E+03  0.42513049220E+03  0.91275352730E+02 0.  0.
          5    1    3    3  502    0 -0.36659137448E+02  0.24805705911E+01  0.11207951853E+03  0.11802260996E+03  0.41800000000E+01 0.  1.
         -5    1    3    3    0  502  0.10153027890E+03  0.29351816480E+02  0.21918418819E+03  0.24337030923E+03  0.41800000000E+01 0.  1.
        -11    1    4    4    0    0 -0.57754686105E+02  0.15984600036E+02  0.14562467546E+03  0.15747271925E+03  0.00000000000E+00 0.  1.
         11    1    4    4    0    0 -0.71164553421E+01 -0.47816987107E+02  0.26325572212E+03  0.26765777295E+03  0.00000000000E+00 0. -1.
</event>
<event>
 8    1  0.6850220E-009  0.1163109E+03  0.7561462E-02  0.1249310E+00
          2   -1    0    0  501    0  0.00000000000E+00  0.00000000000E+00  0.75825715546E+03  0.75825715546E+03  0.00000000000E+00 0. -1.
         -2   -1    0    0    0  501 -0.00000000000E+00 -0.00000000000E+00 -0.22550041207E+02  0.22550041207E+02  0.00000000000E+00 0.  1.
         25    2    1    2    0    0 -0.47820603595E+02 -0.43664190866E+02  0.33927339100E+03  0.36734993320E+03  0.12508464291E+03 0.  0.
         23    2    1    2    0    0  0.47820603595E+02  0.43664190866E+02  0.39643372326E+03  0.41345726347E+03  0.97948149992E+02 0.  0.
          5    1    3    3  502    0  0.22274429467E+02  0.30970445906E+02  0.91827033279E+02  0.99523842212E+02  0.41800000000E+01 0. -1.
         -5    1    3    3    0  502 -0.70095033062E+02 -0.74634636772E+02  0.24744635772E+03  0.26782609099E+03  0.41800000000E+01 0. -1.
        -11    1    4    4    0    0  0.59044697787E+02  0.14903417118E+02  0.36250510734E+03  0.36758446788E+03  0.00000000000E+00 0.  1.
         11    1    4    4    0    0 -0.11224094193E+02  0.28760773749E+02  0.33928615917E+02  0.45872795589E+02  0.00000000000E+00 0. -1.
</event>
<event>
 8    1  0.6850220E-009  0.2748916E+03  0.7561462E-02  0.1098512E+00
         -2   -1    0    0    0  501 -0.00000000000E+00  0.00000000000E+00  0.23988315744E+03  0.23988315744E+03  0.00000000000E+00 0.  1.
          2   -1    0    0  501    0  0.00000000000E+00 -0.00000000000E+00 -0.37259509641E+03  0.37259509641E+03  0.00000000000E+00 0. -1.
         25    2    1    2    0    0 -0.15617361240E+03  0.20826874242E+03 -0.16950354066E+03  0.33488097206E+03  0.12509096239E+03 0.  0.
         23    2    1    2    0    0  0.15617361240E+03 -0.20826874242E+03  0.36791601693E+02  0.27759728179E+03  0.89109834613E+02 0.  0.
          5    1    3    3  502    0 -0.17015542404E+03  0.18794251552E+03 -0.17644898264E+03  0.30891256586E+03  0.41800000000E+01 0.  1.
         -5    1    3    3    0  502  0.13981811634E+02  0.20326226895E+02  0.69454419780E+01  0.25968406201E+02  0.41800000000E+01 0.  1.
        -11    1    4    4    0    0  0.23592500002E+01 -0.51574536006E+02  0.25885875909E+02  0.57754457806E+02  0.00000000000E+00 0.  1.
         11    1    4    4    0    0  0.15381436240E+03 -0.15669420641E+03  0.10905725784E+02  0.21984282399E+03  0.00000000000E+00 0. -1.
</event>
<event>
 8    1  0.6850220E-009  0.1432358E+03  0.7561462E-02  0.1209040E+00
         -2   -1    0    0    0  501 -0.00000000000E+00  0.00000000000E+00  0.77550639534E+02  0.77550639534E+02  0.00000000000E+00 0.  1.
          2   -1    0    0  501    0  0.00000000000E+00 -0.00000000000E+00 -0.32736480866E+03  0.32736480866E+03  0.00000000000E+00 0. -1.
         25    2    1    2    0    0 -0.76625968005E+02 -0.85137005169E+02 -0.15801202938E+03  0.23180895770E+03  0.12509093819E+03 0.  0.
         23    2    1    2    0    0  0.76625968005E+02  0.85137005169E+02 -0.91802139746E+02  0.17310649050E+03  0.91751706083E+02 0.  0.
          5    1    3    3  502    0 -0.86697898761E+02 -0.10142572593E+03 -0.89930502908E+02  0.16096170750E+03  0.41800000000E+01 0.  1.
         -5    1    3    3    0  502  0.10071930756E+02  0.16288720757E+02 -0.68081526474E+02  0.70847250194E+02  0.41800000000E+01 0.  1.
        -11    1    4    4    0    0 -0.83257843053E+00  0.47050477606E+02  0.55593448805E-01  0.47057876284E+02  0.00000000000E+00 0.  1.
         11    1    4    4    0    0  0.77458546435E+02  0.38086527563E+02 -0.91857733195E+02  0.12604861421E+03  0.00000000000E+00 0. -1.
</event>
<event>
 8    1  0.6850220E-009  0.9080258E+02  0.7561462E-02  0.1300920E+00
          1   -1    0    0  501    0  0.00000000000E+00  0.00000000000E+00  0.95106009158E+03  0.95106009158E+03  0.00000000000E+00 0. -1.
         -1   -1    0    0    0  501 -0.00000000000E+00 -0.00000000000E+00 -0.18419012603E+02  0.18419012603E+02  0.00000000000E+00 0.  1.
         25    2    1    2    0    0 -0.18806373522E+02  0.66270436808E+02  0.63968674549E+03  0.65543272833E+03  0.12508988183E+03 0.  0.
         23    2    1    2    0    0  0.18806373522E+02 -0.66270436808E+02  0.29295433348E+03  0.31404637585E+03  0.89763211812E+02 0.  0.
          5    1    3    3  502    0 -0.53427762705E+02  0.45112115637E+02  0.16846363526E+03  0.18244752016E+03  0.41800000000E+01 0.  1.
         -5    1    3    3    0  502  0.34621389183E+02  0.21158321172E+02  0.47122311023E+03  0.47298520818E+03  0.41800000000E+01 0.  1.
        -11    1    4    4    0    0  0.13396795581E+02 -0.19357949065E+02  0.74928249773E+01  0.24705196822E+02  0.00000000000E+00 0.  1.
         11    1    4    4    0    0  0.54095779403E+01 -0.46912487743E+02  0.28546150851E+03  0.28934117902E+03  0.00000000000E+00 0. -1.
</event>
<event>
 8    1  0.6850220E-009  0.2159261E+03  0.7561462E-02  0.1136957E+00
          2   -1    0    0  501    0  0.00000000000E+00  0.00000000000E+00  0.70083375049E+03  0.70083375049E+03  0.00000000000E+00 0. -1.
         -2   -1    0    0    0  501 -0.00000000000E+00 -0.00000000000E+00 -0.77414594731E+02  0.77414594731E+02  0.00000000000E+00 0.  1.
         25    2    1    2    0    0 -0.13392862244E+03  0.15461332176E+03  0.35341388768E+03  0.42707542414E+03  0.12509950727E+03 0.  0.
         23    2    1    2    0    0  0.13392862244E+03 -0.15461332176E+03  0.27000526808E+03  0.35117292108E+03  0.92614364643E+02 0.  0.
          5    1    3    3  502    0 -0.11168455021E+02  0.74579709547E+02  0.20496239531E+03  0.21843516969E+03  0.41800000000E+01 0.  1.
         -5    1    3    3    0  502 -0.12276016742E+03  0.80033612214E+02  0.14845149237E+03  0.20864025445E+03  0.41800000000E+01 0.  1.
        -11    1    4    4    0    0  0.11379867958E+03 -0.99919669612E+02  0.24439940306E+03  0.28751547448E+03  0.00000000000E+00 0. -1.
         11    1    4    4    0    0  0.20129942868E+02 -0.54693652150E+02  0.25605865020E+02  0.63657446609E+02  0.00000000000E+00 0.  1.
</event>
<event>
 8    1  0.6850220E-009  0.7792007E+02  0.7561462E-02  0.1335060E+00
          1   -1    0    0  501    0  0.00000000000E+00  0.00000000000E+00  0.45839489418E+03  0.45839489418E+03  0.00000000000E+00 0. -1.
         -1   -1    0    0    0  501 -0.00000000000E+00 -0.00000000000E+00 -0.36099139615E+02  0.36099139615E+02  0.00000000000E+00 0.  1.
         25    2    1    2    0    0  0.45009006352E+01  0.15221312699E+02  0.36080244679E+03  0.38220254036E+03  0.12509368402E+03 0.  0.
         23    2    1    2    0    0 -0.45009006352E+01 -0.15221312699E+02  0.61493307782E+02  0.11229149344E+03  0.92606728321E+02 0.  0.
          5    1    3    3  502    0  0.62656717737E+02  0.10349402971E+02  0.23490163367E+03  0.24337054941E+03  0.41800000000E+01 0.  1.
         -5    1    3    3    0  502 -0.58155817102E+02  0.48719097285E+01  0.12590081312E+03  0.13883199095E+03  0.41800000000E+01 0.  1.
        -11    1    4    4    0    0 -0.86585274134E+01  0.69670190775E+01 -0.22619412100E+02  0.25202127996E+02  0.00000000000E+00 0.  1.
         11    1    4    4    0    0  0.41576267782E+01 -0.22188331777E+02  0.84112719882E+02  0.87089365444E+02  0.00000000000E+00 0. -1.
</event>
<event>
 8    1  0.6850220E-009  0.3630801E+03  0.7561462E-02  0.1057371E+00
          2   -1    0    0  501    0  0.00000000000E+00  0.00000000000E+00  0.11663451650E+03  0.11663451650E+03  0.00000000000E+00 0. -1.
         -2   -1    0    0    0  501 -0.00000000000E+00 -0.00000000000E+00 -0.11815127702E+04  0.11815127702E+04  0.00000000000E+00 0.  1.
         25    2    1    2    0    0 -0.30561766068E+03 -0.17618970564E+03 -0.46489585335E+03  0.59684183168E+03  0.12508817164E+03 0.  0.
         23    2    1    2    0    0  0.30561766068E+03  0.17618970564E+03 -0.59998240036E+03  0.70130545503E+03  0.86055177814E+02 0.  0.
          5    1    3    3  502    0 -0.30350890335E+03 -0.18414807451E+03 -0.41519146295E+03  0.54628709582E+03  0.41800000000E+01 0.  1.
         -5    1    3    3    0  502 -0.21087573355E+01  0.79583688646E+01 -0.49704390398E+02  0.50554735855E+02  0.41800000000E+01 0.  1.
        -11    1    4    4    0    0  0.11454392440E+03  0.11233885378E+03 -0.23774354821E+03  0.28681409205E+03  0.00000000000E+00 0. -1.
         11    1    4    4    0    0  0.19107373628E+03  0.63850851860E+02 -0.36223885215E+03  0.41449136298E+03  0.00000000000E+00 0.  1.
</event>
<event>
 8    1  0.6850220E-009  0.9819931E+02  0.7561462E-02  0.1284129E+00
          2   -1    0    0  501    0  0.00000000000E+00  0.00000000000E+00  0.79584208116E+03  0.79584208116E+03  0.00000000000E+00 0. -1.
         -2   -1    0    0    0  501 -0.00000000000E+00 -0.00000000000E+00 -0.14431045293E+02  0.14431045293E+02  0.00000000000E+00 0.  1.
         25    2    1    2    0    0 -0.57653749496E+01 -0.15090929341E+02  0.49464539030E+03  0.51047256765E+03  0.12508878639E+03 0.  0.
         23    2    1    2    0    0  0.57653749496E+01  0.15090929341E+02  0.28676564557E+03  0.29980055881E+03  0.85935230756E+02 0.  0.
          5    1    3    3  502    0  0.48217378927E+02  0.10291170212E+02  0.10277361796E+03  0.11406451141E+03  0.41800000000E+01 0.  1.
         -5    1    3    3    0  502 -0.53982753876E+02 -0.25382099553E+02  0.39187177234E+03  0.39640805624E+03  0.41800000000E+01 0.  1.
        -11    1    4    4    0    0 -0.36815005099E+02 -0.94033843862E+01  0.13792666313E+03  0.14306478477E+03  0.00000000000E+00 0. -1.
         11    1    4    4    0    0  0.42580380048E+02  0.24494313727E+02  0.14883898244E+03  0.15673577404E+03  0.00000000000E+00 0.  1.
</event>
<event>
 8    1  0.6850220E-009  0.7003154E+02  0.7561462E-02  0.1359986E+00
          1   -1    0    0  501    0  0.00000000000E+00  0.00000000000E+00  0.29184640513E+03  0.29184640513E+03  0.00000000000E+00 0. -1.
         -1   -1    0    0    0  501 -0.00000000000E+00 -0.00000000000E+00 -0.48176876305E+02  0.48176876305E+02  0.00000000000E+00 0.  1.
         25    2    1    2    0    0  0.29539541827E+02 -0.35621265341E+02  0.13310225156E+03  0.18840422765E+03  0.12505392657E+03 0.  0.
         23    2    1    2    0    0 -0.29539541827E+02  0.35621265341E+02  0.11056727727E+03  0.15161905379E+03  0.92853409162E+02 0.  0.
          5    1    3    3  502    0  0.18411587457E+02 -0.20004418991E+02 -0.20025189979E+02  0.34024167375E+02  0.41800000000E+01 0. -1.
         -5    1    3    3    0  502  0.11127954370E+02 -0.15616846350E+02  0.15312744154E+03  0.15438006027E+03  0.41800000000E+01 0. -1.
        -11    1    4    4    0    0 -0.44476020782E+02 -0.94320110640E+01  0.88025548475E+02  0.99073591041E+02  0.00000000000E+00 0. -1.
         11    1    4    4    0    0  0.14936478955E+02  0.45053276405E+02  0.22541728797E+02  0.52545462750E+02  0.00000000000E+00 0.  1.
</event>
<event>
 8    1  0.6850220E-009  0.1074222E+03  0.7561462E-02  0.1265419E+00
         -1   -1    0    0    0  501 -0.00000000000E+00  0.00000000000E+00  0.52517667907E+03  0.52517667907E+03  0.00000000000E+00 0.  1.
          1   -1    0    0  501    0  0.00000000000E+00 -0.00000000000E+00 -0.27986465561E+02  0.27986465561E+02  0.00000000000E+00 0. -1.
         25    2    1    2    0    0  0.22800930637E+02 -0.20468704223E+02  0.37385878309E+03  0.39542121093E+03  0.12509474038E+03 0.  0.
         23    2    1    2    0    0 -0.22800930637E+02  0.20468704223E+02  0.12333143042E+03  0.15774193370E+03  0.93450658783E+02 0.  0.
          5    1    3    3  502    0  0.16349312611E+02  0.51985235851E+02  0.13328126838E+03  0.14405253788E+03  0.41800000000E+01 0. -1.
         -5    1    3    3    0  502  0.64516180261E+01 -0.72453940074E+02  0.24057751471E+03  0.25136867305E+03  0.41800000000E+01 0. -1.
        -11    1    4    4    0    0  0.30989030311E+02  0.96926335489E+01  0.84519746349E+02  0.90542004990E+02  0.00000000000E+00 0.  1.
         11    1    4    4    0    0 -0.53789960948E+02  0.10776070674E+02  0.38811684072E+02  0.67199928709E+02  0.00000000000E+00 0. -1.
</event>
<event>
 8    1  0.6850220E-009  0.9714428E+02  0.7561462E-02  0.1286418E+00
          1   -1    0    0  501    0  0.00000000000E+00  0.00000000000E+00  0.72629554452E+03  0.72629554452E+03  0.00000000000E+00 0. -1.
         -1   -1    0    0    0  501 -0.00000000000E+00 -0.00000000000E+00 -0.20755754368E+02  0.20755754368E+02  0.00000000000E+00 0.  1.
         25    2    1    2    0    0  0.46579827537E+02 -0.38241770410E+02  0.38415765170E+03  0.40848915988E+03  0.12511666172E+03 0.  0.
         23    2    1    2    0    0 -0.46579827537E+02  0.38241770410E+02  0.32138213846E+03  0.33856213902E+03  0.87782285903E+02 0.  0.
          5    1    3    3  502    0  0.20508062196E+02  0.23504750585E+02  0.18066376174E+02  0.36289396015E+02  0.41800000000E+01 0.  1.
         -5    1    3    3    0  502  0.26071765341E+02 -0.61746520995E+02  0.36609127553E+03  0.37219976386E+03  0.41800000000E+01 0.  1.
        -11    1    4    4    0    0 -0.52625389782E+02 -0.41978219447E+01  0.10012438438E+03  0.11318986574E+03  0.00000000000E+00 0.  1.
         11    1    4    4    0    0  0.60455622452E+01  0.42439592355E+02  0.22125775408E+03  0.22537227328E+03  0.00000000000E+00 0. -1.
</event>
<event>
 8    1  0.6850220E-009  0.1182951E+03  0.7561462E-02  0.1245936E+00
          4   -1    0    0  501    0  0.00000000000E+00  0.00000000000E+00  0.15106533014E+03  0.15106533014E+03  0.00000000000E+00 0. -1.
         -4   -1    0    0    0  501 -0.00000000000E+00 -0.00000000000E+00 -0.14578670531E+03  0.14578670531E+03  0.00000000000E+00 0.  1.
         25    2    1    2    0    0 -0.67243919407E+02 -0.33008499986E+02 -0.66132906168E+02  0.16010010138E+03  0.12508867021E+03 0.  0.
         23    2    1    2    0    0  0.67243919407E+02  0.33008499986E+02  0.71411530996E+02  0.13675193407E+03  0.89387800865E+02 0.  0.
          5    1    3    3  502    0 -0.52346825545E+02 -0.77964997531E+02 -0.61496648713E+02  0.11233005469E+03  0.41800000000E+01 0. -1.
         -5    1    3    3    0  502 -0.14897093862E+02  0.44956497545E+02 -0.46362574544E+01  0.47770046685E+02  0.41800000000E+01 0. -1.
        -11    1    4    4    0    0  0.42394990602E+02  0.49536323124E+02  0.82288090626E+02  0.10498815360E+03  0.00000000000E+00 0. -1.
         11    1    4    4    0    0  0.24848928805E+02 -0.16527823138E+02 -0.10876559630E+02  0.31763780471E+02  0.00000000000E+00 0.  1.
</event>
<event>
 8    1  0.6850220E-009  0.9203400E+02  0.7561462E-02  0.1298000E+00
          1   -1    0    0  501    0  0.00000000000E+00  0.00000000000E+00  0.90416641252E+02  0.90416641252E+02  0.00000000000E+00 0. -1.
         -1   -1    0    0    0  501 -0.00000000000E+00 -0.00000000000E+00 -0.20432256976E+03  0.20432256976E+03  0.00000000000E+00 0.  1.
         25    2    1    2    0    0  0.40246482537E+02 -0.43495821858E+01 -0.13695189321E+03  0.18985176909E+03  0.12509666244E+03 0.  0.
         23    2    1    2    0    0 -0.40246482537E+02  0.43495821858E+01  0.23045964699E+02  0.10488744192E+03  0.93976384061E+02 0.  0.
          5    1    3    3  502    0 -0.14995518049E+01  0.30396660356E+02  0.10654113346E+02  0.32514429837E+02  0.41800000000E+01 0.  1.
         -5    1    3    3    0  502  0.41746034342E+02 -0.34746242542E+02 -0.14760600655E+03  0.15733733926E+03  0.41800000000E+01 0.  1.
        -11    1    4    4    0    0 -0.38878137305E+02  0.44276782437E+02  0.31757840805E+00  0.58924051790E+02  0.00000000000E+00 0. -1.
         11    1    4    4    0    0 -0.13683452322E+01 -0.39927200252E+02  0.22728386291E+02  0.45963390127E+02  0.00000000000E+00 0.  1.
</event>
<event>
 8    1  0.6850220E-009  0.8284644E+02  0.7561462E-02  0.1321162E+00
          3   -1    0    0  501    0  0.00000000000E+00  0.00000000000E+00  0.19392654932E+02  0.19392654932E+02  0.00000000000E+00 0. -1.
         -3   -1    0    0    0  501 -0.00000000000E+00 -0.00000000000E+00 -0.78713289249E+03  0.78713289249E+03  0.00000000000E+00 0.  1.
         25    2    1    2    0    0  0.16155941261E+02  0.75740508753E+01 -0.61746274321E+03  0.63025805771E+03  0.12508636765E+03 0.  0.
         23    2    1    2    0    0 -0.16155941261E+02 -0.75740508753E+01 -0.15027749435E+03  0.17626748971E+03  0.90379875733E+02 0.  0.
          5    1    3    3  502    0  0.22053588728E+02  0.45078080800E+02 -0.10581312406E+03  0.11718482738E+03  0.41800000000E+01 0. -1.
         -5    1    3    3    0  502 -0.58976474673E+01 -0.37504029925E+02 -0.51164961915E+03  0.51307323033E+03  0.41800000000E+01 0. -1.
        -11    1    4    4    0    0  0.15377470080E+02  0.26547791813E+02 -0.16894020209E+02  0.35023702761E+02  0.00000000000E+00 0. -1.
         11    1    4    4    0    0 -0.31533411341E+02 -0.34121842689E+02 -0.13338347414E+03  0.14124378695E+03  0.00000000000E+00 0.  1.
</event>
<event>
 8    1  0.6850220E-009  0.9592491E+02  0.7561462E-02  0.1289106E+00
          2   -1    0    0  501    0  0.00000000000E+00  0.00000000000E+00  0.52830466072E+03  0.52830466072E+03  0.00000000000E+00 0. -1.
         -2   -1    0    0    0  501 -0.00000000000E+00 -0.00000000000E+00 -0.25780457737E+02  0.25780457737E+02  0.00000000000E+00 0.  1.
         25    2    1    2    0    0 -0.11230513514E+02  0.51635863144E+00  0.38399365695E+03  0.40401137078E+03  0.12509063948E+03 0.  0.
         23    2    1    2    0    0  0.11230513514E+02 -0.51635863144E+00  0.11853054603E+03  0.15007374767E+03  0.91357803921E+02 0.  0.
          5    1    3    3  502    0  0.55425105574E+02 -0.74387442006E+01  0.21319409508E+03  0.22044607463E+03  0.41800000000E+01 0.  1.
         -5    1    3    3    0  502 -0.66655619087E+02  0.79551028320E+01  0.17079956187E+03  0.18356529615E+03  0.41800000000E+01 0.  1.
        -11    1    4    4    0    0  0.24788506356E+02 -0.28285832115E+02  0.12502630549E+02  0.39634254332E+02  0.00000000000E+00 0. -1.
         11    1    4    4    0    0 -0.13557992842E+02  0.27769473483E+02  0.10602791548E+03  0.11043949334E+03  0.00000000000E+00 0.  1.
</event>
<event>
 8    1  0.6850220E-009  0.1105932E+03  0.7561462E-02  0.1259475E+00
          3   -1    0    0  501    0  0.00000000000E+00  0.00000000000E+00  0.14975797690E+04  0.14975797690E+04  0.00000000000E+00 0. -1.
         -3   -1    0    0    0  501 -0.00000000000E+00 -0.00000000000E+00 -0.20403938054E+02  0.20403938054E+02  0.00000000000E+00 0.  1.
         25    2    1    2    0    0 -0.19910410335E+02 -0.37406399298E+02  0.13461128516E+04  0.13525766892E+04  0.12509287687E+03 0.  0.
         23    2    1    2    0    0  0.19910410335E+02  0.37406399298E+02  0.13106297933E+03  0.16540701781E+03  0.91576819353E+02 0.  0.
          5    1    3    3  502    0 -0.24159228435E+02  0.43839963919E+02  0.46451255376E+03  0.46722050014E+03  0.41800000000E+01 0.  1.
         -5    1    3    3    0  502  0.42488181006E+01 -0.81246363217E+02  0.88160029783E+03  0.88535618907E+03  0.41800000000E+01 0.  1.
        -11    1    4    4    0    0  0.38809312350E+02 -0.86032274544E+01  0.21757128055E+02  0.45316121512E+02  0.00000000000E+00 0.  1.
         11    1    4    4    0    0 -0.18898902016E+02  0.46009626753E+02  0.10930585127E+03  0.12009089630E+03  0.00000000000E+00 0. -1.
</event>
<event>
 8    1  0.6850220E-009  0.1209784E+03  0.7561462E-02  0.1241492E+00
         -2   -1    0    0    0  501 -0.00000000000E+00  0.00000000000E+00  0.58821429148E+02  0.58821429148E+02  0.00000000000E+00 0. -1.
          2   -1    0    0  501    0  0.00000000000E+00 -0.00000000000E+00 -0.46994835074E+03  0.46994835074E+03  0.00000000000E+00 0.  1.
         25    2    1    2    0    0 -0.51880606104E+02  0.83164171161E+02 -0.95052019346E+02  0.18517482813E+03  0.12508778492E+03 0.  0.
         23    2    1    2    0    0  0.51880606104E+02 -0.83164171161E+02 -0.31607490225E+03  0.34359495177E+03  0.92446040440E+02 0.  0.
          5    1    3    3  502    0 -0.11415462583E+02  0.68335597599E+02  0.11322265698E+02  0.70325904087E+02  0.41800000000E+01 0. -1.
         -5    1    3    3    0  502 -0.40465143521E+02  0.14828573562E+02 -0.10637428504E+03  0.11484892404E+03  0.41800000000E+01 0. -1.
        -11    1    4    4    0    0 -0.23031397875E+02 -0.12206533257E+02 -0.11106461268E+03  0.11408239537E+03  0.00000000000E+00 0.  1.
         11    1    4    4    0    0  0.74912003979E+02 -0.70957637903E+02 -0.20501028956E+03  0.22951255640E+03  0.00000000000E+00 0. -1.
</event>
<event>
 8    1  0.6850220E-009  0.1468895E+03  0.7561462E-02  0.1204348E+00
          3   -1    0    0  501    0  0.00000000000E+00  0.00000000000E+00  0.97490927390E+03  0.97490927390E+03  0.00000000000E+00 0. -1.
         -3   -1    0    0    0  501 -0.00000000000E+00 -0.00000000000E+00 -0.24387176924E+02  0.24387176924E+02  0.00000000000E+00 0.  1.
         25    2    1    2    0    0  0.99683358172E+02 -0.18534083180E+02  0.38318968189E+03  0.41564671462E+03  0.12509026713E+03 0.  0.
         23    2    1    2    0    0 -0.99683358172E+02  0.18534083180E+02  0.56733241509E+03  0.58364973621E+03  0.92199030514E+02 0.  0.
          5    1    3    3  502    0 -0.61173149226E+01 -0.49688212046E+02  0.10643767455E+03  0.11769787986E+03  0.41800000000E+01 0. -1.
         -5    1    3    3    0  502  0.10580067309E+03  0.31154128866E+02  0.27675200733E+03  0.29794883476E+03  0.41800000000E+01 0. -1.
        -11    1    4    4    0    0 -0.23699220989E+02  0.46509631937E+02  0.29315331887E+03  0.29776444936E+03  0.00000000000E+00 0. -1.
         11    1    4    4    0    0 -0.75984137183E+02 -0.27975548757E+02  0.27417909622E+03  0.28588528684E+03  0.00000000000E+00 0.  1.
</event>
<event>
 8    1  0.6850220E-009  0.1601492E+03  0.7561462E-02  0.1188528E+00
          1   -1    0    0  501    0  0.00000000000E+00  0.00000000000E+00  0.98727008910E+03  0.98727008910E+03  0.00000000000E+00 0. -1.
         -1   -1    0    0    0  501 -0.00000000000E+00 -0.00000000000E+00 -0.46102144899E+02  0.46102144899E+02  0.00000000000E+00 0.  1.
         25    2    1    2    0    0 -0.15147634266E+03 -0.50038654829E+02  0.70192985385E+03  0.73061809673E+03  0.12509330192E+03 0.  0.
         23    2    1    2    0    0  0.15147634266E+03  0.50038654829E+02  0.23923809035E+03  0.30275413727E+03  0.94743096816E+02 0.  0.
          5    1    3    3  502    0 -0.62259498131E+02 -0.14590162374E+02  0.52829248432E+03  0.53216495500E+03  0.41800000000E+01 0.  1.
         -5    1    3    3    0  502 -0.89216844528E+02 -0.35448492455E+02  0.17363736953E+03  0.19845314173E+03  0.41800000000E+01 0.  1.
        -11    1    4    4    0    0  0.12569115625E+03  0.35905245790E+02  0.11192382646E+03  0.17208833884E+03  0.00000000000E+00 0.  1.
         11    1    4    4    0    0  0.25785186412E+02  0.14133409038E+02  0.12731426389E+03  0.13066579843E+03  0.00000000000E+00 0. -1.
</event>
<event>
 8    1  0.6850220E-009  0.9178166E+02  0.7561462E-02  0.1298594E+00
         -1   -1    0    0    0  501 -0.00000000000E+00  0.00000000000E+00  0.18740309808E+02  0.18740309808E+02  0.00000000000E+00 0.  1.
          1   -1    0    0  501    0  0.00000000000E+00 -0.00000000000E+00 -0.96356419586E+03  0.96356419586E+03  0.00000000000E+00 0. -1.
         25    2    1    2    0    0  0.35138042020E+02  0.24892878120E+02 -0.76738475960E+03  0.77870456848E+03  0.12508836207E+03 0.  0.
         23    2    1    2    0    0 -0.35138042020E+02 -0.24892878120E+02 -0.17743912645E+03  0.20359993719E+03  0.90077485805E+02 0.  0.
          5    1    3    3  502    0 -0.27930118755E+02  0.35154252138E+02 -0.12054629678E+03  0.12870429303E+03  0.41800000000E+01 0. -1.
         -5    1    3    3    0  502  0.63068160775E+02 -0.10261374019E+02 -0.64683846282E+03  0.65000027545E+03  0.41800000000E+01 0. -1.
        -11    1    4    4    0    0  0.11641399270E+02 -0.25086872035E+02 -0.14263932834E+03  0.14529573743E+03  0.00000000000E+00 0. -1.
         11    1    4    4    0    0 -0.46779441290E+02  0.19399391572E+00 -0.34799798111E+02  0.58304199759E+02  0.00000000000E+00 0.  1.
</event>
<event>
 8    1  0.6850220E-009  0.2371597E+03  0.7561462E-02  0.1121700E+00
         -1   -1    0    0    0  501 -0.00000000000E+00  0.00000000000E+00  0.43254278926E+03  0.43254278926E+03  0.00000000000E+00 0.  1.
          1   -1    0    0  501    0  0.00000000000E+00 -0.00000000000E+00 -0.16054640061E+03  0.16054640061E+03  0.00000000000E+00 0. -1.
         25    2    1    2    0    0  0.22741352977E+03  0.31632638104E+02  0.60569025774E+02  0.26839244225E+03  0.12509340055E+03 0.  0.
         23    2    1    2    0    0 -0.22741352977E+03 -0.31632638104E+02  0.21142736288E+03  0.32469674761E+03  0.89492518243E+02 0.  0.
          5    1    3    3  502    0  0.18191374191E+03  0.44957431670E+02 -0.48449740224E+01  0.18749593684E+03  0.41800000000E+01 0. -1.
         -5    1    3    3    0  502  0.45499787855E+02 -0.13324793566E+02  0.65413999796E+02  0.80896505411E+02  0.41800000000E+01 0. -1.
        -11    1    4    4    0    0 -0.17249389685E+03  0.61946830009E+01  0.18485605670E+03  0.25291160560E+03  0.00000000000E+00 0.  1.
         11    1    4    4    0    0 -0.54919632918E+02 -0.37827321105E+02  0.26571306177E+02  0.71785142013E+02  0.00000000000E+00 0. -1.
</event>
<event>
 8    1  0.6850220E-009  0.5414341E+02  0.7561462E-02  0.1424194E+00
         -3   -1    0    0    0  501 -0.00000000000E+00  0.00000000000E+00  0.55548513869E+02  0.55548513869E+02  0.00000000000E+00 0.  1.
          3   -1    0    0  501    0  0.00000000000E+00 -0.00000000000E+00 -0.23454990010E+03  0.23454990010E+03  0.00000000000E+00 0. -1.
         25    2    1    2    0    0  0.21851729855E+02 -0.21413893374E+02 -0.88990269421E+02  0.15653934358E+03  0.12509694285E+03 0.  0.
         23    2    1    2    0    0 -0.21851729855E+02  0.21413893374E+02 -0.90011116806E+02  0.13355907038E+03  0.93808161726E+02 0.  0.
          5    1    3    3  502    0  0.23595093157E+02  0.13475355635E+01  0.28224527023E+02  0.37049164617E+02  0.41800000000E+01 0.  1.
         -5    1    3    3    0  502 -0.17433633013E+01 -0.22761428937E+02 -0.11721479644E+03  0.11949017896E+03  0.41800000000E+01 0.  1.
        -11    1    4    4    0    0 -0.16381256486E+02 -0.16217975796E+02  0.11062526298E+02  0.25568492155E+02  0.00000000000E+00 0.  1.
         11    1    4    4    0    0 -0.54704733690E+01  0.37631869170E+02 -0.10107364310E+03  0.10799057823E+03  0.00000000000E+00 0. -1.
</event>
<event>
 8    1  0.6850220E-009  0.1546300E+03  0.7561462E-02  0.1194896E+00
          1   -1    0    0  501    0  0.00000000000E+00  0.00000000000E+00  0.30205602422E+02  0.30205602422E+02  0.00000000000E+00 0. -1.
         -1   -1    0    0    0  501 -0.00000000000E+00 -0.00000000000E+00 -0.11302366920E+04  0.11302366920E+04  0.00000000000E+00 0.  1.
         25    2    1    2    0    0 -0.14894172367E+03  0.97229658224E+00 -0.56126562207E+03  0.59401246267E+03  0.12508846821E+03 0.  0.
         23    2    1    2    0    0  0.14894172367E+03 -0.97229658224E+00 -0.53876546746E+03  0.56642983171E+03  0.91596631534E+02 0.  0.
          5    1    3    3  502    0 -0.10593481858E+03 -0.46102925027E+01 -0.52966400641E+03  0.54018966361E+03  0.41800000000E+01 0.  1.
         -5    1    3    3    0  502 -0.43006905086E+02  0.55825890850E+01 -0.31601615655E+02  0.53822799054E+02  0.41800000000E+01 0.  1.
        -11    1    4    4    0    0  0.11625761084E+03 -0.25115553289E+02 -0.48300790133E+03  0.49743668526E+03  0.00000000000E+00 0.  1.
         11    1    4    4    0    0  0.32684112830E+02  0.24143256706E+02 -0.55757566135E+02  0.68993146451E+02  0.00000000000E+00 0. -1.
</event>
<event>
 8    1  0.6850220E-009  0.9722948E+02  0.7561462E-02  0.1286232E+00
          1   -1    0    0  501    0  0.00000000000E+00  0.00000000000E+00  0.28754566361E+03  0.28754566361E+03  0.00000000000E+00 0. -1.
         -1   -1    0    0    0  501 -0.00000000000E+00 -0.00000000000E+00 -0.55122947034E+02  0.55122947034E+02  0.00000000000E+00 0.  1.
         25    2    1    2    0    0 -0.25644973660E+02 -0.97003829649E+00  0.51955086244E+02  0.13786121288E+03  0.12509107635E+03 0.  0.
         23    2    1    2    0    0  0.25644973660E+02  0.97003829649E+00  0.18046763033E+03  0.20480739776E+03  0.93375044484E+02 0.  0.
          5    1    3    3  502    0 -0.63398755207E+01 -0.58801238724E+02  0.48590976348E+02  0.76657257188E+02  0.41800000000E+01 0. -1.
         -5    1    3    3    0  502 -0.19305098139E+02  0.57831200428E+02  0.33641098959E+01  0.61203955693E+02  0.41800000000E+01 0. -1.
        -11    1    4    4    0    0  0.65661913528E+00 -0.32379031466E+02  0.14929161518E+03  0.15276393288E+03  0.00000000000E+00 0. -1.
         11    1    4    4    0    0  0.24988354525E+02  0.33349069763E+02  0.31176015156E+02  0.52043464882E+02  0.00000000000E+00 0.  1.
</event>
<event>
 8    1  0.6850220E-009  0.1288550E+03  0.7561462E-02  0.1229165E+00
         -2   -1    0    0    0  501 -0.00000000000E+00  0.00000000000E+00  0.28394797905E+02  0.28394797905E+02  0.00000000000E+00 0.  1.
          2   -1    0    0  501    0  0.00000000000E+00 -0.00000000000E+00 -0.76806940318E+03  0.76806940318E+03  0.00000000000E+00 0. -1.
         25    2    1    2    0    0  0.96509310040E+02  0.77602719466E+01 -0.46480523878E+03  0.49098423335E+03  0.12508932271E+03 0.  0.
         23    2    1    2    0    0 -0.96509310040E+02 -0.77602719466E+01 -0.27486936649E+03  0.30547996773E+03  0.91600072628E+02 0.  0.
          5    1    3    3  502    0  0.43432845556E+02 -0.36979062199E+02 -0.36431588526E+03  0.36877825283E+03  0.41800000000E+01 0. -1.
         -5    1    3    3    0  502  0.53076464483E+02  0.44739334146E+02 -0.10048935352E+03  0.12220598051E+03  0.41800000000E+01 0. -1.
        -11    1    4    4    0    0 -0.47953166514E+01 -0.34977199436E+02 -0.10153344585E+03  0.10749623327E+03  0.00000000000E+00 0.  1.
         11    1    4    4    0    0 -0.91713993388E+02  0.27216927489E+02 -0.17333592064E+03  0.19798373446E+03  0.00000000000E+00 0. -1.
</event>
<event>
 8    1  0.6850220E-009  0.1227380E+03  0.7561462E-02  0.1238647E+00
         -1   -1    0    0    0  501 -0.00000000000E+00  0.00000000000E+00  0.10582570941E+03  0.10582570941E+03  0.00000000000E+00 0.  1.
          1   -1    0    0  501    0  0.00000000000E+00 -0.00000000000E+00 -0.22488735584E+03  0.22488735584E+03  0.00000000000E+00 0. -1.
         25    2    1    2    0    0  0.81026806899E+02  0.57419505920E+02 -0.22826467336E+02  0.16133637005E+03  0.12508410608E+03 0.  0.
         23    2    1    2    0    0 -0.81026806899E+02 -0.57419505920E+02 -0.96235179103E+02  0.16937669520E+03  0.97800368519E+02 0.  0.
          5    1    3    3  502    0 -0.12819777566E+02  0.33190835269E+02  0.33591426594E+02  0.49110432530E+02  0.41800000000E+01 0.  1.
         -5    1    3    3    0  502  0.93846584465E+02  0.24228670651E+02 -0.56417893931E+02  0.11222593752E+03  0.41800000000E+01 0.  1.
        -11    1    4    4    0    0 -0.84487654857E+02 -0.37529529074E+02 -0.11093268435E+03  0.14440460461E+03  0.00000000000E+00 0. -1.
         11    1    4    4    0    0  0.34608479576E+01 -0.19889976846E+02  0.14697505251E+02  0.24972090584E+02  0.00000000000E+00 0.  1.
</event>
<event>
 8    1  0.6850220E-009  0.1648180E+03  0.7561462E-02  0.1183362E+00
          1   -1    0    0  501    0  0.00000000000E+00  0.00000000000E+00  0.92045942889E+02  0.92045942889E+02  0.00000000000E+00 0. -1.
         -1   -1    0    0    0  501 -0.00000000000E+00 -0.00000000000E+00 -0.40996908194E+03  0.40996908194E+03  0.00000000000E+00 0.  1.
         25    2    1    2    0    0 -0.89845456964E+02  0.12900334467E+03 -0.12417575701E+03  0.23618044239E+03  0.12509002225E+03 0.  0.
         23    2    1    2    0    0  0.89845456964E+02 -0.12900334467E+03 -0.19374738204E+03  0.26583458243E+03  0.91738258630E+02 0.  0.
          5    1    3    3  502    0 -0.42604470541E+02  0.83872883340E+02  0.18284536222E+01  0.94183953583E+02  0.41800000000E+01 0.  1.
         -5    1    3    3    0  502 -0.47240986423E+02  0.45130461330E+02 -0.12600421063E+03  0.14199648881E+03  0.41800000000E+01 0.  1.
        -11    1    4    4    0    0  0.17735267092E+02  0.44751694029E+01  0.17517740914E+01  0.18374861971E+02  0.00000000000E+00 0. -1.
         11    1    4    4    0    0  0.72110189872E+02 -0.13347851407E+03 -0.19549915613E+03  0.24745972046E+03  0.00000000000E+00 0.  1.
</event>
<event>
 8    1  0.6850220E-009  0.1637138E+03  0.7561462E-02  0.1184567E+00
         -1   -1    0    0    0  501 -0.00000000000E+00  0.00000000000E+00  0.52988115654E+03  0.52988115654E+03  0.00000000000E+00 0.  1.
          1   -1    0    0  501    0  0.00000000000E+00 -0.00000000000E+00 -0.10597384298E+03  0.10597384298E+03  0.00000000000E+00 0. -1.
         25    2    1    2    0    0  0.15255779099E+03  0.30730544007E+02  0.40877663321E+03  0.45493695063E+03  0.12510414565E+03 0.  0.
         23    2    1    2    0    0 -0.15255779099E+03 -0.30730544007E+02  0.15130680342E+02  0.18091804889E+03  0.91017344507E+02 0.  0.
          5    1    3    3  502    0  0.71946411847E+02  0.27882534210E+00  0.33108540178E+03  0.33883827941E+03  0.41800000000E+01 0. -1.
         -5    1    3    3    0  502  0.80611379144E+02  0.30451718665E+02  0.77691231428E+02  0.11609867122E+03  0.41800000000E+01 0. -1.
        -11    1    4    4    0    0 -0.12900167681E+03  0.16890229210E+01 -0.16232950593E+02  0.13002997386E+03  0.00000000000E+00 0. -1.
         11    1    4    4    0    0 -0.23556114185E+02 -0.32419566928E+02  0.31363630934E+02  0.50888075034E+02  0.00000000000E+00 0.  1.
</event>
<event>
 8    1  0.6850220E-009  0.9458022E+02  0.7561462E-02  0.1292124E+00
         -1   -1    0    0    0  501 -0.00000000000E+00  0.00000000000E+00  0.15453629023E+02  0.15453629023E+02  0.00000000000E+00 0.  1.
          1   -1    0    0  501    0  0.00000000000E+00 -0.00000000000E+00 -0.85425058174E+03  0.85425058174E+03  0.00000000000E+00 0. -1.
         25    2    1    2    0    0 -0.10349316362E+02  0.17550747003E+02 -0.62418748777E+03  0.63692410512E+03  0.12508860351E+03 0.  0.
         23    2    1    2    0    0  0.10349316362E+02 -0.17550747003E+02 -0.21460946495E+03  0.23278010564E+03  0.87830621468E+02 0.  0.
          5    1    3    3  502    0 -0.45453421433E+02  0.37155344977E+02 -0.54349301112E+03  0.54667052117E+03  0.41800000000E+01 0. -1.
         -5    1    3    3    0  502  0.35104105071E+02 -0.19604597974E+02 -0.80694476652E+02  0.90253583955E+02  0.41800000000E+01 0. -1.
        -11    1    4    4    0    0 -0.20423323752E+02 -0.44508068577E+02 -0.12603540205E+03  0.13521465487E+03  0.00000000000E+00 0. -1.
         11    1    4    4    0    0  0.30772640113E+02  0.26957321574E+02 -0.88574062903E+02  0.97565450777E+02  0.00000000000E+00 0.  1.
</event>
<event>
 8    1  0.6850220E-009  0.1711865E+03  0.7561462E-02  0.1176616E+00
          1   -1    0    0  501    0  0.00000000000E+00  0.00000000000E+00  0.69455224111E+03  0.69455224111E+03  0.00000000000E+00 0. -1.
         -1   -1    0    0    0  501 -0.00000000000E+00 -0.00000000000E+00 -0.56858864361E+02  0.56858864361E+02  0.00000000000E+00 0.  1.
         25    2    1    2    0    0  0.75293704356E+02  0.14557562456E+03  0.38953572266E+03  0.44073506265E+03  0.12509161377E+03 0.  0.
         23    2    1    2    0    0 -0.75293704356E+02 -0.14557562456E+03  0.24815765409E+03  0.31067604283E+03  0.89866444905E+02 0.  0.
          5    1    3    3  502    0  0.30232788041E+02  0.10425211098E+03  0.11013438069E+03  0.15469188190E+03  0.41800000000E+01 0. -1.
         -5    1    3    3    0  502  0.45060916315E+02  0.41323513581E+02  0.27940134198E+03  0.28604318075E+03  0.41800000000E+01 0. -1.
        -11    1    4    4    0    0 -0.26693091498E+02 -0.10738199209E+03  0.21180564287E+03  0.23896661631E+03  0.00000000000E+00 0. -1.
         11    1    4    4    0    0 -0.48600612858E+02 -0.38193632475E+02  0.36352011224E+02  0.71709426520E+02  0.00000000000E+00 0.  1.
</event>
<event>
 8    1  0.6850220E-009  0.2658588E+03  0.7561462E-02  0.1103673E+00
          3   -1    0    0  501    0  0.00000000000E+00  0.00000000000E+00  0.16163182386E+03  0.16163182386E+03  0.00000000000E+00 0. -1.
         -3   -1    0    0    0  501 -0.00000000000E+00 -0.00000000000E+00 -0.67176411889E+03  0.67176411889E+03  0.00000000000E+00 0.  1.
         25    2    1    2    0    0 -0.22457843297E+03  0.11552524866E+03 -0.48819265458E+03  0.56370314887E+03  0.12509043297E+03 0.  0.
         23    2    1    2    0    0  0.22457843297E+03 -0.11552524866E+03 -0.21939640449E+02  0.26969279389E+03  0.92039663305E+02 0.  0.
          5    1    3    3  502    0 -0.42672936953E+02  0.83843194823E+02 -0.12787490441E+03  0.15880845206E+03  0.41800000000E+01 0. -1.
         -5    1    3    3    0  502 -0.18190549602E+03  0.31682053834E+02 -0.36031775017E+03  0.40489469681E+03  0.41800000000E+01 0. -1.
        -11    1    4    4    0    0  0.96142825078E+02 -0.42568732802E+02  0.35837001767E+02  0.11108478979E+03  0.00000000000E+00 0. -1.
         11    1    4    4    0    0  0.12843560789E+03 -0.72956515855E+02 -0.57776642216E+02  0.15860800410E+03  0.00000000000E+00 0.  1.
</event>
<event>
 8    1  0.6850220E-009  0.2078491E+03  0.7561462E-02  0.1143281E+00
          2   -1    0    0  501    0  0.00000000000E+00  0.00000000000E+00  0.66333223463E+03  0.66333223463E+03  0.00000000000E+00 0. -1.
         -2   -1    0    0    0  501 -0.00000000000E+00 -0.00000000000E+00 -0.91904906819E+02  0.91904906819E+02  0.00000000000E+00 0.  1.
         25    2    1    2    0    0 -0.14681272798E+03 -0.10518856066E+03  0.49127259669E+03  0.53815698366E+03  0.12508223060E+03 0.  0.
         23    2    1    2    0    0  0.14681272798E+03  0.10518856066E+03  0.80154731117E+02  0.21708015779E+03  0.89891065145E+02 0.  0.
          5    1    3    3  502    0 -0.13681552841E+03 -0.31963259487E+02  0.26333463595E+03  0.29850082356E+03  0.41800000000E+01 0. -1.
         -5    1    3    3    0  502 -0.99971995720E+01 -0.73225301169E+02  0.22793796074E+03  0.23965616011E+03  0.41800000000E+01 0. -1.
        -11    1    4    4    0    0  0.24060900779E+02 -0.15779159984E+02  0.17648523094E+02  0.33754691577E+02  0.00000000000E+00 0. -1.
         11    1    4    4    0    0  0.12275182720E+03  0.12096772064E+03  0.62506208024E+02  0.18332546621E+03  0.00000000000E+00 0.  1.
</event>
<event>
 8    1  0.6850220E-009  0.1508136E+03  0.7561462E-02  0.1199477E+00
          3   -1    0    0  501    0  0.00000000000E+00  0.00000000000E+00  0.26913892042E+03  0.26913892042E+03  0.00000000000E+00 0. -1.
         -3   -1    0    0    0  501 -0.00000000000E+00 -0.00000000000E+00 -0.89772074209E+02  0.89772074209E+02  0.00000000000E+00 0.  1.
         25    2    1    2    0    0  0.10327956690E+03  0.18899177491E+02  0.13192108058E+03  0.20994199754E+03  0.12509445623E+03 0.  0.
         23    2    1    2    0    0 -0.10327956690E+03 -0.18899177491E+02  0.47445765629E+02  0.14896899709E+03  0.94428881017E+02 0.  0.
          5    1    3    3  502    0 -0.24410270340E+02  0.24911846911E+02  0.23411763894E+02  0.42214268953E+02  0.41800000000E+01 0.  1.
         -5    1    3    3    0  502  0.12768983724E+03 -0.60126694206E+01  0.10850931669E+03  0.16772772858E+03  0.41800000000E+01 0.  1.
        -11    1    4    4    0    0 -0.75859002688E+02 -0.54686378040E+02  0.45101587099E+02  0.10382360710E+03  0.00000000000E+00 0. -1.
         11    1    4    4    0    0 -0.27420564211E+02  0.35787200550E+02  0.23441785306E+01  0.45145389995E+02  0.00000000000E+00 0.  1.
</event>
<event>
 8    1  0.6850220E-009  0.2271162E+03  0.7561462E-02  0.1128686E+00
         -1   -1    0    0    0  501 -0.00000000000E+00  0.00000000000E+00  0.11508546071E+03  0.11508546071E+03  0.00000000000E+00 0.  1.
          1   -1    0    0  501    0  0.00000000000E+00 -0.00000000000E+00 -0.99275692342E+03  0.99275692342E+03  0.00000000000E+00 0. -1.
         25    2    1    2    0    0  0.20914569470E+03 -0.68398910842E+01 -0.84173579207E+03  0.87633092839E+03  0.12509215277E+03 0.  0.
         23    2    1    2    0    0 -0.20914569470E+03  0.68398910842E+01 -0.35935670650E+02  0.23151145574E+03  0.92290172788E+02 0.  0.
          5    1    3    3  502    0  0.56395594608E+02  0.44521522621E+02 -0.15451479916E+03  0.17045505163E+03  0.41800000000E+01 0.  1.
         -5    1    3    3    0  502  0.15275010009E+03 -0.51361413705E+02 -0.68722099291E+03  0.70587587676E+03  0.41800000000E+01 0.  1.
        -11    1    4    4    0    0 -0.18047280494E+03 -0.20249904762E+02 -0.55000563108E+01  0.18168858683E+03  0.00000000000E+00 0.  1.
         11    1    4    4    0    0 -0.28672889759E+02  0.27089795846E+02 -0.30435614340E+02  0.49822868909E+02  0.00000000000E+00 0. -1.
</event>
<event>
 8    1  0.6850220E-009  0.1366511E+03  0.7561462E-02  0.1217908E+00
         -2   -1    0    0    0  501 -0.00000000000E+00  0.00000000000E+00  0.23649658582E+02  0.23649658582E+02  0.00000000000E+00 0.  1.
          2   -1    0    0  501    0  0.00000000000E+00 -0.00000000000E+00 -0.91545189048E+03  0.91545189048E+03  0.00000000000E+00 0. -1.
         25    2    1    2    0    0  0.54823372066E+02  0.79961168268E+02 -0.52341955133E+03  0.54682437664E+03  0.12509788813E+03 0.  0.
         23    2    1    2    0    0 -0.54823372066E+02 -0.79961168268E+02 -0.36838268057E+03  0.39227717242E+03  0.93681322083E+02 0.  0.
          5    1    3    3  502    0  0.77303051345E+02  0.24364984587E+02 -0.17061260498E+03  0.18893265361E+03  0.41800000000E+01 0.  1.
         -5    1    3    3    0  502 -0.22479679279E+02  0.55596183681E+02 -0.35280694635E+03  0.35789172303E+03  0.41800000000E+01 0.  1.
        -11    1    4    4    0    0  0.72824626035E+01 -0.68484691426E+02 -0.15218411223E+03  0.16704248333E+03  0.00000000000E+00 0.  1.
         11    1    4    4    0    0 -0.62105834670E+02 -0.11476476842E+02 -0.21619856834E+03  0.22523468909E+03  0.00000000000E+00 0. -1.
</event>
<event>
 8    1  0.6850220E-009  0.7555915E+02  0.7561462E-02  0.1342148E+00
          2   -1    0    0  501    0  0.00000000000E+00  0.00000000000E+00  0.94660095233E+02  0.94660095233E+02  0.00000000000E+00 0.  1.
         -2   -1    0    0    0  501 -0.00000000000E+00 -0.00000000000E+00 -0.17360237042E+03  0.17360237042E+03  0.00000000000E+00 0. -1.
         25    2    1    2    0    0  0.42112631386E+02 -0.53732295097E+02 -0.39320165313E+02  0.14783194993E+03  0.12509027444E+03 0.  0.
         23    2    1    2    0    0 -0.42112631386E+02  0.53732295097E+02 -0.39622109870E+02  0.12043051572E+03  0.90955836910E+02 0.  0.
          5    1    3    3  502    0  0.20257696571E+02 -0.51786838946E+01 -0.78659492312E+02  0.81498350708E+02  0.41800000000E+01 0. -1.
         -5    1    3    3    0  502  0.21854934815E+02 -0.48553611203E+02  0.39339326999E+02  0.66333599219E+02  0.41800000000E+01 0. -1.
        -11    1    4    4    0    0 -0.23412122774E+02  0.46601670827E+01  0.26712874486E+02  0.35824883997E+02  0.00000000000E+00 0.  1.
         11    1    4    4    0    0 -0.18700508612E+02  0.49072128014E+02 -0.66334984356E+02  0.84605631726E+02  0.00000000000E+00 0. -1.
</event>
<event>
 8    1  0.6850220E-009  0.1099969E+03  0.7561462E-02  0.1260576E+00
          2   -1    0    0  501    0  0.00000000000E+00  0.00000000000E+00  0.94727987208E+03  0.94727987208E+03  0.00000000000E+00 0. -1.
         -2   -1    0    0    0  501 -0.00000000000E+00 -0.00000000000E+00 -0.13497050431E+02  0.13497050431E+02  0.00000000000E+00 0.  1.
         25    2    1    2    0    0  0.27313003336E+02 -0.19159205174E+02  0.46403362038E+03  0.48175495635E+03  0.12509021475E+03 0.  0.
         23    2    1    2    0    0 -0.27313003336E+02  0.19159205174E+02  0.46974920127E+03  0.47902196616E+03  0.87662173613E+02 0.  0.
          5    1    3    3  502    0  0.56582569941E+02  0.33902642066E+02  0.19318929808E+03  0.20418264778E+03  0.41800000000E+01 0. -1.
         -5    1    3    3    0  502 -0.29269566605E+02 -0.53061847240E+02  0.27084432230E+03  0.27757230857E+03  0.41800000000E+01 0. -1.
        -11    1    4    4    0    0 -0.14015312172E+02 -0.34835052300E+02  0.16255659637E+03  0.16683691698E+03  0.00000000000E+00 0.  1.
         11    1    4    4    0    0 -0.13297691164E+02  0.53994257474E+02  0.30719260490E+03  0.31218504919E+03  0.00000000000E+00 0. -1.
</event>
<event>
 8    1  0.6850220E-009  0.8289191E+02  0.7561462E-02  0.1321039E+00
         -2   -1    0    0    0  501 -0.00000000000E+00  0.00000000000E+00  0.11890085020E+03  0.11890085020E+03  0.00000000000E+00 0.  1.
          2   -1    0    0  501    0  0.00000000000E+00 -0.00000000000E+00 -0.11576018468E+03  0.11576018468E+03  0.00000000000E+00 0. -1.
         25    2    1    2    0    0 -0.31105163219E+01 -0.35231591944E+02  0.44970776317E+02  0.13755157717E+03  0.12508846980E+03 0.  0.
         23    2    1    2    0    0  0.31105163219E+01  0.35231591944E+02 -0.41830110797E+02  0.97109457701E+02  0.80184463725E+02 0.  0.
          5    1    3    3  502    0 -0.39291972527E+02  0.32876521440E+02  0.83567334094E+01  0.52077175041E+02  0.41800000000E+01 0. -1.
         -5    1    3    3    0  502  0.36181456205E+02 -0.68108113384E+02  0.36614042907E+02  0.85474402132E+02  0.41800000000E+01 0. -1.
        -11    1    4    4    0    0 -0.43116618945E+01  0.14416643586E+02 -0.64036643832E+02  0.65780861912E+02  0.00000000000E+00 0. -1.
         11    1    4    4    0    0  0.74221782164E+01  0.20814948358E+02  0.22206533035E+02  0.31328595789E+02  0.00000000000E+00 0.  1.
</event>
<event>
 8    1  0.6850220E-009  0.1435794E+03  0.7561462E-02  0.1208592E+00
         -2   -1    0    0    0  501 -0.00000000000E+00  0.00000000000E+00  0.11033744974E+03  0.11033744974E+03  0.00000000000E+00 0.  1.
          2   -1    0    0  501    0  0.00000000000E+00 -0.00000000000E+00 -0.20268419082E+03  0.20268419082E+03  0.00000000000E+00 0. -1.
         25    2    1    2    0    0 -0.45750723060E+02 -0.91254608311E+02 -0.62184008705E+02  0.17301285806E+03  0.12508423529E+03 0.  0.
         23    2    1    2    0    0  0.45750723060E+02  0.91254608311E+02 -0.30162732379E+02  0.14000878250E+03  0.90951286711E+02 0.  0.
          5    1    3    3  502    0 -0.42183320884E+02  0.15373153028E+02  0.72237590743E+01  0.45666415340E+02  0.41800000000E+01 0. -1.
         -5    1    3    3    0  502 -0.35674021759E+01 -0.10662776134E+03 -0.69407767779E+02  0.12734644272E+03  0.41800000000E+01 0. -1.
        -11    1    4    4    0    0  0.30704726736E+02 -0.10489801597E+02  0.12396627653E+01  0.32470801426E+02  0.00000000000E+00 0. -1.
         11    1    4    4    0    0  0.15045996324E+02  0.10174440991E+03 -0.31402395144E+02  0.10753798107E+03  0.00000000000E+00 0.  1.
</event>
<event>
 8    1  0.6850220E-009  0.1462948E+03  0.7561462E-02  0.1205101E+00
         -1   -1    0    0    0  501 -0.00000000000E+00  0.00000000000E+00  0.88562982722E+02  0.88562982722E+02  0.00000000000E+00 0.  1.
          1   -1    0    0  501    0  0.00000000000E+00 -0.00000000000E+00 -0.32688454935E+03  0.32688454935E+03  0.00000000000E+00 0. -1.
         25    2    1    2    0    0  0.78039038603E+02 -0.10154531093E+03 -0.10249948511E+03  0.20628942049E+03  0.12509052258E+03 0.  0.
         23    2    1    2    0    0 -0.78039038603E+02  0.10154531093E+03 -0.13582208152E+03  0.20915811159E+03  0.94328872019E+02 0.  0.
          5    1    3    3  502    0  0.58788075820E+02  0.10020877630E+01 -0.80167887387E+02  0.99505801874E+02  0.41800000000E+01 0.  1.
         -5    1    3    3    0  502  0.19250962782E+02 -0.10254739869E+03 -0.22331597723E+02  0.10678361861E+03  0.41800000000E+01 0.  1.
        -11    1    4    4    0    0 -0.51981458724E+02  0.80031054663E+02 -0.14550395423E+03  0.17400701842E+03  0.00000000000E+00 0. -1.
         11    1    4    4    0    0 -0.26057579878E+02  0.21514256269E+02  0.96818727109E+01  0.35151093171E+02  0.00000000000E+00 0.  1.
</event>
<event>
 8    1  0.6850220E-009  0.2367338E+03  0.7561462E-02  0.1121988E+00
          1   -1    0    0  501    0  0.00000000000E+00  0.00000000000E+00  0.34938425631E+03  0.34938425631E+03  0.00000000000E+00 0. -1.
         -1   -1    0    0    0  501 -0.00000000000E+00 -0.00000000000E+00 -0.18597815869E+03  0.18597815869E+03  0.00000000000E+00 0.  1.
         25    2    1    2    0    0 -0.10501575675E+03 -0.20625805933E+03  0.84111245282E+02  0.27621321757E+03  0.12509334024E+03 0.  0.
         23    2    1    2    0    0  0.10501575675E+03  0.20625805933E+03  0.79294852339E+02  0.25914919743E+03  0.85439667097E+02 0.  0.
          5    1    3    3  502    0 -0.75740892010E+02 -0.10180302419E+03  0.10609260357E+03  0.16544984554E+03  0.41800000000E+01 0.  1.
         -5    1    3    3    0  502 -0.29274864743E+02 -0.10445503514E+03 -0.21981358286E+02  0.11076337203E+03  0.41800000000E+01 0.  1.
        -11    1    4    4    0    0 -0.46837302406E+01  0.29852755439E+02 -0.11643669332E+02  0.32383628144E+02  0.00000000000E+00 0.  1.
         11    1    4    4    0    0  0.10969948699E+03  0.17640530389E+03  0.90938521672E+02  0.22676556928E+03  0.00000000000E+00 0. -1.
</event>
<event>
 8    1  0.6850220E-009  0.1090349E+03  0.7561462E-02  0.1262368E+00
         -2   -1    0    0    0  501 -0.00000000000E+00  0.00000000000E+00  0.29422385545E+02  0.29422385545E+02  0.00000000000E+00 0.  1.
          2   -1    0    0  501    0  0.00000000000E+00 -0.00000000000E+00 -0.51870118495E+03  0.51870118495E+03  0.00000000000E+00 0. -1.
         25    2    1    2    0    0 -0.63899006330E+02  0.95007733623E+00 -0.25787286388E+03  0.29364862086E+03  0.12508842054E+03 0.  0.
         23    2    1    2    0    0  0.63899006330E+02 -0.95007733623E+00 -0.23140593552E+03  0.25447494963E+03  0.84408573830E+02 0.  0.
          5    1    3    3  502    0 -0.58046745580E+02  0.50842081212E+02 -0.91291053134E+02  0.11960715144E+03  0.41800000000E+01 0. -1.
         -5    1    3    3    0  502 -0.58522607504E+01 -0.49892003876E+02 -0.16658181074E+03  0.17404146942E+03  0.41800000000E+01 0. -1.
        -11    1    4    4    0    0 -0.91480933623E+01 -0.13459584750E+02 -0.62453288088E+01  0.17431355820E+02  0.00000000000E+00 0.  1.
         11    1    4    4    0    0  0.73047099693E+02  0.12509507414E+02 -0.22516060672E+03  0.23704359381E+03  0.00000000000E+00 0. -1.
</event>
<event>
 8    1  0.6850220E-009  0.1427616E+03  0.7561462E-02  0.1209661E+00
          2   -1    0    0  501    0  0.00000000000E+00  0.00000000000E+00  0.18480477748E+03  0.18480477748E+03  0.00000000000E+00 0. -1.
         -2   -1    0    0    0  501 -0.00000000000E+00 -0.00000000000E+00 -0.11707705502E+03  0.11707705502E+03  0.00000000000E+00 0.  1.
         25    2    1    2    0    0 -0.96032440136E+02  0.68885494074E+01  0.17559177351E+02  0.15882770303E+03  0.12509289695E+03 0.  0.
         23    2    1    2    0    0  0.96032440136E+02 -0.68885494074E+01  0.50168545103E+02  0.14305412947E+03  0.93155350731E+02 0.  0.
          5    1    3    3  502    0 -0.42670109299E+02 -0.58649142213E+02  0.12953064619E+01  0.72660927111E+02  0.41800000000E+01 0.  1.
         -5    1    3    3    0  502 -0.53362330837E+02  0.65537691620E+02  0.16263870889E+02  0.86166775915E+02  0.41800000000E+01 0.  1.
        -11    1    4    4    0    0  0.67756807777E+02  0.36121529141E+02  0.93291238863E+01  0.77348448079E+02  0.00000000000E+00 0.  1.
         11    1    4    4    0    0  0.28275632358E+02 -0.43010078549E+02  0.40839421216E+02  0.65705681393E+02  0.00000000000E+00 0. -1.
</event>
<event>
 8    1  0.6850220E-009  0.1933726E+03  0.7561462E-02  0.1155454E+00
         -2   -1    0    0    0  501 -0.00000000000E+00  0.00000000000E+00  0.32373373310E+03  0.32373373310E+03  0.00000000000E+00 0.  1.
          2   -1    0    0  501    0  0.00000000000E+00 -0.00000000000E+00 -0.12880938519E+03  0.12880938519E+03  0.00000000000E+00 0. -1.
         25    2    1    2    0    0  0.92204662691E+02 -0.14582865640E+03  0.92162719459E+02  0.23216325517E+03  0.12505244238E+03 0.  0.
         23    2    1    2    0    0 -0.92204662691E+02  0.14582865640E+03  0.10276162845E+03  0.22037986312E+03  0.90772434898E+02 0.  0.
          5    1    3    3  502    0  0.67634743737E+02 -0.13044218230E+02  0.69866269023E+00  0.69011381084E+02  0.41800000000E+01 0. -1.
         -5    1    3    3    0  502  0.24569918954E+02 -0.13278443817E+03  0.91464056769E+02  0.16315187409E+03  0.41800000000E+01 0. -1.
        -11    1    4    4    0    0 -0.71115419831E+02  0.56436716827E+02  0.12569548219E+02  0.91654238780E+02  0.00000000000E+00 0. -1.
         11    1    4    4    0    0 -0.21089242859E+02  0.89391939576E+02  0.90192080228E+02  0.12872562434E+03  0.00000000000E+00 0.  1.
</event>
<event>
 8    1  0.6850220E-009  0.4527672E+03  0.7561462E-02  0.1026900E+00
         -1   -1    0    0    0  501 -0.00000000000E+00  0.00000000000E+00  0.17453053958E+03  0.17453053958E+03  0.00000000000E+00 0. -1.
          1   -1    0    0  501    0  0.00000000000E+00 -0.00000000000E+00 -0.17366089051E+04  0.17366089051E+04  0.00000000000E+00 0.  1.
         25    2    1    2    0    0 -0.43595374550E+03  0.90693607988E+02 -0.13152249256E+04  0.13941825336E+04  0.12508930149E+03 0.  0.
         23    2    1    2    0    0  0.43595374550E+03 -0.90693607988E+02 -0.24685343994E+03  0.51695691109E+03  0.89592568733E+02 0.  0.
          5    1    3    3  502    0 -0.41270301923E+03  0.60695821982E+02 -0.11179545043E+04  0.11932508164E+04  0.41800000000E+01 0.  1.
         -5    1    3    3    0  502 -0.23250726274E+02  0.29997786005E+02 -0.19727042129E+03  0.20093171714E+03  0.41800000000E+01 0.  1.
        -11    1    4    4    0    0  0.47337120505E+02 -0.32062395189E+02 -0.56085174783E+02  0.80089618512E+02  0.00000000000E+00 0.  1.
         11    1    4    4    0    0  0.38861662499E+03 -0.58631212799E+02 -0.19076826516E+03  0.43686729258E+03  0.00000000000E+00 0. -1.
</event>
<event>
 8    1  0.6850220E-009  0.2191081E+03  0.7561462E-02  0.1134550E+00
          2   -1    0    0  501    0  0.00000000000E+00  0.00000000000E+00  0.48409689259E+03  0.48409689259E+03  0.00000000000E+00 0. -1.
         -2   -1    0    0    0  501 -0.00000000000E+00 -0.00000000000E+00 -0.12497894117E+03  0.12497894117E+03  0.00000000000E+00 0.  1.
         25    2    1    2    0    0 -0.17284307108E+03 -0.80460644214E+02  0.49552638502E+02  0.23334940867E+03  0.12509132685E+03 0.  0.
         23    2    1    2    0    0  0.17284307108E+03  0.80460644214E+02  0.30956531292E+03  0.37572642509E+03  0.94820994827E+02 0.  0.
          5    1    3    3  502    0 -0.20809266261E+02  0.32207017343E+02  0.49496851861E+01  0.38888164162E+02  0.41800000000E+01 0.  1.
         -5    1    3    3    0  502 -0.15203380482E+03 -0.11266766156E+03  0.44602953316E+02  0.19446124450E+03  0.41800000000E+01 0.  1.
        -11    1    4    4    0    0  0.16487729314E+03  0.97506796673E+02  0.29583010756E+03  0.35243091484E+03  0.00000000000E+00 0. -1.
         11    1    4    4    0    0  0.79657779444E+01 -0.17046152460E+02  0.13735205356E+02  0.23295510257E+02  0.00000000000E+00 0.  1.
</event>
<event>
 8    1  0.6850220E-009  0.1413847E+03  0.7561462E-02  0.1211478E+00
         -2   -1    0    0    0  501 -0.00000000000E+00  0.00000000000E+00  0.28807379045E+02  0.28807379045E+02  0.00000000000E+00 0.  1.
          2   -1    0    0  501    0  0.00000000000E+00 -0.00000000000E+00 -0.76548841581E+03  0.76548841581E+03  0.00000000000E+00 0. -1.
         25    2    1    2    0    0 -0.74089422612E+01 -0.88274094248E+02 -0.27741069718E+03  0.31694076250E+03  0.12509014304E+03 0.  0.
         23    2    1    2    0    0  0.74089422612E+01  0.88274094248E+02 -0.45927033959E+03  0.47735503235E+03  0.95348696631E+02 0.  0.
          5    1    3    3  502    0 -0.49073065064E+02 -0.97983482668E+02 -0.21172937090E+03  0.23844439077E+03  0.41800000000E+01 0.  1.
         -5    1    3    3    0  502  0.41664122802E+02  0.97093884199E+01 -0.65681326280E+02  0.78496371727E+02  0.41800000000E+01 0.  1.
        -11    1    4    4    0    0 -0.43999706248E+02  0.36640419356E+02 -0.20703036084E+03  0.21480238544E+03  0.00000000000E+00 0.  1.
         11    1    4    4    0    0  0.51408648509E+02  0.51633674892E+02 -0.25223997875E+03  0.26255264692E+03  0.00000000000E+00 0. -1.
</event>
<event>
 8    1  0.6850220E-009  0.1186988E+03  0.7561462E-02  0.1245259E+00
         -2   -1    0    0    0  501 -0.00000000000E+00  0.00000000000E+00  0.20869643270E+02  0.20869643270E+02  0.00000000000E+00 0.  1.
          2   -1    0    0  501    0  0.00000000000E+00 -0.00000000000E+00 -0.92110184589E+03  0.92110184589E+03  0.00000000000E+00 0. -1.
         25    2    1    2    0    0  0.76936513803E+02  0.39068750001E+02 -0.48325206232E+03  0.50658226909E+03  0.12508974872E+03 0.  0.
         23    2    1    2    0    0 -0.76936513803E+02 -0.39068750001E+02 -0.41698014029E+03  0.43538922007E+03  0.90806063493E+02 0.  0.
          5    1    3    3  502    0  0.47562505766E+02 -0.20811786404E+02 -0.38024849469E+03  0.38379905226E+03  0.41800000000E+01 0. -1.
         -5    1    3    3    0  502  0.29374008037E+02  0.59880536405E+02 -0.10300356764E+03  0.12278321683E+03  0.41800000000E+01 0. -1.
        -11    1    4    4    0    0 -0.57546082681E+02  0.16307602700E+02 -0.28092854239E+03  0.28722523474E+03  0.00000000000E+00 0. -1.
         11    1    4    4    0    0 -0.19390431121E+02 -0.55376352701E+02 -0.13605159790E+03  0.14816398533E+03  0.00000000000E+00 0.  1.
</event>
<event>
 8    1  0.6850220E-009  0.1056227E+03  0.7561462E-02  0.1268898E+00
         -1   -1    0    0    0  501 -0.00000000000E+00  0.00000000000E+00  0.83646301494E+02  0.83646301494E+02  0.00000000000E+00 0.  1.
          1   -1    0    0  501    0  0.00000000000E+00 -0.00000000000E+00 -0.25090112522E+03  0.25090112522E+03  0.00000000000E+00 0. -1.
         25    2    1    2    0    0  0.94920578594E+02 -0.49341635114E+01 -0.10629019108E+03  0.18966036950E+03  0.12505674243E+03 0.  0.
         23    2    1    2    0    0 -0.94920578594E+02  0.49341635114E+01 -0.60964632654E+02  0.14488705722E+03  0.90781665031E+02 0.  0.
          5    1    3    3  502    0  0.91668572793E+02 -0.27101777924E+01 -0.13340665038E+03  0.16194220904E+03  0.41800000000E+01 0. -1.
         -5    1    3    3    0  502  0.32520058006E+01 -0.22239857190E+01  0.27116459303E+02  0.27718160461E+02  0.41800000000E+01 0. -1.
        -11    1    4    4    0    0 -0.36301361156E+02 -0.28555131328E+02 -0.62068206860E+02  0.77366960970E+02  0.00000000000E+00 0.  1.
         11    1    4    4    0    0 -0.58619217438E+02  0.33489294839E+02  0.11035742066E+01  0.67520096252E+02  0.00000000000E+00 0. -1.
</event>
<event>
 8    1  0.6850220E-009  0.9848427E+02  0.7561462E-02  0.1283516E+00
         -1   -1    0    0    0  501 -0.00000000000E+00  0.00000000000E+00  0.10566539534E+03  0.10566539534E+03  0.00000000000E+00 0.  1.
          1   -1    0    0  501    0  0.00000000000E+00 -0.00000000000E+00 -0.16127934371E+03  0.16127934371E+03  0.00000000000E+00 0. -1.
         25    2    1    2    0    0  0.50281040853E+02  0.42343828527E+02 -0.66371812968E+01  0.14145784298E+03  0.12508031932E+03 0.  0.
         23    2    1    2    0    0 -0.50281040853E+02 -0.42343828527E+02 -0.48976767071E+02  0.12548689607E+03  0.95010812489E+02 0.  0.
          5    1    3    3  502    0  0.23764142940E+02 -0.38802701194E+02  0.22791621644E+02  0.51061869597E+02  0.41800000000E+01 0.  1.
         -5    1    3    3    0  502  0.26516897913E+02  0.81146529721E+02 -0.29428802940E+02  0.90395973379E+02  0.41800000000E+01 0.  1.
        -11    1    4    4    0    0 -0.30926985003E+02 -0.24122570670E+02  0.25247981671E+02  0.46645872224E+02  0.00000000000E+00 0.  1.
         11    1    4    4    0    0 -0.19354055850E+02 -0.18221257857E+02 -0.74224748742E+02  0.78841023849E+02  0.00000000000E+00 0. -1.
</event>
<event>
 8    1  0.6850220E-009  0.1141725E+03  0.7561462E-02  0.1253032E+00
         -3   -1    0    0    0  501 -0.00000000000E+00  0.00000000000E+00  0.23420375606E+03  0.23420375606E+03  0.00000000000E+00 0.  1.
          3   -1    0    0  501    0  0.00000000000E+00 -0.00000000000E+00 -0.80807620894E+02  0.80807620894E+02  0.00000000000E+00 0. -1.
         25    2    1    2    0    0 -0.68679434660E+02  0.33877863678E+02  0.52305515595E+02  0.15574121948E+03  0.12511948726E+03 0.  0.
         23    2    1    2    0    0  0.68679434660E+02 -0.33877863678E+02  0.10109061957E+03  0.15927015747E+03  0.96348820976E+02 0.  0.
          5    1    3    3  502    0 -0.73329484290E+02 -0.11941256350E+02 -0.13182564723E+02  0.75571550746E+02  0.41800000000E+01 0.  1.
         -5    1    3    3    0  502  0.46500496299E+01  0.45819120028E+02  0.65488080318E+02  0.80169668738E+02  0.41800000000E+01 0.  1.
        -11    1    4    4    0    0  0.20253292446E+02  0.24533686549E+02  0.70713514119E+02  0.77540303776E+02  0.00000000000E+00 0.  1.
         11    1    4    4    0    0  0.48426142214E+02 -0.58411550228E+02  0.30377105455E+02  0.81729853699E+02  0.00000000000E+00 0. -1.
</event>
<event>
 8    1  0.6850220E-009  0.1003506E+03  0.7561462E-02  0.1279560E+00
         -2   -1    0    0    0  501 -0.00000000000E+00  0.00000000000E+00  0.14878498675E+02  0.14878498675E+02  0.00000000000E+00 0.  1.
          2   -1    0    0  501    0  0.00000000000E+00 -0.00000000000E+00 -0.83659971050E+03  0.83659971050E+03  0.00000000000E+00 0. -1.
         25    2    1    2    0    0 -0.83395896981E+01  0.24416278069E+02 -0.51400775149E+03  0.52963892830E+03  0.12509085650E+03 0.  0.
         23    2    1    2    0    0  0.83395896981E+01 -0.24416278069E+02 -0.30771346033E+03  0.32183928088E+03  0.90704165595E+02 0.  0.
          5    1    3    3  502    0 -0.35168177888E+02  0.56742451002E+02 -0.43450043489E+03  0.43961870616E+03  0.41800000000E+01 0. -1.
         -5    1    3    3    0  502  0.26828588190E+02 -0.32326172933E+02 -0.79507316604E+02  0.90020222141E+02  0.41800000000E+01 0. -1.
        -11    1    4    4    0    0 -0.39646467010E+02 -0.55397075369E+01 -0.97597502352E+02  0.10548840302E+03  0.00000000000E+00 0.  1.
         11    1    4    4    0    0  0.47986056708E+02 -0.18876570532E+02 -0.21011595798E+03  0.21635087786E+03  0.00000000000E+00 0. -1.
</event>
<event>
 8    1  0.6850220E-009  0.1231559E+03  0.7561462E-02  0.1237980E+00
          1   -1    0    0  501    0  0.00000000000E+00  0.00000000000E+00  0.72611682170E+03  0.72611682170E+03  0.00000000000E+00 0. -1.
         -1   -1    0    0    0  501 -0.00000000000E+00 -0.00000000000E+00 -0.28965357897E+02  0.28965357897E+02  0.00000000000E+00 0.  1.
         25    2    1    2    0    0  0.35899133483E+02 -0.67320235311E+02  0.53031839001E+03  0.55018716725E+03  0.12509021686E+03 0.  0.
         23    2    1    2    0    0 -0.35899133483E+02  0.67320235311E+02  0.16683307379E+03  0.20489501234E+03  0.91257491236E+02 0.  0.
          5    1    3    3  502    0 -0.40429049171E+01  0.26110552739E+02  0.25999219423E+03  0.26136472506E+03  0.41800000000E+01 0.  1.
         -5    1    3    3    0  502  0.39942038400E+02 -0.93430788050E+02  0.27032619578E+03  0.28882244219E+03  0.41800000000E+01 0.  1.
        -11    1    4    4    0    0 -0.60543572364E+02  0.18716579972E+02  0.75829594312E+02  0.98822881429E+02  0.00000000000E+00 0.  1.
         11    1    4    4    0    0  0.24644438881E+02  0.48603655339E+02  0.91003479477E+02  0.10607213092E+03  0.00000000000E+00 0. -1.
</event>
<event>
 8    1  0.6850220E-009  0.2073739E+03  0.7561462E-02  0.1143663E+00
          1   -1    0    0  501    0  0.00000000000E+00  0.00000000000E+00  0.30921897106E+03  0.30921897106E+03  0.00000000000E+00 0. -1.
         -1   -1    0    0    0  501 -0.00000000000E+00 -0.00000000000E+00 -0.15451662993E+03  0.15451662993E+03  0.00000000000E+00 0.  1.
         25    2    1    2    0    0  0.15901656073E+03  0.78079656733E+02  0.86614361864E+01  0.21703845594E+03  0.12509185224E+03 0.  0.
         23    2    1    2    0    0 -0.15901656073E+03 -0.78079656733E+02  0.14604090494E+03  0.24669714505E+03  0.90270903840E+02 0.  0.
          5    1    3    3  502    0  0.15391832663E+03  0.10639590532E+03  0.13150990250E+02  0.18762025713E+03  0.41800000000E+01 0.  1.
         -5    1    3    3    0  502  0.50982340989E+01 -0.28316248591E+02 -0.44895540639E+01  0.29418198805E+02  0.41800000000E+01 0.  1.
        -11    1    4    4    0    0 -0.46082426178E+01 -0.38956009580E+02  0.23507627138E+02  0.45731992260E+02  0.00000000000E+00 0.  1.
         11    1    4    4    0    0 -0.15440831811E+03 -0.39123647153E+02  0.12253327781E+03  0.20096515279E+03  0.00000000000E+00 0. -1.
</event>
<event>
 8    1  0.6850220E-009  0.1353884E+03  0.7561462E-02  0.1219672E+00
          1   -1    0    0  501    0  0.00000000000E+00  0.00000000000E+00  0.11458854513E+04  0.11458854513E+04  0.00000000000E+00 0.  1.
         -1   -1    0    0    0  501 -0.00000000000E+00 -0.00000000000E+00 -0.24174547601E+02  0.24174547601E+02  0.00000000000E+00 0. -1.
         25    2    1    2    0    0 -0.72448246870E+02  0.10275764974E+03  0.59974600857E+03  0.62542065333E+03  0.12509130966E+03 0.  0.
         23    2    1    2    0    0  0.72448246870E+02 -0.10275764974E+03  0.52196489511E+03  0.54463934556E+03  0.91524761403E+02 0.  0.
          5    1    3    3  502    0 -0.22412999603E+02  0.81632967919E+02  0.53093898312E+03  0.53766156660E+03  0.41800000000E+01 0.  1.
         -5    1    3    3    0  502 -0.50035247266E+02  0.21124681823E+02  0.68807025452E+02  0.87759086724E+02  0.41800000000E+01 0.  1.
        -11    1    4    4    0    0  0.47914938277E+02 -0.34580224119E+02  0.97298992699E+02  0.11383640538E+03  0.00000000000E+00 0. -1.
         11    1    4    4    0    0  0.24533308593E+02 -0.68177425623E+02  0.42466590241E+03  0.43080294018E+03  0.00000000000E+00 0.  1.
</event>
<event>
 8    1  0.6850220E-009  0.7786636E+02  0.7561462E-02  0.1335218E+00
          3   -1    0    0  501    0  0.00000000000E+00  0.00000000000E+00  0.20118340782E+03  0.20118340782E+03  0.00000000000E+00 0. -1.
         -3   -1    0    0    0  501 -0.00000000000E+00 -0.00000000000E+00 -0.10076881789E+03  0.10076881789E+03  0.00000000000E+00 0.  1.
         25    2    1    2    0    0 -0.39444650170E+01  0.68110916634E+02  0.71222331399E+02  0.15929425671E+03  0.12508950380E+03 0.  0.
         23    2    1    2    0    0  0.39444650170E+01 -0.68110916634E+02  0.29192258537E+02  0.14265796900E+03  0.12183781183E+03 0.  0.
          5    1    3    3  502    0  0.21343228782E+02  0.98877254335E+01  0.89878830415E+02  0.92999876805E+02  0.41800000000E+01 0. -1.
         -5    1    3    3    0  502 -0.25287693799E+02  0.58223191200E+02 -0.18656499016E+02  0.66294379903E+02  0.41800000000E+01 0. -1.
        -11    1    4    4    0    0  0.27228136946E+01 -0.50684201140E+02 -0.44144999835E+02  0.67268736944E+02  0.00000000000E+00 0.  1.
         11    1    4    4    0    0  0.12216513223E+01 -0.17426715494E+02  0.73337258372E+02  0.75389232058E+02  0.00000000000E+00 0. -1.
</event>
<event>
 8    1  0.6850220E-009  0.1090366E+03  0.7561462E-02  0.1262364E+00
          1   -1    0    0  501    0  0.00000000000E+00  0.00000000000E+00  0.53347266390E+03  0.53347266390E+03  0.00000000000E+00 0. -1.
         -1   -1    0    0    0  501 -0.00000000000E+00 -0.00000000000E+00 -0.33492879141E+02  0.33492879141E+02  0.00000000000E+00 0.  1.
         25    2    1    2    0    0 -0.52372426581E+02  0.31867108705E+02  0.35329131946E+03  0.37976401366E+03  0.12509023136E+03 0.  0.
         23    2    1    2    0    0  0.52372426581E+02 -0.31867108705E+02  0.14668846529E+03  0.18720152938E+03  0.98835838981E+02 0.  0.
          5    1    3    3  502    0  0.15801767628E+02 -0.38139433059E+02  0.10661538634E+03  0.11440552967E+03  0.41800000000E+01 0. -1.
         -5    1    3    3    0  502 -0.68174194209E+02  0.70006541764E+02  0.24667593312E+03  0.26535848399E+03  0.41800000000E+01 0. -1.
        -11    1    4    4    0    0  0.26037432629E+02  0.11157861340E+02 -0.37093517727E+01  0.28569302724E+02  0.00000000000E+00 0.  1.
         11    1    4    4    0    0  0.26334993952E+02 -0.43024970045E+02  0.15039781707E+03  0.15863222665E+03  0.00000000000E+00 0. -1.
</event>
<event>
 8    1  0.6850220E-009  0.1654187E+03  0.7561462E-02  0.1182711E+00
         -2   -1    0    0    0  501 -0.00000000000E+00  0.00000000000E+00  0.74604969842E+02  0.74604969842E+02  0.00000000000E+00 0.  1.
          2   -1    0    0  501    0  0.00000000000E+00 -0.00000000000E+00 -0.53737013429E+03  0.53737013429E+03  0.00000000000E+00 0. -1.
         25    2    1    2    0    0  0.10693058378E+03  0.63932214696E+02 -0.73312837950E+02  0.19116932414E+03  0.12509780359E+03 0.  0.
         23    2    1    2    0    0 -0.10693058378E+03 -0.63932214696E+02 -0.38945232650E+03  0.42080577999E+03  0.99412836362E+02 0.  0.
          5    1    3    3  502    0  0.49319996272E+02 -0.33617657375E+02 -0.43413215373E+02  0.73924208407E+02  0.41800000000E+01 0.  1.
         -5    1    3    3    0  502  0.57610587507E+02  0.97549872071E+02 -0.29899622577E+02  0.11724511574E+03  0.41800000000E+01 0.  1.
        -11    1    4    4    0    0 -0.75215787305E+02 -0.89491951347E+02 -0.31409349391E+03  0.33514317378E+03  0.00000000000E+00 0.  1.
         11    1    4    4    0    0 -0.31714796474E+02  0.25559736652E+02 -0.75358832590E+02  0.85662606209E+02  0.00000000000E+00 0. -1.
</event>
<event>
 7    1  0.6850220E-009  0.1174866E+03  0.7561462E-02  0.1247302E+00
         -3   -1    0    0    0  501 -0.00000000000E+00  0.00000000000E+00  0.41562454557E+03  0.41562454557E+03  0.00000000000E+00 0.  1.
          3   -1    0    0  501    0  0.00000000000E+00 -0.00000000000E+00 -0.55400743321E+02  0.55400743321E+02  0.00000000000E+00 0. -1.
         23    2    1    2    0    0 -0.86989405749E+02 -0.48420501490E+02  0.22694074594E+03  0.26303151912E+03  0.88157678077E+02 0.  0.
          5    1    1    2  502    0  0.24544290651E+02  0.39163357833E+01  0.12861031768E+03  0.13105665227E+03  0.41800000000E+01 0. -1.
         -5    1    1    2    0  502  0.62445115099E+02  0.44504165707E+02  0.46727386359E+01  0.76937117513E+02  0.41800000000E+01 0. -1.
        -11    1    3    3    0    0 -0.32414271195E+02  0.25393019097E+02  0.71316505076E+02  0.82350071598E+02  0.00000000000E+00 0.  1.
         11    1    3    3    0    0 -0.54575134554E+02 -0.73813520587E+02  0.15562424086E+03  0.18068144752E+03  0.00000000000E+00 0. -1.
</event>
<event>
 8    1  0.6850220E-009  0.1035952E+03  0.7561462E-02  0.1272912E+00
          2   -1    0    0  501    0  0.00000000000E+00  0.00000000000E+00  0.89020352363E+03  0.89020352363E+03  0.00000000000E+00 0. -1.
         -2   -1    0    0    0  501 -0.00000000000E+00 -0.00000000000E+00 -0.16969658630E+02  0.16969658630E+02  0.00000000000E+00 0.  1.
         25    2    1    2    0    0  0.68652695424E+02 -0.13599761464E+02  0.51064386935E+03  0.53038052606E+03  0.12509274570E+03 0.  0.
         23    2    1    2    0    0 -0.68652695424E+02  0.13599761464E+02  0.36258999565E+03  0.37679265619E+03  0.74853555119E+02 0.  0.
          5    1    3    3  502    0 -0.24886360227E+02  0.80163921153E+01  0.26946125731E+03  0.27075899811E+03  0.41800000000E+01 0.  1.
         -5    1    3    3    0  502  0.93539055651E+02 -0.21616153579E+02  0.24118261204E+03  0.25962152795E+03  0.41800000000E+01 0.  1.
        -11    1    4    4    0    0 -0.10204005226E+02 -0.16095910634E+02  0.18667333406E+02  0.26677132497E+02  0.00000000000E+00 0.  1.
         11    1    4    4    0    0 -0.58448690199E+02  0.29695672097E+02  0.34392266224E+03  0.35011552369E+03  0.00000000000E+00 0. -1.
</event>
<event>
 8    1  0.6850220E-009  0.1516574E+03  0.7561462E-02  0.1198451E+00
          1   -1    0    0  501    0  0.00000000000E+00  0.00000000000E+00  0.27136277955E+03  0.27136277955E+03  0.00000000000E+00 0. -1.
         -1   -1    0    0    0  501 -0.00000000000E+00 -0.00000000000E+00 -0.11664669012E+03  0.11664669012E+03  0.00000000000E+00 0.  1.
         25    2    1    2    0    0  0.97155104744E+01  0.13763988339E+03  0.51814464826E+02  0.19331598725E+03  0.12508878254E+03 0.  0.
         23    2    1    2    0    0 -0.97155104744E+01 -0.13763988339E+03  0.10290162460E+03  0.19469348243E+03  0.90981751520E+02 0.  0.
          5    1    3    3  502    0  0.27718401646E+02  0.20543053024E+02 -0.32707015113E+02  0.47723663469E+02  0.41800000000E+01 0.  1.
         -5    1    3    3    0  502 -0.18002891172E+02  0.11709683037E+03  0.84521479939E+02  0.14559232378E+03  0.41800000000E+01 0.  1.
        -11    1    4    4    0    0 -0.34637456280E+02 -0.84378243629E+02  0.10067298105E+03  0.13584730579E+03  0.00000000000E+00 0.  1.
         11    1    4    4    0    0  0.24921945805E+02 -0.53261639761E+02  0.22286435475E+01  0.58846176637E+02  0.00000000000E+00 0. -1.
</event>
<event>
 8    1  0.6850220E-009  0.1177295E+03  0.7561462E-02  0.1246890E+00
         -3   -1    0    0    0  501 -0.00000000000E+00  0.00000000000E+00  0.44075974528E+02  0.44075974528E+02  0.00000000000E+00 0.  1.
          3   -1    0    0  501    0  0.00000000000E+00 -0.00000000000E+00 -0.51120983021E+03  0.51120983021E+03  0.00000000000E+00 0. -1.
         25    2    1    2    0    0 -0.49871333895E+02  0.22884426176E+02 -0.39819791615E+03  0.42097477009E+03  0.12508928698E+03 0.  0.
         23    2    1    2    0    0  0.49871333895E+02 -0.22884426176E+02 -0.68935939528E+02  0.13431103465E+03  0.10137279400E+03 0.  0.
          5    1    3    3  502    0  0.29199126951E+02  0.33510717783E+02 -0.68709454351E+02  0.81939116045E+02  0.41800000000E+01 0. -1.
         -5    1    3    3    0  502 -0.79070460846E+02 -0.10626291607E+02 -0.32948846180E+03  0.33903565404E+03  0.41800000000E+01 0. -1.
        -11    1    4    4    0    0 -0.29327819305E+02 -0.54623891403E+01 -0.36077960295E+02  0.46814291614E+02  0.00000000000E+00 0.  1.
         11    1    4    4    0    0  0.79199153201E+02 -0.17422037036E+02 -0.32857979233E+02  0.87496743033E+02  0.00000000000E+00 0. -1.
</event>
<event>
 8    1  0.6850220E-009  0.1069127E+03  0.7561462E-02  0.1266396E+00
         -1   -1    0    0    0  501 -0.00000000000E+00  0.00000000000E+00  0.44337606432E+02  0.44337606432E+02  0.00000000000E+00 0.  1.
          1   -1    0    0  501    0  0.00000000000E+00 -0.00000000000E+00 -0.54940933049E+03  0.54940933049E+03  0.00000000000E+00 0. -1.
         25    2    1    2    0    0 -0.54388033040E+02 -0.57139010103E+02 -0.42167099676E+03  0.44685131852E+03  0.12508695671E+03 0.  0.
         23    2    1    2    0    0  0.54388033040E+02  0.57139010103E+02 -0.83400727293E+02  0.14689561840E+03  0.91649968785E+02 0.  0.
          5    1    3    3  502    0 -0.66085001896E+02 -0.58164677078E+02 -0.14352228484E+03  0.16842350127E+03  0.41800000000E+01 0.  1.
         -5    1    3    3    0  502  0.11696968857E+02  0.10256669743E+01 -0.27814871193E+03  0.27842781725E+03  0.41800000000E+01 0.  1.
        -11    1    4    4    0    0 -0.17075516233E+01  0.57105374719E+02 -0.16249137008E+02  0.59396750818E+02  0.00000000000E+00 0. -1.
         11    1    4    4    0    0  0.56095584663E+02  0.33635384728E-01 -0.67151590285E+02  0.87498867581E+02  0.00000000000E+00 0.  1.
</event>
<event>
 8    1  0.6850220E-009  0.1008947E+03  0.7561462E-02  0.1278426E+00
          1   -1    0    0  501    0  0.00000000000E+00  0.00000000000E+00  0.57705332787E+02  0.57705332787E+02  0.00000000000E+00 0. -1.
         -1   -1    0    0    0  501 -0.00000000000E+00 -0.00000000000E+00 -0.27656279798E+03  0.27656279798E+03  0.00000000000E+00 0.  1.
         25    2    1    2    0    0  0.23026734716E+02  0.59772826938E+02 -0.12452383006E+03  0.18776765069E+03  0.12508990784E+03 0.  0.
         23    2    1    2    0    0 -0.23026734716E+02 -0.59772826938E+02 -0.94333635135E+02  0.14650048007E+03  0.91981164334E+02 0.  0.
          5    1    3    3  502    0  0.15049724706E+02 -0.14132045665E+02  0.17518056431E+02  0.27396416363E+02  0.41800000000E+01 0. -1.
         -5    1    3    3    0  502  0.79770100104E+01  0.73904872603E+02 -0.14204188649E+03  0.16037123433E+03  0.41800000000E+01 0. -1.
        -11    1    4    4    0    0 -0.54942800449E+02 -0.45390547797E+02 -0.83665348187E+02  0.10990406561E+03  0.00000000000E+00 0.  1.
         11    1    4    4    0    0  0.31916065733E+02 -0.14382279141E+02 -0.10668286948E+02  0.36596414463E+02  0.00000000000E+00 0. -1.
</event>
<event>
 8    1  0.6850220E-009  0.1793292E+03  0.7561462E-02  0.1168454E+00
          2   -1    0    0  501    0  0.00000000000E+00  0.00000000000E+00  0.85783203783E+03  0.85783203783E+03  0.00000000000E+00 0.  1.
         -2   -1    0    0    0  501 -0.00000000000E+00 -0.00000000000E+00 -0.56065580778E+02  0.56065580778E+02  0.00000000000E+00 0. -1.
         25    2    1    2    0    0  0.95808715089E+02  0.13859154305E+03  0.23076368046E+03  0.31190875036E+03  0.12509303193E+03 0.  0.
         23    2    1    2    0    0 -0.95808715089E+02 -0.13859154305E+03  0.57100277659E+03  0.60198886825E+03  0.89216035145E+02 0.  0.
          5    1    3    3  502    0  0.41904318322E+02  0.76786847563E+00  0.11951668056E+03  0.12672123282E+03  0.41800000000E+01 0. -1.
         -5    1    3    3    0  502  0.53904396767E+02  0.13782367458E+03  0.11124699990E+03  0.18518751754E+03  0.41800000000E+01 0. -1.
        -11    1    4    4    0    0 -0.20847534509E+02 -0.29144359405E+02  0.36034204912E+02  0.50818080482E+02  0.00000000000E+00 0. -1.
         11    1    4    4    0    0 -0.74961180581E+02 -0.10944718365E+03  0.53496857168E+03  0.55117078777E+03  0.00000000000E+00 0.  1.
</event>
<event>
 8    1  0.6850220E-009  0.2726807E+03  0.7561462E-02  0.1099755E+00
         -2   -1    0    0    0  501 -0.00000000000E+00  0.00000000000E+00  0.36703563846E+02  0.36703563846E+02  0.00000000000E+00 0.  1.
          2   -1    0    0  501    0  0.00000000000E+00 -0.00000000000E+00 -0.20501716014E+04  0.20501716014E+04  0.00000000000E+00 0. -1.
         25    2    1    2    0    0  0.24141516267E+03 -0.73135748731E+02 -0.10413699668E+04  0.10787627483E+04  0.12509013060E+03 0.  0.
         23    2    1    2    0    0 -0.24141516267E+03  0.73135748731E+02 -0.97209807078E+03  0.10081124170E+04  0.87669080131E+02 0.  0.
          5    1    3    3  502    0  0.25105814016E+03 -0.54521966092E+02 -0.99600633154E+03  0.10286150492E+04  0.41800000000E+01 0. -1.
         -5    1    3    3    0  502 -0.96429774985E+01 -0.18613782639E+02 -0.45363635254E+02  0.50147699076E+02  0.41800000000E+01 0. -1.
        -11    1    4    4    0    0 -0.17195716369E+03  0.92062660524E+02 -0.71373265202E+03  0.73990478993E+03  0.00000000000E+00 0. -1.
         11    1    4    4    0    0 -0.69457998977E+02 -0.18926911793E+02 -0.25836541876E+03  0.26820762708E+03  0.00000000000E+00 0.  1.
</event>
<event>
 8    1  0.6850220E-009  0.1693514E+03  0.7561462E-02  0.1178526E+00
          2   -1    0    0  501    0  0.00000000000E+00  0.00000000000E+00  0.67122379063E+03  0.67122379063E+03  0.00000000000E+00 0. -1.
         -2   -1    0    0    0  501 -0.00000000000E+00 -0.00000000000E+00 -0.48860874778E+02  0.48860874778E+02  0.00000000000E+00 0.  1.
         25    2    1    2    0    0  0.62398370246E+02 -0.13024068453E+03  0.33144944179E+03  0.38257214768E+03  0.12508606317E+03 0.  0.
         23    2    1    2    0    0 -0.62398370246E+02  0.13024068453E+03  0.29091347406E+03  0.33751251773E+03  0.91803364411E+02 0.  0.
          5    1    3    3  502    0  0.89109022435E+02 -0.55923508589E+02  0.23735329149E+03  0.25965730121E+03  0.41800000000E+01 0.  1.
         -5    1    3    3    0  502 -0.26710652189E+02 -0.74317175943E+02  0.94096150302E+02  0.12291484647E+03  0.41800000000E+01 0.  1.
        -11    1    4    4    0    0 -0.65754200431E+02  0.78137935581E+02  0.11398657318E+03  0.15304277414E+03  0.00000000000E+00 0. -1.
         11    1    4    4    0    0  0.33558301853E+01  0.52102748951E+02  0.17692690088E+03  0.18446974359E+03  0.00000000000E+00 0.  1.
</event>
<event>
 8    1  0.6850220E-009  0.9596235E+02  0.7561462E-02  0.1289023E+00
          2   -1    0    0  501    0  0.00000000000E+00  0.00000000000E+00  0.32566767350E+03  0.32566767350E+03  0.00000000000E+00 0. -1.
         -2   -1    0    0    0  501 -0.00000000000E+00 -0.00000000000E+00 -0.41254284532E+02  0.41254284532E+02  0.00000000000E+00 0.  1.
         25    2    1    2    0    0  0.17028208473E+02  0.18074966022E+02  0.20805168387E+03  0.24402167300E+03  0.12507761372E+03 0.  0.
         23    2    1    2    0    0 -0.17028208473E+02 -0.18074966022E+02  0.76361705102E+02  0.12290028503E+03  0.93041419669E+02 0.  0.
          5    1    3    3  502    0 -0.52157063563E+02  0.24582572623E+02  0.99002974739E+02  0.11464607958E+03  0.41800000000E+01 0.  1.
         -5    1    3    3    0  502  0.69185272035E+02 -0.65076066010E+01  0.10904870913E+03  0.12937559342E+03  0.41800000000E+01 0.  1.
        -11    1    4    4    0    0  0.57326808431E+01 -0.35419852860E+02  0.85611105813E+02  0.92826133415E+02  0.00000000000E+00 0. -1.
         11    1    4    4    0    0 -0.22760889316E+02  0.17344886838E+02 -0.92494007113E+01  0.30074151615E+02  0.00000000000E+00 0.  1.
</event>
<event>
 8    1  0.6850220E-009  0.1298294E+03  0.7561462E-02  0.1227709E+00
          2   -1    0    0  501    0  0.00000000000E+00  0.00000000000E+00  0.29070192529E+03  0.29070192529E+03  0.00000000000E+00 0.  1.
         -2   -1    0    0    0  501 -0.00000000000E+00 -0.00000000000E+00 -0.84725103328E+02  0.84725103328E+02  0.00000000000E+00 0. -1.
         25    2    1    2    0    0 -0.43135990340E+02  0.10641023785E+03  0.10541389444E+03  0.19985830319E+03  0.12508956723E+03 0.  0.
         23    2    1    2    0    0  0.43135990340E+02 -0.10641023785E+03  0.10056292752E+03  0.17556872543E+03  0.86761872823E+02 0.  0.
          5    1    3    3  502    0 -0.28592084855E+02  0.28917984992E+02  0.11335748980E+03  0.12050373465E+03  0.41800000000E+01 0. -1.
         -5    1    3    3    0  502 -0.14543905485E+02  0.77492252857E+02 -0.79435953576E+01  0.79354568532E+02  0.41800000000E+01 0. -1.
        -11    1    4    4    0    0 -0.11627585917E+02 -0.76586567933E+02  0.76080797410E+02  0.10857711949E+03  0.00000000000E+00 0.  1.
         11    1    4    4    0    0  0.54763576257E+02 -0.29823669917E+02  0.24482130111E+02  0.66991605941E+02  0.00000000000E+00 0. -1.
</event>
<event>
 8    1  0.6850220E-009  0.1252665E+03  0.7561462E-02  0.1234653E+00
          1   -1    0    0  501    0  0.00000000000E+00  0.00000000000E+00  0.39753562291E+03  0.39753562291E+03  0.00000000000E+00 0. -1.
         -1   -1    0    0    0  501 -0.00000000000E+00 -0.00000000000E+00 -0.45239405215E+02  0.45239405215E+02  0.00000000000E+00 0.  1.
         25    2    1    2    0    0  0.61665526954E+02 -0.20005287141E+02  0.12133008755E+03  0.18593419757E+03  0.12509071489E+03 0.  0.
         23    2    1    2    0    0 -0.61665526954E+02  0.20005287141E+02  0.23096613015E+03  0.25684083056E+03  0.91755164647E+02 0.  0.
          5    1    3    3  502    0  0.40735223200E+02  0.50219445230E+02  0.38964352185E+02  0.75611138263E+02  0.41800000000E+01 0. -1.
         -5    1    3    3    0  502  0.20930303754E+02 -0.70224732370E+02  0.82365735364E+02  0.11032305930E+03  0.41800000000E+01 0. -1.
        -11    1    4    4    0    0 -0.85964694506E+02  0.12260745294E+02  0.17716474414E+03  0.19730078850E+03  0.00000000000E+00 0.  1.
         11    1    4    4    0    0  0.24299167552E+02  0.77445418467E+01  0.53801386012E+02  0.59540042064E+02  0.00000000000E+00 0. -1.
</event>
<event>
 8    1  0.6850220E-009  0.1283804E+03  0.7561462E-02  0.1229879E+00
          1   -1    0    0  501    0  0.00000000000E+00  0.00000000000E+00  0.37475481119E+03  0.37475481119E+03  0.00000000000E+00 0. -1.
         -1   -1    0    0    0  501 -0.00000000000E+00 -0.00000000000E+00 -0.59200327345E+02  0.59200327345E+02  0.00000000000E+00 0.  1.
         25    2    1    2    0    0  0.21092551622E+02  0.67972976144E+02  0.27329503155E+03  0.30887330147E+03  0.12508925164E+03 0.  0.
         23    2    1    2    0    0 -0.21092551622E+02 -0.67972976144E+02  0.42259452302E+02  0.12508183706E+03  0.93778374021E+02 0.  0.
          5    1    3    3  502    0  0.15811798482E+02 -0.33673123473E+02  0.42741115806E+02  0.56816965741E+02  0.41800000000E+01 0. -1.
         -5    1    3    3    0  502  0.52807531399E+01  0.10164609962E+03  0.23055391574E+03  0.25205633573E+03  0.41800000000E+01 0. -1.
        -11    1    4    4    0    0 -0.41154335545E+02  0.52936587903E+01  0.10911064490E+02  0.42904003145E+02  0.00000000000E+00 0.  1.
         11    1    4    4    0    0  0.20061783924E+02 -0.73266634934E+02  0.31348387812E+02  0.82177833916E+02  0.00000000000E+00 0. -1.
</event>
<event>
 8    1  0.6850220E-009  0.1099044E+03  0.7561462E-02  0.1260747E+00
         -1   -1    0    0    0  501 -0.00000000000E+00  0.00000000000E+00  0.28931278556E+03  0.28931278556E+03  0.00000000000E+00 0.  1.
          1   -1    0    0  501    0  0.00000000000E+00 -0.00000000000E+00 -0.43637251663E+02  0.43637251663E+02  0.00000000000E+00 0. -1.
         25    2    1    2    0    0 -0.25955714120E+01  0.24573968820E+02  0.11476059470E+03  0.17154527781E+03  0.12508865380E+03 0.  0.
         23    2    1    2    0    0  0.25955714120E+01 -0.24573968820E+02  0.13091493920E+03  0.16140475941E+03  0.91116179239E+02 0.  0.
          5    1    3    3  502    0  0.58221568408E+02  0.27830310106E+02  0.73310110856E+02  0.97755418991E+02  0.41800000000E+01 0.  1.
         -5    1    3    3    0  502 -0.60817139820E+02 -0.32563412851E+01  0.41450483839E+02  0.73789858822E+02  0.41800000000E+01 0.  1.
        -11    1    4    4    0    0 -0.94106164842E+01 -0.57906412792E+02  0.87875567243E+02  0.10565901601E+03  0.00000000000E+00 0. -1.
         11    1    4    4    0    0  0.12006187896E+02  0.33332443972E+02  0.43039371956E+02  0.55745743401E+02  0.00000000000E+00 0.  1.
</event>
<event>
 8    1  0.6850220E-009  0.1255092E+03  0.7561462E-02  0.1234276E+00
         -2   -1    0    0    0  501 -0.00000000000E+00  0.00000000000E+00  0.17096591301E+02  0.17096591301E+02  0.00000000000E+00 0.  1.
          2   -1    0    0  501    0  0.00000000000E+00 -0.00000000000E+00 -0.12472701063E+04  0.12472701063E+04  0.00000000000E+00 0. -1.
         25    2    1    2    0    0  0.59874004054E+02  0.37208244507E+02 -0.98228381782E+03  0.99272332527E+03  0.12509497174E+03 0.  0.
         23    2    1    2    0    0 -0.59874004054E+02 -0.37208244507E+02 -0.24788969722E+03  0.27164337237E+03  0.85857264966E+02 0.  0.
          5    1    3    3  502    0  0.97210061974E+02  0.35416163283E+02 -0.63201416317E+03  0.64044006404E+03  0.41800000000E+01 0.  1.
         -5    1    3    3    0  502 -0.37336057919E+02  0.17920812237E+01 -0.35026965465E+03  0.35228326123E+03  0.41800000000E+01 0.  1.
        -11    1    4    4    0    0 -0.30859714552E+02  0.25973943488E+02 -0.72306157483E+02  0.82795821951E+02  0.00000000000E+00 0.  1.
         11    1    4    4    0    0 -0.29014289502E+02 -0.63182187995E+02 -0.17558353973E+03  0.18884755042E+03  0.00000000000E+00 0. -1.
</event>
<event>
 8    1  0.6850220E-009  0.1175126E+03  0.7561462E-02  0.1247258E+00
          2   -1    0    0  501    0  0.00000000000E+00  0.00000000000E+00  0.83091349927E+02  0.83091349927E+02  0.00000000000E+00 0. -1.
         -2   -1    0    0    0  501 -0.00000000000E+00 -0.00000000000E+00 -0.24624951324E+03  0.24624951324E+03  0.00000000000E+00 0.  1.
         25    2    1    2    0    0  0.11597305538E+02  0.86028691656E+02 -0.48112108445E+02  0.15967989226E+03  0.12508980666E+03 0.  0.
         23    2    1    2    0    0 -0.11597305538E+02 -0.86028691656E+02 -0.11504605487E+03  0.16966097090E+03  0.89519925286E+02 0.  0.
          5    1    3    3  502    0  0.53897019374E+02  0.22575415064E+02 -0.58275728892E+02  0.82632142903E+02  0.41800000000E+01 0.  1.
         -5    1    3    3    0  502 -0.42299713836E+02  0.63453276592E+02  0.10163620448E+02  0.77047749360E+02  0.41800000000E+01 0.  1.
        -11    1    4    4    0    0 -0.27615941053E+02 -0.25968891281E+02 -0.98194848555E+02  0.10525802486E+03  0.00000000000E+00 0.  1.
         11    1    4    4    0    0  0.16018635515E+02 -0.60059800374E+02 -0.16851206312E+02  0.64402946043E+02  0.00000000000E+00 0. -1.
</event>
<event>
 8    1  0.6850220E-009  0.1483165E+03  0.7561462E-02  0.1202557E+00
          2   -1    0    0  501    0  0.00000000000E+00  0.00000000000E+00  0.10878786062E+04  0.10878786062E+04  0.00000000000E+00 0. -1.
         -2   -1    0    0    0  501 -0.00000000000E+00 -0.00000000000E+00 -0.24837975867E+02  0.24837975867E+02  0.00000000000E+00 0.  1.
         25    2    1    2    0    0  0.58636616628E+02 -0.10238071437E+03  0.69432673485E+03  0.71530263886E+03  0.12509271341E+03 0.  0.
         23    2    1    2    0    0 -0.58636616628E+02  0.10238071437E+03  0.36871389549E+03  0.39741394321E+03  0.89821167047E+02 0.  0.
          5    1    3    3  502    0  0.89655541935E+02 -0.54556842925E+02  0.32422496294E+03  0.34081353304E+03  0.41800000000E+01 0. -1.
         -5    1    3    3    0  502 -0.31018925308E+02 -0.47823871445E+02  0.37010177190E+03  0.37448910581E+03  0.41800000000E+01 0. -1.
        -11    1    4    4    0    0 -0.11875699236E+01  0.66923051886E+02  0.26752904851E+03  0.27577508407E+03  0.00000000000E+00 0.  1.
         11    1    4    4    0    0 -0.57449046704E+02  0.35457662483E+02  0.10118484697E+03  0.12163885914E+03  0.00000000000E+00 0. -1.
</event>
<event>
 8    1  0.6850220E-009  0.1351714E+03  0.7561462E-02  0.1219978E+00
          1   -1    0    0  501    0  0.00000000000E+00  0.00000000000E+00  0.99977805274E+02  0.99977805274E+02  0.00000000000E+00 0. -1.
         -1   -1    0    0    0  501 -0.00000000000E+00 -0.00000000000E+00 -0.19802255403E+03  0.19802255403E+03  0.00000000000E+00 0.  1.
         25    2    1    2    0    0  0.13220800036E+02 -0.71931021617E+02 -0.18004967418E+02  0.14601638457E+03  0.12509094406E+03 0.  0.
         23    2    1    2    0    0 -0.13220800036E+02  0.71931021617E+02 -0.80039781342E+02  0.15198397474E+03  0.10650774881E+03 0.  0.
          5    1    3    3  502    0  0.62237051285E+02 -0.61685510795E+01 -0.51897636435E+01  0.62896006406E+02  0.41800000000E+01 0.  1.
         -5    1    3    3    0  502 -0.49016251249E+02 -0.65762470538E+02 -0.12815203775E+02  0.83120378160E+02  0.41800000000E+01 0.  1.
        -11    1    4    4    0    0 -0.24178701816E+02  0.96048195823E+02 -0.46984265146E+02  0.10962384190E+03  0.00000000000E+00 0. -1.
         11    1    4    4    0    0  0.10957901780E+02 -0.24117174206E+02 -0.33055516196E+02  0.42360132838E+02  0.00000000000E+00 0.  1.
</event>
<event>
 8    1  0.6850220E-009  0.1526279E+03  0.7561462E-02  0.1197281E+00
          3   -1    0    0  501    0  0.00000000000E+00  0.00000000000E+00  0.25835207238E+03  0.25835207238E+03  0.00000000000E+00 0. -1.
         -3   -1    0    0    0  501 -0.00000000000E+00 -0.00000000000E+00 -0.12323234088E+03  0.12323234088E+03  0.00000000000E+00 0.  1.
         25    2    1    2    0    0 -0.46620264965E+02  0.12039842690E+03  0.10569144914E+02  0.18007942210E+03  0.12509061170E+03 0.  0.
         23    2    1    2    0    0  0.46620264965E+02 -0.12039842690E+03  0.12455058659E+03  0.20150499116E+03  0.91772449765E+02 0.  0.
          5    1    3    3  502    0 -0.46641015433E+02  0.14433505238E+03  0.21820030794E+02  0.15330224333E+03  0.41800000000E+01 0. -1.
         -5    1    3    3    0  502  0.20750468273E-01 -0.23936625482E+02 -0.11250885880E+02  0.26777178775E+02  0.41800000000E+01 0. -1.
        -11    1    4    4    0    0  0.26035535899E+02 -0.59989217965E+02  0.45062928490E+01  0.65550454436E+02  0.00000000000E+00 0.  1.
         11    1    4    4    0    0  0.20584729066E+02 -0.60409208932E+02  0.12004429374E+03  0.13595453672E+03  0.00000000000E+00 0. -1.
</event>
<event>
 8    1  0.6850220E-009  0.1308884E+03  0.7561462E-02  0.1226143E+00
          1   -1    0    0  501    0  0.00000000000E+00  0.00000000000E+00  0.33977585341E+03  0.33977585341E+03  0.00000000000E+00 0. -1.
         -1   -1    0    0    0  501 -0.00000000000E+00 -0.00000000000E+00 -0.67559831158E+02  0.67559831158E+02  0.00000000000E+00 0.  1.
         25    2    1    2    0    0  0.72151847327E+02  0.74371935309E+02  0.12345752119E+03  0.20402309341E+03  0.12508632728E+03 0.  0.
         23    2    1    2    0    0 -0.72151847327E+02 -0.74371935309E+02  0.14875850106E+03  0.20331259116E+03  0.92031756755E+02 0.  0.
          5    1    3    3  502    0  0.10473124668E+03  0.55449986966E+02  0.11500008371E+03  0.16518422061E+03  0.41800000000E+01 0. -1.
         -5    1    3    3    0  502 -0.32579399352E+02  0.18921948342E+02  0.84574374723E+01  0.38838872792E+02  0.41800000000E+01 0. -1.
        -11    1    4    4    0    0 -0.43418906097E+02 -0.31337297713E+02  0.90196839977E+01  0.54300850215E+02  0.00000000000E+00 0.  1.
         11    1    4    4    0    0 -0.28732941230E+02 -0.43034637595E+02  0.13973881707E+03  0.14901174095E+03  0.00000000000E+00 0. -1.
</event>
<event>
 8    1  0.6850220E-009  0.1234391E+03  0.7561462E-02  0.1237529E+00
         -2   -1    0    0    0  501 -0.00000000000E+00  0.00000000000E+00  0.95420299914E+02  0.95420299914E+02  0.00000000000E+00 0.  1.
          2   -1    0    0  501    0  0.00000000000E+00 -0.00000000000E+00 -0.26887635527E+03  0.26887635527E+03  0.00000000000E+00 0. -1.
         25    2    1    2    0    0 -0.18650645935E+02 -0.92309536287E+02 -0.17203737635E+03  0.23262026885E+03  0.12508570475E+03 0.  0.
         23    2    1    2    0    0  0.18650645935E+02  0.92309536287E+02 -0.14186790038E+01  0.13167638634E+03  0.92020437871E+02 0.  0.
          5    1    3    3  502    0 -0.40504489160E+02 -0.10169723718E+03 -0.75340397911E+02  0.13295333636E+03  0.41800000000E+01 0. -1.
         -5    1    3    3    0  502  0.21853843226E+02  0.93877008900E+01 -0.96696978443E+02  0.99666932489E+02  0.41800000000E+01 0. -1.
        -11    1    4    4    0    0 -0.12790050492E+02  0.77285370107E+02  0.30842266119E+02  0.84189424535E+02  0.00000000000E+00 0.  1.
         11    1    4    4    0    0  0.31440696427E+02  0.15024166180E+02 -0.32260945123E+02  0.47486961804E+02  0.00000000000E+00 0. -1.
</event>
<event>
 8    1  0.6850220E-009  0.1298626E+03  0.7561462E-02  0.1227660E+00
          2   -1    0    0  501    0  0.00000000000E+00  0.00000000000E+00  0.35112698079E+03  0.35112698079E+03  0.00000000000E+00 0. -1.
         -2   -1    0    0    0  501 -0.00000000000E+00 -0.00000000000E+00 -0.86980197178E+02  0.86980197178E+02  0.00000000000E+00 0.  1.
         25    2    1    2    0    0 -0.54626848586E+02  0.10662196799E+03  0.68540889423E+02  0.18627463504E+03  0.12509216400E+03 0.  0.
         23    2    1    2    0    0  0.54626848586E+02 -0.10662196799E+03  0.19560589419E+03  0.25183254293E+03  0.10395011877E+03 0.  0.
          5    1    3    3  502    0 -0.46400525938E+00  0.23278752021E+02 -0.35284263534E+02  0.42480198324E+02  0.41800000000E+01 0.  1.
         -5    1    3    3    0  502 -0.54162843327E+02  0.83343215965E+02  0.10382515296E+03  0.14379443672E+03  0.41800000000E+01 0.  1.
        -11    1    4    4    0    0  0.58587016969E+02 -0.42592275871E+02  0.38271976103E+02  0.81922430848E+02  0.00000000000E+00 0.  1.
         11    1    4    4    0    0 -0.39601683831E+01 -0.64029692114E+02  0.15733391809E+03  0.16991011208E+03  0.00000000000E+00 0. -1.
</event>
<event>
 8    1  0.6850220E-009  0.1049046E+03  0.7561462E-02  0.1270308E+00
         -1   -1    0    0    0  501 -0.00000000000E+00  0.00000000000E+00  0.94257949387E+02  0.94257949387E+02  0.00000000000E+00 0. -1.
          1   -1    0    0  501    0  0.00000000000E+00 -0.00000000000E+00 -0.18336648182E+03  0.18336648182E+03  0.00000000000E+00 0.  1.
         25    2    1    2    0    0  0.46100251963E+02  0.55521938936E+02 -0.32343239640E+02  0.14799130249E+03  0.12508965396E+03 0.  0.
         23    2    1    2    0    0 -0.46100251963E+02 -0.55521938936E+02 -0.56765292796E+02  0.12963312872E+03  0.91512461786E+02 0.  0.
          5    1    3    3  502    0  0.77172177355E+02  0.24878212699E+02  0.15976073297E+02  0.82747675151E+02  0.41800000000E+01 0. -1.
         -5    1    3    3    0  502 -0.31071925392E+02  0.30643726237E+02 -0.48319312937E+02  0.65243627336E+02  0.41800000000E+01 0. -1.
        -11    1    4    4    0    0  0.75938086733E+01 -0.17228428200E+02 -0.60712422761E+02  0.63564793289E+02  0.00000000000E+00 0.  1.
         11    1    4    4    0    0 -0.53694060636E+02 -0.38293510737E+02  0.39471299648E+01  0.66068335435E+02  0.00000000000E+00 0. -1.
</event>
<event>
 8    1  0.6850220E-009  0.9877215E+02  0.7561462E-02  0.1282899E+00
          1   -1    0    0  501    0  0.00000000000E+00  0.00000000000E+00  0.30480616129E+03  0.30480616129E+03  0.00000000000E+00 0. -1.
         -1   -1    0    0    0  501 -0.00000000000E+00 -0.00000000000E+00 -0.52426083844E+02  0.52426083844E+02  0.00000000000E+00 0.  1.
         25    2    1    2    0    0 -0.74877946590E+01 -0.47275995192E+02  0.20089799629E+03  0.24145045850E+03  0.12508889722E+03 0.  0.
         23    2    1    2    0    0  0.74877946590E+01  0.47275995192E+02  0.51482081155E+02  0.11578178663E+03  0.91999623073E+02 0.  0.
          5    1    3    3  502    0 -0.24700750918E+02  0.37848138520E+02  0.87329280789E+02  0.98419938877E+02  0.41800000000E+01 0.  1.
         -5    1    3    3    0  502  0.17212956259E+02 -0.85124133713E+02  0.11356871551E+03  0.14303051963E+03  0.41800000000E+01 0.  1.
        -11    1    4    4    0    0 -0.68043053301E+01  0.50167606413E+02  0.73575064564E+02  0.89310567291E+02  0.00000000000E+00 0. -1.
         11    1    4    4    0    0  0.14292099989E+02 -0.28916112203E+01 -0.22092983409E+02  0.26471219342E+02  0.00000000000E+00 0.  1.
</event>
<event>
 8    1  0.6850220E-009  0.1017058E+03  0.7561462E-02  0.1276749E+00
          1   -1    0    0  501    0  0.00000000000E+00  0.00000000000E+00  0.11079577278E+04  0.11079577278E+04  0.00000000000E+00 0. -1.
         -1   -1    0    0    0  501 -0.00000000000E+00 -0.00000000000E+00 -0.26099312264E+02  0.26099312264E+02  0.00000000000E+00 0.  1.
         25    2    1    2    0    0  0.88191522933E+02  0.49393586541E+02  0.85657036613E+03  0.87153747775E+03  0.12508921565E+03 0.  0.
         23    2    1    2    0    0 -0.88191522933E+02 -0.49393586541E+02  0.22528804940E+03  0.26251956231E+03  0.89131051187E+02 0.  0.
          5    1    3    3  502    0  0.15918914425E+02  0.13529925994E+02  0.14901203219E+02  0.25999788292E+02  0.41800000000E+01 0. -1.
         -5    1    3    3    0  502  0.72272608507E+02  0.35863660548E+02  0.84166916291E+03  0.84553768945E+03  0.41800000000E+01 0. -1.
        -11    1    4    4    0    0 -0.43834112785E+02 -0.20607483835E+02  0.19635796666E+03  0.20224378582E+03  0.00000000000E+00 0. -1.
         11    1    4    4    0    0 -0.44357410147E+02 -0.28786102706E+02  0.28930082740E+02  0.60275776489E+02  0.00000000000E+00 0.  1.
</event>
<event>
 8    1  0.6850220E-009  0.8932209E+02  0.7561462E-02  0.1304502E+00
         -2   -1    0    0    0  501 -0.00000000000E+00  0.00000000000E+00  0.77225923229E+02  0.77225923229E+02  0.00000000000E+00 0.  1.
          2   -1    0    0  501    0  0.00000000000E+00 -0.00000000000E+00 -0.16832123590E+03  0.16832123590E+03  0.00000000000E+00 0. -1.
         25    2    1    2    0    0 -0.31145545625E+01  0.18229870464E+01 -0.55251867819E+02  0.13679668367E+03  0.12509012764E+03 0.  0.
         23    2    1    2    0    0  0.31145545625E+01 -0.18229870464E+01 -0.35843444851E+02  0.10875047546E+03  0.10261037785E+03 0.  0.
          5    1    3    3  502    0  0.20745984101E+02 -0.57321578831E+02 -0.30070190909E+02  0.68101747681E+02  0.41800000000E+01 0. -1.
         -5    1    3    3    0  502 -0.23860538663E+02  0.59144565877E+02 -0.25181676910E+02  0.68694935986E+02  0.41800000000E+01 0. -1.
        -11    1    4    4    0    0  0.15502484563E+01  0.25857051579E+02  0.28605733536E+02  0.38591169686E+02  0.00000000000E+00 0.  1.
         11    1    4    4    0    0  0.15643061062E+01 -0.27680038625E+02 -0.64449178387E+02  0.70159305774E+02  0.00000000000E+00 0. -1.
</event>
<event>
 8    1  0.6850220E-009  0.1843690E+03  0.7561462E-02  0.1163640E+00
          2   -1    0    0  501    0  0.00000000000E+00  0.00000000000E+00  0.86182273168E+03  0.86182273168E+03  0.00000000000E+00 0. -1.
         -2   -1    0    0    0  501 -0.00000000000E+00 -0.00000000000E+00 -0.53083026617E+02  0.53083026617E+02  0.00000000000E+00 0.  1.
         25    2    1    2    0    0 -0.12078429180E+03  0.13587893526E+03  0.38108567653E+03  0.44036759173E+03  0.12508154457E+03 0.  0.
         23    2    1    2    0    0  0.12078429180E+03 -0.13587893526E+03  0.42765402854E+03  0.47453816658E+03  0.96159103674E+02 0.  0.
          5    1    3    3  502    0 -0.65580517757E+02  0.66169903260E+02  0.69473341971E+02  0.11628963002E+03  0.41800000000E+01 0. -1.
         -5    1    3    3    0  502 -0.55203774045E+02  0.69709032000E+02  0.31161233456E+03  0.32407796170E+03  0.41800000000E+01 0. -1.
        -11    1    4    4    0    0  0.97707990621E+02 -0.80953158043E+02  0.18267822055E+03  0.22242211556E+03  0.00000000000E+00 0.  1.
         11    1    4    4    0    0  0.23076301181E+02 -0.54925777217E+02  0.24497580799E+03  0.25211605101E+03  0.00000000000E+00 0. -1.
</event>
<event>
 8    1  0.6850220E-009  0.1788610E+03  0.7561462E-02  0.1168910E+00
         -1   -1    0    0    0  501 -0.00000000000E+00  0.00000000000E+00  0.96168876905E+02  0.96168876905E+02  0.00000000000E+00 0.  1.
          1   -1    0    0  501    0  0.00000000000E+00 -0.00000000000E+00 -0.49958183459E+03  0.49958183459E+03  0.00000000000E+00 0. -1.
         25    2    1    2    0    0 -0.15790408295E+03 -0.70776270747E+02 -0.10371936329E+03  0.23737720490E+03  0.12508897301E+03 0.  0.
         23    2    1    2    0    0  0.15790408295E+03  0.70776270747E+02 -0.29969359440E+03  0.35837350660E+03  0.93125398229E+02 0.  0.
          5    1    3    3  502    0 -0.13935721336E+03 -0.77239560691E+02 -0.31565893572E+02  0.16248157031E+03  0.41800000000E+01 0.  1.
         -5    1    3    3    0  502 -0.18546869590E+02  0.64632899437E+01 -0.72153469716E+02  0.74895634589E+02  0.41800000000E+01 0.  1.
        -11    1    4    4    0    0  0.93322851500E+02  0.18433231656E+02 -0.23342024078E+03  0.25205941253E+03  0.00000000000E+00 0. -1.
         11    1    4    4    0    0  0.64581231453E+02  0.52343039092E+02 -0.66273353620E+02  0.10631409407E+03  0.00000000000E+00 0.  1.
</event>
<event>
 8    1  0.6850220E-009  0.1031728E+03  0.7561462E-02  0.1273762E+00
          1   -1    0    0  501    0  0.00000000000E+00  0.00000000000E+00  0.23389833206E+03  0.23389833206E+03  0.00000000000E+00 0. -1.
         -1   -1    0    0    0  501 -0.00000000000E+00 -0.00000000000E+00 -0.61263508175E+02  0.61263508175E+02  0.00000000000E+00 0.  1.
         25    2    1    2    0    0  0.24336671903E+02 -0.25919816634E+02  0.14392956996E+03  0.19397462597E+03  0.12508526659E+03 0.  0.
         23    2    1    2    0    0 -0.24336671903E+02  0.25919816634E+02  0.28705253926E+02  0.10118721427E+03  0.90281505498E+02 0.  0.
          5    1    3    3  502    0  0.60258403044E+02 -0.55861347104E+02  0.10182806830E+03  0.13091215808E+03  0.41800000000E+01 0.  1.
         -5    1    3    3    0  502 -0.35921731140E+02  0.29941530470E+02  0.42101501660E+02  0.63062467895E+02  0.41800000000E+01 0.  1.
        -11    1    4    4    0    0 -0.38962315667E+02 -0.83622100142E+01 -0.16036231568E+02  0.42955201331E+02  0.00000000000E+00 0.  1.
         11    1    4    4    0    0  0.14625643764E+02  0.34282026649E+02  0.44741485494E+02  0.58232012938E+02  0.00000000000E+00 0. -1.
</event>
<event>
 7    1  0.6850220E-009  0.1598162E+03  0.7561462E-02  0.1188904E+00
          1   -1    0    0  501    0  0.00000000000E+00  0.00000000000E+00  0.19382346329E+03  0.19382346329E+03  0.00000000000E+00 0. -1.
         -1   -1    0    0    0  501 -0.00000000000E+00 -0.00000000000E+00 -0.17751921756E+03  0.17751921756E+03  0.00000000000E+00 0.  1.
         25    2    1    2    0    0  0.10469831366E+03  0.47788945550E+02 -0.44883366557E+02  0.17580552784E+03  0.12509015479E+03 0.  0.
          5    1    3    3  502    0  0.99771928555E+02 -0.77813190752E+01 -0.61387665509E+02  0.11747725112E+03  0.41800000000E+01 0.  1.
         -5    1    3    3    0  502  0.49263851018E+01  0.55570264625E+02  0.16504298952E+02  0.58328276716E+02  0.41800000000E+01 0.  1.
        -11    1    1    2    0    0 -0.90023964339E+02  0.21618995794E+02  0.79762241710E+02  0.12220356107E+03  0.00000000000E+00 0. -1.
         11    1    1    2    0    0 -0.14674349318E+02 -0.69407941344E+02 -0.18574629428E+02  0.73333591947E+02  0.00000000000E+00 0.  1.
</event>
<event>
 8    1  0.6850220E-009  0.9453994E+02  0.7561462E-02  0.1292216E+00
         -1   -1    0    0    0  501 -0.00000000000E+00  0.00000000000E+00  0.12476352242E+03  0.12476352242E+03  0.00000000000E+00 0.  1.
          1   -1    0    0  501    0  0.00000000000E+00 -0.00000000000E+00 -0.10941115232E+03  0.10941115232E+03  0.00000000000E+00 0. -1.
         25    2    1    2    0    0  0.31965967751E+02 -0.30109367922E+02  0.90092287105E+01  0.13287118732E+03  0.12508073027E+03 0.  0.
         23    2    1    2    0    0 -0.31965967751E+02  0.30109367922E+02  0.63431413872E+01  0.10130348743E+03  0.91070104816E+02 0.  0.
          5    1    3    3  502    0 -0.15387387509E+02  0.22647468502E+02 -0.38501449871E+02  0.47429037161E+02  0.41800000000E+01 0. -1.
         -5    1    3    3    0  502  0.47353355260E+02 -0.52756836424E+02  0.47510678581E+02  0.85442150154E+02  0.41800000000E+01 0. -1.
        -11    1    4    4    0    0 -0.50286260216E+02 -0.52343264506E+01 -0.19113687654E+02  0.54050339459E+02  0.00000000000E+00 0. -1.
         11    1    4    4    0    0  0.18320292465E+02  0.35343694373E+02  0.25456829042E+02  0.47253147967E+02  0.00000000000E+00 0.  1.
</event>
<event>
 8    1  0.6850220E-009  0.9636383E+02  0.7561462E-02  0.1288134E+00
          2   -1    0    0  501    0  0.00000000000E+00  0.00000000000E+00  0.75767851938E+03  0.75767851938E+03  0.00000000000E+00 0. -1.
         -2   -1    0    0    0  501 -0.00000000000E+00 -0.00000000000E+00 -0.17743103986E+02  0.17743103986E+02  0.00000000000E+00 0.  1.
         25    2    1    2    0    0 -0.49521690718E+01 -0.10067504146E+02  0.29798294334E+03  0.32336806441E+03  0.12508873629E+03 0.  0.
         23    2    1    2    0    0  0.49521690718E+01  0.10067504146E+02  0.44195247206E+03  0.45205355895E+03  0.94363944303E+02 0.  0.
          5    1    3    3  502    0 -0.23756588614E+02 -0.48810059219E+02  0.26048118494E+03  0.26611034833E+03  0.41800000000E+01 0.  1.
         -5    1    3    3    0  502  0.18804419542E+02  0.38742555073E+02  0.37501758400E+02  0.57257716083E+02  0.41800000000E+01 0.  1.
        -11    1    4    4    0    0 -0.40789441363E+02  0.23839731542E+02  0.22355205851E+03  0.22848989954E+03  0.00000000000E+00 0. -1.
         11    1    4    4    0    0  0.45741610435E+02 -0.13772227395E+02  0.21840041355E+03  0.22356365942E+03  0.00000000000E+00 0.  1.
</event>
<event>
 8    1  0.6850220E-009  0.1091127E+03  0.7561462E-02  0.1262222E+00
         -1   -1    0    0    0  501 -0.00000000000E+00  0.00000000000E+00  0.36332594769E+02  0.36332594769E+02  0.00000000000E+00 0.  1.
          1   -1    0    0  501    0  0.00000000000E+00 -0.00000000000E+00 -0.47518913914E+03  0.47518913914E+03  0.00000000000E+00 0. -1.
         25    2    1    2    0    0  0.49874792698E+02  0.36117446117E+02 -0.34849524702E+03  0.37534658210E+03  0.12507659509E+03 0.  0.
         23    2    1    2    0    0 -0.49874792698E+02 -0.36117446117E+02 -0.90361297356E+02  0.13617515181E+03  0.81157519988E+02 0.  0.
          5    1    3    3  502    0  0.40516523946E+02 -0.43030762271E+02 -0.16182257732E+03  0.17232891268E+03  0.41800000000E+01 0.  1.
         -5    1    3    3    0  502  0.93582687511E+01  0.79148208388E+02 -0.18667266970E+03  0.20301766942E+03  0.41800000000E+01 0.  1.
        -11    1    4    4    0    0 -0.18296225651E+02  0.11804767880E+02 -0.73055882778E+02  0.76231662885E+02  0.00000000000E+00 0. -1.
         11    1    4    4    0    0 -0.31578567047E+02 -0.47922213997E+02 -0.17305414578E+02  0.59943488927E+02  0.00000000000E+00 0.  1.
</event>
<event>
 8    1  0.6850220E-009  0.1598263E+03  0.7561462E-02  0.1188893E+00
         -1   -1    0    0    0  501 -0.00000000000E+00  0.00000000000E+00  0.65635830059E+02  0.65635830059E+02  0.00000000000E+00 0.  1.
          1   -1    0    0  501    0  0.00000000000E+00 -0.00000000000E+00 -0.42660109111E+03  0.42660109111E+03  0.00000000000E+00 0. -1.
         25    2    1    2    0    0 -0.76424344983E+02 -0.97903673328E+02 -0.15026154829E+03  0.23162698026E+03  0.12508683117E+03 0.  0.
         23    2    1    2    0    0  0.76424344983E+02  0.97903673328E+02 -0.21070371276E+03  0.26060994091E+03  0.89975979974E+02 0.  0.
          5    1    3    3  502    0 -0.85033915641E+02 -0.16603968529E+02 -0.11090302670E+03  0.14079564024E+03  0.41800000000E+01 0. -1.
         -5    1    3    3    0  502  0.86095706575E+01 -0.81299704800E+02 -0.39358521588E+02  0.90831340016E+02  0.41800000000E+01 0. -1.
        -11    1    4    4    0    0  0.54330526061E+02  0.38829906092E+01 -0.55166352935E+02  0.77525545301E+02  0.00000000000E+00 0.  1.
         11    1    4    4    0    0  0.22093818922E+02  0.94020682719E+02 -0.15553735983E+03  0.18308439561E+03  0.00000000000E+00 0. -1.
</event>
<event>
 8    1  0.6850220E-009  0.1688992E+03  0.7561462E-02  0.1179001E+00
          2   -1    0    0  501    0  0.00000000000E+00  0.00000000000E+00  0.67705345061E+03  0.67705345061E+03  0.00000000000E+00 0. -1.
         -2   -1    0    0    0  501 -0.00000000000E+00 -0.00000000000E+00 -0.46700288257E+02  0.46700288257E+02  0.00000000000E+00 0.  1.
         25    2    1    2    0    0 -0.58415774119E+02  0.11542352324E+03  0.44488406746E+03  0.47990063186E+03  0.12509112918E+03 0.  0.
         23    2    1    2    0    0  0.58415774119E+02 -0.11542352324E+03  0.18546909490E+03  0.24385310701E+03  0.91271902873E+02 0.  0.
          5    1    3    3  502    0 -0.41635706071E+02 -0.17736279056E+02  0.12322060803E+03  0.13133506104E+03  0.41800000000E+01 0.  1.
         -5    1    3    3    0  502 -0.16780068048E+02  0.13315980229E+03  0.32166345943E+03  0.34856557082E+03  0.41800000000E+01 0.  1.
        -11    1    4    4    0    0  0.49341855362E+02 -0.76671121201E+01  0.65056394271E+02  0.82010595257E+02  0.00000000000E+00 0. -1.
         11    1    4    4    0    0  0.90739187571E+01 -0.10775641112E+03  0.12041270063E+03  0.16184251175E+03  0.00000000000E+00 0.  1.
</event>
<event>
 8    1  0.6850220E-009  0.1640536E+03  0.7561462E-02  0.1184195E+00
          2   -1    0    0  501    0  0.00000000000E+00  0.00000000000E+00  0.78613565610E+03  0.78613565610E+03  0.00000000000E+00 0. -1.
         -2   -1    0    0    0  501 -0.00000000000E+00 -0.00000000000E+00 -0.35566377914E+02  0.35566377914E+02  0.00000000000E+00 0.  1.
         25    2    1    2    0    0  0.50352631347E+02  0.11589714572E+03  0.41234413429E+03  0.44904552503E+03  0.12508662035E+03 0.  0.
         23    2    1    2    0    0 -0.50352631347E+02 -0.11589714572E+03  0.33822514389E+03  0.37265650898E+03  0.92244728093E+02 0.  0.
          5    1    3    3  502    0  0.53407571136E+02 -0.73404034366E+01  0.13963889892E+03  0.14974226080E+03  0.41800000000E+01 0.  1.
         -5    1    3    3    0  502 -0.30549397888E+01  0.12323754915E+03  0.27270523538E+03  0.29930326423E+03  0.41800000000E+01 0.  1.
        -11    1    4    4    0    0 -0.60603037121E+01 -0.10487011555E+03  0.18461163391E+03  0.21240509361E+03  0.00000000000E+00 0.  1.
         11    1    4    4    0    0 -0.44292327635E+02 -0.11027030166E+02  0.15361350998E+03  0.16025141537E+03  0.00000000000E+00 0. -1.
</event>
<event>
 8    1  0.6850220E-009  0.1451812E+03  0.7561462E-02  0.1206522E+00
         -2   -1    0    0    0  501 -0.00000000000E+00  0.00000000000E+00  0.24938054510E+02  0.24938054510E+02  0.00000000000E+00 0.  1.
          2   -1    0    0  501    0  0.00000000000E+00 -0.00000000000E+00 -0.11424645182E+04  0.11424645182E+04  0.00000000000E+00 0. -1.
         25    2    1    2    0    0 -0.11968946564E+03  0.82841751201E+01 -0.75912672865E+03  0.77866149053E+03  0.12508449523E+03 0.  0.
         23    2    1    2    0    0  0.11968946564E+03 -0.82841751201E+01 -0.35839973503E+03  0.38874108217E+03  0.90967374099E+02 0.  0.
          5    1    3    3  502    0 -0.31371119471E+02 -0.29856141579E+02 -0.50552504203E+03  0.50739390698E+03  0.41800000000E+01 0. -1.
         -5    1    3    3    0  502 -0.88318346169E+02  0.38140316699E+02 -0.25360168662E+03  0.27126758355E+03  0.41800000000E+01 0. -1.
        -11    1    4    4    0    0  0.67580433398E+01  0.30435126449E+02 -0.75048938574E+02  0.81266913641E+02  0.00000000000E+00 0.  1.
         11    1    4    4    0    0  0.11293142230E+03 -0.38719301569E+02 -0.28335079646E+03  0.30747416852E+03  0.00000000000E+00 0. -1.
</event>
<event>
 8    1  0.6850220E-009  0.2302361E+03  0.7561462E-02  0.1126474E+00
          1   -1    0    0  501    0  0.00000000000E+00  0.00000000000E+00  0.75956997287E+03  0.75956997287E+03  0.00000000000E+00 0. -1.
         -1   -1    0    0    0  501 -0.00000000000E+00 -0.00000000000E+00 -0.73690229545E+02  0.73690229545E+02  0.00000000000E+00 0.  1.
         25    2    1    2    0    0 -0.93836814069E+02  0.18740593535E+03  0.31545357822E+03  0.39885408960E+03  0.12508913824E+03 0.  0.
         23    2    1    2    0    0  0.93836814069E+02 -0.18740593535E+03  0.37042616511E+03  0.43440611281E+03  0.86987325355E+02 0.  0.
          5    1    3    3  502    0 -0.10370990896E+03  0.81726389620E+02  0.13128013356E+03  0.18624417801E+03  0.41800000000E+01 0.  1.
         -5    1    3    3    0  502  0.98730948933E+01  0.10567954573E+03  0.18417344466E+03  0.21260991159E+03  0.41800000000E+01 0.  1.
        -11    1    4    4    0    0  0.10181122163E+03 -0.13475820550E+03  0.31576487279E+03  0.35809601183E+03  0.00000000000E+00 0. -1.
         11    1    4    4    0    0 -0.79744075580E+01 -0.52647729852E+02  0.54661292322E+02  0.76310100988E+02  0.00000000000E+00 0.  1.
</event>
<event>
 8    1  0.6850220E-009  0.9877398E+02  0.7561462E-02  0.1282895E+00
         -1   -1    0    0    0  501 -0.00000000000E+00  0.00000000000E+00  0.12864903199E+02  0.12864903199E+02  0.00000000000E+00 0.  1.
          1   -1    0    0  501    0  0.00000000000E+00 -0.00000000000E+00 -0.10302344995E+04  0.10302344995E+04  0.00000000000E+00 0. -1.
         25    2    1    2    0    0 -0.32695876141E+02 -0.57667037788E+01 -0.63581634690E+03  0.64885677500E+03  0.12510160790E+03 0.  0.
         23    2    1    2    0    0  0.32695876141E+02  0.57667037788E+01 -0.38155324945E+03  0.39424262774E+03  0.93499155999E+02 0.  0.
          5    1    3    3  502    0  0.34305403640E+02 -0.13234597512E+02 -0.71470063445E+02  0.80482654398E+02  0.41800000000E+01 0.  1.
         -5    1    3    3    0  502 -0.67001279780E+02  0.74678937333E+01 -0.56434628345E+03  0.56837412061E+03  0.41800000000E+01 0.  1.
        -11    1    4    4    0    0  0.19407223473E+02  0.46373060272E+02 -0.13586048356E+03  0.14486259708E+03  0.00000000000E+00 0.  1.
         11    1    4    4    0    0  0.13288652668E+02 -0.40606356493E+02 -0.24569276589E+03  0.24938003066E+03  0.00000000000E+00 0. -1.
</event>
<event>
 8    1  0.6850220E-009  0.1017596E+03  0.7561462E-02  0.1276639E+00
          1   -1    0    0  501    0  0.00000000000E+00  0.00000000000E+00  0.36727946644E+02  0.36727946644E+02  0.00000000000E+00 0. -1.
         -1   -1    0    0    0  501 -0.00000000000E+00 -0.00000000000E+00 -0.52335428842E+03  0.52335428842E+03  0.00000000000E+00 0.  1.
         25    2    1    2    0    0 -0.77570086729E+01 -0.17693405431E+02 -0.10084783660E+03  0.16183649751E+03  0.12509011951E+03 0.  0.
         23    2    1    2    0    0  0.77570086729E+01  0.17693405431E+02 -0.38577850517E+03  0.39824573755E+03  0.96960737666E+02 0.  0.
          5    1    3    3  502    0  0.14346746992E+02 -0.57888136894E+02 -0.10886769411E+02  0.60768903977E+02  0.41800000000E+01 0.  1.
         -5    1    3    3    0  502 -0.22103755665E+02  0.40194731463E+02 -0.89961067192E+02  0.10106759353E+03  0.41800000000E+01 0.  1.
        -11    1    4    4    0    0 -0.14110136517E+02  0.53712378192E+02 -0.24928952168E+03  0.25540043293E+03  0.00000000000E+00 0.  1.
         11    1    4    4    0    0  0.21867145190E+02 -0.36018972761E+02 -0.13648898349E+03  0.14284530462E+03  0.00000000000E+00 0. -1.
</event>
<event>
 8    1  0.6850220E-009  0.9406527E+02  0.7561462E-02  0.1293295E+00
         -1   -1    0    0    0  501 -0.00000000000E+00  0.00000000000E+00  0.21109186747E+02  0.21109186747E+02  0.00000000000E+00 0.  1.
          1   -1    0    0  501    0  0.00000000000E+00 -0.00000000000E+00 -0.87606184012E+03  0.87606184012E+03  0.00000000000E+00 0. -1.
         25    2    1    2    0    0 -0.68749487296E+02 -0.29328081745E+02 -0.36787362894E+03  0.39568337941E+03  0.12509077299E+03 0.  0.
         23    2    1    2    0    0  0.68749487296E+02  0.29328081745E+02 -0.48707902443E+03  0.50148764745E+03  0.93044377206E+02 0.  0.
          5    1    3    3  502    0 -0.59749633900E+02 -0.47826929702E+01 -0.36400018920E+03  0.36892614849E+03  0.41800000000E+01 0. -1.
         -5    1    3    3    0  502 -0.89998533964E+01 -0.24545388775E+02 -0.38734397489E+01  0.26757230925E+02  0.41800000000E+01 0. -1.
        -11    1    4    4    0    0  0.80969054294E+02  0.14337188101E+02 -0.46465797683E+03  0.47187771525E+03  0.00000000000E+00 0. -1.
         11    1    4    4    0    0 -0.12219566998E+02  0.14990893644E+02 -0.22421047596E+02  0.29609932204E+02  0.00000000000E+00 0.  1.
</event>
<event>
 8    1  0.6850220E-009  0.9425575E+02  0.7561462E-02  0.1292861E+00
          1   -1    0    0  501    0  0.00000000000E+00  0.00000000000E+00  0.17674006107E+03  0.17674006107E+03  0.00000000000E+00 0. -1.
         -1   -1    0    0    0  501 -0.00000000000E+00 -0.00000000000E+00 -0.70217772725E+02  0.70217772725E+02  0.00000000000E+00 0.  1.
         25    2    1    2    0    0 -0.19313352022E+02  0.16274263858E+02  0.68745198750E+02  0.14495242708E+03  0.12508975392E+03 0.  0.
         23    2    1    2    0    0  0.19313352022E+02 -0.16274263858E+02  0.37777089595E+02  0.10200540671E+03  0.91324352008E+02 0.  0.
          5    1    3    3  502    0 -0.63873645703E+02  0.22104384524E+02  0.64507429958E+01  0.68025957662E+02  0.41800000000E+01 0. -1.
         -5    1    3    3    0  502  0.44560293681E+02 -0.58301206667E+01  0.62294455754E+02  0.76926469421E+02  0.41800000000E+01 0. -1.
        -11    1    4    4    0    0  0.77051978157E+00 -0.43067325570E+02 -0.99574372302E+01  0.44210166124E+02  0.00000000000E+00 0.  1.
         11    1    4    4    0    0  0.18542832240E+02  0.26793061712E+02  0.47734526826E+02  0.57795240588E+02  0.00000000000E+00 0. -1.
</event>
<event>
 8    1  0.6850220E-009  0.1221536E+03  0.7561462E-02  0.1239586E+00
          1   -1    0    0  501    0  0.00000000000E+00  0.00000000000E+00  0.41894997115E+02  0.41894997115E+02  0.00000000000E+00 0. -1.
         -1   -1    0    0    0  501 -0.00000000000E+00 -0.00000000000E+00 -0.36443197303E+03  0.36443197303E+03  0.00000000000E+00 0.  1.
         25    2    1    2    0    0 -0.39966622123E+01 -0.56939200038E+02 -0.19673600852E+03  0.24002404440E+03  0.12509372100E+03 0.  0.
         23    2    1    2    0    0  0.39966622123E+01  0.56939200038E+02 -0.12580096740E+03  0.16630292575E+03  0.92589059307E+02 0.  0.
          5    1    3    3  502    0 -0.11926957049E+02 -0.95533583616E+02 -0.15468873227E+03  0.18224981260E+03  0.41800000000E+01 0.  1.
         -5    1    3    3    0  502  0.79302948367E+01  0.38594383577E+02 -0.42047276250E+02  0.57774231799E+02  0.41800000000E+01 0.  1.
        -11    1    4    4    0    0  0.47680194811E+02  0.22655041722E+02 -0.53768075339E+02  0.75350234361E+02  0.00000000000E+00 0. -1.
         11    1    4    4    0    0 -0.43683532598E+02  0.34284158316E+02 -0.72032892060E+02  0.90952691385E+02  0.00000000000E+00 0.  1.
</event>
<event>
 8    1  0.6850220E-009  0.1170318E+03  0.7561462E-02  0.1248075E+00
         -2   -1    0    0    0  501 -0.00000000000E+00  0.00000000000E+00  0.52610974017E+03  0.52610974017E+03  0.00000000000E+00 0.  1.
          2   -1    0    0  501    0  0.00000000000E+00 -0.00000000000E+00 -0.38169270185E+02  0.38169270185E+02  0.00000000000E+00 0. -1.
         25    2    1    2    0    0 -0.55768624353E+02 -0.42494492567E+02  0.15366642262E+03  0.21018186643E+03  0.12508847338E+03 0.  0.
         23    2    1    2    0    0  0.55768624353E+02  0.42494492567E+02  0.33427404737E+03  0.35409714393E+03  0.93433009352E+02 0.  0.
          5    1    3    3  502    0 -0.71562197678E+02  0.72033076435E+01  0.13782913570E+03  0.15552292058E+03  0.41800000000E+01 0. -1.
         -5    1    3    3    0  502  0.15793573325E+02 -0.49697800210E+02  0.15837286920E+02  0.54658945847E+02  0.41800000000E+01 0. -1.
        -11    1    4    4    0    0  0.40142660275E+02  0.68482231412E+02  0.17785133931E+03  0.19476228610E+03  0.00000000000E+00 0. -1.
         11    1    4    4    0    0  0.15625964078E+02 -0.25987738845E+02  0.15642270806E+03  0.15933485783E+03  0.00000000000E+00 0.  1.
</event>
<event>
 8    1  0.6850220E-009  0.1724878E+03  0.7561462E-02  0.1175278E+00
         -1   -1    0    0    0  501 -0.00000000000E+00  0.00000000000E+00  0.23831361430E+02  0.23831361430E+02  0.00000000000E+00 0.  1.
          1   -1    0    0  501    0  0.00000000000E+00 -0.00000000000E+00 -0.13619955124E+04  0.13619955124E+04  0.00000000000E+00 0. -1.
         25    2    1    2    0    0 -0.52841487371E+02  0.13156387245E+03 -0.62067511971E+03  0.64884172512E+03  0.12512675458E+03 0.  0.
         23    2    1    2    0    0  0.52841487371E+02 -0.13156387245E+03 -0.71748903126E+03  0.73698514871E+03  0.90858814189E+02 0.  0.
          5    1    3    3  502    0 -0.16959248565E+02 -0.17465634466E+02 -0.31455518125E+02  0.39994831163E+02  0.41800000000E+01 0.  1.
         -5    1    3    3    0  502 -0.35882238806E+02  0.14902950691E+03 -0.58921960158E+03  0.60884689396E+03  0.41800000000E+01 0.  1.
        -11    1    4    4    0    0  0.24597750642E+02  0.69536390568E+01 -0.78970450064E+02  0.83004424075E+02  0.00000000000E+00 0.  1.
         11    1    4    4    0    0  0.28243736730E+02 -0.13851751150E+03 -0.63851858120E+03  0.65398072463E+03  0.00000000000E+00 0. -1.
</event>
<event>
 8    1  0.6850220E-009  0.1205028E+03  0.7561462E-02  0.1242270E+00
         -4   -1    0    0    0  501 -0.00000000000E+00  0.00000000000E+00  0.93284689232E+02  0.93284689232E+02  0.00000000000E+00 0.  1.
          4   -1    0    0  501    0  0.00000000000E+00 -0.00000000000E+00 -0.21295488147E+03  0.21295488147E+03  0.00000000000E+00 0. -1.
         25    2    1    2    0    0 -0.68096225499E+02  0.43606964060E+02 -0.24856983496E+02  0.15100656611E+03  0.12508577113E+03 0.  0.
         23    2    1    2    0    0  0.68096225499E+02 -0.43606964060E+02 -0.94813208738E+02  0.15523300459E+03  0.92569314139E+02 0.  0.
          5    1    3    3  502    0 -0.77269905518E+02 -0.52329349180E+01 -0.52815222712E+02  0.93834652750E+02  0.41800000000E+01 0. -1.
         -5    1    3    3    0  502  0.91736800188E+01  0.48839898978E+02  0.27958239216E+02  0.57171913361E+02  0.41800000000E+01 0. -1.
        -11    1    4    4    0    0  0.27707929342E+02 -0.62962622059E+02 -0.26859015142E+02  0.73847327774E+02  0.00000000000E+00 0.  1.
         11    1    4    4    0    0  0.40388296157E+02  0.19355657999E+02 -0.67954193596E+02  0.81385676813E+02  0.00000000000E+00 0. -1.
</event>
<event>
 8    1  0.6850220E-009  0.1340344E+03  0.7561462E-02  0.1221589E+00
         -2   -1    0    0    0  501 -0.00000000000E+00  0.00000000000E+00  0.11363075034E+03  0.11363075034E+03  0.00000000000E+00 0.  1.
          2   -1    0    0  501    0  0.00000000000E+00 -0.00000000000E+00 -0.21415735646E+03  0.21415735646E+03  0.00000000000E+00 0. -1.
         25    2    1    2    0    0 -0.10891654120E+03  0.27589715710E+01 -0.86393363543E+02  0.18703731641E+03  0.12509484240E+03 0.  0.
         23    2    1    2    0    0  0.10891654120E+03 -0.27589715710E+01 -0.14133242572E+02  0.14075079039E+03  0.87980745506E+02 0.  0.
          5    1    3    3  502    0 -0.80161573801E+02 -0.52100376394E+02 -0.79811032837E+02  0.12460979294E+03  0.41800000000E+01 0.  1.
         -5    1    3    3    0  502 -0.28754967396E+02  0.54859347965E+02 -0.65823307059E+01  0.62427523470E+02  0.41800000000E+01 0.  1.
        -11    1    4    4    0    0  0.45586278888E+02  0.73053499612E+01  0.36654811619E+02  0.58949573160E+02  0.00000000000E+00 0.  1.
         11    1    4    4    0    0  0.63330262308E+02 -0.10064321532E+02 -0.50788054192E+02  0.81801217231E+02  0.00000000000E+00 0. -1.
</event>
<event>
 8    1  0.6850220E-009  0.1422780E+03  0.7561462E-02  0.1210296E+00
         -1   -1    0    0    0  501 -0.00000000000E+00  0.00000000000E+00  0.60060862449E+02  0.60060862449E+02  0.00000000000E+00 0.  1.
          1   -1    0    0  501    0  0.00000000000E+00 -0.00000000000E+00 -0.34551059363E+03  0.34551059363E+03  0.00000000000E+00 0. -1.
         25    2    1    2    0    0  0.79512850450E+02 -0.52276543740E+02 -0.14712361987E+03  0.21528416619E+03  0.12508709877E+03 0.  0.
         23    2    1    2    0    0 -0.79512850450E+02  0.52276543740E+02 -0.13832611132E+03  0.19028728989E+03  0.89554504126E+02 0.  0.
          5    1    3    3  502    0  0.73708912162E+02  0.26217141211E+02 -0.74226138753E+02  0.10792281640E+03  0.41800000000E+01 0.  1.
         -5    1    3    3    0  502  0.58039382878E+01 -0.78493684951E+02 -0.72897481112E+02  0.10736134979E+03  0.41800000000E+01 0.  1.
        -11    1    4    4    0    0 -0.57709712846E+02  0.75833145779E+02 -0.12031160916E+03  0.15347951086E+03  0.00000000000E+00 0. -1.
         11    1    4    4    0    0 -0.21803137604E+02 -0.23556602039E+02 -0.18014502157E+02  0.36807779028E+02  0.00000000000E+00 0.  1.
</event>
<event>
 8    1  0.6850220E-009  0.1040442E+03  0.7561462E-02  0.1272014E+00
         -2   -1    0    0    0  501 -0.00000000000E+00  0.00000000000E+00  0.26231017794E+02  0.26231017794E+02  0.00000000000E+00 0.  1.
          2   -1    0    0  501    0  0.00000000000E+00 -0.00000000000E+00 -0.50021557179E+03  0.50021557179E+03  0.00000000000E+00 0. -1.
         25    2    1    2    0    0 -0.19498558540E+02 -0.27493538203E+02 -0.31429136987E+03  0.33994610107E+03  0.12509275772E+03 0.  0.
         23    2    1    2    0    0  0.19498558540E+02  0.27493538203E+02 -0.15969318413E+03  0.18650048851E+03  0.90246499820E+02 0.  0.
          5    1    3    3  502    0 -0.24303584209E+02 -0.72689289761E+02 -0.24687331549E+03  0.25853104911E+03  0.41800000000E+01 0. -1.
         -5    1    3    3    0  502  0.48050256698E+01  0.45195751558E+02 -0.67418054374E+02  0.81415051964E+02  0.41800000000E+01 0. -1.
        -11    1    4    4    0    0  0.45958258916E+02  0.35467427027E+02 -0.14270569111E+03  0.15406172210E+03  0.00000000000E+00 0. -1.
         11    1    4    4    0    0 -0.26459700377E+02 -0.79738888244E+01 -0.16987493021E+02  0.32438766409E+02  0.00000000000E+00 0.  1.
</event>
<event>
 8    1  0.6850220E-009  0.1069169E+03  0.7561462E-02  0.1266388E+00
          2   -1    0    0  501    0  0.00000000000E+00  0.00000000000E+00  0.11667056470E+04  0.11667056470E+04  0.00000000000E+00 0. -1.
         -2   -1    0    0    0  501 -0.00000000000E+00 -0.00000000000E+00 -0.17772105059E+02  0.17772105059E+02  0.00000000000E+00 0.  1.
         25    2    1    2    0    0  0.46991712349E+02  0.51201312488E+02  0.88727567545E+03  0.89874103007E+03  0.12509004538E+03 0.  0.
         23    2    1    2    0    0 -0.46991712349E+02 -0.51201312488E+02  0.26165786653E+03  0.28573672203E+03  0.91382929308E+02 0.  0.
          5    1    3    3  502    0 -0.14267931723E+02 -0.12437368949E+02  0.23555505232E+02  0.30505675681E+02  0.41800000000E+01 0.  1.
         -5    1    3    3    0  502  0.61259644072E+02  0.63638681437E+02  0.86372017022E+03  0.86823535439E+03  0.41800000000E+01 0.  1.
        -11    1    4    4    0    0 -0.69866822112E+02 -0.36497645783E+02  0.23412683903E+03  0.24704013386E+03  0.00000000000E+00 0. -1.
         11    1    4    4    0    0  0.22875109763E+02 -0.14703666705E+02  0.27531027497E+02  0.38696588174E+02  0.00000000000E+00 0.  1.
</event>
<event>
 8    1  0.6850220E-009  0.9272921E+02  0.7561462E-02  0.1296374E+00
         -4   -1    0    0    0  501 -0.00000000000E+00  0.00000000000E+00  0.27888409718E+03  0.27888409718E+03  0.00000000000E+00 0.  1.
          4   -1    0    0  501    0  0.00000000000E+00 -0.00000000000E+00 -0.52237090352E+02  0.52237090352E+02  0.00000000000E+00 0. -1.
         25    2    1    2    0    0 -0.37591543174E+02  0.20519920659E+02  0.17212343484E+03  0.21704307241E+03  0.12508807776E+03 0.  0.
         23    2    1    2    0    0  0.37591543174E+02 -0.20519920659E+02  0.54523571991E+02  0.11407811513E+03  0.90591418944E+02 0.  0.
          5    1    3    3  502    0 -0.17197430449E+02  0.72427262708E+02  0.80697904179E+02  0.10986848564E+03  0.41800000000E+01 0. -1.
         -5    1    3    3    0  502 -0.20394112726E+02 -0.51907342050E+02  0.91425530662E+02  0.10717458677E+03  0.41800000000E+01 0. -1.
        -11    1    4    4    0    0  0.38883289442E+02 -0.47743699953E+01  0.77124017126E+02  0.86503287940E+02  0.00000000000E+00 0.  1.
         11    1    4    4    0    0 -0.12917462675E+01 -0.15745550663E+02 -0.22600445135E+02  0.27574827188E+02  0.00000000000E+00 0. -1.
</event>
<event>
 8    1  0.6850220E-009  0.1157625E+03  0.7561462E-02  0.1250256E+00
         -1   -1    0    0    0  501 -0.00000000000E+00  0.00000000000E+00  0.42680066366E+02  0.42680066366E+02  0.00000000000E+00 0.  1.
          1   -1    0    0  501    0  0.00000000000E+00 -0.00000000000E+00 -0.35546209337E+03  0.35546209337E+03  0.00000000000E+00 0. -1.
         25    2    1    2    0    0 -0.50570649867E+02 -0.15809882964E+02 -0.12621794378E+03  0.18543506898E+03  0.12509137639E+03 0.  0.
         23    2    1    2    0    0  0.50570649867E+02  0.15809882964E+02 -0.18656408323E+03  0.21270709076E+03  0.87354486335E+02 0.  0.
          5    1    3    3  502    0 -0.69069590250E+02 -0.54196732483E+02 -0.59427104251E+02  0.10609876167E+03  0.41800000000E+01 0.  1.
         -5    1    3    3    0  502  0.18498940384E+02  0.38386849519E+02 -0.66790839530E+02  0.79336307303E+02  0.41800000000E+01 0.  1.
        -11    1    4    4    0    0  0.28021626075E+02 -0.35230312329E+02 -0.10071844231E+03  0.11032040181E+03  0.00000000000E+00 0. -1.
         11    1    4    4    0    0  0.22549023792E+02  0.51040195293E+02 -0.85845640915E+02  0.10238668895E+03  0.00000000000E+00 0.  1.
</event>
<event>
 8    1  0.6850220E-009  0.8054250E+02  0.7561462E-02  0.1327519E+00
          1   -1    0    0  501    0  0.00000000000E+00  0.00000000000E+00  0.92188421068E+02  0.92188421068E+02  0.00000000000E+00 0.  1.
         -1   -1    0    0    0  501 -0.00000000000E+00 -0.00000000000E+00 -0.13223231875E+03  0.13223231875E+03  0.00000000000E+00 0. -1.
         25    2    1    2    0    0  0.92256566600E+01  0.20162349794E+02 -0.23019679461E+02  0.12910958177E+03  0.12509094840E+03 0.  0.
         23    2    1    2    0    0 -0.92256566600E+01 -0.20162349794E+02 -0.17024218222E+02  0.95311158053E+02  0.91119480646E+02 0.  0.
          5    1    3    3  502    0  0.58512231206E+02  0.14540237058E+02  0.19642176083E+02  0.63548305844E+02  0.41800000000E+01 0.  1.
         -5    1    3    3    0  502 -0.49286574546E+02  0.56221127364E+01 -0.42661855543E+02  0.65561275921E+02  0.41800000000E+01 0.  1.
        -11    1    4    4    0    0 -0.23870993064E+02  0.23748008523E+01  0.31647186832E+02  0.39711565360E+02  0.00000000000E+00 0.  1.
         11    1    4    4    0    0  0.14645336403E+02 -0.22537150647E+02 -0.48671405054E+02  0.55599592693E+02  0.00000000000E+00 0. -1.
</event>
<event>
 8    1  0.6850220E-009  0.1166515E+03  0.7561462E-02  0.1248725E+00
          1   -1    0    0  501    0  0.00000000000E+00  0.00000000000E+00  0.10580700637E+04  0.10580700637E+04  0.00000000000E+00 0. -1.
         -1   -1    0    0    0  501 -0.00000000000E+00 -0.00000000000E+00 -0.13101073922E+02  0.13101073922E+02  0.00000000000E+00 0.  1.
         25    2    1    2    0    0 -0.41928792334E+02  0.22794991324E+02  0.61213545365E+03  0.62660649662E+03  0.12509297636E+03 0.  0.
         23    2    1    2    0    0  0.41928792334E+02 -0.22794991324E+02  0.43283353618E+03  0.44456464105E+03  0.89527731888E+02 0.  0.
          5    1    3    3  502    0 -0.85047721595E+02  0.26793210810E+02  0.44774528491E+03  0.45655701030E+03  0.41800000000E+01 0. -1.
         -5    1    3    3    0  502  0.43118929261E+02 -0.39982194862E+01  0.16439016874E+03  0.17004948632E+03  0.41800000000E+01 0. -1.
        -11    1    4    4    0    0  0.19692769797E+02 -0.56679213350E+02  0.28692534360E+03  0.29313220773E+03  0.00000000000E+00 0. -1.
         11    1    4    4    0    0  0.22236022537E+02  0.33884222026E+02  0.14590819258E+03  0.15143243333E+03  0.00000000000E+00 0.  1.
</event>
<event>
 8    1  0.6850220E-009  0.9764540E+02  0.7561462E-02  0.1285327E+00
         -4   -1    0    0    0  501 -0.00000000000E+00  0.00000000000E+00  0.10343195270E+03  0.10343195270E+03  0.00000000000E+00 0.  1.
          4   -1    0    0  501    0  0.00000000000E+00 -0.00000000000E+00 -0.18736544597E+03  0.18736544597E+03  0.00000000000E+00 0. -1.
         25    2    1    2    0    0 -0.68854739736E+02  0.39558755561E+02 -0.70230509271E+01  0.14833403889E+03  0.12509114087E+03 0.  0.
         23    2    1    2    0    0  0.68854739736E+02 -0.39558755561E+02 -0.76910442341E+02  0.14246335978E+03  0.89859459223E+02 0.  0.
          5    1    3    3  502    0 -0.47573630656E+02  0.27677327165E+02  0.57215072453E+02  0.79500450870E+02  0.41800000000E+01 0. -1.
         -5    1    3    3    0  502 -0.21281109080E+02  0.11881428396E+02 -0.64238123380E+02  0.68833588021E+02  0.41800000000E+01 0. -1.
        -11    1    4    4    0    0 -0.19189211745E+02 -0.13778549872E+02 -0.33445078262E+02  0.40946886865E+02  0.00000000000E+00 0. -1.
         11    1    4    4    0    0  0.88043951481E+02 -0.25780205689E+02 -0.43465364079E+02  0.10151647291E+03  0.00000000000E+00 0.  1.
</event>
<event>
 8    1  0.6850220E-009  0.1075430E+03  0.7561462E-02  0.1265189E+00
         -2   -1    0    0    0  501 -0.00000000000E+00  0.00000000000E+00  0.22987562309E+02  0.22987562309E+02  0.00000000000E+00 0.  1.
          2   -1    0    0  501    0  0.00000000000E+00 -0.00000000000E+00 -0.68341803088E+03  0.68341803088E+03  0.00000000000E+00 0. -1.
         25    2    1    2    0    0  0.11008412338E+02  0.36204904596E+01 -0.19297871482E+03  0.23026580999E+03  0.12508903143E+03 0.  0.
         23    2    1    2    0    0 -0.11008412338E+02 -0.36204904596E+01 -0.46745175375E+03  0.47613978319E+03  0.89797872828E+02 0.  0.
          5    1    3    3  502    0 -0.51714053804E+02 -0.23307455902E+02 -0.96357857196E+02  0.11189231388E+03  0.41800000000E+01 0. -1.
         -5    1    3    3    0  502  0.62722466142E+02  0.26927946362E+02 -0.96620857625E+02  0.11837349611E+03  0.41800000000E+01 0. -1.
        -11    1    4    4    0    0 -0.16401034345E+02 -0.45101974594E+02 -0.27940806262E+03  0.28349964285E+03  0.00000000000E+00 0.  1.
         11    1    4    4    0    0  0.53926220066E+01  0.41481484135E+02 -0.18804369113E+03  0.19264014034E+03  0.00000000000E+00 0. -1.
</event>
<event>
 8    1  0.6850220E-009  0.1002555E+03  0.7561462E-02  0.1279760E+00
          4   -1    0    0  501    0  0.00000000000E+00  0.00000000000E+00  0.24238161859E+03  0.24238161859E+03  0.00000000000E+00 0. -1.
         -4   -1    0    0    0  501 -0.00000000000E+00 -0.00000000000E+00 -0.56950559585E+02  0.56950559585E+02  0.00000000000E+00 0.  1.
         25    2    1    2    0    0 -0.19027387882E+02 -0.30143823927E+02  0.68675601807E+02  0.14708462992E+03  0.12508740331E+03 0.  0.
         23    2    1    2    0    0  0.19027387882E+02  0.30143823927E+02  0.11675545720E+03  0.15224754825E+03  0.90976851742E+02 0.  0.
          5    1    3    3  502    0 -0.50251325759E+02  0.30606957994E+02  0.46618955318E+02  0.75184978640E+02  0.41800000000E+01 0.  1.
         -5    1    3    3    0  502  0.31223937876E+02 -0.60750781920E+02  0.22056646489E+02  0.71899651284E+02  0.41800000000E+01 0.  1.
        -11    1    4    4    0    0  0.30043054577E+02 -0.98433120449E+01  0.37077283186E+01  0.31831166639E+02  0.00000000000E+00 0.  1.
         11    1    4    4    0    0 -0.11015666695E+02  0.39987135972E+02  0.11304772888E+03  0.12041638162E+03  0.00000000000E+00 0. -1.
</event>
<event>
 8    1  0.6850220E-009  0.1588691E+03  0.7561462E-02  0.1189979E+00
          2   -1    0    0  501    0  0.00000000000E+00  0.00000000000E+00  0.91171942680E+02  0.91171942680E+02  0.00000000000E+00 0. -1.
         -2   -1    0    0    0  501 -0.00000000000E+00 -0.00000000000E+00 -0.36507290899E+03  0.36507290899E+03  0.00000000000E+00 0.  1.
         25    2    1    2    0    0  0.12391664705E+03  0.43231983137E+02 -0.22208559576E+03  0.28669646954E+03  0.12509402071E+03 0.  0.
         23    2    1    2    0    0 -0.12391664705E+03 -0.43231983137E+02 -0.51815370546E+02  0.16954838213E+03  0.94007879867E+02 0.  0.
          5    1    3    3  502    0  0.50258324109E+02 -0.41210428660E+02 -0.53803356975E+02  0.84477643163E+02  0.41800000000E+01 0.  1.
         -5    1    3    3    0  502  0.73658322940E+02  0.84442411797E+02 -0.16828223879E+03  0.20221882637E+03  0.41800000000E+01 0.  1.
        -11    1    4    4    0    0 -0.85126748236E+02 -0.53257420993E+02  0.44080483465E+01  0.10051043252E+03  0.00000000000E+00 0. -1.
         11    1    4    4    0    0 -0.38789898812E+02  0.10025437855E+02 -0.56223418893E+02  0.69037949608E+02  0.00000000000E+00 0.  1.
</event>
<event>
 8    1  0.6850220E-009  0.1113127E+03  0.7561462E-02  0.1258158E+00
         -2   -1    0    0    0  501 -0.00000000000E+00  0.00000000000E+00  0.16154699654E+02  0.16154699654E+02  0.00000000000E+00 0.  1.
          2   -1    0    0  501    0  0.00000000000E+00 -0.00000000000E+00 -0.81973937519E+03  0.81973937519E+03  0.00000000000E+00 0. -1.
         25    2    1    2    0    0 -0.30577075090E+02 -0.17051662920E+02 -0.45946987394E+03  0.47747862807E+03  0.12509020135E+03 0.  0.
         23    2    1    2    0    0  0.30577075090E+02  0.17051662920E+02 -0.34411480160E+03  0.35841544678E+03  0.93919748085E+02 0.  0.
          5    1    3    3  502    0 -0.78656205830E+02 -0.54380007912E+01 -0.24818730676E+03  0.26044343379E+03  0.41800000000E+01 0. -1.
         -5    1    3    3    0  502  0.48079130740E+02 -0.11613662129E+02 -0.21128256718E+03  0.21703519428E+03  0.41800000000E+01 0. -1.
        -11    1    4    4    0    0 -0.48721941096E+01  0.47227962556E+02 -0.23559603024E+03  0.24033249507E+03  0.00000000000E+00 0. -1.
         11    1    4    4    0    0  0.35449269200E+02 -0.30176299636E+02 -0.10851877136E+03  0.11808295171E+03  0.00000000000E+00 0.  1.
</event>
<event>
 8    1  0.6850220E-009  0.9058308E+02  0.7561462E-02  0.1301446E+00
          2   -1    0    0  501    0  0.00000000000E+00  0.00000000000E+00  0.40603875833E+02  0.40603875833E+02  0.00000000000E+00 0.  1.
         -2   -1    0    0    0  501 -0.00000000000E+00 -0.00000000000E+00 -0.34825196847E+03  0.34825196847E+03  0.00000000000E+00 0. -1.
         25    2    1    2    0    0  0.30138015141E+02 -0.55381509932E+01 -0.23624330668E+03  0.26906817197E+03  0.12509120731E+03 0.  0.
         23    2    1    2    0    0 -0.30138015141E+02  0.55381509932E+01 -0.71404785956E+02  0.11978767233E+03  0.91167274340E+02 0.  0.
          5    1    3    3  502    0  0.74023791662E+02 -0.25934063650E+02 -0.16625195244E+03  0.18387300368E+03  0.41800000000E+01 0. -1.
         -5    1    3    3    0  502 -0.43885776521E+02  0.20395912657E+02 -0.69991354233E+02  0.85195168298E+02  0.41800000000E+01 0. -1.
        -11    1    4    4    0    0  0.61272485776E+01 -0.12216853269E+02 -0.77725183899E+02  0.78917671602E+02  0.00000000000E+00 0. -1.
         11    1    4    4    0    0 -0.36265263719E+02  0.17755004262E+02  0.63203979431E+01  0.40870000723E+02  0.00000000000E+00 0.  1.
</event>
<event>
 8    1  0.6850220E-009  0.1054156E+03  0.7561462E-02  0.1269303E+00
          2   -1    0    0  501    0  0.00000000000E+00  0.00000000000E+00  0.92462983348E+03  0.92462983348E+03  0.00000000000E+00 0. -1.
         -2   -1    0    0    0  501 -0.00000000000E+00 -0.00000000000E+00 -0.13897154948E+02  0.13897154948E+02  0.00000000000E+00 0.  1.
         25    2    1    2    0    0  0.22316380648E+02  0.17926698117E+02  0.57184191294E+03  0.58606324381E+03  0.12509022741E+03 0.  0.
         23    2    1    2    0    0 -0.22316380648E+02 -0.17926698117E+02  0.33889076559E+03  0.35246374462E+03  0.92543789201E+02 0.  0.
          5    1    3    3  502    0  0.17286868974E+02  0.64550445746E+02  0.45802912988E+03  0.46289712907E+03  0.41800000000E+01 0. -1.
         -5    1    3    3    0  502  0.50295116744E+01 -0.46623747629E+02  0.11381278306E+03  0.12316611474E+03  0.41800000000E+01 0. -1.
        -11    1    4    4    0    0  0.33924374773E+02  0.80174371484E+01  0.12874742484E+03  0.13338306453E+03  0.00000000000E+00 0. -1.
         11    1    4    4    0    0 -0.56240755421E+02 -0.25944135266E+02  0.21014334075E+03  0.21908068009E+03  0.00000000000E+00 0.  1.
</event>
<event>
 8    1  0.6850220E-009  0.1070913E+03  0.7561462E-02  0.1266053E+00
          2   -1    0    0  501    0  0.00000000000E+00  0.00000000000E+00  0.73734083092E+03  0.73734083092E+03  0.00000000000E+00 0. -1.
         -2   -1    0    0    0  501 -0.00000000000E+00 -0.00000000000E+00 -0.23911404726E+02  0.23911404726E+02  0.00000000000E+00 0.  1.
         25    2    1    2    0    0 -0.53194146743E+02  0.27756855275E+02  0.53104275311E+03  0.54886736784E+03  0.12509564977E+03 0.  0.
         23    2    1    2    0    0  0.53194146743E+02 -0.27756855275E+02  0.18238667308E+03  0.21238486780E+03  0.90787517258E+02 0.  0.
          5    1    3    3  502    0 -0.12220563405E+02  0.62491948949E+02  0.42660349544E+03  0.43134974275E+03  0.41800000000E+01 0. -1.
         -5    1    3    3    0  502 -0.40973583338E+02 -0.34735093673E+02  0.10443925767E+03  0.11751762509E+03  0.41800000000E+01 0. -1.
        -11    1    4    4    0    0 -0.77513598543E+01 -0.34328811485E+02  0.24129175804E+02  0.42670458195E+02  0.00000000000E+00 0.  1.
         11    1    4    4    0    0  0.60945506597E+02  0.65719562097E+01  0.15825749728E+03  0.16971440960E+03  0.00000000000E+00 0. -1.
</event>
<event>
 8    1  0.6850220E-009  0.1966733E+03  0.7561462E-02  0.1152577E+00
         -1   -1    0    0    0  501 -0.00000000000E+00  0.00000000000E+00  0.93258291849E+02  0.93258291849E+02  0.00000000000E+00 0.  1.
          1   -1    0    0  501    0  0.00000000000E+00 -0.00000000000E+00 -0.42901206578E+03  0.42901206578E+03  0.00000000000E+00 0. -1.
         25    2    1    2    0    0  0.68448659728E+02  0.14304049856E+03 -0.12772471886E+03  0.23898552415E+03  0.12511863849E+03 0.  0.
         23    2    1    2    0    0 -0.68448659728E+02 -0.14304049856E+03 -0.20802905507E+03  0.28328483348E+03  0.10875847499E+03 0.  0.
          5    1    3    3  502    0 -0.23830292455E+02  0.92816580907E+02 -0.49523871922E+02  0.10794853783E+03  0.41800000000E+01 0.  1.
         -5    1    3    3    0  502  0.92278952183E+02  0.50223917650E+02 -0.78200846943E+02  0.13103698632E+03  0.41800000000E+01 0.  1.
        -11    1    4    4    0    0 -0.69273362186E+00 -0.12104577272E+03 -0.13166640591E+03  0.17885357536E+03  0.00000000000E+00 0. -1.
         11    1    4    4    0    0 -0.67755926107E+02 -0.21994725840E+02 -0.76362649153E+02  0.10443125812E+03  0.00000000000E+00 0.  1.
</event>
<event>
 8    1  0.6850220E-009  0.1310741E+03  0.7561462E-02  0.1225871E+00
         -2   -1    0    0    0  501 -0.00000000000E+00  0.00000000000E+00  0.63438002587E+02  0.63438002587E+02  0.00000000000E+00 0. -1.
          2   -1    0    0  501    0  0.00000000000E+00 -0.00000000000E+00 -0.40331131561E+03  0.40331131561E+03  0.00000000000E+00 0.  1.
         25    2    1    2    0    0  0.25254310990E+02 -0.96318153945E+02 -0.27534542227E+03  0.31839831249E+03  0.12508963518E+03 0.  0.
         23    2    1    2    0    0 -0.25254310990E+02  0.96318153945E+02 -0.64527890752E+02  0.14835100571E+03  0.89046084733E+02 0.  0.
          5    1    3    3  502    0 -0.75369883471E+01 -0.96194051896E+02 -0.96515288180E+02  0.13653854791E+03  0.41800000000E+01 0.  1.
         -5    1    3    3    0  502  0.32791299337E+02 -0.12410204953E+00 -0.17883013409E+03  0.18185976458E+03  0.41800000000E+01 0.  1.
        -11    1    4    4    0    0  0.11012648365E+02 -0.13173468792E+02 -0.15097025069E+02  0.22863483329E+02  0.00000000000E+00 0.  1.
         11    1    4    4    0    0 -0.36266959354E+02  0.10949162274E+03 -0.49430865683E+02  0.12548752238E+03  0.00000000000E+00 0. -1.
</event>
<event>
 8    1  0.6850220E-009  0.2401860E+03  0.7561462E-02  0.1119669E+00
         -1   -1    0    0    0  501 -0.00000000000E+00  0.00000000000E+00  0.12701356331E+03  0.12701356331E+03  0.00000000000E+00 0.  1.
          1   -1    0    0  501    0  0.00000000000E+00 -0.00000000000E+00 -0.57369245487E+03  0.57369245487E+03  0.00000000000E+00 0. -1.
         25    2    1    2    0    0  0.22033699935E+03  0.34573990004E+02 -0.36648153256E+03  0.44687824965E+03  0.12509077598E+03 0.  0.
         23    2    1    2    0    0 -0.22033699935E+03 -0.34573990004E+02 -0.80197358992E+02  0.25382776853E+03  0.90846935115E+02 0.  0.
          5    1    3    3  502    0  0.61434960885E+02 -0.30432712028E+02 -0.18347675369E+03  0.19591221484E+03  0.41800000000E+01 0. -1.
         -5    1    3    3    0  502  0.15890203847E+03  0.65006702032E+02 -0.18300477887E+03  0.25096603481E+03  0.41800000000E+01 0. -1.
        -11    1    4    4    0    0 -0.16564218961E+03 -0.64316568636E+02 -0.49755929678E+02  0.18452536009E+03  0.00000000000E+00 0. -1.
         11    1    4    4    0    0 -0.54694809741E+02  0.29742578632E+02 -0.30441429314E+02  0.69302408436E+02  0.00000000000E+00 0.  1.
</event>
<event>
 8    1  0.6850220E-009  0.1320326E+03  0.7561462E-02  0.1224471E+00
         -1   -1    0    0    0  501 -0.00000000000E+00  0.00000000000E+00  0.28931154313E+02  0.28931154313E+02  0.00000000000E+00 0.  1.
          1   -1    0    0  501    0  0.00000000000E+00 -0.00000000000E+00 -0.66655680837E+03  0.66655680837E+03  0.00000000000E+00 0. -1.
         25    2    1    2    0    0  0.58351081584E+02  0.62965687077E+02 -0.37595214290E+03  0.40541110066E+03  0.12509444558E+03 0.  0.
         23    2    1    2    0    0 -0.58351081584E+02 -0.62965687077E+02 -0.26167351116E+03  0.29007686202E+03  0.91115492474E+02 0.  0.
          5    1    3    3  502    0  0.37276333923E+02  0.10080254145E+03 -0.28398456862E+03  0.30366986193E+03  0.41800000000E+01 0.  1.
         -5    1    3    3    0  502  0.21074747661E+02 -0.37836854375E+02 -0.91967574278E+02  0.10174123872E+03  0.41800000000E+01 0.  1.
        -11    1    4    4    0    0 -0.25686482948E+02  0.14095730233E+02 -0.13573919838E+03  0.13886545645E+03  0.00000000000E+00 0. -1.
         11    1    4    4    0    0 -0.32664598636E+02 -0.77061417310E+02 -0.12593431277E+03  0.15121140557E+03  0.00000000000E+00 0.  1.
</event>
<event>
 8    1  0.6850220E-009  0.1154440E+03  0.7561462E-02  0.1250808E+00
         -3   -1    0    0    0  501 -0.00000000000E+00  0.00000000000E+00  0.13045103737E+02  0.13045103737E+02  0.00000000000E+00 0.  1.
          3   -1    0    0  501    0  0.00000000000E+00 -0.00000000000E+00 -0.11303609716E+04  0.11303609716E+04  0.00000000000E+00 0. -1.
         25    2    1    2    0    0 -0.44496878600E+02 -0.71586383928E+01 -0.77081617260E+03  0.78219977918E+03  0.12509078422E+03 0.  0.
         23    2    1    2    0    0  0.44496878600E+02  0.71586383928E+01 -0.34649969524E+03  0.36120629613E+03  0.91524484469E+02 0.  0.
          5    1    3    3  502    0 -0.29734445789E+01  0.55451214669E+02 -0.39692987889E+03  0.40081726477E+03  0.41800000000E+01 0.  1.
         -5    1    3    3    0  502 -0.41523434021E+02 -0.62609853062E+02 -0.37388629372E+03  0.38138251441E+03  0.41800000000E+01 0.  1.
        -11    1    4    4    0    0  0.18759064314E+02 -0.41147069958E+02 -0.19340231776E+03  0.19861883188E+03  0.00000000000E+00 0. -1.
         11    1    4    4    0    0  0.25737814286E+02  0.48305708351E+02 -0.15309737748E+03  0.16258746426E+03  0.00000000000E+00 0.  1.
</event>
<event>
 8    1  0.6850220E-009  0.1194850E+03  0.7561462E-02  0.1243949E+00
          1   -1    0    0  501    0  0.00000000000E+00  0.00000000000E+00  0.53148828582E+02  0.53148828582E+02  0.00000000000E+00 0. -1.
         -1   -1    0    0    0  501 -0.00000000000E+00 -0.00000000000E+00 -0.36711175316E+03  0.36711175316E+03  0.00000000000E+00 0.  1.
         25    2    1    2    0    0 -0.21003018504E+02  0.85373960375E+02 -0.16261841891E+03  0.22320803889E+03  0.12508892262E+03 0.  0.
         23    2    1    2    0    0  0.21003018504E+02 -0.85373960375E+02 -0.15134450567E+03  0.19705254285E+03  0.90524611852E+02 0.  0.
          5    1    3    3  502    0  0.13187081323E+02  0.82074158674E+02 -0.16866293120E+03  0.18808169342E+03  0.41800000000E+01 0. -1.
         -5    1    3    3    0  502 -0.34190099827E+02  0.32998017019E+01  0.60445122983E+01  0.35126345475E+02  0.41800000000E+01 0. -1.
        -11    1    4    4    0    0 -0.30593012001E+02 -0.15554050125E+02 -0.70563353661E+02  0.78466857580E+02  0.00000000000E+00 0.  1.
         11    1    4    4    0    0  0.51596030505E+02 -0.69819910250E+02 -0.80781152013E+02  0.11858568527E+03  0.00000000000E+00 0. -1.
</event>
<event>
 8    1  0.6850220E-009  0.1535222E+03  0.7561462E-02  0.1196210E+00
          2   -1    0    0  501    0  0.00000000000E+00  0.00000000000E+00  0.80221851458E+03  0.80221851458E+03  0.00000000000E+00 0. -1.
         -2   -1    0    0    0  501 -0.00000000000E+00 -0.00000000000E+00 -0.47198560640E+02  0.47198560640E+02  0.00000000000E+00 0.  1.
         25    2    1    2    0    0  0.19229762503E+02 -0.12299579849E+03  0.62239037363E+03  0.64692666197E+03  0.12508628453E+03 0.  0.
         23    2    1    2    0    0 -0.19229762503E+02  0.12299579849E+03  0.13262958031E+03  0.20249041324E+03  0.88960731065E+02 0.  0.
          5    1    3    3  502    0 -0.33299045374E+02 -0.10715202590E+03  0.30958787344E+03  0.32932128212E+03  0.41800000000E+01 0. -1.
         -5    1    3    3    0  502  0.52528807877E+02 -0.15843772584E+02  0.31280250019E+03  0.31760537985E+03  0.41800000000E+01 0. -1.
        -11    1    4    4    0    0 -0.40308755376E+02  0.52711122463E+02  0.10474125369E+03  0.12399188851E+03  0.00000000000E+00 0. -1.
         11    1    4    4    0    0  0.21078992873E+02  0.70284676022E+02  0.27888326620E+02  0.78498524736E+02  0.00000000000E+00 0.  1.
</event>
<event>
 8    1  0.6850220E-009  0.1097890E+03  0.7561462E-02  0.1260961E+00
          2   -1    0    0  501    0  0.00000000000E+00  0.00000000000E+00  0.85137578398E+03  0.85137578398E+03  0.00000000000E+00 0. -1.
         -2   -1    0    0    0  501 -0.00000000000E+00 -0.00000000000E+00 -0.23001487979E+02  0.23001487979E+02  0.00000000000E+00 0.  1.
         25    2    1    2    0    0 -0.77670514769E+02 -0.10543783203E+01  0.63350066885E+03  0.65038767311E+03  0.12508879775E+03 0.  0.
         23    2    1    2    0    0  0.77670514769E+02  0.10543783203E+01  0.19487362715E+03  0.22398959884E+03  0.78497065263E+02 0.  0.
          5    1    3    3  502    0 -0.31301846978E+02  0.37271539861E+02  0.51608643943E+03  0.51839334358E+03  0.41800000000E+01 0. -1.
         -5    1    3    3    0  502 -0.46368667791E+02 -0.38325918182E+02  0.11741422942E+03  0.13199432953E+03  0.41800000000E+01 0. -1.
        -11    1    4    4    0    0  0.26965031585E+02 -0.37878339878E+02  0.80600077740E+02  0.93049739882E+02  0.00000000000E+00 0.  1.
         11    1    4    4    0    0  0.50705483184E+02  0.38932718198E+02  0.11427354941E+03  0.13093985896E+03  0.00000000000E+00 0. -1.
</event>
<event>
 8    1  0.6850220E-009  0.1235576E+03  0.7561462E-02  0.1237341E+00
         -2   -1    0    0    0  501 -0.00000000000E+00  0.00000000000E+00  0.78577851055E+02  0.78577851055E+02  0.00000000000E+00 0.  1.
          2   -1    0    0  501    0  0.00000000000E+00 -0.00000000000E+00 -0.34802664663E+03  0.34802664663E+03  0.00000000000E+00 0. -1.
         25    2    1    2    0    0 -0.92561925144E+02  0.12770656884E+02 -0.25050801013E+03  0.29517679431E+03  0.12507708462E+03 0.  0.
         23    2    1    2    0    0  0.92561925144E+02 -0.12770656884E+02 -0.18940785444E+02  0.13142770337E+03  0.90463739680E+02 0.  0.
          5    1    3    3  502    0  0.38133276695E+01 -0.35237477220E+02 -0.20443790771E+02  0.41129578771E+02  0.41800000000E+01 0.  1.
         -5    1    3    3    0  502 -0.96375252814E+02  0.48008134105E+02 -0.23006421936E+03  0.25404721554E+03  0.41800000000E+01 0.  1.
        -11    1    4    4    0    0  0.69773527125E+02 -0.29142241139E+02 -0.49159702257E+02  0.90190307861E+02  0.00000000000E+00 0. -1.
         11    1    4    4    0    0  0.22788398019E+02  0.16371584254E+02  0.30218916813E+02  0.41237395512E+02  0.00000000000E+00 0.  1.
</event>
<event>
 8    1  0.6850220E-009  0.9025469E+02  0.7561462E-02  0.1302236E+00
          2   -1    0    0  501    0  0.00000000000E+00  0.00000000000E+00  0.10351573895E+04  0.10351573895E+04  0.00000000000E+00 0. -1.
         -2   -1    0    0    0  501 -0.00000000000E+00 -0.00000000000E+00 -0.11715260992E+02  0.11715260992E+02  0.00000000000E+00 0.  1.
         25    2    1    2    0    0 -0.15285932675E+02  0.12884795646E+02  0.61961287966E+03  0.63242643458E+03  0.12507356562E+03 0.  0.
         23    2    1    2    0    0  0.15285932675E+02 -0.12884795646E+02  0.40382924889E+03  0.41444621596E+03  0.91038046798E+02 0.  0.
          5    1    3    3  502    0  0.25497189142E+02  0.33723551127E+02  0.77618163822E+02  0.88484102017E+02  0.41800000000E+01 0.  1.
         -5    1    3    3    0  502 -0.40783121817E+02 -0.20838755482E+02  0.54199471584E+03  0.54394233256E+03  0.41800000000E+01 0.  1.
        -11    1    4    4    0    0  0.52122677698E+02  0.23460306282E+01  0.26070708054E+03  0.26587677453E+03  0.00000000000E+00 0.  1.
         11    1    4    4    0    0 -0.36836745023E+02 -0.15230826274E+02  0.14312216834E+03  0.14856944142E+03  0.00000000000E+00 0. -1.
</event>
<event>
 8    1  0.6850220E-009  0.1142757E+03  0.7561462E-02  0.1252851E+00
          2   -1    0    0  501    0  0.00000000000E+00  0.00000000000E+00  0.65156390746E+02  0.65156390746E+02  0.00000000000E+00 0. -1.
         -2   -1    0    0    0  501 -0.00000000000E+00 -0.00000000000E+00 -0.40463453577E+03  0.40463453577E+03  0.00000000000E+00 0.  1.
         25    2    1    2    0    0  0.47761201700E+02 -0.27243068646E+02 -0.33752514569E+03  0.36411629944E+03  0.12503654812E+03 0.  0.
         23    2    1    2    0    0 -0.47761201700E+02  0.27243068646E+02 -0.19529993310E+01  0.10567462707E+03  0.90221923189E+02 0.  0.
          5    1    3    3  502    0  0.83645673711E+02 -0.40733734628E+02 -0.18947055166E+03  0.21112176158E+03  0.41800000000E+01 0. -1.
         -5    1    3    3    0  502 -0.35884472011E+02  0.13490665982E+02 -0.14805459403E+03  0.15299453785E+03  0.41800000000E+01 0. -1.
        -11    1    4    4    0    0 -0.52927291522E+02 -0.14434666518E+02  0.19868101302E+02  0.58347229880E+02  0.00000000000E+00 0. -1.
         11    1    4    4    0    0  0.51660898219E+01  0.41677735163E+02 -0.21821100633E+02  0.47327397195E+02  0.00000000000E+00 0.  1.
</event>
<event>
 8    1  0.6850220E-009  0.1110660E+03  0.7561462E-02  0.1258609E+00
         -1   -1    0    0    0  501 -0.00000000000E+00  0.00000000000E+00  0.68548513163E+02  0.68548513163E+02  0.00000000000E+00 0.  1.
          1   -1    0    0  501    0  0.00000000000E+00 -0.00000000000E+00 -0.27179407643E+03  0.27179407643E+03  0.00000000000E+00 0. -1.
         25    2    1    2    0    0  0.16781834481E+02 -0.76869261167E+02 -0.64920266449E+02  0.16139751157E+03  0.12507598676E+03 0.  0.
         23    2    1    2    0    0 -0.16781834481E+02  0.76869261167E+02 -0.13832529682E+03  0.17894507803E+03  0.81834833228E+02 0.  0.
          5    1    3    3  502    0  0.20243656952E+01 -0.90720251186E+02 -0.90692663991E+02  0.12836235326E+03  0.41800000000E+01 0. -1.
         -5    1    3    3    0  502  0.14757468786E+02  0.13850990020E+02  0.25772397542E+02  0.33035158310E+02  0.41800000000E+01 0. -1.
        -11    1    4    4    0    0  0.12117252049E+02 -0.12074083179E+02 -0.89440688516E+01  0.19303047672E+02  0.00000000000E+00 0.  1.
         11    1    4    4    0    0 -0.28899086530E+02  0.88943344346E+02 -0.12938122797E+03  0.15964203036E+03  0.00000000000E+00 0. -1.
</event>
<event>
 8    1  0.6850220E-009  0.1581035E+03  0.7561462E-02  0.1190855E+00
         -2   -1    0    0    0  501 -0.00000000000E+00  0.00000000000E+00  0.19163082481E+04  0.19163082481E+04  0.00000000000E+00 0.  1.
          2   -1    0    0  501    0  0.00000000000E+00 -0.00000000000E+00 -0.19202989379E+02  0.19202989379E+02  0.00000000000E+00 0. -1.
         25    2    1    2    0    0  0.13055528587E+03  0.33504622665E+02  0.14067228340E+04  0.14186911816E+04  0.12509314374E+03 0.  0.
         23    2    1    2    0    0 -0.13055528587E+03 -0.33504622665E+02  0.49038242471E+03  0.51682005588E+03  0.91982635784E+02 0.  0.
          5    1    3    3  502    0  0.51276694144E+02  0.54093173498E+02  0.30824296195E+03  0.31715385347E+03  0.41800000000E+01 0.  1.
         -5    1    3    3    0  502  0.79278591726E+02 -0.20588550833E+02  0.10984798720E+04  0.11015373281E+04  0.41800000000E+01 0.  1.
        -11    1    4    4    0    0 -0.22819243619E+02 -0.45735781716E+02  0.11017072691E+03  0.12144986075E+03  0.00000000000E+00 0. -1.
         11    1    4    4    0    0 -0.10773604225E+03  0.12231159051E+02  0.38021169780E+03  0.39537019513E+03  0.00000000000E+00 0.  1.
</event>
<event>
 8    1  0.6850220E-009  0.1167665E+03  0.7561462E-02  0.1248529E+00
          1   -1    0    0  501    0  0.00000000000E+00  0.00000000000E+00  0.28103498151E+02  0.28103498151E+02  0.00000000000E+00 0. -1.
         -1   -1    0    0    0  501 -0.00000000000E+00 -0.00000000000E+00 -0.80347982185E+03  0.80347982185E+03  0.00000000000E+00 0.  1.
         25    2    1    2    0    0 -0.70837561721E+02  0.60233172944E+02 -0.54766770132E+03  0.56941542855E+03  0.12509206182E+03 0.  0.
         23    2    1    2    0    0  0.70837561721E+02 -0.60233172944E+02 -0.22770862238E+03  0.26216789145E+03  0.90745751019E+02 0.  0.
          5    1    3    3  502    0 -0.90751147776E+02  0.30895908583E+02 -0.50379097980E+03  0.51284807860E+03  0.41800000000E+01 0. -1.
         -5    1    3    3    0  502  0.19913586054E+02  0.29337264361E+02 -0.43876721512E+02  0.56567349950E+02  0.41800000000E+01 0. -1.
        -11    1    4    4    0    0  0.26260767336E+02  0.82530809115E+00 -0.46961880400E+01  0.26690133320E+02  0.00000000000E+00 0. -1.
         11    1    4    4    0    0  0.44576794385E+02 -0.61058481035E+02 -0.22301243434E+03  0.23547775813E+03  0.00000000000E+00 0.  1.
</event>
<event>
 8    1  0.6850220E-009  0.8910443E+02  0.7561462E-02  0.1305035E+00
         -2   -1    0    0    0  501 -0.00000000000E+00  0.00000000000E+00  0.26368499944E+02  0.26368499944E+02  0.00000000000E+00 0. -1.
          2   -1    0    0  501    0  0.00000000000E+00 -0.00000000000E+00 -0.60045299882E+03  0.60045299882E+03  0.00000000000E+00 0.  1.
         25    2    1    2    0    0 -0.60911938353E+02  0.47597277958E+01 -0.36549598964E+03  0.39110301452E+03  0.12506530405E+03 0.  0.
         23    2    1    2    0    0  0.60911938353E+02 -0.47597277958E+01 -0.20858850924E+03  0.23571848425E+03  0.91220164373E+02 0.  0.
          5    1    3    3  502    0 -0.28863888555E+02 -0.12817259631E+02 -0.34956212431E+03  0.35101076530E+03  0.41800000000E+01 0. -1.
         -5    1    3    3    0  502 -0.32048049798E+02  0.17576987427E+02 -0.15933865335E+02  0.40092249218E+02  0.41800000000E+01 0. -1.
        -11    1    4    4    0    0  0.35695721385E+02  0.42799358785E+02 -0.98486576715E+02  0.11316172246E+03  0.00000000000E+00 0.  1.
         11    1    4    4    0    0  0.25216216969E+02 -0.47559086580E+02 -0.11010193252E+03  0.12255676179E+03  0.00000000000E+00 0. -1.
</event>
<event>
 8    1  0.6850220E-009  0.9529971E+02  0.7561462E-02  0.1290502E+00
          2   -1    0    0  501    0  0.00000000000E+00  0.00000000000E+00  0.17131639145E+03  0.17131639145E+03  0.00000000000E+00 0. -1.
         -2   -1    0    0    0  501 -0.00000000000E+00 -0.00000000000E+00 -0.77934994577E+02  0.77934994577E+02  0.00000000000E+00 0.  1.
         25    2    1    2    0    0  0.12901888347E+02  0.35358431477E+02  0.65673103980E+02  0.14621260879E+03  0.12509393664E+03 0.  0.
         23    2    1    2    0    0 -0.12901888347E+02 -0.35358431477E+02  0.27708292891E+02  0.10303877723E+03  0.91828986269E+02 0.  0.
          5    1    3    3  502    0 -0.24396871339E+02 -0.17092324114E+02 -0.22075046904E+02  0.37311324964E+02  0.41800000000E+01 0.  1.
         -5    1    3    3    0  502  0.37298759686E+02  0.52450755590E+02  0.87748150884E+02  0.10890128383E+03  0.41800000000E+01 0.  1.
        -11    1    4    4    0    0 -0.50483688304E+02 -0.12403031127E+02  0.19515327714E+01  0.52021595959E+02  0.00000000000E+00 0.  1.
         11    1    4    4    0    0  0.37581799957E+02 -0.22955400350E+02  0.25756760120E+02  0.51017181274E+02  0.00000000000E+00 0. -1.
</event>
<event>
 8    1  0.6850220E-009  0.1502330E+03  0.7561462E-02  0.1200187E+00
         -1   -1    0    0    0  501 -0.00000000000E+00  0.00000000000E+00  0.31543536904E+03  0.31543536904E+03  0.00000000000E+00 0.  1.
          1   -1    0    0  501    0  0.00000000000E+00 -0.00000000000E+00 -0.99690173213E+02  0.99690173213E+02  0.00000000000E+00 0. -1.
         25    2    1    2    0    0 -0.92836939380E+02 -0.97568225362E+02  0.68562682630E+02  0.19618038101E+03  0.12509054533E+03 0.  0.
         23    2    1    2    0    0  0.92836939380E+02  0.97568225362E+02  0.14718251320E+03  0.21894516124E+03  0.90199975192E+02 0.  0.
          5    1    3    3  502    0 -0.42928061373E+02 -0.20173121558E+02  0.89742408967E+02  0.10159205507E+03  0.41800000000E+01 0. -1.
         -5    1    3    3    0  502 -0.49908878007E+02 -0.77395103805E+02 -0.21179726337E+02  0.94588325942E+02  0.41800000000E+01 0. -1.
        -11    1    4    4    0    0  0.19484691100E+02 -0.16172203485E+02  0.13427864853E+02  0.28661837124E+02  0.00000000000E+00 0. -1.
         11    1    4    4    0    0  0.73352248280E+02  0.11374042885E+03  0.13375464834E+03  0.19028332411E+03  0.00000000000E+00 0.  1.
</event>
<event>
 8    1  0.6850220E-009  0.1943641E+03  0.7561462E-02  0.1154583E+00
         -2   -1    0    0    0  501 -0.00000000000E+00  0.00000000000E+00  0.28299036793E+02  0.28299036793E+02  0.00000000000E+00 0. -1.
          2   -1    0    0  501    0  0.00000000000E+00 -0.00000000000E+00 -0.23527967497E+04  0.23527967497E+04  0.00000000000E+00 0.  1.
         25    2    1    2    0    0 -0.14949032439E+03 -0.10075968723E+03 -0.18857010225E+04  0.18984244811E+04  0.12508913746E+03 0.  0.
         23    2    1    2    0    0  0.14949032439E+03  0.10075968723E+03 -0.43879669043E+03  0.48267130547E+03  0.89045954085E+02 0.  0.
          5    1    3    3  502    0 -0.20324067048E+02  0.53923344412E+01 -0.76624714749E+03  0.76654700339E+03  0.41800000000E+01 0. -1.
         -5    1    3    3    0  502 -0.12916625734E+03 -0.10615202167E+03 -0.11194538750E+04  0.11318774777E+04  0.41800000000E+01 0. -1.
        -11    1    4    4    0    0  0.12388074341E+03  0.33875802997E+02 -0.25776469948E+03  0.28798723742E+03  0.00000000000E+00 0.  1.
         11    1    4    4    0    0  0.25609580976E+02  0.66883884234E+02 -0.18103199095E+03  0.19468406806E+03  0.00000000000E+00 0. -1.
</event>
<event>
 8    1  0.6850220E-009  0.2362222E+03  0.7561462E-02  0.1122335E+00
          2   -1    0    0  501    0  0.00000000000E+00  0.00000000000E+00  0.40971457500E+03  0.40971457500E+03  0.00000000000E+00 0. -1.
         -2   -1    0    0    0  501 -0.00000000000E+00 -0.00000000000E+00 -0.14858436833E+03  0.14858436833E+03  0.00000000000E+00 0.  1.
         25    2    1    2    0    0 -0.59542268363E+02 -0.21178727870E+03  0.16096579350E+03  0.29992898309E+03  0.12509306566E+03 0.  0.
         23    2    1    2    0    0  0.59542268363E+02  0.21178727870E+03  0.10016441316E+03  0.25836996025E+03  0.91230442033E+02 0.  0.
          5    1    3    3  502    0  0.77196024535E+01 -0.17519374432E+03  0.99640600797E+02  0.20173785475E+03  0.41800000000E+01 0.  1.
         -5    1    3    3    0  502 -0.67261870817E+02 -0.36593534378E+02  0.61325192704E+02  0.98191128338E+02  0.41800000000E+01 0.  1.
        -11    1    4    4    0    0  0.24468051297E+02  0.10986159194E+03  0.19895055179E+01  0.11257092454E+03  0.00000000000E+00 0.  1.
         11    1    4    4    0    0  0.35074217067E+02  0.10192568675E+03  0.98174907643E+02  0.14579903571E+03  0.00000000000E+00 0. -1.
</event>
<event>
 8    1  0.6850220E-009  0.1109796E+03  0.7561462E-02  0.1258767E+00
         -3   -1    0    0    0  501 -0.00000000000E+00  0.00000000000E+00  0.19972082349E+03  0.19972082349E+03  0.00000000000E+00 0.  1.
          3   -1    0    0  501    0  0.00000000000E+00 -0.00000000000E+00 -0.10212484713E+03  0.10212484713E+03  0.00000000000E+00 0. -1.
         25    2    1    2    0    0 -0.61054099241E+02  0.57464706636E+02  0.58171378997E+02  0.16143257616E+03  0.12508705676E+03 0.  0.
         23    2    1    2    0    0  0.61054099241E+02 -0.57464706636E+02  0.39424597359E+02  0.14041309445E+03  0.10550707405E+03 0.  0.
          5    1    3    3  502    0  0.24219647164E+02  0.39356039965E+02 -0.13691904902E+02  0.48377989317E+02  0.41800000000E+01 0. -1.
         -5    1    3    3    0  502 -0.85273746405E+02  0.18108666671E+02  0.71863283899E+02  0.11305458685E+03  0.41800000000E+01 0. -1.
        -11    1    4    4    0    0  0.36199405922E+02 -0.15218341245E+02  0.71683716435E+02  0.81734632202E+02  0.00000000000E+00 0.  1.
         11    1    4    4    0    0  0.24854693319E+02 -0.42246365391E+02 -0.32259119075E+02  0.58678462252E+02  0.00000000000E+00 0. -1.
</event>
<event>
 8    1  0.6850220E-009  0.1065121E+03  0.7561462E-02  0.1267169E+00
         -1   -1    0    0    0  501 -0.00000000000E+00  0.00000000000E+00  0.13662405105E+03  0.13662405105E+03  0.00000000000E+00 0.  1.
          1   -1    0    0  501    0  0.00000000000E+00 -0.00000000000E+00 -0.10089815477E+03  0.10089815477E+03  0.00000000000E+00 0. -1.
         25    2    1    2    0    0 -0.37777589387E+02  0.22027971886E+02  0.13012286377E+02  0.13314871577E+03  0.12508750181E+03 0.  0.
         23    2    1    2    0    0  0.37777589387E+02 -0.22027971886E+02  0.22713609903E+02  0.10437349006E+03  0.92008366724E+02 0.  0.
          5    1    3    3  502    0 -0.52179641871E+02  0.64177430251E+02  0.25580178951E+02  0.86679152825E+02  0.41800000000E+01 0.  1.
         -5    1    3    3    0  502  0.14402052483E+02 -0.42149458365E+02 -0.12567892574E+02  0.46469562941E+02  0.41800000000E+01 0.  1.
        -11    1    4    4    0    0 -0.15626071117E+02  0.14054782026E+02  0.32982627718E+02  0.39109650057E+02  0.00000000000E+00 0.  1.
         11    1    4    4    0    0  0.53403660505E+02 -0.36082753912E+02 -0.10269017815E+02  0.65263840004E+02  0.00000000000E+00 0. -1.
</event>
<event>
 8    1  0.6850220E-009  0.8361338E+02  0.7561462E-02  0.1319099E+00
         -1   -1    0    0    0  501 -0.00000000000E+00  0.00000000000E+00  0.92071514922E+02  0.92071514922E+02  0.00000000000E+00 0.  1.
          1   -1    0    0  501    0  0.00000000000E+00 -0.00000000000E+00 -0.15109816756E+03  0.15109816756E+03  0.00000000000E+00 0. -1.
         25    2    1    2    0    0 -0.13346258356E+02 -0.69468833216E+01  0.12119617738E+02  0.12657409315E+03  0.12509090344E+03 0.  0.
         23    2    1    2    0    0  0.13346258356E+02  0.69468833216E+01 -0.71146270372E+02  0.11659558933E+03  0.91139222415E+02 0.  0.
          5    1    3    3  502    0  0.32154622857E+02  0.31062787187E+02  0.40718855916E+02  0.60616121173E+02  0.41800000000E+01 0.  1.
         -5    1    3    3    0  502 -0.45500881213E+02 -0.38009670508E+02 -0.28599238178E+02  0.65957971980E+02  0.41800000000E+01 0.  1.
        -11    1    4    4    0    0  0.33146097760E+02  0.20427532457E+02  0.26342232236E+01  0.39024184950E+02  0.00000000000E+00 0.  1.
         11    1    4    4    0    0 -0.19799839405E+02 -0.13480649136E+02 -0.73780493595E+02  0.77571404375E+02  0.00000000000E+00 0. -1.
</event>
<event>
 8    1  0.6850220E-009  0.1190113E+03  0.7561462E-02  0.1244737E+00
         -1   -1    0    0    0  501 -0.00000000000E+00  0.00000000000E+00  0.13333939140E+02  0.13333939140E+02  0.00000000000E+00 0.  1.
          1   -1    0    0  501    0  0.00000000000E+00 -0.00000000000E+00 -0.11245161012E+04  0.11245161012E+04  0.00000000000E+00 0. -1.
         25    2    1    2    0    0  0.46063568929E+02  0.31675709053E+02 -0.66812411372E+03  0.68202836456E+03  0.12509059043E+03 0.  0.
         23    2    1    2    0    0 -0.46063568929E+02 -0.31675709053E+02 -0.44305804833E+03  0.45582167576E+03  0.91366093158E+02 0.  0.
          5    1    3    3  502    0 -0.39547917330E+02 -0.76218694842E+01 -0.14867554766E+03  0.15409095214E+03  0.41800000000E+01 0. -1.
         -5    1    3    3    0  502  0.85611486259E+02  0.39297578537E+02 -0.51944856605E+03  0.52793741242E+03  0.41800000000E+01 0. -1.
        -11    1    4    4    0    0 -0.14313019605E+02 -0.59391739568E+02 -0.31907884293E+03  0.32487466700E+03  0.00000000000E+00 0.  1.
         11    1    4    4    0    0 -0.31750549324E+02  0.27716030515E+02 -0.12397920540E+03  0.13094700876E+03  0.00000000000E+00 0. -1.
</event>
<event>
 8    1  0.6850220E-009  0.1378966E+03  0.7561462E-02  0.1216188E+00
          1   -1    0    0  501    0  0.00000000000E+00  0.00000000000E+00  0.43149538078E+03  0.43149538078E+03  0.00000000000E+00 0. -1.
         -1   -1    0    0    0  501 -0.00000000000E+00 -0.00000000000E+00 -0.48235569745E+02  0.48235569745E+02  0.00000000000E+00 0.  1.
         25    2    1    2    0    0  0.37061741981E+02  0.86720156584E+02  0.20816493860E+03  0.26052482241E+03  0.12508630281E+03 0.  0.
         23    2    1    2    0    0 -0.37061741981E+02 -0.86720156584E+02  0.17509487244E+03  0.21920612812E+03  0.92190856244E+02 0.  0.
          5    1    3    3  502    0  0.45178065264E+02  0.11640844028E+03  0.17572858673E+03  0.21561537780E+03  0.41800000000E+01 0.  1.
         -5    1    3    3    0  502 -0.81163232823E+01 -0.29688283696E+02  0.32436351877E+02  0.44909444614E+02  0.41800000000E+01 0.  1.
        -11    1    4    4    0    0 -0.57697670104E+02 -0.44720617679E+02  0.58423433385E+02  0.93500012564E+02  0.00000000000E+00 0. -1.
         11    1    4    4    0    0  0.20635928122E+02 -0.41999538905E+02  0.11667143905E+03  0.12570611556E+03  0.00000000000E+00 0.  1.
</event>
<event>
 8    1  0.6850220E-009  0.1075187E+03  0.7561462E-02  0.1265235E+00
          2   -1    0    0  501    0  0.00000000000E+00  0.00000000000E+00  0.82066406079E+03  0.82066406079E+03  0.00000000000E+00 0. -1.
         -2   -1    0    0    0  501 -0.00000000000E+00 -0.00000000000E+00 -0.21650005988E+02  0.21650005988E+02  0.00000000000E+00 0.  1.
         25    2    1    2    0    0 -0.24191721262E+02  0.47530724167E+02  0.62266623429E+03  0.63734040746E+03  0.12508056020E+03 0.  0.
         23    2    1    2    0    0  0.24191721262E+02 -0.47530724167E+02  0.17634782051E+03  0.20497365932E+03  0.89840069554E+02 0.  0.
          5    1    3    3  502    0 -0.10236260245E+02  0.84827302109E+02  0.52269063149E+03  0.52964461751E+03  0.41800000000E+01 0.  1.
         -5    1    3    3    0  502 -0.13955461018E+02 -0.37296577942E+02  0.99975602799E+02  0.10769578995E+03  0.41800000000E+01 0.  1.
        -11    1    4    4    0    0 -0.23373917023E+02 -0.31567183382E+02  0.27637885025E+02  0.48027905975E+02  0.00000000000E+00 0.  1.
         11    1    4    4    0    0  0.47565638285E+02 -0.15963540785E+02  0.14870993549E+03  0.15694575334E+03  0.00000000000E+00 0. -1.
</event>
<event>
 8    1  0.6850220E-009  0.1157368E+03  0.7561462E-02  0.1250300E+00
          2   -1    0    0  501    0  0.00000000000E+00  0.00000000000E+00  0.26697382275E+02  0.26697382275E+02  0.00000000000E+00 0. -1.
         -2   -1    0    0    0  501 -0.00000000000E+00 -0.00000000000E+00 -0.66095387207E+03  0.66095387207E+03  0.00000000000E+00 0.  1.
         25    2    1    2    0    0  0.60691627470E+01 -0.71007191932E+02 -0.41931114838E+03  0.44333740377E+03  0.12508940156E+03 0.  0.
         23    2    1    2    0    0 -0.60691627470E+01  0.71007191932E+02 -0.21494534141E+03  0.24431385057E+03  0.91700064038E+02 0.  0.
          5    1    3    3  502    0  0.43088355178E+02 -0.10677379968E+02 -0.30902019824E+03  0.31222038388E+03  0.41800000000E+01 0. -1.
         -5    1    3    3    0  502 -0.37019192431E+02 -0.60329811964E+02 -0.11029095015E+03  0.13111701989E+03  0.41800000000E+01 0. -1.
        -11    1    4    4    0    0  0.15943788771E+02 -0.18142632855E+02 -0.50085394720E+02  0.55604912476E+02  0.00000000000E+00 0. -1.
         11    1    4    4    0    0 -0.22012951518E+02  0.89149824787E+02 -0.16485994669E+03  0.18870893809E+03  0.00000000000E+00 0.  1.
</event>
<event>
 8    1  0.6850220E-009  0.1404050E+03  0.7561462E-02  0.1212785E+00
         -1   -1    0    0    0  501 -0.00000000000E+00  0.00000000000E+00  0.13773048353E+03  0.13773048353E+03  0.00000000000E+00 0.  1.
          1   -1    0    0  501    0  0.00000000000E+00 -0.00000000000E+00 -0.20918097153E+03  0.20918097153E+03  0.00000000000E+00 0. -1.
         25    2    1    2    0    0  0.82773945553E+02  0.96733136953E+02 -0.10914805614E+02  0.17880459394E+03  0.12507247493E+03 0.  0.
         23    2    1    2    0    0 -0.82773945553E+02 -0.96733136953E+02 -0.60535682377E+02  0.16810686112E+03  0.91577956230E+02 0.  0.
          5    1    3    3  502    0  0.20852345222E+02  0.24890327450E+02  0.54454590082E+02  0.63538362292E+02  0.41800000000E+01 0. -1.
         -5    1    3    3    0  502  0.61921600331E+02  0.71842809504E+02 -0.65369395696E+02  0.11526623165E+03  0.41800000000E+01 0. -1.
        -11    1    4    4    0    0 -0.24886961131E+02 -0.91712771443E+02 -0.19597505789E+02  0.97029147751E+02  0.00000000000E+00 0. -1.
         11    1    4    4    0    0 -0.57886984422E+02 -0.50203655099E+01 -0.40938176588E+02  0.71077713368E+02  0.00000000000E+00 0.  1.
</event>
<event>
 8    1  0.6850220E-009  0.1062139E+03  0.7561462E-02  0.1267746E+00
         -2   -1    0    0    0  501 -0.00000000000E+00  0.00000000000E+00  0.53762464973E+02  0.53762464973E+02  0.00000000000E+00 0.  1.
          2   -1    0    0  501    0  0.00000000000E+00 -0.00000000000E+00 -0.24018619415E+03  0.24018619415E+03  0.00000000000E+00 0. -1.
         25    2    1    2    0    0  0.12896484426E+02 -0.72571286588E+01 -0.65905881097E+02  0.14216194383E+03  0.12508975930E+03 0.  0.
         23    2    1    2    0    0 -0.12896484426E+02  0.72571286588E+01 -0.12051784808E+03  0.15178671530E+03  0.91080568772E+02 0.  0.
          5    1    3    3  502    0  0.29320878716E+02  0.53229787881E+02 -0.19147017580E+02  0.63852994673E+02  0.41800000000E+01 0. -1.
         -5    1    3    3    0  502 -0.16424394290E+02 -0.60486916539E+02 -0.46758863517E+02  0.78308949154E+02  0.41800000000E+01 0. -1.
        -11    1    4    4    0    0  0.26262668796E+02 -0.26269701293E+02 -0.30544320159E+02  0.48091376278E+02  0.00000000000E+00 0.  1.
         11    1    4    4    0    0 -0.39159153222E+02  0.33526829952E+02 -0.89973527923E+02  0.10369533902E+03  0.00000000000E+00 0. -1.
</event>
<event>
 8    1  0.6850220E-009  0.2250678E+03  0.7561462E-02  0.1130160E+00
          2   -1    0    0  501    0  0.00000000000E+00  0.00000000000E+00  0.96938578739E+03  0.96938578739E+03  0.00000000000E+00 0. -1.
         -2   -1    0    0    0  501 -0.00000000000E+00 -0.00000000000E+00 -0.68035535832E+02  0.68035535832E+02  0.00000000000E+00 0.  1.
         25    2    1    2    0    0  0.20407869698E+03 -0.69885726719E+02  0.63882831332E+03  0.68577071086E+03  0.12509086544E+03 0.  0.
         23    2    1    2    0    0 -0.20407869698E+03  0.69885726719E+02  0.26252193824E+03  0.35165061236E+03  0.90599424691E+02 0.  0.
          5    1    3    3  502    0  0.16298807777E+03 -0.14557995345E+02  0.54645784785E+03  0.57044780707E+03  0.41800000000E+01 0. -1.
         -5    1    3    3    0  502  0.41090619214E+02 -0.55327731374E+02  0.92370465474E+02  0.11532290379E+03  0.41800000000E+01 0. -1.
        -11    1    4    4    0    0 -0.76022738756E+02  0.12372958247E+02  0.35679472844E+02  0.84885638868E+02  0.00000000000E+00 0. -1.
         11    1    4    4    0    0 -0.12805595823E+03  0.57512768472E+02  0.22684246539E+03  0.26676497349E+03  0.00000000000E+00 0.  1.
</event>
<event>
 8    1  0.6850220E-009  0.1118642E+03  0.7561462E-02  0.1257156E+00
         -1   -1    0    0    0  501 -0.00000000000E+00  0.00000000000E+00  0.16590851613E+04  0.16590851613E+04  0.00000000000E+00 0.  1.
          1   -1    0    0  501    0  0.00000000000E+00 -0.00000000000E+00 -0.28389597353E+02  0.28389597353E+02  0.00000000000E+00 0. -1.
         25    2    1    2    0    0 -0.30872668618E+02  0.80436115299E+02  0.14934636594E+04  0.15011677145E+04  0.12509082610E+03 0.  0.
         23    2    1    2    0    0  0.30872668618E+02 -0.80436115299E+02  0.13723190458E+03  0.18630704419E+03  0.91949055291E+02 0.  0.
          5    1    3    3  502    0 -0.49883582681E+02  0.73261528524E+02  0.14529013817E+04  0.14556082992E+04  0.41800000000E+01 0. -1.
         -5    1    3    3    0  502  0.19010914062E+02  0.71745867749E+01  0.40562277718E+02  0.45559415301E+02  0.41800000000E+01 0. -1.
        -11    1    4    4    0    0  0.44481746308E+02 -0.14289337316E+02  0.97086813732E+02  0.10774349315E+03  0.00000000000E+00 0. -1.
         11    1    4    4    0    0 -0.13609077689E+02 -0.66146777983E+02  0.40145090846E+02  0.78563551040E+02  0.00000000000E+00 0.  1.
</event>
<event>
 8    1  0.6850220E-009  0.6237133E+02  0.7561462E-02  0.1388141E+00
         -2   -1    0    0    0  501 -0.00000000000E+00  0.00000000000E+00  0.54436376056E+03  0.54436376056E+03  0.00000000000E+00 0.  1.
          2   -1    0    0  501    0  0.00000000000E+00 -0.00000000000E+00 -0.25294720436E+02  0.25294720436E+02  0.00000000000E+00 0. -1.
         25    2    1    2    0    0 -0.41714793054E+02  0.31707637770E+00  0.26199540185E+03  0.29330733884E+03  0.12508948770E+03 0.  0.
         23    2    1    2    0    0  0.41714793054E+02 -0.31707637770E+00  0.25707363827E+03  0.27635114215E+03  0.92427667799E+02 0.  0.
          5    1    3    3  502    0 -0.42346018053E+02  0.11197490628E+01  0.27568787038E+03  0.27895467976E+03  0.41800000000E+01 0. -1.
         -5    1    3    3    0  502  0.63122499915E+00 -0.80267268508E+00 -0.13692468531E+02  0.14352659089E+02  0.41800000000E+01 0. -1.
        -11    1    4    4    0    0 -0.17485864543E+02 -0.57913551402E+01  0.76596559098E+01  0.19949074711E+02  0.00000000000E+00 0. -1.
         11    1    4    4    0    0  0.59200657597E+02  0.54742787625E+01  0.24941398236E+03  0.25640206744E+03  0.00000000000E+00 0.  1.
</event>
<event>
 8    1  0.6850220E-009  0.9243474E+02  0.7561462E-02  0.1297060E+00
          1   -1    0    0  501    0  0.00000000000E+00  0.00000000000E+00  0.37307083473E+03  0.37307083473E+03  0.00000000000E+00 0.  1.
         -1   -1    0    0    0  501 -0.00000000000E+00 -0.00000000000E+00 -0.29611142825E+02  0.29611142825E+02  0.00000000000E+00 0. -1.
         25    2    1    2    0    0 -0.15895522394E+02 -0.32204405900E+01  0.29570323243E+03  0.32148342342E+03  0.12509256970E+03 0.  0.
         23    2    1    2    0    0  0.15895522394E+02  0.32204405900E+01  0.47756459477E+02  0.81198554135E+02  0.63635578902E+02 0.  0.
          5    1    3    3  502    0  0.32895243574E+02  0.46001404352E+02  0.13336097372E+03  0.14491669319E+03  0.41800000000E+01 0.  1.
         -5    1    3    3    0  502 -0.48790765968E+02 -0.49221844942E+02  0.16234225870E+03  0.17656673023E+03  0.41800000000E+01 0.  1.
        -11    1    4    4    0    0 -0.10434582900E+02  0.23357687897E+02  0.39461713141E+02  0.47028596707E+02  0.00000000000E+00 0.  1.
         11    1    4    4    0    0  0.26330105294E+02 -0.20137247307E+02  0.82947463359E+01  0.34169957429E+02  0.00000000000E+00 0. -1.
</event>
<event>
 8    1  0.6850220E-009  0.7472564E+02  0.7561462E-02  0.1344723E+00
         -3   -1    0    0    0  501 -0.00000000000E+00  0.00000000000E+00  0.68291467325E+02  0.68291467325E+02  0.00000000000E+00 0.  1.
          3   -1    0    0  501    0  0.00000000000E+00 -0.00000000000E+00 -0.22822929270E+03  0.22822929270E+03  0.00000000000E+00 0. -1.
         25    2    1    2    0    0  0.24152551158E+02  0.51640546830E+02 -0.70616996908E+02  0.15454467717E+03  0.12508878921E+03 0.  0.
         23    2    1    2    0    0 -0.24152551158E+02 -0.51640546830E+02 -0.89320828467E+02  0.14197608285E+03  0.94492888088E+02 0.  0.
          5    1    3    3  502    0  0.94663466683E+01 -0.15418352076E+02 -0.82662451090E+02  0.84722432214E+02  0.41800000000E+01 0.  1.
         -5    1    3    3    0  502  0.14686204490E+02  0.67058898906E+02  0.12045454182E+02  0.69822244960E+02  0.41800000000E+01 0.  1.
        -11    1    4    4    0    0 -0.17115211858E+02 -0.98896825571E+01  0.17919346092E+02  0.26680316010E+02  0.00000000000E+00 0.  1.
         11    1    4    4    0    0 -0.70373392996E+01 -0.41750864273E+02 -0.10724017456E+03  0.11529576684E+03  0.00000000000E+00 0. -1.
</event>
<event>
 8    1  0.6850220E-009  0.1116178E+03  0.7561462E-02  0.1257603E+00
         -3   -1    0    0    0  501 -0.00000000000E+00  0.00000000000E+00  0.19849458170E+03  0.19849458170E+03  0.00000000000E+00 0.  1.
          3   -1    0    0  501    0  0.00000000000E+00 -0.00000000000E+00 -0.80051160126E+02  0.80051160126E+02  0.00000000000E+00 0. -1.
         25    2    1    2    0    0  0.43065542292E+02 -0.31313402866E+02  0.10070880523E+03  0.16918587739E+03  0.12508568074E+03 0.  0.
         23    2    1    2    0    0 -0.43065542292E+02  0.31313402866E+02  0.17734616344E+02  0.10935986443E+03  0.93861031313E+02 0.  0.
          5    1    3    3  502    0 -0.73125658848E+01  0.43241879894E+02  0.46499295051E+02  0.64054591068E+02  0.41800000000E+01 0.  1.
         -5    1    3    3    0  502  0.50378108177E+02 -0.74555282761E+02  0.54209510174E+02  0.10513128633E+03  0.41800000000E+01 0.  1.
        -11    1    4    4    0    0  0.15975223957E+02 -0.83022636991E+01 -0.21588219839E+02  0.28110257893E+02  0.00000000000E+00 0. -1.
         11    1    4    4    0    0 -0.59040766249E+02  0.39615666565E+02  0.39322836184E+02  0.81249606536E+02  0.00000000000E+00 0.  1.
</event>
<event>
 8    1  0.6850220E-009  0.9640071E+02  0.7561462E-02  0.1288052E+00
          1   -1    0    0  501    0  0.00000000000E+00  0.00000000000E+00  0.16938687912E+04  0.16938687912E+04  0.00000000000E+00 0. -1.
         -1   -1    0    0    0  501 -0.00000000000E+00 -0.00000000000E+00 -0.11970947875E+02  0.11970947875E+02  0.00000000000E+00 0.  1.
         25    2    1    2    0    0  0.51407882889E+02 -0.65982951426E+01  0.13689693068E+04  0.13756492500E+04  0.12509031929E+03 0.  0.
         23    2    1    2    0    0 -0.51407882889E+02  0.65982951426E+01  0.31292853648E+03  0.33019048909E+03  0.91734302305E+02 0.  0.
          5    1    3    3  502    0 -0.74574427587E+01  0.20716576641E+02  0.10438424589E+04  0.10440830146E+04  0.41800000000E+01 0.  1.
         -5    1    3    3    0  502  0.58865325648E+02 -0.27314871784E+02  0.32512684791E+03  0.33156623533E+03  0.41800000000E+01 0.  1.
        -11    1    4    4    0    0  0.20187510626E+02 -0.20536004039E+02  0.84654137558E+02  0.89418040981E+02  0.00000000000E+00 0.  1.
         11    1    4    4    0    0 -0.71595393515E+02  0.27134299182E+02  0.22827439893E+03  0.24077244811E+03  0.00000000000E+00 0. -1.
</event>
<event>
 8    1  0.6850220E-009  0.9936441E+02  0.7561462E-02  0.1281638E+00
          1   -1    0    0  501    0  0.00000000000E+00  0.00000000000E+00  0.10185421296E+03  0.10185421296E+03  0.00000000000E+00 0. -1.
         -1   -1    0    0    0  501 -0.00000000000E+00 -0.00000000000E+00 -0.14135782830E+03  0.14135782830E+03  0.00000000000E+00 0.  1.
         25    2    1    2    0    0  0.31231002792E+02 -0.99953161900E+01 -0.60224271805E+02  0.14265150446E+03  0.12508879618E+03 0.  0.
         23    2    1    2    0    0 -0.31231002792E+02  0.99953161900E+01  0.20720656460E+02  0.10056053679E+03  0.92778198275E+02 0.  0.
          5    1    3    3  502    0  0.73334803593E+02  0.20064749092E+02 -0.45491254251E+02  0.88699008943E+02  0.41800000000E+01 0. -1.
         -5    1    3    3    0  502 -0.42103800802E+02 -0.30060065282E+02 -0.14733017554E+02  0.53952495521E+02  0.41800000000E+01 0. -1.
        -11    1    4    4    0    0 -0.34197666230E+02 -0.20613340389E+02  0.45883952431E+02  0.60825383421E+02  0.00000000000E+00 0. -1.
         11    1    4    4    0    0  0.29666634384E+01  0.30608656579E+02 -0.25163295971E+02  0.39735153374E+02  0.00000000000E+00 0.  1.
</event>
<event>
 8    1  0.6850220E-009  0.2774852E+03  0.7561462E-02  0.1097070E+00
         -1   -1    0    0    0  501 -0.00000000000E+00  0.00000000000E+00  0.87880603996E+02  0.87880603996E+02  0.00000000000E+00 0.  1.
          1   -1    0    0  501    0  0.00000000000E+00 -0.00000000000E+00 -0.10108057713E+04  0.10108057713E+04  0.00000000000E+00 0. -1.
         25    2    1    2    0    0 -0.10357915334E+03  0.24503889902E+03 -0.61690473378E+03  0.68336776256E+03  0.12508934926E+03 0.  0.
         23    2    1    2    0    0  0.10357915334E+03 -0.24503889902E+03 -0.30602043357E+03  0.41531861279E+03  0.89823946268E+02 0.  0.
          5    1    3    3  502    0 -0.11527205826E+03  0.22968604159E+03 -0.61084002588E+03  0.66271135099E+03  0.41800000000E+01 0. -1.
         -5    1    3    3    0  502  0.11692904916E+02  0.15352857436E+02 -0.60647078995E+01  0.20656411565E+02  0.41800000000E+01 0. -1.
        -11    1    4    4    0    0  0.44585236126E+02 -0.26557896822E+02 -0.36810717939E+02  0.63625420385E+02  0.00000000000E+00 0.  1.
         11    1    4    4    0    0  0.58993917216E+02 -0.21848100220E+03 -0.26920971563E+03  0.35169319240E+03  0.00000000000E+00 0. -1.
</event>
<event>
 8    1  0.6850220E-009  0.1680415E+03  0.7561462E-02  0.1179906E+00
         -3   -1    0    0    0  501 -0.00000000000E+00  0.00000000000E+00  0.15999963856E+03  0.15999963856E+03  0.00000000000E+00 0.  1.
          3   -1    0    0  501    0  0.00000000000E+00 -0.00000000000E+00 -0.18431931777E+03  0.18431931777E+03  0.00000000000E+00 0. -1.
         25    2    1    2    0    0 -0.12993124672E+03 -0.26048202139E+02 -0.13703239301E+02  0.18274806937E+03  0.12509372639E+03 0.  0.
         23    2    1    2    0    0  0.12993124672E+03  0.26048202139E+02 -0.10616439907E+02  0.16157088697E+03  0.91824860527E+02 0.  0.
          5    1    3    3  502    0 -0.34810748621E+02 -0.66759726648E+02 -0.22853888693E+02  0.78793540027E+02  0.41800000000E+01 0.  1.
         -5    1    3    3    0  502 -0.95120498098E+02  0.40711524509E+02  0.91506493918E+01  0.10395452934E+03  0.41800000000E+01 0.  1.
        -11    1    4    4    0    0  0.80350962949E+02 -0.26760112963E+02 -0.23743687125E+02  0.87955349871E+02  0.00000000000E+00 0. -1.
         11    1    4    4    0    0  0.49580283771E+02  0.52808315102E+02  0.13127247218E+02  0.73615537098E+02  0.00000000000E+00 0.  1.
</event>
<event>
 8    1  0.6850220E-009  0.1079424E+03  0.7561462E-02  0.1264428E+00
         -1   -1    0    0    0  501 -0.00000000000E+00  0.00000000000E+00  0.25773666552E+03  0.25773666552E+03  0.00000000000E+00 0.  1.
          1   -1    0    0  501    0  0.00000000000E+00 -0.00000000000E+00 -0.74149820062E+02  0.74149820062E+02  0.00000000000E+00 0. -1.
         25    2    1    2    0    0  0.69190509216E+01  0.51057190871E+02  0.19474401776E+03  0.23712283495E+03  0.12508915379E+03 0.  0.
         23    2    1    2    0    0 -0.69190509216E+01 -0.51057190871E+02 -0.11157172297E+02  0.94763650637E+02  0.78746155355E+02 0.  0.
          5    1    3    3  502    0  0.43666234657E+02 -0.24434157153E+02  0.87181023092E+02  0.10060701403E+03  0.41800000000E+01 0.  1.
         -5    1    3    3    0  502 -0.36747183736E+02  0.75491348024E+02  0.10756299467E+03  0.13651582092E+03  0.41800000000E+01 0.  1.
        -11    1    4    4    0    0 -0.19238038405E+02 -0.62132744852E+02 -0.28292585642E+02  0.70929898539E+02  0.00000000000E+00 0. -1.
         11    1    4    4    0    0  0.12318987483E+02  0.11075553981E+02  0.17135413345E+02  0.23833752098E+02  0.00000000000E+00 0.  1.
</event>
<event>
 8    1  0.6850220E-009  0.9944207E+02  0.7561462E-02  0.1281474E+00
          1   -1    0    0  501    0  0.00000000000E+00  0.00000000000E+00  0.45456289157E+02  0.45456289157E+02  0.00000000000E+00 0.  1.
         -1   -1    0    0    0  501 -0.00000000000E+00 -0.00000000000E+00 -0.33078018660E+03  0.33078018660E+03  0.00000000000E+00 0. -1.
         25    2    1    2    0    0  0.37383373064E+02 -0.17252906004E+02 -0.97296541240E+02  0.16372840116E+03  0.12508074617E+03 0.  0.
         23    2    1    2    0    0 -0.37383373064E+02  0.17252906004E+02 -0.18802735621E+03  0.21250807460E+03  0.90056736237E+02 0.  0.
          5    1    3    3  502    0  0.73360764279E+02  0.16124301333E+02 -0.31542640578E+02  0.81573313061E+02  0.41800000000E+01 0.  1.
         -5    1    3    3    0  502 -0.35977391215E+02 -0.33377207337E+02 -0.65753900662E+02  0.82155088098E+02  0.41800000000E+01 0.  1.
        -11    1    4    4    0    0 -0.54843765251E+02  0.14485051517E+02 -0.18630135424E+03  0.19474560302E+03  0.00000000000E+00 0. -1.
         11    1    4    4    0    0  0.17460392187E+02  0.27678544867E+01 -0.17260019643E+01  0.17762471578E+02  0.00000000000E+00 0.  1.
</event>
<event>
 8    1  0.6850220E-009  0.1017176E+03  0.7561462E-02  0.1276725E+00
         -1   -1    0    0    0  501 -0.00000000000E+00  0.00000000000E+00  0.18019498494E+02  0.18019498494E+02  0.00000000000E+00 0.  1.
          1   -1    0    0  501    0  0.00000000000E+00 -0.00000000000E+00 -0.20542387035E+04  0.20542387035E+04  0.00000000000E+00 0. -1.
         25    2    1    2    0    0  0.36268934521E+02 -0.47771271337E+01 -0.18969941778E+04  0.19014657214E+04  0.12508686027E+03 0.  0.
         23    2    1    2    0    0 -0.36268934521E+02  0.47771271337E+01 -0.13922502723E+03  0.17079248059E+03  0.91914126574E+02 0.  0.
          5    1    3    3  502    0  0.33450875173E+01 -0.61022897951E+02 -0.11465421157E+04  0.11481773727E+04  0.41800000000E+01 0.  1.
         -5    1    3    3    0  502  0.32923847004E+02  0.56245770818E+02 -0.75045206213E+03  0.75328834877E+03  0.41800000000E+01 0.  1.
        -11    1    4    4    0    0 -0.31377053027E+02  0.34565748744E+02 -0.25632728926E+02  0.53257367895E+02  0.00000000000E+00 0.  1.
         11    1    4    4    0    0 -0.48918814940E+01 -0.29788621611E+02 -0.11359229831E+03  0.11753511270E+03  0.00000000000E+00 0. -1.
</event>
<event>
 8    1  0.6850220E-009  0.9132397E+02  0.7561462E-02  0.1299677E+00
         -2   -1    0    0    0  501 -0.00000000000E+00  0.00000000000E+00  0.55608082936E+02  0.55608082936E+02  0.00000000000E+00 0. -1.
          2   -1    0    0  501    0  0.00000000000E+00 -0.00000000000E+00 -0.24565820931E+03  0.24565820931E+03  0.00000000000E+00 0.  1.
         25    2    1    2    0    0 -0.30108213871E+02  0.27929443533E+02 -0.12111160254E+03  0.17889224585E+03  0.12509139457E+03 0.  0.
         23    2    1    2    0    0  0.30108213871E+02 -0.27929443533E+02 -0.68938523832E+02  0.12237404639E+03  0.92392255109E+02 0.  0.
          5    1    3    3  502    0 -0.10389527975E+02 -0.27491497068E+02 -0.11595509539E+03  0.11969453308E+03  0.41800000000E+01 0.  1.
         -5    1    3    3    0  502 -0.19718685896E+02  0.55420940601E+02 -0.51565071452E+01  0.59197712764E+02  0.41800000000E+01 0.  1.
        -11    1    4    4    0    0  0.26750767077E+02  0.27555086688E+02 -0.51247817880E+02  0.64040808700E+02  0.00000000000E+00 0.  1.
         11    1    4    4    0    0  0.33574467945E+01 -0.55484530221E+02 -0.17690705953E+02  0.58333237694E+02  0.00000000000E+00 0. -1.
</event>
<event>
 8    1  0.6850220E-009  0.1226584E+03  0.7561462E-02  0.1238775E+00
         -2   -1    0    0    0  501 -0.00000000000E+00  0.00000000000E+00  0.26512810532E+03  0.26512810532E+03  0.00000000000E+00 0.  1.
          2   -1    0    0  501    0  0.00000000000E+00 -0.00000000000E+00 -0.72261969648E+02  0.72261969648E+02  0.00000000000E+00 0. -1.
         25    2    1    2    0    0 -0.27122064033E+02  0.75216372234E+02  0.67248251847E+02  0.16298071138E+03  0.12508907185E+03 0.  0.
         23    2    1    2    0    0  0.27122064033E+02 -0.75216372234E+02  0.12561788383E+03  0.17440936359E+03  0.90805640576E+02 0.  0.
          5    1    3    3  502    0  0.44908605326E+02  0.58870887741E+02  0.28337354609E+02  0.79391701846E+02  0.41800000000E+01 0.  1.
         -5    1    3    3    0  502 -0.72030669360E+02  0.16345484493E+02  0.38910897238E+02  0.83589009538E+02  0.41800000000E+01 0.  1.
        -11    1    4    4    0    0 -0.17196879441E+02 -0.20265683992E+02 -0.39370435373E+01  0.26868772246E+02  0.00000000000E+00 0. -1.
         11    1    4    4    0    0  0.44318943475E+02 -0.54950688242E+02  0.12955492737E+03  0.14754059134E+03  0.00000000000E+00 0.  1.
</event>
<event>
 8    1  0.6850220E-009  0.1077335E+03  0.7561462E-02  0.1264825E+00
         -2   -1    0    0    0  501 -0.00000000000E+00  0.00000000000E+00  0.27002651272E+02  0.27002651272E+02  0.00000000000E+00 0. -1.
          2   -1    0    0  501    0  0.00000000000E+00 -0.00000000000E+00 -0.50528315667E+03  0.50528315667E+03  0.00000000000E+00 0.  1.
         25    2    1    2    0    0 -0.30664809336E+02  0.17331905525E+02 -0.19400085055E+03  0.23350552406E+03  0.12509106392E+03 0.  0.
         23    2    1    2    0    0  0.30664809336E+02 -0.17331905525E+02 -0.28427965485E+03  0.29878028388E+03  0.84935330659E+02 0.  0.
          5    1    3    3  502    0  0.37038400329E+02  0.37405252038E+02 -0.12014296674E+03  0.13123566907E+03  0.41800000000E+01 0.  1.
         -5    1    3    3    0  502 -0.67703209665E+02 -0.20073346512E+02 -0.73857883807E+02  0.10226985499E+03  0.41800000000E+01 0.  1.
        -11    1    4    4    0    0 -0.32322358441E+01  0.31946769868E+02 -0.10287249731E+03  0.10776731488E+03  0.00000000000E+00 0.  1.
         11    1    4    4    0    0  0.33897045180E+02 -0.49278675393E+02 -0.18140715753E+03  0.19101296900E+03  0.00000000000E+00 0. -1.
</event>
<event>
 8    1  0.6850220E-009  0.9750698E+02  0.7561462E-02  0.1285627E+00
         -1   -1    0    0    0  501 -0.00000000000E+00  0.00000000000E+00  0.18018480713E+02  0.18018480713E+02  0.00000000000E+00 0. -1.
          1   -1    0    0  501    0  0.00000000000E+00 -0.00000000000E+00 -0.64312999752E+03  0.64312999752E+03  0.00000000000E+00 0.  1.
         25    2    1    2    0    0  0.36138175724E+02 -0.24449185443E+02 -0.42331302592E+03  0.44355874135E+03  0.12508680467E+03 0.  0.
         23    2    1    2    0    0 -0.36138175724E+02  0.24449185443E+02 -0.20179849089E+03  0.21758973688E+03  0.68694484924E+02 0.  0.
          5    1    3    3  502    0  0.33726024475E+02  0.40045261382E+02 -0.29745016559E+03  0.30205155370E+03  0.41800000000E+01 0.  1.
         -5    1    3    3    0  502  0.24121512484E+01 -0.64494446825E+02 -0.12586286033E+03  0.14150718765E+03  0.41800000000E+01 0.  1.
        -11    1    4    4    0    0 -0.44308461615E+02 -0.74130546885E+01 -0.14665005246E+03  0.15337676173E+03  0.00000000000E+00 0.  1.
         11    1    4    4    0    0  0.81702858911E+01  0.31862240132E+02 -0.55148438427E+02  0.64212975158E+02  0.00000000000E+00 0. -1.
</event>
<event>
 8    1  0.6850220E-009  0.7526016E+02  0.7561462E-02  0.1343067E+00
         -1   -1    0    0    0  501 -0.00000000000E+00  0.00000000000E+00  0.83560183624E+02  0.83560183624E+02  0.00000000000E+00 0.  1.
          1   -1    0    0  501    0  0.00000000000E+00 -0.00000000000E+00 -0.17527965418E+03  0.17527965418E+03  0.00000000000E+00 0. -1.
         25    2    1    2    0    0 -0.17621574704E+02  0.35994757086E+02 -0.15127659839E+02  0.13222211872E+03  0.12509076766E+03 0.  0.
         23    2    1    2    0    0  0.17621574704E+02 -0.35994757086E+02 -0.76591810717E+02  0.12661771909E+03  0.92518100311E+02 0.  0.
          5    1    3    3  502    0  0.24911080048E+01  0.31526905111E+02 -0.68116022041E+02  0.75215797700E+02  0.41800000000E+01 0. -1.
         -5    1    3    3    0  502 -0.20112682708E+02  0.44678519748E+01  0.52988362202E+02  0.57006321017E+02  0.41800000000E+01 0. -1.
        -11    1    4    4    0    0  0.28131249574E+02  0.23823072774E+02 -0.44958686606E+02  0.58139397144E+02  0.00000000000E+00 0. -1.
         11    1    4    4    0    0 -0.10509674870E+02 -0.59817829860E+02 -0.31633124111E+02  0.68478321943E+02  0.00000000000E+00 0.  1.
</event>
<event>
 8    1  0.6850220E-009  0.1092543E+03  0.7561462E-02  0.1261957E+00
          3   -1    0    0  501    0  0.00000000000E+00  0.00000000000E+00  0.47427978373E+03  0.47427978373E+03  0.00000000000E+00 0. -1.
         -3   -1    0    0    0  501 -0.00000000000E+00 -0.00000000000E+00 -0.32339464693E+02  0.32339464693E+02  0.00000000000E+00 0.  1.
         25    2    1    2    0    0 -0.42240600726E+02  0.34397049021E+02  0.31354444629E+03  0.34193903221E+03  0.12507900150E+03 0.  0.
         23    2    1    2    0    0  0.42240600726E+02 -0.34397049021E+02  0.12839587274E+03  0.16468021621E+03  0.87559397801E+02 0.  0.
          5    1    3    3  502    0 -0.45450183092E+02  0.75844050295E+02  0.25566483113E+03  0.27055501730E+03  0.41800000000E+01 0. -1.
         -5    1    3    3    0  502  0.32095823668E+01 -0.41447001274E+02  0.57879615166E+02  0.71384014915E+02  0.41800000000E+01 0. -1.
        -11    1    4    4    0    0  0.40214549127E+02  0.11845335492E+02  0.19261793063E+02  0.46136087897E+02  0.00000000000E+00 0.  1.
         11    1    4    4    0    0  0.20260515982E+01 -0.46242384513E+02  0.10913407968E+03  0.11854412831E+03  0.00000000000E+00 0. -1.
</event>
<event>
 8    1  0.6850220E-009  0.1066491E+03  0.7561462E-02  0.1266904E+00
          2   -1    0    0  501    0  0.00000000000E+00  0.00000000000E+00  0.10362411446E+03  0.10362411446E+03  0.00000000000E+00 0. -1.
         -2   -1    0    0    0  501 -0.00000000000E+00 -0.00000000000E+00 -0.16249105860E+03  0.16249105860E+03  0.00000000000E+00 0.  1.
         25    2    1    2    0    0 -0.46447879872E+02 -0.49678635921E+02 -0.56401745215E+02  0.15314773627E+03  0.12509076644E+03 0.  0.
         23    2    1    2    0    0  0.46447879872E+02  0.49678635921E+02 -0.24651989323E+01  0.11296743679E+03  0.90167578193E+02 0.  0.
          5    1    3    3  502    0  0.17836207261E+02  0.28656880150E+02 -0.36316181782E+02  0.49756251151E+02  0.41800000000E+01 0.  1.
         -5    1    3    3    0  502 -0.64284087133E+02 -0.78335516071E+02 -0.20085563433E+02  0.10339148512E+03  0.41800000000E+01 0.  1.
        -11    1    4    4    0    0  0.25726808873E+02  0.19129615879E+01  0.38757214673E+02  0.46558026226E+02  0.00000000000E+00 0. -1.
         11    1    4    4    0    0  0.20721070999E+02  0.47765674333E+02 -0.41222413605E+02  0.66409410563E+02  0.00000000000E+00 0.  1.
</event>
<event>
 8    1  0.6850220E-009  0.8506574E+02  0.7561462E-02  0.1315261E+00
          1   -1    0    0  501    0  0.00000000000E+00  0.00000000000E+00  0.64318924659E+02  0.64318924659E+02  0.00000000000E+00 0.  1.
         -1   -1    0    0    0  501 -0.00000000000E+00 -0.00000000000E+00 -0.16892157775E+03  0.16892157775E+03  0.00000000000E+00 0. -1.
         25    2    1    2    0    0 -0.25822528217E+02  0.90240417474E+01 -0.65887750089E+02  0.14400005042E+03  0.12508630068E+03 0.  0.
         23    2    1    2    0    0  0.25822528217E+02 -0.90240417474E+01 -0.38714903003E+02  0.89240451987E+02  0.75609379467E+02 0.  0.
          5    1    3    3  502    0  0.35243592380E+02  0.35926240995E+02 -0.57639942509E+02  0.76633158413E+02  0.41800000000E+01 0. -1.
         -5    1    3    3    0  502 -0.61066120597E+02 -0.26902199248E+02 -0.82478075804E+01  0.67366892010E+02  0.41800000000E+01 0. -1.
        -11    1    4    4    0    0  0.33110032675E+02 -0.20670475624E+02 -0.55310322301E+02  0.67696193241E+02  0.00000000000E+00 0. -1.
         11    1    4    4    0    0 -0.72875044576E+01  0.11646433877E+02  0.16595419298E+02  0.21544258746E+02  0.00000000000E+00 0.  1.
</event>
<event>
 8    1  0.6850220E-009  0.1454036E+03  0.7561462E-02  0.1206237E+00
         -3   -1    0    0    0  501 -0.00000000000E+00  0.00000000000E+00  0.14036257665E+04  0.14036257665E+04  0.00000000000E+00 0.  1.
          3   -1    0    0  501    0  0.00000000000E+00 -0.00000000000E+00 -0.15716166367E+02  0.15716166367E+02  0.00000000000E+00 0. -1.
         25    2    1    2    0    0 -0.88678668678E+02  0.46379796168E+02  0.78845329965E+03  0.80456267007E+03  0.12508993789E+03 0.  0.
         23    2    1    2    0    0  0.88678668678E+02 -0.46379796168E+02  0.59945630047E+03  0.61477926279E+03  0.92685996847E+02 0.  0.
          5    1    3    3  502    0 -0.10477947496E+03 -0.23418773594E+01  0.60488116750E+03  0.61390791000E+03  0.41800000000E+01 0.  1.
         -5    1    3    3    0  502  0.16100806279E+02  0.48721673528E+02  0.18357213215E+03  0.19065476007E+03  0.41800000000E+01 0.  1.
        -11    1    4    4    0    0  0.58866473706E+02 -0.73476241975E+02  0.36858470907E+03  0.38041912100E+03  0.00000000000E+00 0.  1.
         11    1    4    4    0    0  0.29812194972E+02  0.27096445807E+02  0.23087159140E+03  0.23436014179E+03  0.00000000000E+00 0. -1.
</event>
<event>
 8    1  0.6850220E-009  0.1409519E+03  0.7561462E-02  0.1212054E+00
         -4   -1    0    0    0  501 -0.00000000000E+00  0.00000000000E+00  0.31547397995E+03  0.31547397995E+03  0.00000000000E+00 0.  1.
          4   -1    0    0  501    0  0.00000000000E+00 -0.00000000000E+00 -0.64101030792E+02  0.64101030792E+02  0.00000000000E+00 0. -1.
         25    2    1    2    0    0 -0.67702200840E+02 -0.61039602339E+02  0.15708126411E+03  0.22052656249E+03  0.12509204683E+03 0.  0.
         23    2    1    2    0    0  0.67702200840E+02  0.61039602339E+02  0.94291685048E+02  0.15904844825E+03  0.89978141611E+02 0.  0.
          5    1    3    3  502    0  0.30696080296E+02  0.10287401068E+02  0.26051155240E+02  0.41763800780E+02  0.41800000000E+01 0. -1.
         -5    1    3    3    0  502 -0.98398281136E+02 -0.71327003408E+02  0.13103010887E+03  0.17876276171E+03  0.41800000000E+01 0. -1.
        -11    1    4    4    0    0  0.60536288577E+02  0.84036821739E+02  0.81384982014E+02  0.13172070809E+03  0.00000000000E+00 0. -1.
         11    1    4    4    0    0  0.71659122628E+01 -0.22997219400E+02  0.12906703034E+02  0.27327740154E+02  0.00000000000E+00 0.  1.
</event>
<event>
 8    1  0.6850220E-009  0.1612537E+03  0.7561462E-02  0.1187289E+00
          1   -1    0    0  501    0  0.00000000000E+00  0.00000000000E+00  0.73573581335E+02  0.73573581335E+02  0.00000000000E+00 0. -1.
         -1   -1    0    0    0  501 -0.00000000000E+00 -0.00000000000E+00 -0.39292268901E+03  0.39292268901E+03  0.00000000000E+00 0.  1.
         25    2    1    2    0    0  0.89700247482E+02  0.97217401367E+02 -0.20327968270E+03  0.27288572302E+03  0.12508649367E+03 0.  0.
         23    2    1    2    0    0 -0.89700247482E+02 -0.97217401367E+02 -0.11606942497E+03  0.19361054733E+03  0.80719112337E+02 0.  0.
          5    1    3    3  502    0  0.33331828714E+02 -0.20007789108E+02 -0.10844613693E+02  0.40575860762E+02  0.41800000000E+01 0. -1.
         -5    1    3    3    0  502  0.56368418768E+02  0.11722519047E+03 -0.19243506901E+03  0.23230986225E+03  0.41800000000E+01 0. -1.
        -11    1    4    4    0    0 -0.91294521729E+02 -0.46372268109E+02 -0.90584644783E+02  0.13671376967E+03  0.00000000000E+00 0.  1.
         11    1    4    4    0    0  0.15942742476E+01 -0.50845133258E+02 -0.25484780189E+02  0.56896777656E+02  0.00000000000E+00 0. -1.
</event>
<event>
 8    1  0.6850220E-009  0.5669356E+02  0.7561462E-02  0.1412256E+00
         -1   -1    0    0    0  501 -0.00000000000E+00  0.00000000000E+00  0.54596086981E+02  0.54596086981E+02  0.00000000000E+00 0.  1.
          1   -1    0    0  501    0  0.00000000000E+00 -0.00000000000E+00 -0.22269089000E+03  0.22269089000E+03  0.00000000000E+00 0. -1.
         25    2    1    2    0    0  0.48041365603E+00  0.12128013394E+02 -0.77497952251E+02  0.14764851652E+03  0.12508729880E+03 0.  0.
         23    2    1    2    0    0 -0.48041365603E+00 -0.12128013394E+02 -0.90596850767E+02  0.12963846046E+03  0.91929437916E+02 0.  0.
          5    1    3    3  502    0 -0.17074475950E+02  0.56590465390E+01 -0.10911884158E+03  0.11067048624E+03  0.41800000000E+01 0. -1.
         -5    1    3    3    0  502  0.17554889606E+02  0.64689668549E+01  0.31620889330E+02  0.36978030278E+02  0.41800000000E+01 0. -1.
        -11    1    4    4    0    0 -0.36288712762E+02  0.39395229990E+01 -0.68335416690E+01  0.37136071509E+02  0.00000000000E+00 0.  1.
         11    1    4    4    0    0  0.35808299106E+02 -0.16067536393E+02 -0.83763309098E+02  0.92502388952E+02  0.00000000000E+00 0. -1.
</event>
<event>
 8    1  0.6850220E-009  0.1146815E+03  0.7561462E-02  0.1252138E+00
          2   -1    0    0  501    0  0.00000000000E+00  0.00000000000E+00  0.77002953252E+02  0.77002953252E+02  0.00000000000E+00 0. -1.
         -2   -1    0    0    0  501 -0.00000000000E+00 -0.00000000000E+00 -0.19104145921E+03  0.19104145921E+03  0.00000000000E+00 0.  1.
         25    2    1    2    0    0 -0.89748325228E+01  0.52211851713E+02 -0.45722412477E+02  0.14332875555E+03  0.12508384423E+03 0.  0.
         23    2    1    2    0    0  0.89748325228E+01 -0.52211851713E+02 -0.68316093477E+02  0.12471565691E+03  0.89890385310E+02 0.  0.
          5    1    3    3  502    0 -0.57119847571E+02  0.64188534884E+02 -0.30338429283E+02  0.91218077640E+02  0.41800000000E+01 0. -1.
         -5    1    3    3    0  502  0.48145015048E+02 -0.11976683171E+02 -0.15383983194E+02  0.52110677914E+02  0.41800000000E+01 0. -1.
        -11    1    4    4    0    0  0.41369831326E+02 -0.14506917127E+02 -0.60007984999E+02  0.74316026886E+02  0.00000000000E+00 0.  1.
         11    1    4    4    0    0 -0.32394998803E+02 -0.37704934586E+02 -0.83081084779E+01  0.50399630019E+02  0.00000000000E+00 0. -1.
</event>
<event>
 8    1  0.6850220E-009  0.1116116E+03  0.7561462E-02  0.1257614E+00
          2   -1    0    0  501    0  0.00000000000E+00  0.00000000000E+00  0.12043327219E+04  0.12043327219E+04  0.00000000000E+00 0. -1.
         -2   -1    0    0    0  501 -0.00000000000E+00 -0.00000000000E+00 -0.18644610593E+02  0.18644610593E+02  0.00000000000E+00 0.  1.
         25    2    1    2    0    0  0.70234068846E+02  0.14908432151E+02  0.97181044447E+03  0.98245502310E+03  0.12508895499E+03 0.  0.
         23    2    1    2    0    0 -0.70234068846E+02 -0.14908432151E+02  0.21387766684E+03  0.24052230939E+03  0.83380088555E+02 0.  0.
          5    1    3    3  502    0  0.57109413199E+02 -0.36529525478E+02  0.26237815278E+03  0.27102704434E+03  0.41800000000E+01 0. -1.
         -5    1    3    3    0  502  0.13124655646E+02  0.51437957629E+02  0.70943229169E+03  0.71142797876E+03  0.41800000000E+01 0. -1.
        -11    1    4    4    0    0 -0.20685560427E+02  0.29152397086E+02  0.12259318044E+03  0.12769824805E+03  0.00000000000E+00 0.  1.
         11    1    4    4    0    0 -0.49548508419E+02 -0.44060829237E+02  0.91284486397E+02  0.11282406134E+03  0.00000000000E+00 0. -1.
</event>
<event>
 8    1  0.6850220E-009  0.1258041E+03  0.7561462E-02  0.1233818E+00
         -1   -1    0    0    0  501 -0.00000000000E+00  0.00000000000E+00  0.35673717496E+02  0.35673717496E+02  0.00000000000E+00 0.  1.
          1   -1    0    0  501    0  0.00000000000E+00 -0.00000000000E+00 -0.73041204423E+03  0.73041204423E+03  0.00000000000E+00 0. -1.
         25    2    1    2    0    0  0.76090249912E+02  0.30540304534E+02 -0.58068065209E+03  0.59963115970E+03  0.12508026077E+03 0.  0.
         23    2    1    2    0    0 -0.76090249912E+02 -0.30540304534E+02 -0.11405767464E+03  0.16645460203E+03  0.89305907189E+02 0.  0.
          5    1    3    3  502    0  0.85423543494E+02 -0.13274909659E+02 -0.49833748066E+03  0.50579751090E+03  0.41800000000E+01 0. -1.
         -5    1    3    3    0  502 -0.93332935820E+01  0.43815214194E+02 -0.82343171436E+02  0.93833648794E+02  0.41800000000E+01 0. -1.
        -11    1    4    4    0    0 -0.81234240317E+02 -0.53019349964E+02 -0.10061660591E+03  0.13976320923E+03  0.00000000000E+00 0.  1.
         11    1    4    4    0    0  0.51439904042E+01  0.22479045430E+02 -0.13441068739E+02  0.26691392799E+02  0.00000000000E+00 0. -1.
</event>
<event>
 8    1  0.6850220E-009  0.9406935E+02  0.7561462E-02  0.1293286E+00
          2   -1    0    0  501    0  0.00000000000E+00  0.00000000000E+00  0.11439848040E+03  0.11439848040E+03  0.00000000000E+00 0. -1.
         -2   -1    0    0    0  501 -0.00000000000E+00 -0.00000000000E+00 -0.14734731912E+03  0.14734731912E+03  0.00000000000E+00 0.  1.
         25    2    1    2    0    0 -0.37989948397E+02  0.25032509010E+02  0.40845843945E+02  0.13924028139E+03  0.12509840250E+03 0.  0.
         23    2    1    2    0    0  0.37989948397E+02 -0.25032509010E+02 -0.73794682666E+02  0.12250551814E+03  0.86556825831E+02 0.  0.
          5    1    3    3  502    0 -0.60900032079E+02 -0.28049324585E+01 -0.23413524933E+02  0.65439644735E+02  0.41800000000E+01 0.  1.
         -5    1    3    3    0  502  0.22910083682E+02  0.27837441468E+02  0.64259368878E+02  0.73800636653E+02  0.41800000000E+01 0.  1.
        -11    1    4    4    0    0  0.10925214331E+02 -0.51640221279E+02 -0.64659459193E+02  0.83468068296E+02  0.00000000000E+00 0.  1.
         11    1    4    4    0    0  0.27064734066E+02  0.26607712270E+02 -0.91352234732E+01  0.39037449842E+02  0.00000000000E+00 0. -1.
</event>
<event>
 8    1  0.6850220E-009  0.8835223E+02  0.7561462E-02  0.1306892E+00
         -2   -1    0    0    0  501 -0.00000000000E+00  0.00000000000E+00  0.50693712824E+02  0.50693712824E+02  0.00000000000E+00 0. -1.
          2   -1    0    0  501    0  0.00000000000E+00 -0.00000000000E+00 -0.35010794757E+03  0.35010794757E+03  0.00000000000E+00 0.  1.
         25    2    1    2    0    0 -0.23185988453E+01 -0.24552731328E+02 -0.27499456408E+03  0.30311336600E+03  0.12508992708E+03 0.  0.
         23    2    1    2    0    0  0.23185988453E+01  0.24552731328E+02 -0.24419670660E+02  0.97688294391E+02  0.91315223427E+02 0.  0.
          5    1    3    3  502    0  0.42168149401E+02 -0.24338433462E+02 -0.37891033296E+02  0.61836194672E+02  0.41800000000E+01 0. -1.
         -5    1    3    3    0  502 -0.44486748246E+02 -0.21429786659E+00 -0.23710353079E+03  0.24127717133E+03  0.41800000000E+01 0. -1.
        -11    1    4    4    0    0 -0.23572815794E+02  0.44574936021E+02  0.86494229783E+01  0.51160679076E+02  0.00000000000E+00 0. -1.
         11    1    4    4    0    0  0.25891414639E+02 -0.20022204692E+02 -0.33069093639E+02  0.46527615314E+02  0.00000000000E+00 0.  1.
</event>
<event>
 8    1  0.6850220E-009  0.1307747E+03  0.7561462E-02  0.1226311E+00
         -1   -1    0    0    0  501 -0.00000000000E+00  0.00000000000E+00  0.31881666774E+02  0.31881666774E+02  0.00000000000E+00 0.  1.
          1   -1    0    0  501    0  0.00000000000E+00 -0.00000000000E+00 -0.68005341637E+03  0.68005341637E+03  0.00000000000E+00 0. -1.
         25    2    1    2    0    0 -0.13227507536E+02  0.95815685238E+02 -0.40329960487E+03  0.43318308015E+03  0.12506557138E+03 0.  0.
         23    2    1    2    0    0  0.13227507536E+02 -0.95815685238E+02 -0.24487214472E+03  0.27875200299E+03  0.91568004336E+02 0.  0.
          5    1    3    3  502    0 -0.56898905783E+02  0.63139186897E+02 -0.13665296499E+03  0.16098306632E+03  0.41800000000E+01 0.  1.
         -5    1    3    3    0  502  0.43671398247E+02  0.32676498341E+02 -0.26664663988E+03  0.27220001383E+03  0.41800000000E+01 0.  1.
        -11    1    4    4    0    0 -0.53644468542E+01 -0.10201127534E+03 -0.14744970227E+03  0.17937807080E+03  0.00000000000E+00 0. -1.
         11    1    4    4    0    0  0.18591954390E+02  0.61955901020E+01 -0.97422442454E+02  0.99373932188E+02  0.00000000000E+00 0.  1.
</event>
<event>
 8    1  0.6850220E-009  0.1082396E+03  0.7561462E-02  0.1263865E+00
         -2   -1    0    0    0  501 -0.00000000000E+00  0.00000000000E+00  0.15620738120E+02  0.15620738120E+02  0.00000000000E+00 0.  1.
          2   -1    0    0  501    0  0.00000000000E+00 -0.00000000000E+00 -0.10432343389E+04  0.10432343389E+04  0.00000000000E+00 0. -1.
         25    2    1    2    0    0 -0.43960552729E+01  0.35935280939E+02 -0.81197402158E+03  0.82235050581E+03  0.12509145841E+03 0.  0.
         23    2    1    2    0    0  0.43960552729E+01 -0.35935280939E+02 -0.21563957924E+03  0.23650457125E+03  0.90129431204E+02 0.  0.
          5    1    3    3  502    0  0.56206117729E+02  0.24527423635E+02 -0.27245199825E+03  0.27929963468E+03  0.41800000000E+01 0. -1.
         -5    1    3    3    0  502 -0.60602173001E+02  0.11407857304E+02 -0.53952202333E+03  0.54305087114E+03  0.41800000000E+01 0. -1.
        -11    1    4    4    0    0  0.44250736829E+02 -0.28576155878E+02 -0.87745477854E+02  0.10234252918E+03  0.00000000000E+00 0. -1.
         11    1    4    4    0    0 -0.39854681556E+02 -0.73591250607E+01 -0.12789410138E+03  0.13416204207E+03  0.00000000000E+00 0.  1.
</event>
<event>
 8    1  0.6850220E-009  0.9578189E+02  0.7561462E-02  0.1289425E+00
          1   -1    0    0  501    0  0.00000000000E+00  0.00000000000E+00  0.16586569670E+03  0.16586569670E+03  0.00000000000E+00 0. -1.
         -1   -1    0    0    0  501 -0.00000000000E+00 -0.00000000000E+00 -0.13333284398E+03  0.13333284398E+03  0.00000000000E+00 0.  1.
         25    2    1    2    0    0 -0.42451877709E+02  0.48372901399E+02 -0.58507717728E+02  0.15236054728E+03  0.12509390002E+03 0.  0.
         23    2    1    2    0    0  0.42451877709E+02 -0.48372901399E+02  0.91040570450E+02  0.14683799341E+03  0.95555802177E+02 0.  0.
          5    1    3    3  502    0 -0.18729589772E+02  0.63643056057E+02  0.19523110385E+02  0.69281024505E+02  0.41800000000E+01 0.  1.
         -5    1    3    3    0  502 -0.23722287937E+02 -0.15270154658E+02 -0.78030828113E+02  0.83079522773E+02  0.41800000000E+01 0.  1.
        -11    1    4    4    0    0 -0.14229295730E+02  0.82535125569E+01 -0.89346078071E+01  0.18719523049E+02  0.00000000000E+00 0.  1.
         11    1    4    4    0    0  0.56681173439E+02 -0.56626413956E+02  0.99975178257E+02  0.12811847036E+03  0.00000000000E+00 0. -1.
</event>
<event>
 8    1  0.6850220E-009  0.3362040E+03  0.7561462E-02  0.1068424E+00
          1   -1    0    0  501    0  0.00000000000E+00  0.00000000000E+00  0.67158666530E+03  0.67158666530E+03  0.00000000000E+00 0. -1.
         -1   -1    0    0    0  501 -0.00000000000E+00 -0.00000000000E+00 -0.21095893660E+03  0.21095893660E+03  0.00000000000E+00 0.  1.
         25    2    1    2    0    0  0.17948653310E+03  0.27575430060E+03  0.61178412990E+02  0.35727528014E+03  0.12508787998E+03 0.  0.
         23    2    1    2    0    0 -0.17948653310E+03 -0.27575430060E+03  0.39944931571E+03  0.52527032176E+03  0.89962799156E+02 0.  0.
          5    1    3    3  502    0 -0.87269222590E+01  0.31973152219E+02 -0.19753429868E+02  0.38808659169E+02  0.41800000000E+01 0.  1.
         -5    1    3    3    0  502  0.18821345536E+03  0.24378114838E+03  0.80931842858E+02  0.31846662097E+03  0.41800000000E+01 0.  1.
        -11    1    4    4    0    0 -0.11823845342E+03 -0.14899128184E+03  0.29060060032E+03  0.34731461651E+03  0.00000000000E+00 0.  1.
         11    1    4    4    0    0 -0.61248079677E+02 -0.12676301876E+03  0.10884871539E+03  0.17795570525E+03  0.00000000000E+00 0. -1.
</event>
<event>
 8    1  0.6850220E-009  0.9791504E+02  0.7561462E-02  0.1284742E+00
         -3   -1    0    0    0  501 -0.00000000000E+00  0.00000000000E+00  0.30964894445E+03  0.30964894445E+03  0.00000000000E+00 0.  1.
          3   -1    0    0  501    0  0.00000000000E+00 -0.00000000000E+00 -0.49035709262E+02  0.49035709262E+02  0.00000000000E+00 0. -1.
         25    2    1    2    0    0  0.39105097051E+02  0.39172282993E+02  0.14502102071E+03  0.19935359431E+03  0.12508829979E+03 0.  0.
         23    2    1    2    0    0 -0.39105097051E+02 -0.39172282993E+02  0.11559221447E+03  0.15933105940E+03  0.94663351263E+02 0.  0.
          5    1    3    3  502    0 -0.17900239851E+02 -0.28529722796E+01  0.12396061230E+03  0.12534856935E+03  0.41800000000E+01 0. -1.
         -5    1    3    3    0  502  0.57005336902E+02  0.42025255273E+02  0.21060408413E+02  0.74005024955E+02  0.41800000000E+01 0. -1.
        -11    1    4    4    0    0 -0.37081629669E+02 -0.67963181429E+02  0.65018151884E+02  0.10110094640E+03  0.00000000000E+00 0. -1.
         11    1    4    4    0    0 -0.20234673820E+01  0.28790898436E+02  0.50574062590E+02  0.58230112999E+02  0.00000000000E+00 0.  1.
</event>
<event>
 8    1  0.6850220E-009  0.9659897E+02  0.7561462E-02  0.1287615E+00
          2   -1    0    0  501    0  0.00000000000E+00  0.00000000000E+00  0.12508389381E+03  0.12508389381E+03  0.00000000000E+00 0.  1.
         -2   -1    0    0    0  501 -0.00000000000E+00 -0.00000000000E+00 -0.12841811154E+03  0.12841811154E+03  0.00000000000E+00 0. -1.
         25    2    1    2    0    0 -0.43834166914E+02 -0.41603092633E+02  0.12985580287E+02  0.13952703724E+03  0.12508763856E+03 0.  0.
         23    2    1    2    0    0  0.43834166914E+02  0.41603092633E+02 -0.16319798016E+02  0.11397496810E+03  0.95245504048E+02 0.  0.
          5    1    3    3  502    0  0.13315040562E+01  0.37048514188E+02 -0.20724733896E+02  0.42677304292E+02  0.41800000000E+01 0.  1.
         -5    1    3    3    0  502 -0.45165670970E+02 -0.78651606821E+02  0.33710314183E+02  0.96849732947E+02  0.41800000000E+01 0.  1.
        -11    1    4    4    0    0  0.27073288873E+02  0.91614488088E+01  0.38596306032E+02  0.48026762893E+02  0.00000000000E+00 0.  1.
         11    1    4    4    0    0  0.16760878041E+02  0.32441643824E+02 -0.54916104048E+02  0.65948205211E+02  0.00000000000E+00 0. -1.
</event>
<event>
 8    1  0.6850220E-009  0.1389399E+03  0.7561462E-02  0.1214763E+00
         -4   -1    0    0    0  501 -0.00000000000E+00  0.00000000000E+00  0.29108912219E+02  0.29108912219E+02  0.00000000000E+00 0.  1.
          4   -1    0    0  501    0  0.00000000000E+00 -0.00000000000E+00 -0.78766664545E+03  0.78766664545E+03  0.00000000000E+00 0. -1.
         25    2    1    2    0    0 -0.19856063550E+02  0.92466067299E+02 -0.28146989733E+03  0.32220652050E+03  0.12508997517E+03 0.  0.
         23    2    1    2    0    0  0.19856063550E+02 -0.92466067299E+02 -0.47708783590E+03  0.49456903717E+03  0.89674369243E+02 0.  0.
          5    1    3    3  502    0 -0.65131109984E+02  0.74070653823E+02 -0.23389623183E+03  0.25387682626E+03  0.41800000000E+01 0.  1.
         -5    1    3    3    0  502  0.45275046434E+02  0.18395413476E+02 -0.47573665501E+02  0.68329694246E+02  0.41800000000E+01 0.  1.
        -11    1    4    4    0    0  0.42565421543E+02 -0.97905693744E+02 -0.40196415444E+03  0.41589965308E+03  0.00000000000E+00 0.  1.
         11    1    4    4    0    0 -0.22709357993E+02  0.54396264448E+01 -0.75123681462E+02  0.78669384088E+02  0.00000000000E+00 0. -1.
</event>
<event>
 8    1  0.6850220E-009  0.1035804E+03  0.7561462E-02  0.1272942E+00
          1   -1    0    0  501    0  0.00000000000E+00  0.00000000000E+00  0.18640965504E+03  0.18640965504E+03  0.00000000000E+00 0. -1.
         -1   -1    0    0    0  501 -0.00000000000E+00 -0.00000000000E+00 -0.86318631473E+02  0.86318631473E+02  0.00000000000E+00 0.  1.
         25    2    1    2    0    0  0.38131623343E+02 -0.86612055427E+01 -0.14847748325E+01  0.13106767839E+03  0.12508994597E+03 0.  0.
         23    2    1    2    0    0 -0.38131623343E+02  0.86612055427E+01  0.10157579840E+03  0.14166060812E+03  0.90669994448E+02 0.  0.
          5    1    3    3  502    0 -0.43408957736E+02 -0.12615837128E+02  0.14737624762E+02  0.47730147096E+02  0.41800000000E+01 0. -1.
         -5    1    3    3    0  502  0.81540581079E+02  0.39546315849E+01 -0.16222399594E+02  0.83337531294E+02  0.41800000000E+01 0. -1.
        -11    1    4    4    0    0 -0.51696809730E+02  0.26111493864E+02  0.10438928484E+03  0.11937961734E+03  0.00000000000E+00 0. -1.
         11    1    4    4    0    0  0.13565186387E+02 -0.17450288321E+02 -0.28134864381E+01  0.22280990780E+02  0.00000000000E+00 0.  1.
</event>
<event>
 8    1  0.6850220E-009  0.5171627E+02  0.7561462E-02  0.1436298E+00
         -2   -1    0    0    0  501 -0.00000000000E+00  0.00000000000E+00  0.67439733960E+02  0.67439733960E+02  0.00000000000E+00 0. -1.
          2   -1    0    0  501    0  0.00000000000E+00 -0.00000000000E+00 -0.19790037570E+03  0.19790037570E+03  0.00000000000E+00 0.  1.
         25    2    1    2    0    0 -0.16305907751E+01  0.41346126641E+02 -0.67232755887E+02  0.14793352022E+03  0.12510764136E+03 0.  0.
         23    2    1    2    0    0  0.16305907751E+01 -0.41346126641E+02 -0.63227885853E+02  0.11740658944E+03  0.89857557722E+02 0.  0.
          5    1    3    3  502    0 -0.60351543756E+01  0.39623963242E+02  0.30161113645E+02  0.50335342729E+02  0.41800000000E+01 0. -1.
         -5    1    3    3    0  502  0.44045636005E+01  0.17221633993E+01 -0.97393869532E+02  0.97598177492E+02  0.41800000000E+01 0. -1.
        -11    1    4    4    0    0  0.18458985793E+02 -0.33512925378E+02 -0.82320941067E+02  0.90777682621E+02  0.00000000000E+00 0.  1.
         11    1    4    4    0    0 -0.16828395018E+02 -0.78332012633E+01  0.19093055214E+02  0.26628906818E+02  0.00000000000E+00 0. -1.
</event>
<event>
 8    1  0.6850220E-009  0.9912285E+02  0.7561462E-02  0.1282151E+00
          1   -1    0    0  501    0  0.00000000000E+00  0.00000000000E+00  0.60835011439E+02  0.60835011439E+02  0.00000000000E+00 0. -1.
         -1   -1    0    0    0  501 -0.00000000000E+00 -0.00000000000E+00 -0.20489153206E+03  0.20489153206E+03  0.00000000000E+00 0.  1.
         25    2    1    2    0    0 -0.14710914636E+02 -0.41287881546E+01 -0.41021687291E+02  0.13253137081E+03  0.12509327528E+03 0.  0.
         23    2    1    2    0    0  0.14710914636E+02  0.41287881546E+01 -0.10303483333E+03  0.13319517269E+03  0.83013970192E+02 0.  0.
          5    1    3    3  502    0  0.78557315586E+00  0.59369411690E+02 -0.27893529828E+02  0.65733291230E+02  0.41800000000E+01 0.  1.
         -5    1    3    3    0  502 -0.15496487792E+02 -0.63498199845E+02 -0.13128157463E+02  0.66798079581E+02  0.41800000000E+01 0.  1.
        -11    1    4    4    0    0  0.38316919098E+02 -0.16652208488E+02 -0.89859608506E+02  0.99097081579E+02  0.00000000000E+00 0.  1.
         11    1    4    4    0    0 -0.23606004462E+02  0.20780996643E+02 -0.13175224825E+02  0.34098091110E+02  0.00000000000E+00 0. -1.
</event>
<event>
 8    1  0.6850220E-009  0.1270247E+03  0.7561462E-02  0.1231939E+00
         -2   -1    0    0    0  501 -0.00000000000E+00  0.00000000000E+00  0.26463951613E+02  0.26463951613E+02  0.00000000000E+00 0.  1.
          2   -1    0    0  501    0  0.00000000000E+00 -0.00000000000E+00 -0.18258280990E+04  0.18258280990E+04  0.00000000000E+00 0. -1.
         25    2    1    2    0    0  0.11331407963E+03  0.30845282850E+02 -0.15694775550E+04  0.15788279686E+04  0.12508575791E+03 0.  0.
         23    2    1    2    0    0 -0.11331407963E+03 -0.30845282850E+02 -0.22988659236E+03  0.27346408193E+03  0.90239939302E+02 0.  0.
          5    1    3    3  502    0  0.87206586373E+02  0.49001841196E+02 -0.56254636360E+03  0.57138608029E+03  0.41800000000E+01 0. -1.
         -5    1    3    3    0  502  0.26107493253E+02 -0.18156558347E+02 -0.10069311914E+04  0.10074418884E+04  0.41800000000E+01 0. -1.
        -11    1    4    4    0    0 -0.84945347917E+02 -0.77904781914E+01 -0.21945322693E+03  0.23544876829E+03  0.00000000000E+00 0. -1.
         11    1    4    4    0    0 -0.28368731710E+02 -0.23054804658E+02 -0.10433365430E+02  0.38015313636E+02  0.00000000000E+00 0.  1.
</event>
<event>
 8    1  0.6850220E-009  0.1056042E+03  0.7561462E-02  0.1268934E+00
         -1   -1    0    0    0  501 -0.00000000000E+00  0.00000000000E+00  0.33810402569E+02  0.33810402569E+02  0.00000000000E+00 0.  1.
          1   -1    0    0  501    0  0.00000000000E+00 -0.00000000000E+00 -0.35748933614E+03  0.35748933614E+03  0.00000000000E+00 0. -1.
         25    2    1    2    0    0 -0.43045920505E+01  0.11974248975E+02 -0.16508211677E+03  0.20751210537E+03  0.12508899411E+03 0.  0.
         23    2    1    2    0    0  0.43045920505E+01 -0.11974248975E+02 -0.15859681680E+03  0.18378763334E+03  0.91994737444E+02 0.  0.
          5    1    3    3  502    0 -0.45920061511E+02  0.50681582984E+02 -0.83867123617E+02  0.10829793039E+03  0.41800000000E+01 0. -1.
         -5    1    3    3    0  502  0.41615469460E+02 -0.38707334009E+02 -0.81214993150E+02  0.99214174980E+02  0.41800000000E+01 0. -1.
        -11    1    4    4    0    0  0.18424912753E+02  0.33420268959E+02 -0.36689647341E+02  0.52938851605E+02  0.00000000000E+00 0.  1.
         11    1    4    4    0    0 -0.14120320702E+02 -0.45394517934E+02 -0.12190716946E+03  0.13084878174E+03  0.00000000000E+00 0. -1.
</event>
<event>
 7    1  0.6850220E-009  0.9367786E+02  0.7561462E-02  0.1294182E+00
          1   -1    0    0  501    0  0.00000000000E+00  0.00000000000E+00  0.10267446832E+03  0.10267446832E+03  0.00000000000E+00 0. -1.
         -1   -1    0    0    0  501 -0.00000000000E+00 -0.00000000000E+00 -0.10147444111E+03  0.10147444111E+03  0.00000000000E+00 0.  1.
         25    2    1    2    0    0  0.51288045771E+02  0.60252731906E+01  0.64388935689E+01  0.13548499706E+03  0.12509179638E+03 0.  0.
          5    1    3    3  502    0  0.77868462521E+02  0.42668714068E+02  0.11951206757E+02  0.89690692709E+02  0.41800000000E+01 0.  1.
         -5    1    3    3    0  502 -0.26580416750E+02 -0.36643440877E+02 -0.55123131876E+01  0.45794304347E+02  0.41800000000E+01 0.  1.
        -11    1    1    2    0    0 -0.33906037870E+02 -0.96396043286E+01  0.17871584983E+02  0.39521322416E+02  0.00000000000E+00 0. -1.
         11    1    1    2    0    0 -0.17382007901E+02  0.36143311380E+01 -0.23110451343E+02  0.29142589959E+02  0.00000000000E+00 0.  1.
</event>
<event>
 8    1  0.6850220E-009  0.1150968E+03  0.7561462E-02  0.1251412E+00
         -2   -1    0    0    0  501 -0.00000000000E+00  0.00000000000E+00  0.44643648714E+02  0.44643648714E+02  0.00000000000E+00 0.  1.
          2   -1    0    0  501    0  0.00000000000E+00 -0.00000000000E+00 -0.50159335413E+03  0.50159335413E+03  0.00000000000E+00 0. -1.
         25    2    1    2    0    0  0.16630917855E+01 -0.99965298021E+02 -0.20459893157E+03  0.25981297324E+03  0.12508489750E+03 0.  0.
         23    2    1    2    0    0 -0.16630917855E+01  0.99965298021E+02 -0.25235077385E+03  0.28642402960E+03  0.91443889851E+02 0.  0.
          5    1    3    3  502    0 -0.27899071603E+01 -0.42012648515E+02  0.46820259860E+01  0.42570412079E+02  0.41800000000E+01 0.  1.
         -5    1    3    3    0  502  0.44529989458E+01 -0.57952649506E+02 -0.20928095756E+03  0.21724256116E+03  0.41800000000E+01 0.  1.
        -11    1    4    4    0    0  0.38135590575E+02  0.27789714876E+02 -0.13509419851E+03  0.14309798738E+03  0.00000000000E+00 0.  1.
         11    1    4    4    0    0 -0.39798682360E+02  0.72175583145E+02 -0.11725657534E+03  0.14332604223E+03  0.00000000000E+00 0. -1.
</event>
<event>
 8    1  0.6850220E-009  0.3349476E+03  0.7561462E-02  0.1068968E+00
         -2   -1    0    0    0  501 -0.00000000000E+00  0.00000000000E+00  0.52262356236E+02  0.52262356236E+02  0.00000000000E+00 0.  1.
          2   -1    0    0  501    0  0.00000000000E+00 -0.00000000000E+00 -0.21586213990E+04  0.21586213990E+04  0.00000000000E+00 0. -1.
         25    2    1    2    0    0 -0.22170407477E+03 -0.22740523554E+03 -0.11097211999E+04  0.11610316859E+04  0.12509035224E+03 0.  0.
         23    2    1    2    0    0  0.22170407477E+03  0.22740523554E+03 -0.99663784292E+03  0.10498520694E+04  0.89646749802E+02 0.  0.
          5    1    3    3  502    0 -0.61781613884E+02 -0.15200346763E+03 -0.50786237032E+03  0.53372622343E+03  0.41800000000E+01 0. -1.
         -5    1    3    3    0  502 -0.15992246089E+03 -0.75401767915E+02 -0.60185882957E+03  0.62730546246E+03  0.41800000000E+01 0. -1.
        -11    1    4    4    0    0  0.15135448411E+03  0.20550596297E+03 -0.80726718249E+03  0.84665293043E+03  0.00000000000E+00 0. -1.
         11    1    4    4    0    0  0.70349590659E+02  0.21899272572E+02 -0.18937066043E+03  0.20319913897E+03  0.00000000000E+00 0.  1.
</event>
<event>
 8    1  0.6850220E-009  0.1058629E+03  0.7561462E-02  0.1268429E+00
          2   -1    0    0  501    0  0.00000000000E+00  0.00000000000E+00  0.82064738293E+02  0.82064738293E+02  0.00000000000E+00 0. -1.
         -2   -1    0    0    0  501 -0.00000000000E+00 -0.00000000000E+00 -0.20887718054E+03  0.20887718054E+03  0.00000000000E+00 0.  1.
         25    2    1    2    0    0  0.59147211798E+02 -0.54236539510E+01 -0.91009106442E+02  0.16570660372E+03  0.12509281504E+03 0.  0.
         23    2    1    2    0    0 -0.59147211798E+02  0.54236539510E+01 -0.35803335803E+02  0.12523531511E+03  0.10427941604E+03 0.  0.
          5    1    3    3  502    0  0.98369274462E+02 -0.83152231367E+01 -0.61857456487E+02  0.11657390110E+03  0.41800000000E+01 0.  1.
         -5    1    3    3    0  502 -0.39222062663E+02  0.28915691856E+01 -0.29151649955E+02  0.49132702623E+02  0.41800000000E+01 0.  1.
        -11    1    4    4    0    0 -0.38765151929E+02  0.24163585808E+02 -0.68535445981E+02  0.82363361023E+02  0.00000000000E+00 0.  1.
         11    1    4    4    0    0 -0.20382059870E+02 -0.18739931857E+02  0.32732110178E+02  0.42871954087E+02  0.00000000000E+00 0. -1.
</event>
<event>
 8    1  0.6850220E-009  0.1756146E+03  0.7561462E-02  0.1172116E+00
          2   -1    0    0  501    0  0.00000000000E+00  0.00000000000E+00  0.12910873883E+04  0.12910873883E+04  0.00000000000E+00 0. -1.
         -2   -1    0    0    0  501 -0.00000000000E+00 -0.00000000000E+00 -0.26592038713E+02  0.26592038713E+02  0.00000000000E+00 0.  1.
         25    2    1    2    0    0 -0.80870979430E+02 -0.12149394308E+03  0.78313340474E+03  0.80637930298E+03  0.12509499246E+03 0.  0.
         23    2    1    2    0    0  0.80870979430E+02  0.12149394308E+03  0.48136194486E+03  0.51130012404E+03  0.91747486982E+02 0.  0.
          5    1    3    3  502    0 -0.11338070178E+03 -0.86599979968E+02  0.53777288667E+03  0.55639184942E+03  0.41800000000E+01 0.  1.
         -5    1    3    3    0  502  0.32509722352E+02 -0.34893963115E+02  0.24536051807E+03  0.24998745356E+03  0.41800000000E+01 0.  1.
        -11    1    4    4    0    0  0.67621690711E+02  0.12881566918E+03  0.47099496879E+03  0.49295276681E+03  0.00000000000E+00 0. -1.
         11    1    4    4    0    0  0.13249288719E+02 -0.73217260947E+01  0.10366976068E+02  0.18347357231E+02  0.00000000000E+00 0.  1.
</event>
<event>
 8    1  0.6850220E-009  0.8668104E+02  0.7561462E-02  0.1311094E+00
          2   -1    0    0  501    0  0.00000000000E+00  0.00000000000E+00  0.15666305086E+03  0.15666305086E+03  0.00000000000E+00 0. -1.
         -2   -1    0    0    0  501 -0.00000000000E+00 -0.00000000000E+00 -0.88725289545E+02  0.88725289545E+02  0.00000000000E+00 0.  1.
         25    2    1    2    0    0  0.15161222901E+02  0.37982407580E+02  0.60825704194E+02  0.14500605713E+03  0.12511780188E+03 0.  0.
         23    2    1    2    0    0 -0.15161222901E+02 -0.37982407580E+02  0.71120571181E+01  0.10038228328E+03  0.91397458792E+02 0.  0.
          5    1    3    3  502    0 -0.79536254092E+01  0.68692462732E+02 -0.41448615214E+01  0.69401490404E+02  0.41800000000E+01 0.  1.
         -5    1    3    3    0  502  0.23114848310E+02 -0.30710055152E+02  0.64970565715E+02  0.75604566721E+02  0.41800000000E+01 0.  1.
        -11    1    4    4    0    0 -0.19156710270E+02  0.68996024976E+01  0.39806024601E+02  0.44711337013E+02  0.00000000000E+00 0. -1.
         11    1    4    4    0    0  0.39954873696E+01 -0.44882010077E+02 -0.32693967483E+02  0.55670946262E+02  0.00000000000E+00 0.  1.
</event>
<event>
 8    1  0.6850220E-009  0.1042316E+03  0.7561462E-02  0.1271641E+00
          1   -1    0    0  501    0  0.00000000000E+00  0.00000000000E+00  0.12497110495E+03  0.12497110495E+03  0.00000000000E+00 0. -1.
         -1   -1    0    0    0  501 -0.00000000000E+00 -0.00000000000E+00 -0.25907728730E+03  0.25907728730E+03  0.00000000000E+00 0.  1.
         25    2    1    2    0    0 -0.59538128980E+02  0.64935246880E+02 -0.19250254804E+03  0.24589823558E+03  0.12508931278E+03 0.  0.
         23    2    1    2    0    0  0.59538128980E+02 -0.64935246880E+02  0.58396365694E+02  0.13815015667E+03  0.88960413506E+02 0.  0.
          5    1    3    3  502    0 -0.50666022329E+01 -0.47008896732E+01 -0.14542287417E+03  0.14564701698E+03  0.41800000000E+01 0. -1.
         -5    1    3    3    0  502 -0.54471526747E+02  0.69636136553E+02 -0.47079673863E+02  0.10025121860E+03  0.41800000000E+01 0. -1.
        -11    1    4    4    0    0  0.24862154213E+02  0.11912174336E+02  0.45015038729E+02  0.52786175476E+02  0.00000000000E+00 0.  1.
         11    1    4    4    0    0  0.34675974767E+02 -0.76847421216E+02  0.13381326964E+02  0.85363981192E+02  0.00000000000E+00 0. -1.
</event>
<event>
 8    1  0.6850220E-009  0.1112224E+03  0.7561462E-02  0.1258323E+00
          2   -1    0    0  501    0  0.00000000000E+00  0.00000000000E+00  0.12078545106E+04  0.12078545106E+04  0.00000000000E+00 0. -1.
         -2   -1    0    0    0  501 -0.00000000000E+00 -0.00000000000E+00 -0.11247177766E+02  0.11247177766E+02  0.00000000000E+00 0.  1.
         25    2    1    2    0    0  0.31500503946E+02  0.13760989352E+02  0.80032970516E+03  0.81077517913E+03  0.12508839897E+03 0.  0.
         23    2    1    2    0    0 -0.31500503946E+02 -0.13760989352E+02  0.39627762763E+03  0.40832650919E+03  0.92265558970E+02 0.  0.
          5    1    3    3  502    0  0.75503228723E+02 -0.67659091501E+01  0.59048331919E+03  0.59534404987E+03  0.41800000000E+01 0. -1.
         -5    1    3    3    0  502 -0.44002724777E+02  0.20526898502E+02  0.20984638597E+03  0.21543112926E+03  0.41800000000E+01 0. -1.
        -11    1    4    4    0    0 -0.58106738799E+02  0.13544817152E+02  0.21795734535E+03  0.22597623671E+03  0.00000000000E+00 0.  1.
         11    1    4    4    0    0  0.26606234853E+02 -0.27305806504E+02  0.17832028228E+03  0.18235027248E+03  0.00000000000E+00 0. -1.
</event>
<event>
 8    1  0.6850220E-009  0.1831577E+03  0.7561462E-02  0.1164782E+00
         -2   -1    0    0    0  501 -0.00000000000E+00  0.00000000000E+00  0.53266588922E+03  0.53266588922E+03  0.00000000000E+00 0.  1.
          2   -1    0    0  501    0  0.00000000000E+00 -0.00000000000E+00 -0.74075093274E+02  0.74075093274E+02  0.00000000000E+00 0. -1.
         25    2    1    2    0    0  0.14178292663E+03 -0.82240257068E+02  0.28242166832E+03  0.34967992921E+03  0.12509274957E+03 0.  0.
         23    2    1    2    0    0 -0.14178292663E+03  0.82240257068E+02  0.17616912763E+03  0.25706105328E+03  0.90437632740E+02 0.  0.
          5    1    3    3  502    0  0.10614992285E+02 -0.69624051416E+02  0.68120069086E+02  0.98071416881E+02  0.41800000000E+01 0. -1.
         -5    1    3    3    0  502  0.13116793435E+03 -0.12616205652E+02  0.21430159923E+03  0.25160851233E+03  0.41800000000E+01 0. -1.
        -11    1    4    4    0    0 -0.98642161455E+02  0.56027463765E+02  0.55568574659E+02  0.12632188726E+03  0.00000000000E+00 0. -1.
         11    1    4    4    0    0 -0.43140765178E+02  0.26212793303E+02  0.12060055297E+03  0.13073916602E+03  0.00000000000E+00 0.  1.
</event>
<event>
 8    1  0.6850220E-009  0.7132989E+02  0.7561462E-02  0.1355628E+00
         -2   -1    0    0    0  501 -0.00000000000E+00  0.00000000000E+00  0.74796436765E+02  0.74796436765E+02  0.00000000000E+00 0.  1.
          2   -1    0    0  501    0  0.00000000000E+00 -0.00000000000E+00 -0.18763573702E+03  0.18763573702E+03  0.00000000000E+00 0. -1.
         25    2    1    2    0    0  0.54693453860E+01  0.31630545862E+02 -0.84786599606E+02  0.15448498201E+03  0.12508571871E+03 0.  0.
         23    2    1    2    0    0 -0.54693453860E+01 -0.31630545862E+02 -0.28052700652E+02  0.10794719178E+03  0.99172763539E+02 0.  0.
          5    1    3    3  502    0 -0.22548500132E+02  0.19190170302E+02  0.25897399398E+02  0.39558124198E+02  0.41800000000E+01 0. -1.
         -5    1    3    3    0  502  0.28017845518E+02  0.12440375560E+02 -0.11068399900E+03  0.11492685781E+03  0.41800000000E+01 0. -1.
        -11    1    4    4    0    0 -0.36813486478E+02 -0.34357385960E+02  0.16866820847E+02  0.53105107120E+02  0.00000000000E+00 0.  1.
         11    1    4    4    0    0  0.31344141092E+02  0.27268400981E+01 -0.44919521499E+02  0.54842084656E+02  0.00000000000E+00 0. -1.
</event>
<event>
 8    1  0.6850220E-009  0.1167375E+03  0.7561462E-02  0.1248578E+00
          2   -1    0    0  501    0  0.00000000000E+00  0.00000000000E+00  0.52529484038E+03  0.52529484038E+03  0.00000000000E+00 0. -1.
         -2   -1    0    0    0  501 -0.00000000000E+00 -0.00000000000E+00 -0.32788149531E+02  0.32788149531E+02  0.00000000000E+00 0.  1.
         25    2    1    2    0    0 -0.54860895628E+02 -0.18780817875E+02  0.36071160321E+03  0.38616380092E+03  0.12508870239E+03 0.  0.
         23    2    1    2    0    0  0.54860895628E+02  0.18780817875E+02  0.13179508764E+03  0.17191918899E+03  0.93935219309E+02 0.  0.
          5    1    3    3  502    0 -0.77719777649E+02  0.21639929206E+02  0.15015687455E+03  0.17050867940E+03  0.41800000000E+01 0. -1.
         -5    1    3    3    0  502  0.22858882021E+02 -0.40420747082E+02  0.21055472866E+03  0.21565512153E+03  0.41800000000E+01 0. -1.
        -11    1    4    4    0    0 -0.73872126589E+01 -0.27515122308E+02  0.16402550011E+02  0.32873948855E+02  0.00000000000E+00 0.  1.
         11    1    4    4    0    0  0.62248108287E+02  0.46295940183E+02  0.11539253763E+03  0.13904524013E+03  0.00000000000E+00 0. -1.
</event>
<event>
 8    1  0.6850220E-009  0.1121530E+03  0.7561462E-02  0.1256634E+00
          2   -1    0    0  501    0  0.00000000000E+00  0.00000000000E+00  0.40337624832E+03  0.40337624832E+03  0.00000000000E+00 0. -1.
         -2   -1    0    0    0  501 -0.00000000000E+00 -0.00000000000E+00 -0.53530949742E+02  0.53530949742E+02  0.00000000000E+00 0.  1.
         25    2    1    2    0    0 -0.72746837941E+02  0.59641828721E+02  0.24298518698E+03  0.28902970271E+03  0.12508843988E+03 0.  0.
         23    2    1    2    0    0  0.72746837941E+02 -0.59641828721E+02  0.10686011160E+03  0.16787749535E+03  0.88963587115E+02 0.  0.
          5    1    3    3  502    0 -0.32225125176E+02  0.19650055088E+02  0.22642896776E+03  0.22959123067E+03  0.41800000000E+01 0.  1.
         -5    1    3    3    0  502 -0.40521712765E+02  0.39991773634E+02  0.16556219219E+02  0.59438472041E+02  0.41800000000E+01 0.  1.
        -11    1    4    4    0    0  0.14262152740E+02 -0.68610474138E+02  0.52946283561E+02  0.87830035325E+02  0.00000000000E+00 0.  1.
         11    1    4    4    0    0  0.58484685201E+02  0.89686454170E+01  0.53913828036E+02  0.80047460029E+02  0.00000000000E+00 0. -1.
</event>
<event>
 8    1  0.6850220E-009  0.8403723E+02  0.7561462E-02  0.1317970E+00
          2   -1    0    0  501    0  0.00000000000E+00  0.00000000000E+00  0.17913498516E+03  0.17913498516E+03  0.00000000000E+00 0.  1.
         -2   -1    0    0    0  501 -0.00000000000E+00 -0.00000000000E+00 -0.84831321016E+02  0.84831321016E+02  0.00000000000E+00 0. -1.
         25    2    1    2    0    0  0.36736451156E+02  0.34976413494E+01  0.20936309041E+02  0.13209680159E+03  0.12509770428E+03 0.  0.
         23    2    1    2    0    0 -0.36736451156E+02 -0.34976413494E+01  0.73367355103E+02  0.13186950458E+03  0.10317459525E+03 0.  0.
          5    1    3    3  502    0  0.41822163127E+01  0.26743066089E+02  0.66142468942E+02  0.71588973417E+02  0.41800000000E+01 0. -1.
         -5    1    3    3    0  502  0.32554234843E+02 -0.23245424739E+02 -0.45206159901E+02  0.60507828176E+02  0.41800000000E+01 0. -1.
        -11    1    4    4    0    0 -0.59373548477E+02  0.24699789076E+02  0.19885549747E+02  0.67310719264E+02  0.00000000000E+00 0. -1.
         11    1    4    4    0    0  0.22637097321E+02 -0.28197430425E+02  0.53481805356E+02  0.64558785318E+02  0.00000000000E+00 0.  1.
</event>
<event>
 8    1  0.6850220E-009  0.1164553E+03  0.7561462E-02  0.1249062E+00
         -2   -1    0    0    0  501 -0.00000000000E+00  0.00000000000E+00  0.10970806072E+03  0.10970806072E+03  0.00000000000E+00 0. -1.
          2   -1    0    0  501    0  0.00000000000E+00 -0.00000000000E+00 -0.14871258891E+03  0.14871258891E+03  0.00000000000E+00 0.  1.
         25    2    1    2    0    0 -0.37649647770E+02 -0.55750897698E+02 -0.19046038536E+02  0.14330134596E+03  0.12508743181E+03 0.  0.
         23    2    1    2    0    0  0.37649647770E+02  0.55750897698E+02 -0.19958489660E+02  0.11511930367E+03  0.91260364876E+02 0.  0.
          5    1    3    3  502    0 -0.75378867437E+02 -0.31419140042E+02 -0.42845861021E+02  0.92316716925E+02  0.41800000000E+01 0. -1.
         -5    1    3    3    0  502  0.37729219667E+02 -0.24331757656E+02  0.23799822485E+02  0.50984629033E+02  0.41800000000E+01 0. -1.
        -11    1    4    4    0    0  0.85541609955E+01  0.72147333736E+02 -0.32307109985E+02  0.79512016647E+02  0.00000000000E+00 0.  1.
         11    1    4    4    0    0  0.29095486775E+02 -0.16396436039E+02  0.12348620326E+02  0.35607287027E+02  0.00000000000E+00 0. -1.
</event>
<event>
 8    1  0.6850220E-009  0.1047533E+03  0.7561462E-02  0.1270606E+00
         -1   -1    0    0    0  501 -0.00000000000E+00  0.00000000000E+00  0.70236881687E+02  0.70236881687E+02  0.00000000000E+00 0.  1.
          1   -1    0    0  501    0  0.00000000000E+00 -0.00000000000E+00 -0.24224159897E+03  0.24224159897E+03  0.00000000000E+00 0. -1.
         25    2    1    2    0    0 -0.46432040947E+02  0.96361826167E+01 -0.16570450885E+03  0.21296395433E+03  0.12508745400E+03 0.  0.
         23    2    1    2    0    0  0.46432040947E+02 -0.96361826167E+01 -0.63002084344E+01  0.99514526331E+02  0.87262007097E+02 0.  0.
          5    1    3    3  502    0  0.38122049837E+02  0.19203406178E+02 -0.86909009994E+02  0.96915994091E+02  0.41800000000E+01 0.  1.
         -5    1    3    3    0  502 -0.84554090784E+02 -0.95672235615E+01 -0.78795498858E+02  0.11604796024E+03  0.41800000000E+01 0.  1.
        -11    1    4    4    0    0  0.39280467565E+02 -0.36500157049E+02  0.23690452070E+02  0.58621276991E+02  0.00000000000E+00 0.  1.
         11    1    4    4    0    0  0.71515733820E+01  0.26863974432E+02 -0.29990660504E+02  0.40893249340E+02  0.00000000000E+00 0. -1.
</event>
<event>
 8    1  0.6850220E-009  0.9116513E+02  0.7561462E-02  0.1300054E+00
         -2   -1    0    0    0  501 -0.00000000000E+00  0.00000000000E+00  0.38077276159E+03  0.38077276159E+03  0.00000000000E+00 0. -1.
          2   -1    0    0  501    0  0.00000000000E+00 -0.00000000000E+00 -0.38909654782E+02  0.38909654782E+02  0.00000000000E+00 0.  1.
         25    2    1    2    0    0  0.26194503235E+02  0.31565101379E+02  0.25207306022E+03  0.28437592414E+03  0.12508529457E+03 0.  0.
         23    2    1    2    0    0 -0.26194503235E+02 -0.31565101379E+02  0.89790046592E+02  0.13530649223E+03  0.92536948020E+02 0.  0.
          5    1    3    3  502    0  0.70935593817E+02  0.37558789818E+01  0.18981255044E+03  0.20271221424E+03  0.41800000000E+01 0. -1.
         -5    1    3    3    0  502 -0.44741090582E+02  0.27809222398E+02  0.62260509780E+02  0.81663709902E+02  0.41800000000E+01 0. -1.
        -11    1    4    4    0    0 -0.44903715086E+01 -0.35912564193E+02  0.10324359091E+03  0.10940344952E+03  0.00000000000E+00 0. -1.
         11    1    4    4    0    0 -0.21704131726E+02  0.43474628140E+01 -0.13453544320E+02  0.25903042711E+02  0.00000000000E+00 0.  1.
</event>
<event>
 8    1  0.6850220E-009  0.1113032E+03  0.7561462E-02  0.1258175E+00
          2   -1    0    0  501    0  0.00000000000E+00  0.00000000000E+00  0.52902058266E+03  0.52902058266E+03  0.00000000000E+00 0.  1.
         -2   -1    0    0    0  501 -0.00000000000E+00 -0.00000000000E+00 -0.32842155367E+02  0.32842155367E+02  0.00000000000E+00 0. -1.
         25    2    1    2    0    0 -0.61512280186E+02 -0.39136105097E+02  0.28325996650E+03  0.31812032488E+03  0.12509571194E+03 0.  0.
         23    2    1    2    0    0  0.61512280186E+02  0.39136105097E+02  0.21291846079E+03  0.24374241314E+03  0.93598598730E+02 0.  0.
          5    1    3    3  502    0  0.42830139877E+01 -0.55858658808E+02  0.50204037876E+02  0.75342231130E+02  0.41800000000E+01 0.  1.
         -5    1    3    3    0  502 -0.65795294174E+02  0.16722553711E+02  0.23305592863E+03  0.24277809375E+03  0.41800000000E+01 0.  1.
        -11    1    4    4    0    0  0.51562361418E+02 -0.62578562222E+01  0.42533648287E+02  0.67133814997E+02  0.00000000000E+00 0. -1.
         11    1    4    4    0    0  0.99499187683E+01  0.45393961319E+02  0.17038481250E+03  0.17660859815E+03  0.00000000000E+00 0.  1.
</event>
<event>
 8    1  0.6850220E-009  0.1954984E+03  0.7561462E-02  0.1153594E+00
         -2   -1    0    0    0  501 -0.00000000000E+00  0.00000000000E+00  0.49646877099E+02  0.49646877099E+02  0.00000000000E+00 0.  1.
          2   -1    0    0  501    0  0.00000000000E+00 -0.00000000000E+00 -0.80632693539E+03  0.80632693539E+03  0.00000000000E+00 0. -1.
         25    2    1    2    0    0 -0.40441728513E+02 -0.16241460443E+03 -0.42038776087E+03  0.46945503800E+03  0.12509247012E+03 0.  0.
         23    2    1    2    0    0  0.40441728513E+02  0.16241460443E+03 -0.33629229742E+03  0.38651877449E+03  0.91050626502E+02 0.  0.
          5    1    3    3  502    0 -0.57175599413E+02 -0.20281142294E+02 -0.17607372732E+03  0.18627883335E+03  0.41800000000E+01 0. -1.
         -5    1    3    3    0  502  0.16733870900E+02 -0.14213346214E+03 -0.24431403354E+03  0.28317620465E+03  0.41800000000E+01 0. -1.
        -11    1    4    4    0    0  0.58162878654E+02  0.61870876189E+02 -0.11641156661E+03  0.14409225730E+03  0.00000000000E+00 0.  1.
         11    1    4    4    0    0 -0.17721150141E+02  0.10054372824E+03 -0.21988073081E+03  0.24242651718E+03  0.00000000000E+00 0. -1.
</event>
<event>
 8    1  0.6850220E-009  0.1372285E+03  0.7561462E-02  0.1217108E+00
          4   -1    0    0  501    0  0.00000000000E+00  0.00000000000E+00  0.22395002218E+02  0.22395002218E+02  0.00000000000E+00 0. -1.
         -4   -1    0    0    0  501 -0.00000000000E+00 -0.00000000000E+00 -0.10009187632E+04  0.10009187632E+04  0.00000000000E+00 0.  1.
         25    2    1    2    0    0 -0.32121820921E+02 -0.94712451277E+02 -0.61894977732E+03  0.63933648904E+03  0.12510019814E+03 0.  0.
         23    2    1    2    0    0  0.32121820921E+02  0.94712451277E+02 -0.35957398370E+03  0.38397727641E+03  0.90237681926E+02 0.  0.
          5    1    3    3  502    0 -0.80300867476E+02 -0.54615665365E+02 -0.36285329591E+03  0.37564755686E+03  0.41800000000E+01 0.  1.
         -5    1    3    3    0  502  0.48179046555E+02 -0.40096785912E+02 -0.25609648141E+03  0.26368893218E+03  0.41800000000E+01 0.  1.
        -11    1    4    4    0    0 -0.15674081167E+02  0.31502087819E+02 -0.34114280075E+02  0.49008595802E+02  0.00000000000E+00 0. -1.
         11    1    4    4    0    0  0.47795902089E+02  0.63210363458E+02 -0.32545970362E+03  0.33496868061E+03  0.00000000000E+00 0.  1.
</event>
<event>
 8    1  0.6850220E-009  0.1164735E+03  0.7561462E-02  0.1249031E+00
         -2   -1    0    0    0  501 -0.00000000000E+00  0.00000000000E+00  0.37145858496E+02  0.37145858496E+02  0.00000000000E+00 0.  1.
          2   -1    0    0  501    0  0.00000000000E+00 -0.00000000000E+00 -0.50248919617E+03  0.50248919617E+03  0.00000000000E+00 0. -1.
         25    2    1    2    0    0 -0.67904437668E+02  0.15323189375E+02 -0.22604459816E+03  0.26756421357E+03  0.12509450521E+03 0.  0.
         23    2    1    2    0    0  0.67904437668E+02 -0.15323189375E+02 -0.23929873951E+03  0.27207084110E+03  0.10914597134E+03 0.  0.
          5    1    3    3  502    0  0.78606698198E+01  0.26361937894E+02 -0.17081303529E+03  0.17306446002E+03  0.41800000000E+01 0.  1.
         -5    1    3    3    0  502 -0.75765107488E+02 -0.11038748519E+02 -0.55231562879E+02  0.94499753542E+02  0.41800000000E+01 0.  1.
        -11    1    4    4    0    0  0.66429385537E+02 -0.56519819024E+02 -0.14596083711E+03  0.17003505278E+03  0.00000000000E+00 0. -1.
         11    1    4    4    0    0  0.14750521309E+01  0.41196629649E+02 -0.93337902402E+02  0.10203578832E+03  0.00000000000E+00 0.  1.
</event>
<event>
 8    1  0.6850220E-009  0.2210839E+03  0.7561462E-02  0.1133078E+00
          4   -1    0    0  501    0  0.00000000000E+00  0.00000000000E+00  0.10375477504E+03  0.10375477504E+03  0.00000000000E+00 0. -1.
         -4   -1    0    0    0  501 -0.00000000000E+00 -0.00000000000E+00 -0.53456048871E+03  0.53456048871E+03  0.00000000000E+00 0.  1.
         25    2    1    2    0    0  0.26918657801E+01  0.20862553624E+03 -0.21483774003E+03  0.32455175610E+03  0.12508687913E+03 0.  0.
         23    2    1    2    0    0 -0.26918657801E+01 -0.20862553624E+03 -0.21596797364E+03  0.31376350765E+03  0.90958851027E+02 0.  0.
          5    1    3    3  502    0 -0.36898102568E+02  0.16362374138E+03 -0.10101999647E+03  0.19584869365E+03  0.41800000000E+01 0.  1.
         -5    1    3    3    0  502  0.39589968348E+02  0.45001794858E+02 -0.11381774356E+03  0.12870306245E+03  0.41800000000E+01 0.  1.
        -11    1    4    4    0    0 -0.21103599750E+02 -0.17217329340E+03 -0.12426856266E+03  0.21338153750E+03  0.00000000000E+00 0. -1.
         11    1    4    4    0    0  0.18411733970E+02 -0.36452242845E+02 -0.91699410980E+02  0.10038197015E+03  0.00000000000E+00 0.  1.
</event>
<event>
 8    1  0.6850220E-009  0.9812440E+02  0.7561462E-02  0.1284290E+00
         -1   -1    0    0    0  501 -0.00000000000E+00  0.00000000000E+00  0.16277625380E+02  0.16277625380E+02  0.00000000000E+00 0.  1.
          1   -1    0    0  501    0  0.00000000000E+00 -0.00000000000E+00 -0.10876866288E+04  0.10876866288E+04  0.00000000000E+00 0. -1.
         25    2    1    2    0    0 -0.61770394885E+02  0.34170030729E+02 -0.71006131743E+03  0.72444327813E+03  0.12509123079E+03 0.  0.
         23    2    1    2    0    0  0.61770394885E+02 -0.34170030729E+02 -0.36134768599E+03  0.37952097606E+03  0.92091521947E+02 0.  0.
          5    1    3    3  502    0 -0.36950968650E+01 -0.17874245089E+02 -0.49974775029E+03  0.50009841901E+03  0.41800000000E+01 0.  1.
         -5    1    3    3    0  502 -0.58075298020E+02  0.52044275817E+02 -0.21031356714E+03  0.22434485911E+03  0.41800000000E+01 0.  1.
        -11    1    4    4    0    0  0.52264118649E+02  0.10882103238E+02 -0.28809295149E+03  0.29299745215E+03  0.00000000000E+00 0. -1.
         11    1    4    4    0    0  0.95062762356E+01 -0.45052133967E+02 -0.73254734501E+02  0.86523523909E+02  0.00000000000E+00 0.  1.
</event>
<event>
 8    1  0.6850220E-009  0.9675819E+02  0.7561462E-02  0.1287265E+00
          1   -1    0    0  501    0  0.00000000000E+00  0.00000000000E+00  0.28695008980E+03  0.28695008980E+03  0.00000000000E+00 0. -1.
         -1   -1    0    0    0  501 -0.00000000000E+00 -0.00000000000E+00 -0.56575565953E+02  0.56575565953E+02  0.00000000000E+00 0.  1.
         25    2    1    2    0    0  0.61528446470E+02 -0.69401794612E+01  0.16087103948E+03  0.21297981733E+03  0.12508795079E+03 0.  0.
         23    2    1    2    0    0 -0.61528446470E+02  0.69401794612E+01  0.69503484376E+02  0.13054583843E+03  0.91529043338E+02 0.  0.
          5    1    3    3  502    0 -0.14064435165E+02  0.11974659424E+02 -0.12612076373E+02  0.22753849680E+02  0.41800000000E+01 0. -1.
         -5    1    3    3    0  502  0.75592881635E+02 -0.18914838885E+02  0.17348311585E+03  0.19022596765E+03  0.41800000000E+01 0. -1.
        -11    1    4    4    0    0 -0.41343484686E+02  0.40181331102E+02  0.71205388188E+02  0.91618941284E+02  0.00000000000E+00 0. -1.
         11    1    4    4    0    0 -0.20184961784E+02 -0.33241151640E+02 -0.17019038122E+01  0.38926897143E+02  0.00000000000E+00 0.  1.
</event>
<event>
 8    1  0.6850220E-009  0.7968765E+02  0.7561462E-02  0.1329940E+00
          3   -1    0    0  501    0  0.00000000000E+00  0.00000000000E+00  0.16048215885E+03  0.16048215885E+03  0.00000000000E+00 0. -1.
         -3   -1    0    0    0  501 -0.00000000000E+00 -0.00000000000E+00 -0.94164776246E+02  0.94164776246E+02  0.00000000000E+00 0.  1.
         25    2    1    2    0    0  0.52293888387E+02  0.57881880101E+01  0.18703859310E+02  0.13698806266E+03  0.12509093123E+03 0.  0.
         23    2    1    2    0    0 -0.52293888387E+02 -0.57881880101E+01  0.47613523297E+02  0.11765887244E+03  0.93853123441E+02 0.  0.
          5    1    3    3  502    0 -0.19013285683E+02 -0.56582119898E+01 -0.39328849086E+02  0.44246481960E+02  0.41800000000E+01 0. -1.
         -5    1    3    3    0  502  0.71307174071E+02  0.11446400000E+02  0.58032708396E+02  0.92741580700E+02  0.41800000000E+01 0. -1.
        -11    1    4    4    0    0 -0.22124764914E+02 -0.23093460667E+02  0.69541744395E+02  0.76543238510E+02  0.00000000000E+00 0. -1.
         11    1    4    4    0    0 -0.30169123473E+02  0.17305272657E+02 -0.21928221098E+02  0.41115633929E+02  0.00000000000E+00 0.  1.
</event>
<event>
 8    1  0.6850220E-009  0.9268318E+02  0.7561462E-02  0.1296481E+00
          4   -1    0    0  501    0  0.00000000000E+00  0.00000000000E+00  0.29803884334E+02  0.29803884334E+02  0.00000000000E+00 0. -1.
         -4   -1    0    0    0  501 -0.00000000000E+00 -0.00000000000E+00 -0.46213674076E+03  0.46213674076E+03  0.00000000000E+00 0.  1.
         25    2    1    2    0    0 -0.36697805961E+02 -0.21197649231E+02 -0.22309012669E+03  0.25925416702E+03  0.12508976455E+03 0.  0.
         23    2    1    2    0    0  0.36697805961E+02  0.21197649231E+02 -0.20924272973E+03  0.23268645808E+03  0.92544035625E+02 0.  0.
          5    1    3    3  502    0 -0.22846353824E+02 -0.53661797521E+02 -0.35669687759E+02  0.68493382316E+02  0.41800000000E+01 0.  1.
         -5    1    3    3    0  502 -0.13851452137E+02  0.32464148291E+02 -0.18742043893E+03  0.19076078470E+03  0.41800000000E+01 0.  1.
        -11    1    4    4    0    0  0.81982359200E+01  0.50097096395E+02 -0.62952145494E+02  0.80869665275E+02  0.00000000000E+00 0. -1.
         11    1    4    4    0    0  0.28499570041E+02 -0.28899447164E+02 -0.14629058424E+03  0.15181679280E+03  0.00000000000E+00 0.  1.
</event>
<event>
 8    1  0.6850220E-009  0.7696584E+02  0.7561462E-02  0.1337889E+00
         -1   -1    0    0    0  501 -0.00000000000E+00  0.00000000000E+00  0.15516974800E+02  0.15516974800E+02  0.00000000000E+00 0.  1.
          1   -1    0    0  501    0  0.00000000000E+00 -0.00000000000E+00 -0.85401717586E+03  0.85401717586E+03  0.00000000000E+00 0. -1.
         25    2    1    2    0    0 -0.31765248854E+02 -0.10698710448E+02 -0.42769237664E+03  0.44686907985E+03  0.12509081520E+03 0.  0.
         23    2    1    2    0    0  0.31765248854E+02  0.10698710448E+02 -0.41080782442E+03  0.42266507081E+03  0.93590598031E+02 0.  0.
          5    1    3    3  502    0 -0.13330349392E+02 -0.31088262257E+02 -0.41484119307E+03  0.41623895317E+03  0.41800000000E+01 0. -1.
         -5    1    3    3    0  502 -0.18434899463E+02  0.20389551809E+02 -0.12851183564E+02  0.30630126676E+02  0.41800000000E+01 0. -1.
        -11    1    4    4    0    0  0.60679975045E+02  0.15753676187E+02 -0.34439674403E+03  0.35005621689E+03  0.00000000000E+00 0. -1.
         11    1    4    4    0    0 -0.28914726191E+02 -0.50549657390E+01 -0.66411080392E+02  0.72608853924E+02  0.00000000000E+00 0.  1.
</event>
<event>
 8    1  0.6850220E-009  0.1641028E+03  0.7561462E-02  0.1184141E+00
         -1   -1    0    0    0  501 -0.00000000000E+00  0.00000000000E+00  0.80505532208E+02  0.80505532208E+02  0.00000000000E+00 0.  1.
          1   -1    0    0  501    0  0.00000000000E+00 -0.00000000000E+00 -0.43926417411E+03  0.43926417411E+03  0.00000000000E+00 0. -1.
         25    2    1    2    0    0 -0.10936344473E+03 -0.10174623591E+03 -0.14016362667E+03  0.24001244345E+03  0.12508985253E+03 0.  0.
         23    2    1    2    0    0  0.10936344473E+03  0.10174623591E+03 -0.21859501524E+03  0.27975726287E+03  0.90375250363E+02 0.  0.
          5    1    3    3  502    0 -0.32907451843E+02 -0.90328380972E+02 -0.21939552882E+02  0.98696165966E+02  0.41800000000E+01 0. -1.
         -5    1    3    3    0  502 -0.76455992883E+02 -0.11417854942E+02 -0.11822407379E+03  0.14131627748E+03  0.41800000000E+01 0. -1.
        -11    1    4    4    0    0  0.65637591541E+02  0.33975613559E+02 -0.17055701972E+03  0.18588257776E+03  0.00000000000E+00 0. -1.
         11    1    4    4    0    0  0.43725853185E+02  0.67770622355E+02 -0.48037995519E+02  0.93874685110E+02  0.00000000000E+00 0.  1.
</event>
<event>
 8    1  0.6850220E-009  0.1140767E+03  0.7561462E-02  0.1253201E+00
          2   -1    0    0  501    0  0.00000000000E+00  0.00000000000E+00  0.61442278119E+02  0.61442278119E+02  0.00000000000E+00 0. -1.
         -2   -1    0    0    0  501 -0.00000000000E+00 -0.00000000000E+00 -0.22780305813E+03  0.22780305813E+03  0.00000000000E+00 0.  1.
         25    2    1    2    0    0 -0.30759042042E+02 -0.27111958030E+02 -0.12207695986E+03  0.17953047333E+03  0.12508888756E+03 0.  0.
         23    2    1    2    0    0  0.30759042042E+02  0.27111958030E+02 -0.44283820149E+02  0.10971486291E+03  0.91624873706E+02 0.  0.
          5    1    3    3  502    0 -0.78478057348E+02 -0.55739545256E+01 -0.79407832929E+02  0.11186130155E+03  0.41800000000E+01 0.  1.
         -5    1    3    3    0  502  0.47719015306E+02 -0.21538003504E+02 -0.42669126932E+02  0.67669171784E+02  0.41800000000E+01 0.  1.
        -11    1    4    4    0    0  0.42075755442E+02  0.53541076771E+02 -0.43790370242E+02  0.80960562150E+02  0.00000000000E+00 0.  1.
         11    1    4    4    0    0 -0.11316713400E+02 -0.26429118741E+02 -0.49344990717E+00  0.28754300763E+02  0.00000000000E+00 0. -1.
</event>
<event>
 8    1  0.6850220E-009  0.2202304E+03  0.7561462E-02  0.1133711E+00
         -1   -1    0    0    0  501 -0.00000000000E+00  0.00000000000E+00  0.11629682569E+03  0.11629682569E+03  0.00000000000E+00 0.  1.
          1   -1    0    0  501    0  0.00000000000E+00 -0.00000000000E+00 -0.60290529256E+03  0.60290529256E+03  0.00000000000E+00 0. -1.
         25    2    1    2    0    0 -0.19718469367E+03  0.32874699404E+02 -0.41401911917E+03  0.47646797030E+03  0.12508935370E+03 0.  0.
         23    2    1    2    0    0  0.19718469367E+03 -0.32874699404E+02 -0.72589347712E+02  0.24273414795E+03  0.11699617044E+03 0.  0.
          5    1    3    3  502    0 -0.86601801404E+02 -0.47341751227E+02 -0.18668477104E+03  0.21121029699E+03  0.41800000000E+01 0. -1.
         -5    1    3    3    0  502 -0.11058289227E+03  0.80216450630E+02 -0.22733434812E+03  0.26525767331E+03  0.41800000000E+01 0. -1.
        -11    1    4    4    0    0  0.10279103574E+03  0.58777805897E+01  0.20076078643E+02  0.10489801841E+03  0.00000000000E+00 0.  1.
         11    1    4    4    0    0  0.94393657932E+02 -0.38752479993E+02 -0.92665426354E+02  0.13783612953E+03  0.00000000000E+00 0. -1.
</event>
<event>
 8    1  0.6850220E-009  0.8966597E+02  0.7561462E-02  0.1303663E+00
         -2   -1    0    0    0  501 -0.00000000000E+00  0.00000000000E+00  0.45914300538E+02  0.45914300538E+02  0.00000000000E+00 0.  1.
          2   -1    0    0  501    0  0.00000000000E+00 -0.00000000000E+00 -0.45237097658E+03  0.45237097658E+03  0.00000000000E+00 0. -1.
         25    2    1    2    0    0  0.63896602810E+01 -0.50521736211E+02 -0.35976325857E+03  0.38428204223E+03  0.12509920933E+03 0.  0.
         23    2    1    2    0    0 -0.63896602810E+01  0.50521736211E+02 -0.46693417478E+02  0.11400323490E+03  0.90681799402E+02 0.  0.
          5    1    3    3  502    0 -0.11001292155E+02 -0.66278222794E+02 -0.35320128965E+03  0.35955869431E+03  0.41800000000E+01 0. -1.
         -5    1    3    3    0  502  0.17390952436E+02  0.15756486583E+02 -0.65619689217E+01  0.24723347917E+02  0.41800000000E+01 0. -1.
        -11    1    4    4    0    0 -0.28813041103E+02 -0.41298405604E+01 -0.46584203506E+02  0.54930273410E+02  0.00000000000E+00 0.  1.
         11    1    4    4    0    0  0.22423380822E+02  0.54651576771E+02 -0.10921397247E+00  0.59072961486E+02  0.00000000000E+00 0. -1.
</event>
<event>
 8    1  0.6850220E-009  0.1047885E+03  0.7561462E-02  0.1270537E+00
         -2   -1    0    0    0  501 -0.00000000000E+00  0.00000000000E+00  0.19535639775E+02  0.19535639775E+02  0.00000000000E+00 0.  1.
          2   -1    0    0  501    0  0.00000000000E+00 -0.00000000000E+00 -0.71131582691E+03  0.71131582691E+03  0.00000000000E+00 0. -1.
         25    2    1    2    0    0 -0.41166652904E+02 -0.90752945692E+01 -0.32523482113E+03  0.35100687895E+03  0.12510430012E+03 0.  0.
         23    2    1    2    0    0  0.41166652904E+02  0.90752945692E+01 -0.36654536600E+03  0.37984458773E+03  0.90273757055E+02 0.  0.
          5    1    3    3  502    0 -0.56930470306E+02  0.32500020292E+02 -0.89156580442E+02  0.11074158209E+03  0.41800000000E+01 0.  1.
         -5    1    3    3    0  502  0.15763817402E+02 -0.41575314861E+02 -0.23607824069E+03  0.24026529686E+03  0.41800000000E+01 0.  1.
        -11    1    4    4    0    0  0.30558464395E+02  0.49095015759E+02 -0.19657900004E+03  0.20490837849E+03  0.00000000000E+00 0.  1.
         11    1    4    4    0    0  0.10608188508E+02 -0.40019721190E+02 -0.16996636596E+03  0.17493620924E+03  0.00000000000E+00 0. -1.
</event>
<event>
 8    1  0.6850220E-009  0.1308722E+03  0.7561462E-02  0.1226167E+00
          1   -1    0    0  501    0  0.00000000000E+00  0.00000000000E+00  0.76890392783E+03  0.76890392783E+03  0.00000000000E+00 0. -1.
         -1   -1    0    0    0  501 -0.00000000000E+00 -0.00000000000E+00 -0.23707104415E+02  0.23707104415E+02  0.00000000000E+00 0.  1.
         25    2    1    2    0    0  0.44268221222E+02  0.58136740368E+02  0.31495011337E+03  0.34667130801E+03  0.12509143015E+03 0.  0.
         23    2    1    2    0    0 -0.44268221222E+02 -0.58136740368E+02  0.43024671005E+03  0.44593972423E+03  0.91708506426E+02 0.  0.
          5    1    3    3  502    0 -0.43888372325E+02  0.24379338167E+02  0.10919638540E+03  0.12025749182E+03  0.41800000000E+01 0.  1.
         -5    1    3    3    0  502  0.88156593547E+02  0.33757402201E+02  0.20575372797E+03  0.22641381620E+03  0.41800000000E+01 0.  1.
        -11    1    4    4    0    0 -0.11919885008E+02  0.24983433780E+02  0.87253816094E+02  0.91539521765E+02  0.00000000000E+00 0. -1.
         11    1    4    4    0    0 -0.32348336214E+02 -0.83120174148E+02  0.34299289395E+03  0.35440020247E+03  0.00000000000E+00 0.  1.
</event>
<event>
 8    1  0.6850220E-009  0.1198423E+03  0.7561462E-02  0.1243357E+00
         -2   -1    0    0    0  501 -0.00000000000E+00  0.00000000000E+00  0.79344164433E+02  0.79344164433E+02  0.00000000000E+00 0.  1.
          2   -1    0    0  501    0  0.00000000000E+00 -0.00000000000E+00 -0.24565885051E+03  0.24565885051E+03  0.00000000000E+00 0. -1.
         25    2    1    2    0    0 -0.83178853915E+01  0.73151168623E+02 -0.14526244958E+03  0.20534998253E+03  0.12508859012E+03 0.  0.
         23    2    1    2    0    0  0.83178853915E+01 -0.73151168623E+02 -0.21052236496E+02  0.11965303242E+03  0.91942214551E+02 0.  0.
          5    1    3    3  502    0 -0.49324422605E+02  0.11458732666E+02 -0.11405074868E+03  0.12485690567E+03  0.41800000000E+01 0.  1.
         -5    1    3    3    0  502  0.41006537214E+02  0.61692435957E+02 -0.31211700904E+02  0.80493076857E+02  0.41800000000E+01 0.  1.
        -11    1    4    4    0    0  0.25560868467E+02 -0.88177413953E+02 -0.54549656962E+01  0.91969402407E+02  0.00000000000E+00 0.  1.
         11    1    4    4    0    0 -0.17242983076E+02  0.15026245330E+02 -0.15597270800E+02  0.27683630009E+02  0.00000000000E+00 0. -1.
</event>
<event>
 8    1  0.6850220E-009  0.1399162E+03  0.7561462E-02  0.1213442E+00
          4   -1    0    0  501    0  0.00000000000E+00  0.00000000000E+00  0.25379284876E+03  0.25379284876E+03  0.00000000000E+00 0. -1.
         -4   -1    0    0    0  501 -0.00000000000E+00 -0.00000000000E+00 -0.81386692449E+02  0.81386692449E+02  0.00000000000E+00 0.  1.
         25    2    1    2    0    0  0.80584662065E+02  0.38452344312E+02  0.13003148258E+03  0.20131730104E+03  0.12509196094E+03 0.  0.
         23    2    1    2    0    0 -0.80584662065E+02 -0.38452344312E+02  0.42374673731E+02  0.13386224017E+03  0.90282976395E+02 0.  0.
          5    1    3    3  502    0 -0.29685349535E+02  0.30575058641E+02  0.31330254254E+02  0.53057623576E+02  0.41800000000E+01 0. -1.
         -5    1    3    3    0  502  0.11027001160E+03  0.78772856711E+01  0.98701228330E+02  0.14825967746E+03  0.41800000000E+01 0. -1.
        -11    1    4    4    0    0 -0.73536639708E+02  0.12804855217E+02  0.18621993542E+02  0.76931010264E+02  0.00000000000E+00 0. -1.
         11    1    4    4    0    0 -0.70480223570E+01 -0.51257199529E+02  0.23752680188E+02  0.56931229908E+02  0.00000000000E+00 0.  1.
</event>
<event>
 7    1  0.1211505E-008  0.9442088E+02  0.7561462E-02  0.1292486E+00
          1   -1    0    0  501    0  0.00000000000E+00  0.00000000000E+00  0.61552558604E+03  0.61552558604E+03  0.00000000000E+00 0. -1.
         -1   -1    0    0    0  501 -0.00000000000E+00 -0.00000000000E+00 -0.14995158673E+02  0.14995158673E+02  0.00000000000E+00 0.  1.
         25    2    1    2    0    0  0.95880430174E+01  0.50904362002E+02  0.44671591286E+03  0.46678258954E+03  0.12509074486E+03 0.  0.
          5    1    3    3  502    0  0.31692081793E+02  0.86883652277E+02  0.28960233043E+03  0.30403970016E+03  0.41800000000E+01 0. -1.
         -5    1    3    3    0  502 -0.22104038775E+02 -0.35979290275E+02  0.15711358243E+03  0.16274288938E+03  0.41800000000E+01 0. -1.
        -11    1    1    2    0    0 -0.83499600032E+01 -0.10535804913E+02  0.21138457434E+02  0.25051135701E+02  0.00000000000E+00 0.  1.
         11    1    1    2    0    0 -0.12380830142E+01 -0.40368557089E+02  0.13267605707E+03  0.13868701947E+03  0.00000000000E+00 0. -1.
</event>
<event>
 8    1  0.6850220E-009  0.8703932E+02  0.7561462E-02  0.1310184E+00
         -1   -1    0    0    0  501 -0.00000000000E+00  0.00000000000E+00  0.36335189342E+02  0.36335189342E+02  0.00000000000E+00 0.  1.
          1   -1    0    0  501    0  0.00000000000E+00 -0.00000000000E+00 -0.35379123508E+03  0.35379123508E+03  0.00000000000E+00 0. -1.
         25    2    1    2    0    0 -0.22209431478E+02 -0.12894921525E+02 -0.22632246312E+03  0.25985944333E+03  0.12508211354E+03 0.  0.
         23    2    1    2    0    0  0.22209431478E+02  0.12894921525E+02 -0.91133582618E+02  0.13026698109E+03  0.89468534327E+02 0.  0.
          5    1    3    3  502    0 -0.36167724010E+02 -0.60909145429E+02 -0.17117786538E+03  0.18530343293E+03  0.41800000000E+01 0. -1.
         -5    1    3    3    0  502  0.13958292532E+02  0.48014223904E+02 -0.55144597735E+02  0.74556010400E+02  0.41800000000E+01 0. -1.
        -11    1    4    4    0    0  0.17719723948E+02 -0.15894316517E+02 -0.97566328261E+02  0.10042811521E+03  0.00000000000E+00 0. -1.
         11    1    4    4    0    0  0.44897075307E+01  0.28789238042E+02  0.64327456422E+01  0.29838865884E+02  0.00000000000E+00 0.  1.
</event>
<event>
 8    1  0.6850220E-009  0.1748848E+03  0.7561462E-02  0.1172847E+00
         -1   -1    0    0    0  501 -0.00000000000E+00  0.00000000000E+00  0.70036711707E+03  0.70036711707E+03  0.00000000000E+00 0.  1.
          1   -1    0    0  501    0  0.00000000000E+00 -0.00000000000E+00 -0.60308493600E+02  0.60308493600E+02  0.00000000000E+00 0. -1.
         25    2    1    2    0    0 -0.13779620590E+03  0.13572048694E+02  0.13868192498E+03  0.23249176023E+03  0.12509095647E+03 0.  0.
         23    2    1    2    0    0  0.13779620590E+03 -0.13572048694E+02  0.50137669849E+03  0.52818385044E+03  0.91801912909E+02 0.  0.
          5    1    3    3  502    0  0.22608877956E+02  0.74402199603E+01  0.79899588796E+01  0.25452506328E+02  0.41800000000E+01 0. -1.
         -5    1    3    3    0  502 -0.16040508386E+03  0.61318287335E+01  0.13069196610E+03  0.20703925390E+03  0.41800000000E+01 0. -1.
        -11    1    4    4    0    0  0.14347596473E+03  0.70382484625E+01  0.45454366581E+03  0.47670203852E+03  0.00000000000E+00 0. -1.
         11    1    4    4    0    0 -0.56797588320E+01 -0.20610297156E+02  0.46833032677E+02  0.51481811924E+02  0.00000000000E+00 0.  1.
</event>
<event>
 8    1  0.6850220E-009  0.8964659E+02  0.7561462E-02  0.1303710E+00
          1   -1    0    0  501    0  0.00000000000E+00  0.00000000000E+00  0.22857035219E+03  0.22857035219E+03  0.00000000000E+00 0. -1.
         -1   -1    0    0    0  501 -0.00000000000E+00 -0.00000000000E+00 -0.10396484818E+03  0.10396484818E+03  0.00000000000E+00 0.  1.
         25    2    1    2    0    0 -0.28130973702E+02  0.45363349740E+02 -0.36063940304E+02  0.14070395834E+03  0.12509121041E+03 0.  0.
         23    2    1    2    0    0  0.28130973702E+02 -0.45363349740E+02  0.16066944431E+03  0.19183124203E+03  0.90196285414E+02 0.  0.
          5    1    3    3  502    0 -0.63398121731E+02  0.10842517526E+02  0.18458307677E+02  0.67045235085E+02  0.41800000000E+01 0. -1.
         -5    1    3    3    0  502  0.35267148029E+02  0.34520832214E+02 -0.54522247981E+02  0.73658723256E+02  0.41800000000E+01 0. -1.
        -11    1    4    4    0    0  0.10590184633E+02  0.51959513669E+01 -0.84084194086E+01  0.14486249968E+02  0.00000000000E+00 0.  1.
         11    1    4    4    0    0  0.17540789069E+02 -0.50559301107E+02  0.16907786372E+03  0.17734499206E+03  0.00000000000E+00 0. -1.
</event>
<event>
 8    1  0.6850220E-009  0.1255494E+03  0.7561462E-02  0.1234213E+00
          1   -1    0    0  501    0  0.00000000000E+00  0.00000000000E+00  0.52895212769E+03  0.52895212769E+03  0.00000000000E+00 0. -1.
         -1   -1    0    0    0  501 -0.00000000000E+00 -0.00000000000E+00 -0.47447631509E+02  0.47447631509E+02  0.00000000000E+00 0.  1.
         25    2    1    2    0    0  0.49489835818E+02 -0.99637039216E+02  0.18925248390E+03  0.25266736980E+03  0.12509002225E+03 0.  0.
         23    2    1    2    0    0 -0.49489835818E+02  0.99637039216E+02  0.29225201229E+03  0.32373238940E+03  0.83753434734E+02 0.  0.
          5    1    3    3  502    0 -0.58770218295E+01 -0.62184040644E+02  0.17267308487E+03  0.18367052277E+03  0.41800000000E+01 0. -1.
         -5    1    3    3    0  502  0.55366857647E+02 -0.37452998572E+02  0.16579399028E+02  0.68996847029E+02  0.41800000000E+01 0. -1.
        -11    1    4    4    0    0 -0.45378933520E+02  0.36458864861E+02  0.62468108948E+02  0.85385953587E+02  0.00000000000E+00 0.  1.
         11    1    4    4    0    0 -0.41109022976E+01  0.63178174355E+02  0.22978390334E+03  0.23834643582E+03  0.00000000000E+00 0. -1.
</event>
<event>
 8    1  0.6850220E-009  0.1153036E+03  0.7561462E-02  0.1251052E+00
          1   -1    0    0  501    0  0.00000000000E+00  0.00000000000E+00  0.17993690393E+03  0.17993690393E+03  0.00000000000E+00 0. -1.
         -1   -1    0    0    0  501 -0.00000000000E+00 -0.00000000000E+00 -0.97574238177E+02  0.97574238177E+02  0.00000000000E+00 0.  1.
         25    2    1    2    0    0  0.48195151143E+02  0.30717901427E+02 -0.28846693083E+01  0.13756441230E+03  0.12509709890E+03 0.  0.
         23    2    1    2    0    0 -0.48195151143E+02 -0.30717901427E+02  0.85247335064E+02  0.13994672981E+03  0.95139986272E+02 0.  0.
          5    1    3    3  502    0  0.82348884118E+02 -0.35794294511E+01 -0.21907149593E+02  0.85390553540E+02  0.41800000000E+01 0. -1.
         -5    1    3    3    0  502 -0.34153732974E+02  0.34297330878E+02  0.19022480285E+02  0.52173858758E+02  0.41800000000E+01 0. -1.
        -11    1    4    4    0    0 -0.70862828666E+02 -0.29601093592E+02  0.34172705651E+02  0.84056760822E+02  0.00000000000E+00 0.  1.
         11    1    4    4    0    0  0.22667677523E+02 -0.11168078354E+01  0.51074629413E+02  0.55889968990E+02  0.00000000000E+00 0. -1.
</event>
<event>
 8    1  0.6850220E-009  0.9351468E+02  0.7561462E-02  0.1294557E+00
          2   -1    0    0  501    0  0.00000000000E+00  0.00000000000E+00  0.12495266828E+03  0.12495266828E+03  0.00000000000E+00 0. -1.
         -2   -1    0    0    0  501 -0.00000000000E+00 -0.00000000000E+00 -0.12300566267E+03  0.12300566267E+03  0.00000000000E+00 0.  1.
         25    2    1    2    0    0  0.14399283296E+02  0.48339536234E+02  0.33655943565E+02  0.13901070774E+03  0.12508878530E+03 0.  0.
         23    2    1    2    0    0 -0.14399283296E+02 -0.48339536234E+02 -0.31708937954E+02  0.10894762321E+03  0.91214460119E+02 0.  0.
          5    1    3    3  502    0 -0.42218774021E+02 -0.45775333270E+01  0.43313542511E+02  0.60802253708E+02  0.41800000000E+01 0. -1.
         -5    1    3    3    0  502  0.56618057317E+02  0.52917069562E+02 -0.96575989462E+01  0.78208454036E+02  0.41800000000E+01 0. -1.
        -11    1    4    4    0    0  0.13195186207E+02 -0.32155982927E+02  0.25699980805E+02  0.43227412488E+02  0.00000000000E+00 0. -1.
         11    1    4    4    0    0 -0.27594469503E+02 -0.16183553307E+02 -0.57408918758E+02  0.65720210725E+02  0.00000000000E+00 0.  1.
</event>
<event>
 8    1  0.6850220E-009  0.1144420E+03  0.7561462E-02  0.1252558E+00
         -2   -1    0    0    0  501 -0.00000000000E+00  0.00000000000E+00  0.16805368521E+03  0.16805368521E+03  0.00000000000E+00 0. -1.
          2   -1    0    0  501    0  0.00000000000E+00 -0.00000000000E+00 -0.87178929514E+02  0.87178929514E+02  0.00000000000E+00 0.  1.
         25    2    1    2    0    0  0.83736566607E+01 -0.49250947242E+02  0.70827140888E+02  0.15218397116E+03  0.12509078009E+03 0.  0.
         23    2    1    2    0    0 -0.83736566607E+01  0.49250947242E+02  0.10047614805E+02  0.10304864356E+03  0.89567262132E+02 0.  0.
          5    1    3    3  502    0  0.25735326999E+02 -0.84141919074E+02  0.70758462990E+02  0.11298850422E+03  0.41800000000E+01 0.  1.
         -5    1    3    3    0  502 -0.17361670338E+02  0.34890971832E+02  0.68677897772E-01  0.39195466944E+02  0.41800000000E+01 0.  1.
        -11    1    4    4    0    0  0.39992088728E+02  0.16926105483E+02  0.11260368039E+02  0.44862635857E+02  0.00000000000E+00 0. -1.
         11    1    4    4    0    0 -0.48365745389E+02  0.32324841759E+02 -0.12127532338E+01  0.58186007701E+02  0.00000000000E+00 0.  1.
</event>
<event>
 8    1  0.6850220E-009  0.1096570E+03  0.7561462E-02  0.1261206E+00
         -1   -1    0    0    0  501 -0.00000000000E+00  0.00000000000E+00  0.95455288878E+02  0.95455288878E+02  0.00000000000E+00 0.  1.
          1   -1    0    0  501    0  0.00000000000E+00 -0.00000000000E+00 -0.16885374911E+03  0.16885374911E+03  0.00000000000E+00 0. -1.
         25    2    1    2    0    0  0.23810669536E+02  0.20388125985E+02 -0.99829582281E+02  0.16308122628E+03  0.12508763808E+03 0.  0.
         23    2    1    2    0    0 -0.23810669536E+02 -0.20388125985E+02  0.26431122044E+02  0.10122781171E+03  0.92551834055E+02 0.  0.
          5    1    3    3  502    0  0.40258066556E+02  0.65610254902E+02 -0.79307314811E+02  0.11060081398E+03  0.41800000000E+01 0.  1.
         -5    1    3    3    0  502 -0.16447397020E+02 -0.45222128917E+02 -0.20522267470E+02  0.52480412295E+02  0.41800000000E+01 0.  1.
        -11    1    4    4    0    0  0.29850620849E+02 -0.26497249301E+02 -0.24369188841E+01  0.39988777916E+02  0.00000000000E+00 0. -1.
         11    1    4    4    0    0 -0.53661290385E+02  0.61091233164E+01  0.28868040929E+02  0.61239033798E+02  0.00000000000E+00 0.  1.
</event>
<event>
 8    1  0.6850220E-009  0.1167765E+03  0.7561462E-02  0.1248512E+00
         -1   -1    0    0    0  501 -0.00000000000E+00  0.00000000000E+00  0.67646349116E+02  0.67646349116E+02  0.00000000000E+00 0.  1.
          1   -1    0    0  501    0  0.00000000000E+00 -0.00000000000E+00 -0.28617550237E+03  0.28617550237E+03  0.00000000000E+00 0. -1.
         25    2    1    2    0    0  0.56339878875E+02  0.46238239907E+00 -0.20446182200E+03  0.24622369098E+03  0.12508826323E+03 0.  0.
         23    2    1    2    0    0 -0.56339878875E+02 -0.46238239907E+00 -0.14067331254E+02  0.10759816050E+03  0.90581888839E+02 0.  0.
          5    1    3    3  502    0  0.89688341818E+02 -0.18491019594E+02 -0.10414884007E+03  0.13874570174E+03  0.41800000000E+01 0. -1.
         -5    1    3    3    0  502 -0.33348462943E+02  0.18953401993E+02 -0.10031298193E+03  0.10747798924E+03  0.41800000000E+01 0. -1.
        -11    1    4    4    0    0 -0.14723935211E+02 -0.41995855290E+02  0.71871036112E+01  0.45078826381E+02  0.00000000000E+00 0.  1.
         11    1    4    4    0    0 -0.41615943664E+02  0.41533472891E+02 -0.21254434865E+02  0.62519334120E+02  0.00000000000E+00 0. -1.
</event>
<event>
 8    1  0.6850220E-009  0.1264916E+03  0.7561462E-02  0.1232756E+00
         -2   -1    0    0    0  501 -0.00000000000E+00  0.00000000000E+00  0.41584343227E+03  0.41584343227E+03  0.00000000000E+00 0.  1.
          2   -1    0    0  501    0  0.00000000000E+00 -0.00000000000E+00 -0.52365182326E+02  0.52365182326E+02  0.00000000000E+00 0. -1.
         25    2    1    2    0    0  0.98194512053E+02 -0.52680747927E+01  0.19694215507E+03  0.25318990725E+03  0.12509597068E+03 0.  0.
         23    2    1    2    0    0 -0.98194512053E+02  0.52680747927E+01  0.16653609487E+03  0.21501870734E+03  0.93962007235E+02 0.  0.
          5    1    3    3  502    0  0.95279013787E+02 -0.27076855106E+02  0.20632489606E+03  0.22890758328E+03  0.41800000000E+01 0.  1.
         -5    1    3    3    0  502  0.29154982666E+01  0.21808780313E+02 -0.93827409868E+01  0.24282323968E+02  0.41800000000E+01 0.  1.
        -11    1    4    4    0    0 -0.71882532956E+02 -0.37619415666E+02  0.74605043232E+02  0.11021901585E+03  0.00000000000E+00 0. -1.
         11    1    4    4    0    0 -0.26311979097E+02  0.42887490459E+02  0.91931051635E+02  0.10479969149E+03  0.00000000000E+00 0.  1.
</event>
<event>
 8    1  0.6850220E-009  0.1100353E+03  0.7561462E-02  0.1260505E+00
         -4   -1    0    0    0  501 -0.00000000000E+00  0.00000000000E+00  0.23899762269E+02  0.23899762269E+02  0.00000000000E+00 0. -1.
          4   -1    0    0  501    0  0.00000000000E+00 -0.00000000000E+00 -0.74988664056E+03  0.74988664056E+03  0.00000000000E+00 0.  1.
         25    2    1    2    0    0 -0.27356230551E+02  0.71518268624E+02 -0.45252728541E+03  0.47570004818E+03  0.12508543360E+03 0.  0.
         23    2    1    2    0    0  0.27356230551E+02 -0.71518268624E+02 -0.27345959288E+03  0.29808635465E+03  0.90620636687E+02 0.  0.
          5    1    3    3  502    0 -0.26951345875E+02  0.84022289056E+02 -0.45392038827E+03  0.46243627820E+03  0.41800000000E+01 0.  1.
         -5    1    3    3    0  502 -0.40488467524E+00 -0.12504020432E+02  0.13931028624E+01  0.13263769982E+02  0.41800000000E+01 0.  1.
        -11    1    4    4    0    0  0.20739148183E+02  0.18793945116E+02 -0.69808302266E+02  0.75209864418E+02  0.00000000000E+00 0.  1.
         11    1    4    4    0    0  0.66170823676E+01 -0.90312213740E+02 -0.20365129062E+03  0.22287649024E+03  0.00000000000E+00 0. -1.
</event>
<event>
 8    1  0.6850220E-009  0.3114228E+03  0.7561462E-02  0.1079666E+00
         -2   -1    0    0    0  501 -0.00000000000E+00  0.00000000000E+00  0.63020916402E+02  0.63020916402E+02  0.00000000000E+00 0. -1.
          2   -1    0    0  501    0  0.00000000000E+00 -0.00000000000E+00 -0.16941130929E+04  0.16941130929E+04  0.00000000000E+00 0.  1.
         25    2    1    2    0    0 -0.24480938731E+03 -0.16639654101E+03 -0.60270681593E+03  0.68302576126E+03  0.12509692085E+03 0.  0.
         23    2    1    2    0    0  0.24480938731E+03  0.16639654101E+03 -0.10283853605E+04  0.10741082480E+04  0.92263934987E+02 0.  0.
          5    1    3    3  502    0  0.98435215478E+01 -0.24608609622E+02 -0.28974955176E+02  0.39490492671E+02  0.41800000000E+01 0.  1.
         -5    1    3    3    0  502 -0.25465290885E+03 -0.14178793139E+03 -0.57373186075E+03  0.64353526859E+03  0.41800000000E+01 0.  1.
        -11    1    4    4    0    0  0.13979545016E+03  0.51802914423E+02 -0.40286482365E+03  0.42956533375E+03  0.00000000000E+00 0.  1.
         11    1    4    4    0    0  0.10501393715E+03  0.11459362659E+03 -0.62552053690E+03  0.64454291427E+03  0.00000000000E+00 0. -1.
</event>
<event>
 8    1  0.6850220E-009  0.1023571E+03  0.7561462E-02  0.1275416E+00
         -2   -1    0    0    0  501 -0.00000000000E+00  0.00000000000E+00  0.98704516437E+02  0.98704516437E+02  0.00000000000E+00 0.  1.
          2   -1    0    0  501    0  0.00000000000E+00 -0.00000000000E+00 -0.13403516168E+03  0.13403516168E+03  0.00000000000E+00 0. -1.
         25    2    1    2    0    0  0.11590170548E+02  0.36628892306E+02 -0.14929173753E+02  0.13172179681E+03  0.12510692914E+03 0.  0.
         23    2    1    2    0    0 -0.11590170548E+02 -0.36628892306E+02 -0.20401471484E+02  0.10101788131E+03  0.91172279231E+02 0.  0.
          5    1    3    3  502    0 -0.10359612916E+02  0.68330551734E+02  0.27262883122E+02  0.74411847687E+02  0.41800000000E+01 0.  1.
         -5    1    3    3    0  502  0.21949783464E+02 -0.31701659428E+02 -0.42192056875E+02  0.57309949118E+02  0.41800000000E+01 0.  1.
        -11    1    4    4    0    0  0.22223341731E+02 -0.54204479061E+02 -0.17977187320E+01  0.58610871522E+02  0.00000000000E+00 0.  1.
         11    1    4    4    0    0 -0.33813512279E+02  0.17575586755E+02 -0.18603752753E+02  0.42407009785E+02  0.00000000000E+00 0. -1.
</event>
<event>
 8    1  0.6850220E-009  0.1357804E+03  0.7561462E-02  0.1219122E+00
         -1   -1    0    0    0  501 -0.00000000000E+00  0.00000000000E+00  0.51168000916E+02  0.51168000916E+02  0.00000000000E+00 0.  1.
          1   -1    0    0  501    0  0.00000000000E+00 -0.00000000000E+00 -0.58121744498E+03  0.58121744498E+03  0.00000000000E+00 0. -1.
         25    2    1    2    0    0  0.43726189940E+01  0.10005588920E+03 -0.44536611842E+03  0.47331705866E+03  0.12509099815E+03 0.  0.
         23    2    1    2    0    0 -0.43726189940E+01 -0.10005588920E+03 -0.84683325646E+02  0.15906838724E+03  0.90006585404E+02 0.  0.
          5    1    3    3  502    0  0.23359235179E+02  0.11345766171E+03 -0.23922241612E+03  0.26582537810E+03  0.41800000000E+01 0. -1.
         -5    1    3    3    0  502 -0.18986616184E+02 -0.13401772510E+02 -0.20614370230E+03  0.20749168055E+03  0.41800000000E+01 0. -1.
        -11    1    4    4    0    0 -0.45052503381E+02 -0.59049801673E+02 -0.62923000757E+02  0.97344291885E+02  0.00000000000E+00 0. -1.
         11    1    4    4    0    0  0.40679884387E+02 -0.41006087531E+02 -0.21760324889E+02  0.61724095357E+02  0.00000000000E+00 0.  1.
</event>
<event>
 8    1  0.6850220E-009  0.2185032E+03  0.7561462E-02  0.1135004E+00
          1   -1    0    0  501    0  0.00000000000E+00  0.00000000000E+00  0.33803508072E+03  0.33803508072E+03  0.00000000000E+00 0. -1.
         -1   -1    0    0    0  501 -0.00000000000E+00 -0.00000000000E+00 -0.15694861653E+03  0.15694861653E+03  0.00000000000E+00 0.  1.
         25    2    1    2    0    0  0.17768478765E+03 -0.98068061760E+02  0.88429309918E+02  0.25427660878E+03  0.12509045695E+03 0.  0.
         23    2    1    2    0    0 -0.17768478765E+03  0.98068061760E+02  0.92657154272E+02  0.24070708846E+03  0.90362191747E+02 0.  0.
          5    1    3    3  502    0 -0.43324815236E+00  0.19529487902E+02  0.24129462933E+02  0.31325580331E+02  0.41800000000E+01 0.  1.
         -5    1    3    3    0  502  0.17811803580E+03 -0.11759754966E+03  0.64299846985E+02  0.22295102845E+03  0.41800000000E+01 0.  1.
        -11    1    4    4    0    0 -0.12221175411E+03  0.75580119330E+02  0.10699791876E+03  0.17915530106E+03  0.00000000000E+00 0. -1.
         11    1    4    4    0    0 -0.55473033544E+02  0.22487942430E+02 -0.14340764492E+02  0.61551787395E+02  0.00000000000E+00 0.  1.
</event>
<event>
 8    1  0.6850220E-009  0.1169530E+03  0.7561462E-02  0.1248210E+00
         -2   -1    0    0    0  501 -0.00000000000E+00  0.00000000000E+00  0.50399204800E+02  0.50399204800E+02  0.00000000000E+00 0.  1.
          2   -1    0    0  501    0  0.00000000000E+00 -0.00000000000E+00 -0.33579362038E+03  0.33579362038E+03  0.00000000000E+00 0. -1.
         25    2    1    2    0    0  0.51359146315E+02 -0.76221188359E+01 -0.89300749378E+02  0.16222671677E+03  0.12508806973E+03 0.  0.
         23    2    1    2    0    0 -0.51359146315E+02  0.76221188359E+01 -0.19609366620E+03  0.22396610841E+03  0.94932782460E+02 0.  0.
          5    1    3    3  502    0 -0.19411931215E+02  0.43463142379E+02 -0.26735297904E+02  0.54755057967E+02  0.41800000000E+01 0.  1.
         -5    1    3    3    0  502  0.70771077530E+02 -0.51085261215E+02 -0.62565451474E+02  0.10747165880E+03  0.41800000000E+01 0.  1.
        -11    1    4    4    0    0 -0.23772477051E+02 -0.38352752289E+02 -0.45362413681E+02  0.63982910595E+02  0.00000000000E+00 0.  1.
         11    1    4    4    0    0 -0.27586669264E+02  0.45974871125E+02 -0.15073125252E+03  0.15998319781E+03  0.00000000000E+00 0. -1.
</event>
<event>
 8    1  0.6850220E-009  0.1259871E+03  0.7561462E-02  0.1233535E+00
          1   -1    0    0  501    0  0.00000000000E+00  0.00000000000E+00  0.18578240695E+03  0.18578240695E+03  0.00000000000E+00 0. -1.
         -1   -1    0    0    0  501 -0.00000000000E+00 -0.00000000000E+00 -0.12012308238E+03  0.12012308238E+03  0.00000000000E+00 0.  1.
         25    2    1    2    0    0  0.28539799618E+02  0.76483250631E+02  0.96838047203E+02  0.17801433274E+03  0.12508911817E+03 0.  0.
         23    2    1    2    0    0 -0.28539799618E+02 -0.76483250631E+02 -0.31178722634E+02  0.12789115659E+03  0.93380016059E+02 0.  0.
          5    1    3    3  502    0  0.73013700827E+02  0.45259552510E+02  0.28498836148E+02  0.90603993640E+02  0.41800000000E+01 0.  1.
         -5    1    3    3    0  502 -0.44473901208E+02  0.31223698121E+02  0.68339211055E+02  0.87410339095E+02  0.41800000000E+01 0.  1.
        -11    1    4    4    0    0 -0.36417679222E+02 -0.18968764588E+01 -0.37892756756E+02  0.52589984929E+02  0.00000000000E+00 0.  1.
         11    1    4    4    0    0  0.78778796038E+01 -0.74586374172E+02  0.67140341220E+01  0.75301171660E+02  0.00000000000E+00 0. -1.
</event>
<event>
 8    1  0.6850220E-009  0.1422711E+03  0.7561462E-02  0.1210305E+00
          2   -1    0    0  501    0  0.00000000000E+00  0.00000000000E+00  0.10284776040E+03  0.10284776040E+03  0.00000000000E+00 0. -1.
         -2   -1    0    0    0  501 -0.00000000000E+00 -0.00000000000E+00 -0.33458948420E+03  0.33458948420E+03  0.00000000000E+00 0.  1.
         25    2    1    2    0    0  0.51536521839E+02 -0.11999107905E+03 -0.34392742227E+02  0.18408449434E+03  0.12510143167E+03 0.  0.
         23    2    1    2    0    0 -0.51536521839E+02  0.11999107905E+03 -0.19734898158E+03  0.25335275025E+03  0.90482724305E+02 0.  0.
          5    1    3    3  502    0  0.54453525574E+02 -0.11965573478E+03  0.16834679455E+02  0.13260301710E+03  0.41800000000E+01 0.  1.
         -5    1    3    3    0  502 -0.29170037355E+01 -0.33534426916E+00 -0.51227421682E+02  0.51481477239E+02  0.41800000000E+01 0.  1.
        -11    1    4    4    0    0  0.17468378791E+02  0.24409322030E+02 -0.86403446432E+02  0.91468654821E+02  0.00000000000E+00 0.  1.
         11    1    4    4    0    0 -0.69004900630E+02  0.95581757016E+02 -0.11094553514E+03  0.16188409543E+03  0.00000000000E+00 0. -1.
</event>
<event>
 8    1  0.6850220E-009  0.9325051E+02  0.7561462E-02  0.1295166E+00
          2   -1    0    0  501    0  0.00000000000E+00  0.00000000000E+00  0.37820100206E+03  0.37820100206E+03  0.00000000000E+00 0. -1.
         -2   -1    0    0    0  501 -0.00000000000E+00 -0.00000000000E+00 -0.48220251901E+02  0.48220251901E+02  0.00000000000E+00 0.  1.
         25    2    1    2    0    0 -0.30236402944E+02 -0.38655750633E+02  0.28820208285E+03  0.31798790903E+03  0.12508941847E+03 0.  0.
         23    2    1    2    0    0  0.30236402944E+02  0.38655750633E+02  0.41778667315E+02  0.10843334493E+03  0.87199920472E+02 0.  0.
          5    1    3    3  502    0  0.16199383888E+02  0.97739641995E+01  0.22463094059E+03  0.22546503561E+03  0.41800000000E+01 0.  1.
         -5    1    3    3    0  502 -0.46435786833E+02 -0.48429714833E+02  0.63571142258E+02  0.92522873418E+02  0.41800000000E+01 0.  1.
        -11    1    4    4    0    0  0.21559995195E+02  0.66934123198E+02  0.32192296063E+02  0.77339214936E+02  0.00000000000E+00 0.  1.
         11    1    4    4    0    0  0.86764077496E+01 -0.28278372565E+02  0.95863712518E+01  0.31094129995E+02  0.00000000000E+00 0. -1.
</event>
<event>
 8    1  0.6850220E-009  0.2930483E+03  0.7561462E-02  0.1088768E+00
         -1   -1    0    0    0  501 -0.00000000000E+00  0.00000000000E+00  0.34146456830E+03  0.34146456830E+03  0.00000000000E+00 0.  1.
          1   -1    0    0  501    0  0.00000000000E+00 -0.00000000000E+00 -0.26439291731E+03  0.26439291731E+03  0.00000000000E+00 0. -1.
         25    2    1    2    0    0 -0.17725630811E+03 -0.21007416296E+03 -0.17189105536E+02  0.30248261698E+03  0.12509722427E+03 0.  0.
         23    2    1    2    0    0  0.17725630811E+03  0.21007416296E+03  0.94260756522E+02  0.30337486863E+03  0.87179515871E+02 0.  0.
          5    1    3    3  502    0 -0.15743584933E+03 -0.98910415314E+02 -0.31368546505E+02  0.18860216070E+03  0.41800000000E+01 0.  1.
         -5    1    3    3    0  502 -0.19820458783E+02 -0.11116374764E+03  0.14179440969E+02  0.11388045628E+03  0.41800000000E+01 0.  1.
        -11    1    4    4    0    0  0.49299219497E+02  0.11056187008E+02  0.61452682846E+01  0.50896135771E+02  0.00000000000E+00 0.  1.
         11    1    4    4    0    0  0.12795708861E+03  0.19901797595E+03  0.88115488238E+02  0.25247873286E+03  0.00000000000E+00 0. -1.
</event>
<event>
 8    1  0.6850220E-009  0.8860625E+02  0.7561462E-02  0.1306262E+00
          1   -1    0    0  501    0  0.00000000000E+00  0.00000000000E+00  0.37848715905E+03  0.37848715905E+03  0.00000000000E+00 0. -1.
         -1   -1    0    0    0  501 -0.00000000000E+00 -0.00000000000E+00 -0.48413545800E+02  0.48413545800E+02  0.00000000000E+00 0.  1.
         25    2    1    2    0    0 -0.28403375802E+02  0.26741222628E+02  0.29515890311E+03  0.32293987968E+03  0.12509813371E+03 0.  0.
         23    2    1    2    0    0  0.28403375802E+02 -0.26741222628E+02  0.34914710139E+02  0.10396082517E+03  0.89816320574E+02 0.  0.
          5    1    3    3  502    0 -0.63779570917E+02 -0.12407509677E+02  0.22975065511E+03  0.23879827447E+03  0.41800000000E+01 0. -1.
         -5    1    3    3    0  502  0.35376195115E+02  0.39148732305E+02  0.65408247997E+02  0.84141605213E+02  0.41800000000E+01 0. -1.
        -11    1    4    4    0    0  0.32295207608E+02 -0.14693702687E+00  0.59393940999E+02  0.67606525219E+02  0.00000000000E+00 0. -1.
         11    1    4    4    0    0 -0.38918318056E+01 -0.26594285601E+02 -0.24479230859E+02  0.36354299951E+02  0.00000000000E+00 0.  1.
</event>
<event>
 8    1  0.6850220E-009  0.4085779E+03  0.7561462E-02  0.1040849E+00
          1   -1    0    0  501    0  0.00000000000E+00  0.00000000000E+00  0.31694742501E+03  0.31694742501E+03  0.00000000000E+00 0. -1.
         -1   -1    0    0    0  501 -0.00000000000E+00 -0.00000000000E+00 -0.56618079568E+03  0.56618079568E+03  0.00000000000E+00 0.  1.
         25    2    1    2    0    0 -0.27316138687E+03 -0.29345042592E+03 -0.39767291356E+02  0.42185257684E+03  0.12509142009E+03 0.  0.
         23    2    1    2    0    0  0.27316138687E+03  0.29345042592E+03 -0.20946607932E+03  0.46127564385E+03  0.90381886895E+02 0.  0.
          5    1    3    3  502    0 -0.18235851614E+03 -0.26328568364E+03 -0.61741194940E+01  0.32035850507E+03  0.41800000000E+01 0.  1.
         -5    1    3    3    0  502 -0.90802870726E+02 -0.30164742272E+02 -0.33593171862E+02  0.10149407177E+03  0.41800000000E+01 0.  1.
        -11    1    4    4    0    0  0.19413198917E+03  0.21624256720E+03 -0.19473506428E+03  0.34981398249E+03  0.00000000000E+00 0. -1.
         11    1    4    4    0    0  0.79029397703E+02  0.77207858716E+02 -0.14731015037E+02  0.11146166136E+03  0.00000000000E+00 0.  1.
</event>
<event>
 8    1  0.6850220E-009  0.1176104E+03  0.7561462E-02  0.1247092E+00
         -2   -1    0    0    0  501 -0.00000000000E+00  0.00000000000E+00  0.86584080123E+02  0.86584080123E+02  0.00000000000E+00 0. -1.
          2   -1    0    0  501    0  0.00000000000E+00 -0.00000000000E+00 -0.21242214067E+03  0.21242214067E+03  0.00000000000E+00 0.  1.
         25    2    1    2    0    0  0.48850499793E+02  0.60387949451E+02 -0.78217864358E+02  0.16672887173E+03  0.12508959428E+03 0.  0.
         23    2    1    2    0    0 -0.48850499793E+02 -0.60387949451E+02 -0.47620196186E+02  0.13227734906E+03  0.95898582990E+02 0.  0.
          5    1    3    3  502    0 -0.34151822300E+02  0.37922102883E+02 -0.12047190804E+01  0.51218713392E+02  0.41800000000E+01 0. -1.
         -5    1    3    3    0  502  0.83002322093E+02  0.22465846568E+02 -0.77013145278E+02  0.11551015834E+03  0.41800000000E+01 0. -1.
        -11    1    4    4    0    0 -0.44397369564E+02 -0.72503891064E+02 -0.67513227257E+02  0.10856323732E+03  0.00000000000E+00 0.  1.
         11    1    4    4    0    0 -0.44531302294E+01  0.12115941613E+02  0.19893031071E+02  0.23714111731E+02  0.00000000000E+00 0. -1.
</event>
<event>
 8    1  0.6850220E-009  0.1447804E+03  0.7561462E-02  0.1207038E+00
          2   -1    0    0  501    0  0.00000000000E+00  0.00000000000E+00  0.14048317098E+04  0.14048317098E+04  0.00000000000E+00 0. -1.
         -2   -1    0    0    0  501 -0.00000000000E+00 -0.00000000000E+00 -0.17803107305E+02  0.17803107305E+02  0.00000000000E+00 0.  1.
         25    2    1    2    0    0 -0.44920714264E+02  0.98613931679E+02  0.92604082879E+03  0.94071316693E+03  0.12508823993E+03 0.  0.
         23    2    1    2    0    0  0.44920714264E+02 -0.98613931679E+02  0.46098777369E+03  0.48192165015E+03  0.89421313476E+02 0.  0.
          5    1    3    3  502    0 -0.83417019573E+02  0.68378055759E+02  0.75769404202E+03  0.76534416531E+03  0.41800000000E+01 0.  1.
         -5    1    3    3    0  502  0.38496305309E+02  0.30235875920E+02  0.16834678677E+03  0.17536900162E+03  0.41800000000E+01 0.  1.
        -11    1    4    4    0    0 -0.20671727773E+02 -0.37597475852E+02  0.23389434788E+03  0.23779709100E+03  0.00000000000E+00 0.  1.
         11    1    4    4    0    0  0.65592442037E+02 -0.61016455827E+02  0.22709342581E+03  0.24412455915E+03  0.00000000000E+00 0. -1.
</event>
<event>
 8    1  0.6850220E-009  0.2597828E+03  0.7561462E-02  0.1107274E+00
          2   -1    0    0  501    0  0.00000000000E+00  0.00000000000E+00  0.13469882426E+03  0.13469882426E+03  0.00000000000E+00 0.  1.
         -2   -1    0    0    0  501 -0.00000000000E+00 -0.00000000000E+00 -0.51852001308E+03  0.51852001308E+03  0.00000000000E+00 0. -1.
         25    2    1    2    0    0 -0.22524493971E+03  0.77510272227E+02 -0.23337748013E+03  0.35616810673E+03  0.12509015491E+03 0.  0.
         23    2    1    2    0    0  0.22524493971E+03 -0.77510272227E+02 -0.15044370870E+03  0.29705073061E+03  0.94141924249E+02 0.  0.
          5    1    3    3  502    0 -0.66402830143E+02  0.82434075096E+02 -0.12457555388E+03  0.16352753166E+03  0.41800000000E+01 0. -1.
         -5    1    3    3    0  502 -0.15884210957E+03 -0.49238028686E+01 -0.10880192625E+03  0.19264057507E+03  0.41800000000E+01 0. -1.
        -11    1    4    4    0    0  0.10742087195E+03  0.10007292156E+02 -0.48114779576E+02  0.11812883493E+03  0.00000000000E+00 0.  1.
         11    1    4    4    0    0  0.11782406776E+03 -0.87517564384E+02 -0.10232892912E+03  0.17892189568E+03  0.00000000000E+00 0. -1.
</event>
<event>
 8    1  0.6850220E-009  0.1169015E+03  0.7561462E-02  0.1248298E+00
         -2   -1    0    0    0  501 -0.00000000000E+00  0.00000000000E+00  0.23762239706E+02  0.23762239706E+02  0.00000000000E+00 0.  1.
          2   -1    0    0  501    0  0.00000000000E+00 -0.00000000000E+00 -0.61397052748E+03  0.61397052748E+03  0.00000000000E+00 0. -1.
         25    2    1    2    0    0 -0.11319531138E+02  0.49640770782E+02 -0.30054686887E+03  0.32949696082E+03  0.12508992324E+03 0.  0.
         23    2    1    2    0    0  0.11319531138E+02 -0.49640770782E+02 -0.28966141890E+03  0.30823580636E+03  0.92267203335E+02 0.  0.
          5    1    3    3  502    0 -0.59164306276E+02  0.61109078292E+02 -0.17603897126E+03  0.19555543048E+03  0.41800000000E+01 0.  1.
         -5    1    3    3    0  502  0.47844775137E+02 -0.11468307510E+02 -0.12450789761E+03  0.13394153035E+03  0.41800000000E+01 0.  1.
        -11    1    4    4    0    0  0.40837607027E+02 -0.55765048417E+02 -0.24335840853E+03  0.25298372630E+03  0.00000000000E+00 0. -1.
         11    1    4    4    0    0 -0.29518075889E+02  0.61242776353E+01 -0.46303010379E+02  0.55252080059E+02  0.00000000000E+00 0.  1.
</event>
<event>
 8    1  0.6850220E-009  0.1249685E+03  0.7561462E-02  0.1235119E+00
          2   -1    0    0  501    0  0.00000000000E+00  0.00000000000E+00  0.82243727628E+03  0.82243727628E+03  0.00000000000E+00 0. -1.
         -2   -1    0    0    0  501 -0.00000000000E+00 -0.00000000000E+00 -0.22248491455E+02  0.22248491455E+02  0.00000000000E+00 0.  1.
         25    2    1    2    0    0  0.12678819110E+02  0.79546167647E+02  0.43635732259E+03  0.46102426339E+03  0.12508922102E+03 0.  0.
         23    2    1    2    0    0 -0.12678819110E+02 -0.79546167647E+02  0.36383146223E+03  0.38366150434E+03  0.91293328138E+02 0.  0.
          5    1    3    3  502    0  0.37785904675E+02 -0.77316850396E+01  0.45786044091E+02  0.60011563712E+02  0.41800000000E+01 0.  1.
         -5    1    3    3    0  502 -0.25107085565E+02  0.87277852687E+02  0.39057127850E+03  0.40101269968E+03  0.41800000000E+01 0.  1.
        -11    1    4    4    0    0  0.34777665137E+02 -0.10280284504E+02  0.83731897148E+02  0.91248018290E+02  0.00000000000E+00 0.  1.
         11    1    4    4    0    0 -0.47456484247E+02 -0.69265883143E+02  0.28009956508E+03  0.29241348605E+03  0.00000000000E+00 0. -1.
</event>
<event>
 8    1  0.6850220E-009  0.1125364E+03  0.7561462E-02  0.1255944E+00
          2   -1    0    0  501    0  0.00000000000E+00  0.00000000000E+00  0.77301034800E+03  0.77301034800E+03  0.00000000000E+00 0. -1.
         -2   -1    0    0    0  501 -0.00000000000E+00 -0.00000000000E+00 -0.22002981159E+02  0.22002981159E+02  0.00000000000E+00 0.  1.
         25    2    1    2    0    0 -0.47293862750E+02 -0.29735378027E+02  0.28642406816E+03  0.31750146406E+03  0.12509009032E+03 0.  0.
         23    2    1    2    0    0  0.47293862750E+02  0.29735378027E+02  0.46458329867E+03  0.47751186509E+03  0.95178977408E+02 0.  0.
          5    1    3    3  502    0  0.24570440242E+02 -0.34534881901E+02  0.32629773057E+02  0.53652018521E+02  0.41800000000E+01 0. -1.
         -5    1    3    3    0  502 -0.71864302992E+02  0.47995038738E+01  0.25379429511E+03  0.26384944554E+03  0.41800000000E+01 0. -1.
        -11    1    4    4    0    0 -0.12639171424E+02 -0.25737129858E+02  0.11635215836E+03  0.11983310587E+03  0.00000000000E+00 0. -1.
         11    1    4    4    0    0  0.59933034174E+02  0.55472507886E+02  0.34823114031E+03  0.35767875922E+03  0.00000000000E+00 0.  1.
</event>
<event>
 7    1  0.6850220E-009  0.1042975E+03  0.7561462E-02  0.1271510E+00
          2   -1    0    0  501    0  0.00000000000E+00  0.00000000000E+00  0.14292999549E+04  0.14292999549E+04  0.00000000000E+00 0. -1.
         -2   -1    0    0    0  501 -0.00000000000E+00 -0.00000000000E+00 -0.16968142972E+02  0.16968142972E+02  0.00000000000E+00 0.  1.
         25    2    1    2    0    0  0.14916425379E+02 -0.26859368036E+02  0.87955131211E+03  0.88893282171E+03  0.12508847062E+03 0.  0.
          5    1    3    3  502    0  0.27340160804E+02 -0.26563208138E+02  0.74640468768E+02  0.83915197654E+02  0.41800000000E+01 0.  1.
         -5    1    3    3    0  502 -0.12423735425E+02 -0.29615989733E+00  0.80491084334E+03  0.80501762406E+03  0.41800000000E+01 0.  1.
        -11    1    1    2    0    0 -0.84859847780E+02  0.13470364782E+02  0.36668253592E+03  0.37661482531E+03  0.00000000000E+00 0. -1.
         11    1    1    2    0    0  0.69943422401E+02  0.13389003254E+02  0.16609796388E+03  0.18072045084E+03  0.00000000000E+00 0.  1.
</event>
<event>
 8    1  0.6850220E-009  0.1107069E+03  0.7561462E-02  0.1259266E+00
          1   -1    0    0  501    0  0.00000000000E+00  0.00000000000E+00  0.36409605463E+02  0.36409605463E+02  0.00000000000E+00 0. -1.
         -1   -1    0    0    0  501 -0.00000000000E+00 -0.00000000000E+00 -0.52550604053E+03  0.52550604053E+03  0.00000000000E+00 0.  1.
         25    2    1    2    0    0 -0.29321759700E+02  0.77257874276E+02 -0.27128798134E+03  0.30995625061E+03  0.12508862354E+03 0.  0.
         23    2    1    2    0    0  0.29321759700E+02 -0.77257874276E+02 -0.21780845373E+03  0.25195939539E+03  0.95992029259E+02 0.  0.
          5    1    3    3  502    0  0.30422135105E+02  0.34545624736E+02 -0.20751598635E+03  0.21260118411E+03  0.41800000000E+01 0.  1.
         -5    1    3    3    0  502 -0.59743894805E+02  0.42712249540E+02 -0.63771994991E+02  0.97355066495E+02  0.41800000000E+01 0.  1.
        -11    1    4    4    0    0  0.42568197778E+02 -0.28797134678E+02 -0.18488170318E+03  0.19189208061E+03  0.00000000000E+00 0.  1.
         11    1    4    4    0    0 -0.13246438078E+02 -0.48460739598E+02 -0.32926750546E+02  0.60067314786E+02  0.00000000000E+00 0. -1.
</event>
<event>
 8    1  0.6850220E-009  0.9488127E+02  0.7561462E-02  0.1291444E+00
         -1   -1    0    0    0  501 -0.00000000000E+00  0.00000000000E+00  0.14577155392E+03  0.14577155392E+03  0.00000000000E+00 0.  1.
          1   -1    0    0  501    0  0.00000000000E+00 -0.00000000000E+00 -0.84983535673E+02  0.84983535673E+02  0.00000000000E+00 0. -1.
         25    2    1    2    0    0 -0.13061410833E+02 -0.20253539475E+02  0.97276431518E+01  0.12775959281E+03  0.12508828962E+03 0.  0.
         23    2    1    2    0    0  0.13061410833E+02  0.20253539475E+02  0.51060375096E+02  0.10299549678E+03  0.86140026345E+02 0.  0.
          5    1    3    3  502    0 -0.22132212767E+02 -0.59262231765E+02 -0.30926446621E+02  0.70539098777E+02  0.41800000000E+01 0. -1.
         -5    1    3    3    0  502  0.90708019339E+01  0.39008692290E+02  0.40654089772E+02  0.57220494031E+02  0.41800000000E+01 0. -1.
        -11    1    4    4    0    0  0.31191691424E+02 -0.23291831094E+02  0.37169295670E+02  0.53823670909E+02  0.00000000000E+00 0. -1.
         11    1    4    4    0    0 -0.18130280591E+02  0.43545370569E+02  0.13891079426E+02  0.49171825875E+02  0.00000000000E+00 0.  1.
</event>
<event>
 8    1  0.6850220E-009  0.1482580E+03  0.7561462E-02  0.1202630E+00
         -1   -1    0    0    0  501 -0.00000000000E+00  0.00000000000E+00  0.11052996036E+03  0.11052996036E+03  0.00000000000E+00 0.  1.
          1   -1    0    0  501    0  0.00000000000E+00 -0.00000000000E+00 -0.29030341734E+03  0.29030341734E+03  0.00000000000E+00 0. -1.
         25    2    1    2    0    0 -0.10739461451E+03  0.56763652747E+02 -0.17733155795E+03  0.24869691055E+03  0.12509179180E+03 0.  0.
         23    2    1    2    0    0  0.10739461451E+03 -0.56763652747E+02 -0.24418990287E+01  0.15213646715E+03  0.91563236441E+02 0.  0.
          5    1    3    3  502    0 -0.81212019970E+02 -0.24623712524E+02 -0.62521834620E+02  0.10549014935E+03  0.41800000000E+01 0.  1.
         -5    1    3    3    0  502 -0.26182594543E+02  0.81387365271E+02 -0.11480972333E+03  0.14320676120E+03  0.41800000000E+01 0.  1.
        -11    1    4    4    0    0  0.35331752549E+02 -0.19014888751E+01  0.38893364188E+02  0.52579864739E+02  0.00000000000E+00 0.  1.
         11    1    4    4    0    0  0.72062861963E+02 -0.54862163872E+02 -0.41335263217E+02  0.99556602414E+02  0.00000000000E+00 0. -1.
</event>
<event>
 8    1  0.6850220E-009  0.7963624E+02  0.7561462E-02  0.1330087E+00
          1   -1    0    0  501    0  0.00000000000E+00  0.00000000000E+00  0.85666555751E+02  0.85666555751E+02  0.00000000000E+00 0. -1.
         -1   -1    0    0    0  501 -0.00000000000E+00 -0.00000000000E+00 -0.15352982858E+03  0.15352982858E+03  0.00000000000E+00 0.  1.
         25    2    1    2    0    0  0.77426562115E+01 -0.24848537566E+02 -0.20372433157E+02  0.12936625505E+03  0.12507275230E+03 0.  0.
         23    2    1    2    0    0 -0.77426562115E+01  0.24848537566E+02 -0.47490839668E+02  0.10983012928E+03  0.95550399790E+02 0.  0.
          5    1    3    3  502    0 -0.81786171613E+01 -0.70209300123E+02 -0.34941721296E+02  0.78959685217E+02  0.41800000000E+01 0.  1.
         -5    1    3    3    0  502  0.15921273373E+02  0.45360762557E+02  0.14569288139E+02  0.50406569834E+02  0.41800000000E+01 0.  1.
        -11    1    4    4    0    0 -0.19301457112E+02  0.19622973186E+02 -0.74808198319E+02  0.79711190300E+02  0.00000000000E+00 0.  1.
         11    1    4    4    0    0  0.11558800901E+02  0.52255643806E+01  0.27317358651E+02  0.30118938976E+02  0.00000000000E+00 0. -1.
</event>
<event>
 8    1  0.6850220E-009  0.9891943E+02  0.7561462E-02  0.1282585E+00
          3   -1    0    0  501    0  0.00000000000E+00  0.00000000000E+00  0.76956055388E+03  0.76956055388E+03  0.00000000000E+00 0. -1.
         -3   -1    0    0    0  501 -0.00000000000E+00 -0.00000000000E+00 -0.23713731284E+02  0.23713731284E+02  0.00000000000E+00 0.  1.
         25    2    1    2    0    0 -0.62354135333E+02  0.48986290401E+02  0.44592957165E+03  0.46987993351E+03  0.12508506789E+03 0.  0.
         23    2    1    2    0    0  0.62354135333E+02 -0.48986290401E+02  0.29991725095E+03  0.32339435165E+03  0.91355648004E+02 0.  0.
          5    1    3    3  502    0  0.31286698927E+01 -0.14975145447E+02  0.27903011176E+03  0.27948044516E+03  0.41800000000E+01 0.  1.
         -5    1    3    3    0  502 -0.65482805225E+02  0.63961435847E+02  0.16689945988E+03  0.19039948835E+03  0.41800000000E+01 0.  1.
        -11    1    4    4    0    0  0.10256498911E+02 -0.34903887075E+02  0.27292033660E+02  0.45478920437E+02  0.00000000000E+00 0.  1.
         11    1    4    4    0    0  0.52097636422E+02 -0.14082403325E+02  0.27262521729E+03  0.27791543122E+03  0.00000000000E+00 0. -1.
</event>
<event>
 8    1  0.6850220E-009  0.1048882E+03  0.7561462E-02  0.1270340E+00
         -3   -1    0    0    0  501 -0.00000000000E+00  0.00000000000E+00  0.96232667309E+02  0.96232667309E+02  0.00000000000E+00 0.  1.
          3   -1    0    0  501    0  0.00000000000E+00 -0.00000000000E+00 -0.14460954386E+03  0.14460954386E+03  0.00000000000E+00 0. -1.
         25    2    1    2    0    0 -0.13832842372E+02 -0.46014850941E+02 -0.29850106205E+02  0.13728611939E+03  0.12509090975E+03 0.  0.
         23    2    1    2    0    0  0.13832842372E+02  0.46014850941E+02 -0.18526770348E+02  0.10355609178E+03  0.89843802736E+02 0.  0.
          5    1    3    3  502    0  0.46416287694E+02  0.14049982067E+02 -0.77585743691E+01  0.49290380762E+02  0.41800000000E+01 0. -1.
         -5    1    3    3    0  502 -0.60249130066E+02 -0.60064833008E+02 -0.22091531836E+02  0.87995738629E+02  0.41800000000E+01 0. -1.
        -11    1    4    4    0    0 -0.23083622266E+02  0.21961996584E+02  0.25843635877E+02  0.41025314456E+02  0.00000000000E+00 0.  1.
         11    1    4    4    0    0  0.36916464638E+02  0.24052854357E+02 -0.44370406226E+02  0.62530777324E+02  0.00000000000E+00 0. -1.
</event>
<event>
 8    1  0.6850220E-009  0.9427235E+02  0.7561462E-02  0.1292823E+00
         -2   -1    0    0    0  501 -0.00000000000E+00  0.00000000000E+00  0.16682811360E+03  0.16682811360E+03  0.00000000000E+00 0.  1.
          2   -1    0    0  501    0  0.00000000000E+00 -0.00000000000E+00 -0.10682831603E+03  0.10682831603E+03  0.00000000000E+00 0. -1.
         25    2    1    2    0    0  0.73922198599E+02  0.10464307499E+02  0.11617111160E+02  0.14613780150E+03  0.12508919449E+03 0.  0.
         23    2    1    2    0    0 -0.73922198599E+02 -0.10464307499E+02  0.48382686413E+02  0.12751862813E+03  0.91357117941E+02 0.  0.
          5    1    3    3  502    0  0.30288199377E+02 -0.13087018451E+02 -0.54222374974E+02  0.63609617364E+02  0.41800000000E+01 0. -1.
         -5    1    3    3    0  502  0.43633999222E+02  0.23551325950E+02  0.65839486134E+02  0.82528184134E+02  0.41800000000E+01 0. -1.
        -11    1    4    4    0    0 -0.39611954141E+02  0.32007538500E+02  0.52019713875E+02  0.72798626795E+02  0.00000000000E+00 0.  1.
         11    1    4    4    0    0 -0.34310244457E+02 -0.42471845999E+02 -0.36370274616E+01  0.54720001334E+02  0.00000000000E+00 0. -1.
</event>
<event>
 8    1  0.6850220E-009  0.9155959E+02  0.7561462E-02  0.1299118E+00
          1   -1    0    0  501    0  0.00000000000E+00  0.00000000000E+00  0.18970428046E+03  0.18970428046E+03  0.00000000000E+00 0.  1.
         -1   -1    0    0    0  501 -0.00000000000E+00 -0.00000000000E+00 -0.70151743253E+02  0.70151743253E+02  0.00000000000E+00 0. -1.
         25    2    1    2    0    0 -0.17198721332E+02  0.13728909758E+02  0.30146992638E+02  0.13054548924E+03  0.12509598162E+03 0.  0.
         23    2    1    2    0    0  0.17198721332E+02 -0.13728909758E+02  0.89405544570E+02  0.12931053448E+03  0.90794184549E+02 0.  0.
          5    1    3    3  502    0  0.33587480786E+02  0.25384240460E+02 -0.29240322421E+02  0.51429051951E+02  0.41800000000E+01 0. -1.
         -5    1    3    3    0  502 -0.50786202117E+02 -0.11655330701E+02  0.59387315060E+02  0.79116437288E+02  0.41800000000E+01 0. -1.
        -11    1    4    4    0    0  0.12482007891E+01 -0.49424503924E+02  0.69900738252E+02  0.85618063524E+02  0.00000000000E+00 0.  1.
         11    1    4    4    0    0  0.15950520542E+02  0.35695594165E+02  0.19504806318E+02  0.43692470952E+02  0.00000000000E+00 0. -1.
</event>
<event>
 8    1  0.6850220E-009  0.1625671E+03  0.7561462E-02  0.1185829E+00
         -2   -1    0    0    0  501 -0.00000000000E+00  0.00000000000E+00  0.16892488360E+03  0.16892488360E+03  0.00000000000E+00 0.  1.
          2   -1    0    0  501    0  0.00000000000E+00 -0.00000000000E+00 -0.20424033324E+03  0.20424033324E+03  0.00000000000E+00 0. -1.
         25    2    1    2    0    0 -0.82608751073E+02 -0.87673332859E+02 -0.10847755462E+03  0.20477173036E+03  0.12511299952E+03 0.  0.
         23    2    1    2    0    0  0.82608751073E+02  0.87673332859E+02  0.73162104975E+02  0.16839348648E+03  0.92156679832E+02 0.  0.
          5    1    3    3  502    0  0.30148528784E+02 -0.42144722855E+02 -0.33822333379E+02  0.62020432823E+02  0.41800000000E+01 0.  1.
         -5    1    3    3    0  502 -0.11275727986E+03 -0.45528610004E+02 -0.74655221237E+02  0.14275129753E+03  0.41800000000E+01 0.  1.
        -11    1    4    4    0    0  0.74126267603E+01  0.74821021720E+02  0.32040118421E+02  0.81729440933E+02  0.00000000000E+00 0.  1.
         11    1    4    4    0    0  0.75196124313E+02  0.12852311138E+02  0.41121986553E+02  0.86664045552E+02  0.00000000000E+00 0. -1.
</event>
<event>
 8    1  0.6850220E-009  0.1051257E+03  0.7561462E-02  0.1269872E+00
         -2   -1    0    0    0  501 -0.00000000000E+00  0.00000000000E+00  0.11130779112E+02  0.11130779112E+02  0.00000000000E+00 0.  1.
          2   -1    0    0  501    0  0.00000000000E+00 -0.00000000000E+00 -0.10963773608E+04  0.10963773608E+04  0.00000000000E+00 0. -1.
         25    2    1    2    0    0  0.80375563533E+01  0.39930290581E+01 -0.77150105674E+03  0.78162770120E+03  0.12508971235E+03 0.  0.
         23    2    1    2    0    0 -0.80375563533E+01 -0.39930290581E+01 -0.31374552493E+03  0.32588043870E+03  0.87642793870E+02 0.  0.
          5    1    3    3  502    0 -0.53685263715E+02 -0.17608407573E+02 -0.27124810183E+03  0.27710136901E+03  0.41800000000E+01 0.  1.
         -5    1    3    3    0  502  0.61722820068E+02  0.21601436631E+02 -0.50025295491E+03  0.50452633219E+03  0.41800000000E+01 0.  1.
        -11    1    4    4    0    0  0.62805796866E+01 -0.44586200436E+02 -0.15612188601E+03  0.16248513238E+03  0.00000000000E+00 0. -1.
         11    1    4    4    0    0 -0.14318136040E+02  0.40593171378E+02 -0.15762363892E+03  0.16339530632E+03  0.00000000000E+00 0.  1.
</event>
<event>
 8    1  0.6850220E-009  0.7362694E+02  0.7561462E-02  0.1348176E+00
          2   -1    0    0  501    0  0.00000000000E+00  0.00000000000E+00  0.26183714768E+03  0.26183714768E+03  0.00000000000E+00 0. -1.
         -2   -1    0    0    0  501 -0.00000000000E+00 -0.00000000000E+00 -0.46718194239E+02  0.46718194239E+02  0.00000000000E+00 0.  1.
         25    2    1    2    0    0 -0.16792452328E+00 -0.14878408529E+02  0.14560784515E+03  0.19253637879E+03  0.12508883783E+03 0.  0.
         23    2    1    2    0    0  0.16792452328E+00  0.14878408529E+02  0.69511108295E+02  0.11601896313E+03  0.91690841367E+02 0.  0.
          5    1    3    3  502    0  0.68103387876E+01  0.32077194085E+02  0.14081243321E+03  0.14464073023E+03  0.41800000000E+01 0.  1.
         -5    1    3    3    0  502 -0.69782633108E+01 -0.46955602614E+02  0.47954119420E+01  0.47895648564E+02  0.41800000000E+01 0.  1.
        -11    1    4    4    0    0  0.67001792788E+01  0.40013882923E+02  0.78641717913E+02  0.88490242543E+02  0.00000000000E+00 0. -1.
         11    1    4    4    0    0 -0.65322547555E+01 -0.25135474394E+02 -0.91306096188E+01  0.27528720588E+02  0.00000000000E+00 0.  1.
</event>
<event>
 8    1  0.6850220E-009  0.1106318E+03  0.7561462E-02  0.1259404E+00
         -1   -1    0    0    0  501 -0.00000000000E+00  0.00000000000E+00  0.11258294045E+02  0.11258294045E+02  0.00000000000E+00 0.  1.
          1   -1    0    0  501    0  0.00000000000E+00 -0.00000000000E+00 -0.12413433035E+04  0.12413433035E+04  0.00000000000E+00 0. -1.
         25    2    1    2    0    0  0.36451128136E+02  0.37219162255E+02 -0.81759203629E+03  0.82874578648E+03  0.12509552359E+03 0.  0.
         23    2    1    2    0    0 -0.36451128136E+02 -0.37219162255E+02 -0.41249297321E+03  0.42385581111E+03  0.82397481045E+02 0.  0.
          5    1    3    3  502    0 -0.19527908353E+02 -0.31858445644E+02 -0.12724405624E+03  0.13268316401E+03  0.41800000000E+01 0.  1.
         -5    1    3    3    0  502  0.55979036489E+02  0.69077607899E+02 -0.69034798005E+03  0.69606262247E+03  0.41800000000E+01 0.  1.
        -11    1    4    4    0    0 -0.47870260640E+02  0.75398008579E+01 -0.26160059020E+03  0.26605127183E+03  0.00000000000E+00 0. -1.
         11    1    4    4    0    0  0.11419132504E+02 -0.44758963113E+02 -0.15089238301E+03  0.15780453928E+03  0.00000000000E+00 0.  1.
</event>
<event>
 8    1  0.6850220E-009  0.8025536E+02  0.7561462E-02  0.1328328E+00
         -2   -1    0    0    0  501 -0.00000000000E+00  0.00000000000E+00  0.10613855330E+03  0.10613855330E+03  0.00000000000E+00 0.  1.
          2   -1    0    0  501    0  0.00000000000E+00 -0.00000000000E+00 -0.12037648878E+03  0.12037648878E+03  0.00000000000E+00 0. -1.
         25    2    1    2    0    0 -0.10629105946E+02 -0.26666730375E+02  0.69772927000E+01  0.12852514470E+03  0.12508372318E+03 0.  0.
         23    2    1    2    0    0  0.10629105946E+02  0.26666730375E+02 -0.21215228174E+02  0.97989897381E+02  0.91257008937E+02 0.  0.
          5    1    3    3  502    0  0.33031216225E+02 -0.17123254801E+02 -0.45855973860E+02  0.59198900656E+02  0.41800000000E+01 0.  1.
         -5    1    3    3    0  502 -0.43660322171E+02 -0.95434755735E+01  0.52833266560E+02  0.69326244046E+02  0.41800000000E+01 0.  1.
        -11    1    4    4    0    0 -0.13124758737E+02 -0.21093528597E+02  0.18926701447E+02  0.31231654907E+02  0.00000000000E+00 0.  1.
         11    1    4    4    0    0  0.23753864684E+02  0.47760258972E+02 -0.40141929621E+02  0.66758242474E+02  0.00000000000E+00 0. -1.
</event>
<event>
 8    1  0.6850220E-009  0.1711247E+03  0.7561462E-02  0.1176680E+00
          1   -1    0    0  501    0  0.00000000000E+00  0.00000000000E+00  0.10042817064E+04  0.10042817064E+04  0.00000000000E+00 0. -1.
         -1   -1    0    0    0  501 -0.00000000000E+00 -0.00000000000E+00 -0.30608288389E+02  0.30608288389E+02  0.00000000000E+00 0.  1.
         25    2    1    2    0    0  0.11946841231E+03  0.60271271154E+02  0.44606723579E+03  0.48221270428E+03  0.12509110943E+03 0.  0.
         23    2    1    2    0    0 -0.11946841231E+03 -0.60271271154E+02  0.52760618221E+03  0.55267729049E+03  0.95804886393E+02 0.  0.
          5    1    3    3  502    0  0.87351135316E+02  0.96721231825E+02  0.36522085618E+03  0.38780015950E+03  0.41800000000E+01 0.  1.
         -5    1    3    3    0  502  0.32117276992E+02 -0.36449960672E+02  0.80846379610E+02  0.94412544773E+02  0.41800000000E+01 0.  1.
        -11    1    4    4    0    0 -0.26409507832E+02  0.25373251133E+02  0.15202688921E+03  0.15637595410E+03  0.00000000000E+00 0. -1.
         11    1    4    4    0    0 -0.93058904476E+02 -0.85644522287E+02  0.37557929300E+03  0.39630133640E+03  0.00000000000E+00 0.  1.
</event>
<event>
 8    1  0.6850220E-009  0.6031211E+02  0.7561462E-02  0.1396527E+00
          1   -1    0    0  501    0  0.00000000000E+00  0.00000000000E+00  0.34450589505E+02  0.34450589505E+02  0.00000000000E+00 0. -1.
         -1   -1    0    0    0  501 -0.00000000000E+00 -0.00000000000E+00 -0.42536578862E+03  0.42536578862E+03  0.00000000000E+00 0.  1.
         25    2    1    2    0    0  0.35587951518E+02 -0.29822057519E+02 -0.17481065414E+03  0.21990942404E+03  0.12508210333E+03 0.  0.
         23    2    1    2    0    0 -0.35587951518E+02  0.29822057519E+02 -0.21610454498E+03  0.23990695408E+03  0.93264756739E+02 0.  0.
          5    1    3    3  502    0  0.22828504441E+02 -0.38176559078E+02 -0.29453046341E+00  0.44678288086E+02  0.41800000000E+01 0.  1.
         -5    1    3    3    0  502  0.12759447077E+02  0.83545015595E+01 -0.17451612367E+03  0.17523113595E+03  0.41800000000E+01 0.  1.
        -11    1    4    4    0    0 -0.16449762294E+02 -0.75852842690E+01  0.15996062308E+01  0.18184882652E+02  0.00000000000E+00 0. -1.
         11    1    4    4    0    0 -0.19138189224E+02  0.37407341788E+02 -0.21770415121E+03  0.22172207143E+03  0.00000000000E+00 0.  1.
</event>
<event>
 8    1  0.6850220E-009  0.1074769E+03  0.7561462E-02  0.1265315E+00
         -1   -1    0    0    0  501 -0.00000000000E+00  0.00000000000E+00  0.29975819844E+03  0.29975819844E+03  0.00000000000E+00 0.  1.
          1   -1    0    0  501    0  0.00000000000E+00 -0.00000000000E+00 -0.94804706027E+02  0.94804706027E+02  0.00000000000E+00 0. -1.
         25    2    1    2    0    0 -0.17445362560E+01  0.42492359980E+02 -0.32627232328E+02  0.13609286767E+03  0.12509231902E+03 0.  0.
         23    2    1    2    0    0  0.17445362560E+01 -0.42492359980E+02  0.23758072474E+03  0.25847003680E+03  0.92485215531E+02 0.  0.
          5    1    3    3  502    0 -0.59163065120E+02  0.26572332090E+02 -0.39364716526E+02  0.75982961342E+02  0.41800000000E+01 0.  1.
         -5    1    3    3    0  502  0.57418528864E+02  0.15920027890E+02  0.67374841985E+01  0.60109906324E+02  0.41800000000E+01 0.  1.
        -11    1    4    4    0    0 -0.69547212458E+01  0.23069577514E+02  0.20819533085E+02  0.31843782944E+02  0.00000000000E+00 0. -1.
         11    1    4    4    0    0  0.86992575017E+01 -0.65561937495E+02  0.21676119165E+03  0.22662625385E+03  0.00000000000E+00 0.  1.
</event>
<event>
 8    1  0.6850220E-009  0.1497637E+03  0.7561462E-02  0.1200764E+00
         -1   -1    0    0    0  501 -0.00000000000E+00  0.00000000000E+00  0.17773043404E+02  0.17773043404E+02  0.00000000000E+00 0.  1.
          1   -1    0    0  501    0  0.00000000000E+00 -0.00000000000E+00 -0.14219910603E+04  0.14219910603E+04  0.00000000000E+00 0. -1.
         25    2    1    2    0    0  0.52924011480E+02  0.95790042473E+02 -0.98770599524E+03  0.10015900189E+04  0.12507097842E+03 0.  0.
         23    2    1    2    0    0 -0.52924011480E+02 -0.95790042473E+02 -0.41651202167E+03  0.43817408485E+03  0.80855310320E+02 0.  0.
          5    1    3    3  502    0  0.33843966144E+02 -0.24982077857E+02 -0.31848463213E+03  0.32127784169E+03  0.41800000000E+01 0. -1.
         -5    1    3    3    0  502  0.19080045336E+02  0.12077212033E+03 -0.66922136311E+03  0.68031217718E+03  0.41800000000E+01 0. -1.
        -11    1    4    4    0    0  0.20636683680E+02 -0.28727251300E+02 -0.13598033298E+03  0.14050543988E+03  0.00000000000E+00 0.  1.
         11    1    4    4    0    0 -0.73560695161E+02 -0.67062791172E+02 -0.28053168870E+03  0.29766864496E+03  0.00000000000E+00 0. -1.
</event>
<event>
 8    1  0.6850220E-009  0.1351015E+03  0.7561462E-02  0.1220076E+00
          1   -1    0    0  501    0  0.00000000000E+00  0.00000000000E+00  0.14171374070E+03  0.14171374070E+03  0.00000000000E+00 0. -1.
         -1   -1    0    0    0  501 -0.00000000000E+00 -0.00000000000E+00 -0.14418507469E+03  0.14418507469E+03  0.00000000000E+00 0.  1.
         25    2    1    2    0    0  0.82596532060E+02 -0.25776078993E+02  0.37930764798E+02  0.15675815982E+03  0.12509110439E+03 0.  0.
         23    2    1    2    0    0 -0.82596532060E+02  0.25776078993E+02 -0.40402098783E+02  0.12914065557E+03  0.86938978473E+02 0.  0.
          5    1    3    3  502    0  0.47674581992E+01 -0.64311465183E+02  0.22654814614E+02  0.68479239459E+02  0.41800000000E+01 0.  1.
         -5    1    3    3    0  502  0.77829073861E+02  0.38535386190E+02  0.15275950184E+02  0.88278920365E+02  0.41800000000E+01 0.  1.
        -11    1    4    4    0    0  0.28649850017E+01 -0.21008751209E+02 -0.20912538961E+02  0.29781035110E+02  0.00000000000E+00 0.  1.
         11    1    4    4    0    0 -0.85461517062E+02  0.46784830203E+02 -0.19489559822E+02  0.99359620459E+02  0.00000000000E+00 0. -1.
</event>
<event>
 8    1  0.6850220E-009  0.1234168E+03  0.7561462E-02  0.1237565E+00
         -2   -1    0    0    0  501 -0.00000000000E+00  0.00000000000E+00  0.15166889342E+02  0.15166889342E+02  0.00000000000E+00 0.  1.
          2   -1    0    0  501    0  0.00000000000E+00 -0.00000000000E+00 -0.13945095938E+04  0.13945095938E+04  0.00000000000E+00 0. -1.
         25    2    1    2    0    0  0.43378981415E+02  0.81348728464E+02 -0.89806602683E+03  0.91141096115E+03  0.12509196578E+03 0.  0.
         23    2    1    2    0    0 -0.43378981415E+02 -0.81348728464E+02 -0.48127667763E+03  0.49826552200E+03  0.90232689906E+02 0.  0.
          5    1    3    3  502    0  0.32052333628E+02 -0.10058197682E+02 -0.55925535567E+03  0.56027898826E+03  0.41800000000E+01 0.  1.
         -5    1    3    3    0  502  0.11326647788E+02  0.91406926147E+02 -0.33881067115E+03  0.35113197289E+03  0.41800000000E+01 0.  1.
        -11    1    4    4    0    0  0.81329084409E+01 -0.66744462969E+02 -0.35157776348E+03  0.35794956531E+03  0.00000000000E+00 0. -1.
         11    1    4    4    0    0 -0.51511889856E+02 -0.14604265495E+02 -0.12969891416E+03  0.14031595669E+03  0.00000000000E+00 0.  1.
</event>
<event>
 8    1  0.6850220E-009  0.1285157E+03  0.7561462E-02  0.1229675E+00
         -4   -1    0    0    0  501 -0.00000000000E+00  0.00000000000E+00  0.20097137702E+03  0.20097137702E+03  0.00000000000E+00 0. -1.
          4   -1    0    0  501    0  0.00000000000E+00 -0.00000000000E+00 -0.11332544493E+03  0.11332544493E+03  0.00000000000E+00 0.  1.
         25    2    1    2    0    0  0.76877506536E+02 -0.71235266503E+02  0.51517929597E+02  0.17113553348E+03  0.12509460238E+03 0.  0.
         23    2    1    2    0    0 -0.76877506536E+02  0.71235266503E+02  0.36128002496E+02  0.14316128847E+03  0.90583153772E+02 0.  0.
          5    1    3    3  502    0  0.10348899524E+03 -0.67874536209E+02  0.13706580936E+02  0.12458839257E+03  0.41800000000E+01 0.  1.
         -5    1    3    3    0  502 -0.26611488706E+02 -0.33607302947E+01  0.37811348661E+02  0.46547140910E+02  0.41800000000E+01 0.  1.
        -11    1    4    4    0    0 -0.67740036790E+02  0.54329169277E+02 -0.15378429794E+02  0.88186548417E+02  0.00000000000E+00 0.  1.
         11    1    4    4    0    0 -0.91374697457E+01  0.16906097226E+02  0.51506432290E+02  0.54974740054E+02  0.00000000000E+00 0. -1.
</event>
<event>
 8    1  0.6850220E-009  0.1504079E+03  0.7561462E-02  0.1199973E+00
          1   -1    0    0  501    0  0.00000000000E+00  0.00000000000E+00  0.22085541223E+02  0.22085541223E+02  0.00000000000E+00 0. -1.
         -1   -1    0    0    0  501 -0.00000000000E+00 -0.00000000000E+00 -0.16401951677E+04  0.16401951677E+04  0.00000000000E+00 0.  1.
         25    2    1    2    0    0 -0.13014730463E+03 -0.37549038073E+02 -0.11936913720E+04  0.12078472694E+04  0.12509070089E+03 0.  0.
         23    2    1    2    0    0  0.13014730463E+03  0.37549038073E+02 -0.42441825455E+03  0.45443343960E+03  0.89613866469E+02 0.  0.
          5    1    3    3  502    0 -0.57507376965E+01 -0.90395976802E+01 -0.53825049212E+01  0.12697600935E+02  0.41800000000E+01 0. -1.
         -5    1    3    3    0  502 -0.12439656693E+03 -0.28509440393E+02 -0.11883088670E+04  0.11951496684E+04  0.41800000000E+01 0. -1.
        -11    1    4    4    0    0  0.85516466976E+02  0.66583990510E+02 -0.30495910990E+03  0.32364572086E+03  0.00000000000E+00 0.  1.
         11    1    4    4    0    0  0.44630837656E+02 -0.29034952436E+02 -0.11945914465E+03  0.13078771874E+03  0.00000000000E+00 0. -1.
</event>
<event>
 8    1  0.6850220E-009  0.1234117E+03  0.7561462E-02  0.1237573E+00
         -1   -1    0    0    0  501 -0.00000000000E+00  0.00000000000E+00  0.35502082731E+02  0.35502082731E+02  0.00000000000E+00 0.  1.
          1   -1    0    0  501    0  0.00000000000E+00 -0.00000000000E+00 -0.48595369928E+03  0.48595369928E+03  0.00000000000E+00 0. -1.
         25    2    1    2    0    0  0.50817178549E+02  0.49374883068E+02 -0.22162228503E+03  0.26416523218E+03  0.12508624210E+03 0.  0.
         23    2    1    2    0    0 -0.50817178549E+02 -0.49374883068E+02 -0.22882933152E+03  0.25729054982E+03  0.93889825598E+02 0.  0.
          5    1    3    3  502    0  0.73511303969E+02 -0.14098901972E+02 -0.99106061209E+02  0.12426654665E+03  0.41800000000E+01 0. -1.
         -5    1    3    3    0  502 -0.22694125421E+02  0.63473785040E+02 -0.12251622382E+03  0.13989868553E+03  0.41800000000E+01 0. -1.
        -11    1    4    4    0    0  0.20531516543E+02 -0.11747848241E+02 -0.13246110322E+02  0.27111151737E+02  0.00000000000E+00 0.  1.
         11    1    4    4    0    0 -0.71348695092E+02 -0.37627034827E+02 -0.21558322120E+03  0.23017939809E+03  0.00000000000E+00 0. -1.
</event>
<event>
 8    1  0.6850220E-009  0.1079013E+03  0.7561462E-02  0.1264506E+00
          2   -1    0    0  501    0  0.00000000000E+00  0.00000000000E+00  0.50406919566E+03  0.50406919566E+03  0.00000000000E+00 0. -1.
         -2   -1    0    0    0  501 -0.00000000000E+00 -0.00000000000E+00 -0.27261953160E+02  0.27261953160E+02  0.00000000000E+00 0.  1.
         25    2    1    2    0    0  0.30553735385E+02  0.80612105928E+01  0.19188040700E+03  0.23122334200E+03  0.12509048498E+03 0.  0.
         23    2    1    2    0    0 -0.30553735385E+02 -0.80612105928E+01  0.28492683550E+03  0.30010780682E+03  0.88785585906E+02 0.  0.
          5    1    3    3  502    0 -0.91463345527E+01 -0.52358465239E+02  0.10774809421E+03  0.12021725551E+03  0.41800000000E+01 0. -1.
         -5    1    3    3    0  502  0.39700069938E+02  0.60419675832E+02  0.84132312789E+02  0.11100608648E+03  0.41800000000E+01 0. -1.
        -11    1    4    4    0    0 -0.56473607399E+02  0.11457142272E+02  0.13630120869E+03  0.14798159998E+03  0.00000000000E+00 0.  1.
         11    1    4    4    0    0  0.25919872014E+02 -0.19518352865E+02  0.14862562681E+03  0.15212620685E+03  0.00000000000E+00 0. -1.
</event>
<event>
 8    1  0.6850220E-009  0.7946954E+02  0.7561462E-02  0.1330564E+00
         -2   -1    0    0    0  501 -0.00000000000E+00  0.00000000000E+00  0.52939436740E+02  0.52939436740E+02  0.00000000000E+00 0. -1.
          2   -1    0    0  501    0  0.00000000000E+00 -0.00000000000E+00 -0.37361619210E+03  0.37361619210E+03  0.00000000000E+00 0.  1.
         25    2    1    2    0    0  0.41197179491E+02 -0.28549241417E+02 -0.64365898645E+02  0.14934167888E+03  0.12509077248E+03 0.  0.
         23    2    1    2    0    0 -0.41197179491E+02  0.28549241417E+02 -0.25631085672E+03  0.27721394996E+03  0.92951880007E+02 0.  0.
          5    1    3    3  502    0  0.43717680684E+02 -0.34696485314E+02 -0.99056034476E+02  0.11377456686E+03  0.41800000000E+01 0.  1.
         -5    1    3    3    0  502 -0.25205011938E+01  0.61472438971E+01  0.34690135831E+02  0.35567112025E+02  0.41800000000E+01 0.  1.
        -11    1    4    4    0    0 -0.56490873962E+02 -0.65156713480E+01 -0.89229942293E+02  0.10580952422E+03  0.00000000000E+00 0. -1.
         11    1    4    4    0    0  0.15293694471E+02  0.35064912765E+02 -0.16708091442E+03  0.17140442574E+03  0.00000000000E+00 0.  1.
</event>
<event>
 8    1  0.6850220E-009  0.1481601E+03  0.7561462E-02  0.1202752E+00
         -2   -1    0    0    0  501 -0.00000000000E+00  0.00000000000E+00  0.63414075606E+02  0.63414075606E+02  0.00000000000E+00 0.  1.
          2   -1    0    0  501    0  0.00000000000E+00 -0.00000000000E+00 -0.42089837268E+03  0.42089837268E+03  0.00000000000E+00 0. -1.
         25    2    1    2    0    0  0.70467116047E+02  0.92096985950E+02 -0.24596252939E+03  0.29931927897E+03  0.12508795160E+03 0.  0.
         23    2    1    2    0    0 -0.70467116047E+02 -0.92096985950E+02 -0.11152176769E+03  0.18499316932E+03  0.91312095369E+02 0.  0.
          5    1    3    3  502    0  0.13908795311E+02  0.91592908440E+02 -0.75232732317E+02  0.11941587782E+03  0.41800000000E+01 0.  1.
         -5    1    3    3    0  502  0.56558320736E+02  0.50407751047E+00 -0.17072979707E+03  0.17990340115E+03  0.41800000000E+01 0.  1.
        -11    1    4    4    0    0 -0.28386869323E+01  0.17693830304E+02 -0.20079226845E+02  0.26912917438E+02  0.00000000000E+00 0.  1.
         11    1    4    4    0    0 -0.67628429114E+02 -0.10979081625E+03 -0.91442540845E+02  0.15808025188E+03  0.00000000000E+00 0. -1.
</event>
<event>
 8    1  0.6850220E-009  0.9695092E+02  0.7561462E-02  0.1286842E+00
          2   -1    0    0  501    0  0.00000000000E+00  0.00000000000E+00  0.20017248607E+03  0.20017248607E+03  0.00000000000E+00 0.  1.
         -2   -1    0    0    0  501 -0.00000000000E+00 -0.00000000000E+00 -0.80314267250E+02  0.80314267250E+02  0.00000000000E+00 0. -1.
         25    2    1    2    0    0 -0.21607326097E+02 -0.22721316261E+02  0.12816140318E+03  0.18181451415E+03  0.12509211620E+03 0.  0.
         23    2    1    2    0    0  0.21607326097E+02  0.22721316261E+02 -0.83031843648E+01  0.98672239167E+02  0.93188696514E+02 0.  0.
          5    1    3    3  502    0 -0.61087848168E+02  0.25120602169E+02  0.57245029773E+02  0.87505632281E+02  0.41800000000E+01 0. -1.
         -5    1    3    3    0  502  0.39480522071E+02 -0.47841918430E+02  0.70916373410E+02  0.94308881871E+02  0.41800000000E+01 0. -1.
        -11    1    4    4    0    0 -0.12733671078E+02 -0.11434612002E+02  0.31587030833E+02  0.35925440117E+02  0.00000000000E+00 0.  1.
         11    1    4    4    0    0  0.34340997175E+02  0.34155928263E+02 -0.39890215198E+02  0.62746799050E+02  0.00000000000E+00 0. -1.
</event>
<event>
 8    1  0.6850220E-009  0.9381235E+02  0.7561462E-02  0.1293874E+00
          1   -1    0    0  501    0  0.00000000000E+00  0.00000000000E+00  0.53108696738E+03  0.53108696738E+03  0.00000000000E+00 0. -1.
         -1   -1    0    0    0  501 -0.00000000000E+00 -0.00000000000E+00 -0.22166391072E+02  0.22166391072E+02  0.00000000000E+00 0.  1.
         25    2    1    2    0    0 -0.16434868725E+02  0.23596555559E+02  0.26775894683E+03  0.29692755216E+03  0.12507683751E+03 0.  0.
         23    2    1    2    0    0  0.16434868725E+02 -0.23596555559E+02  0.24116162948E+03  0.25632580629E+03  0.81957825086E+02 0.  0.
          5    1    3    3  502    0 -0.35744432854E+02 -0.30800766240E+02  0.40210269052E+02  0.62134449529E+02  0.41800000000E+01 0.  1.
         -5    1    3    3    0  502  0.19309564129E+02  0.54397321799E+02  0.22754867778E+03  0.23479310263E+03  0.41800000000E+01 0.  1.
        -11    1    4    4    0    0 -0.41735494395E+01 -0.49277660836E+02  0.10247899997E+03  0.11378774894E+03  0.00000000000E+00 0.  1.
         11    1    4    4    0    0  0.20608418165E+02  0.25681105277E+02  0.13868262950E+03  0.14253805735E+03  0.00000000000E+00 0. -1.
</event>
<event>
 8    1  0.6850220E-009  0.9616807E+02  0.7561462E-02  0.1288567E+00
         -1   -1    0    0    0  501 -0.00000000000E+00  0.00000000000E+00  0.66818726617E+02  0.66818726617E+02  0.00000000000E+00 0.  1.
          1   -1    0    0  501    0  0.00000000000E+00 -0.00000000000E+00 -0.39741588930E+03  0.39741588930E+03  0.00000000000E+00 0. -1.
         25    2    1    2    0    0  0.31514023985E+01  0.92604235652E+01 -0.35757728876E+03  0.37895173276E+03  0.12508881463E+03 0.  0.
         23    2    1    2    0    0 -0.31514023985E+01 -0.92604235652E+01  0.26980126075E+02  0.85282883155E+02  0.80309128837E+02 0.  0.
          5    1    3    3  502    0  0.48378816937E+02 -0.25830349880E+02 -0.25992577345E+03  0.26568138250E+03  0.41800000000E+01 0. -1.
         -5    1    3    3    0  502 -0.45227414538E+02  0.35090773445E+02 -0.97651515310E+02  0.11327035026E+03  0.41800000000E+01 0. -1.
        -11    1    4    4    0    0  0.25934568767E+02  0.24291259277E+02  0.55027881267E+01  0.35957583505E+02  0.00000000000E+00 0.  1.
         11    1    4    4    0    0 -0.29085971166E+02 -0.33551682842E+02  0.21477337948E+02  0.49325299649E+02  0.00000000000E+00 0. -1.
</event>
<event>
 8    1  0.6850220E-009  0.1230649E+03  0.7561462E-02  0.1238125E+00
          1   -1    0    0  501    0  0.00000000000E+00  0.00000000000E+00  0.44125811696E+03  0.44125811696E+03  0.00000000000E+00 0. -1.
         -1   -1    0    0    0  501 -0.00000000000E+00 -0.00000000000E+00 -0.39410053742E+02  0.39410053742E+02  0.00000000000E+00 0.  1.
         25    2    1    2    0    0  0.33688413220E+02 -0.61991799675E+02  0.17326733297E+03  0.22505192004E+03  0.12509558596E+03 0.  0.
         23    2    1    2    0    0 -0.33688413220E+02  0.61991799675E+02  0.22858073025E+03  0.25561625066E+03  0.90070111308E+02 0.  0.
          5    1    3    3  502    0  0.74132292004E+02 -0.62494757705E+02  0.89870308349E+02  0.13226993680E+03  0.41800000000E+01 0.  1.
         -5    1    3    3    0  502 -0.40443878783E+02  0.50295802913E+00  0.83397024624E+02  0.92781983240E+02  0.41800000000E+01 0.  1.
        -11    1    4    4    0    0 -0.24713895383E+02 -0.16305095674E+02  0.10458202748E+03  0.10869237895E+03  0.00000000000E+00 0. -1.
         11    1    4    4    0    0 -0.89745178372E+01  0.78296895349E+02  0.12399870277E+03  0.14692387172E+03  0.00000000000E+00 0.  1.
</event>
<event>
 8    1  0.6850220E-009  0.2060151E+03  0.7561462E-02  0.1144761E+00
          1   -1    0    0  501    0  0.00000000000E+00  0.00000000000E+00  0.75392027274E+03  0.75392027274E+03  0.00000000000E+00 0.  1.
         -1   -1    0    0    0  501 -0.00000000000E+00 -0.00000000000E+00 -0.63008310981E+02  0.63008310981E+02  0.00000000000E+00 0. -1.
         25    2    1    2    0    0  0.18603461254E+03  0.19024943821E+02  0.41964629516E+03  0.47615177352E+03  0.12508666126E+03 0.  0.
         23    2    1    2    0    0 -0.18603461254E+03 -0.19024943821E+02  0.27126566660E+03  0.34077681021E+03  0.87022680661E+02 0.  0.
          5    1    3    3  502    0  0.43959790152E+01  0.26755333986E+02  0.12317520168E+02  0.30072682476E+02  0.41800000000E+01 0. -1.
         -5    1    3    3    0  502  0.18163863353E+03 -0.77303901655E+01  0.40732877500E+03  0.44607909104E+03  0.41800000000E+01 0. -1.
        -11    1    4    4    0    0 -0.13811424295E+03  0.21760017304E+02  0.21440424928E+03  0.25596528001E+03  0.00000000000E+00 0.  1.
         11    1    4    4    0    0 -0.47920369598E+02 -0.40784961124E+02  0.56861417313E+02  0.84811530202E+02  0.00000000000E+00 0. -1.
</event>
<event>
 8    1  0.6850220E-009  0.9783193E+02  0.7561462E-02  0.1284922E+00
          1   -1    0    0  501    0  0.00000000000E+00  0.00000000000E+00  0.39034529321E+03  0.39034529321E+03  0.00000000000E+00 0. -1.
         -1   -1    0    0    0  501 -0.00000000000E+00 -0.00000000000E+00 -0.37600275506E+02  0.37600275506E+02  0.00000000000E+00 0.  1.
         25    2    1    2    0    0  0.63463991526E+02  0.15372361761E+01  0.24484278342E+03  0.28218109882E+03  0.12509253625E+03 0.  0.
         23    2    1    2    0    0 -0.63463991526E+02 -0.15372361761E+01  0.10790223429E+03  0.14576446989E+03  0.74661551037E+02 0.  0.
          5    1    3    3  502    0  0.12832812311E+02 -0.45944003234E+02  0.30338551044E+02  0.56687146554E+02  0.41800000000E+01 0.  1.
         -5    1    3    3    0  502  0.50631179215E+02  0.47481239410E+02  0.21450423237E+03  0.22549395227E+03  0.41800000000E+01 0.  1.
        -11    1    4    4    0    0 -0.55406663844E+02 -0.19351944479E+02  0.30915498072E+02  0.66333733307E+02  0.00000000000E+00 0.  1.
         11    1    4    4    0    0 -0.80573276821E+01  0.17814708303E+02  0.76986736216E+02  0.79430736586E+02  0.00000000000E+00 0. -1.
</event>
<event>
 8    1  0.6850220E-009  0.2370649E+03  0.7561462E-02  0.1121764E+00
         -2   -1    0    0    0  501 -0.00000000000E+00  0.00000000000E+00  0.72705219749E+02  0.72705219749E+02  0.00000000000E+00 0.  1.
          2   -1    0    0  501    0  0.00000000000E+00 -0.00000000000E+00 -0.11039522114E+04  0.11039522114E+04  0.00000000000E+00 0. -1.
         25    2    1    2    0    0 -0.65465589776E+02  0.21630127113E+03 -0.80173181414E+03  0.84231356151E+03  0.12508497418E+03 0.  0.
         23    2    1    2    0    0  0.65465589776E+02 -0.21630127113E+03 -0.22951517752E+03  0.33434386964E+03  0.89647214800E+02 0.  0.
          5    1    3    3  502    0 -0.15691176733E+02  0.16238493206E+03 -0.37030055098E+03  0.40466659072E+03  0.41800000000E+01 0.  1.
         -5    1    3    3    0  502 -0.49774413042E+02  0.53916339064E+02 -0.43143126316E+03  0.43764697079E+03  0.41800000000E+01 0.  1.
        -11    1    4    4    0    0  0.75283020731E+02 -0.12728967133E+03 -0.17653998869E+03  0.23029668093E+03  0.00000000000E+00 0.  1.
         11    1    4    4    0    0 -0.98174309554E+01 -0.89011599798E+02 -0.52975188825E+02  0.10404718872E+03  0.00000000000E+00 0. -1.
</event>
<event>
 8    1  0.6850220E-009  0.1102996E+03  0.7561462E-02  0.1260016E+00
          2   -1    0    0  501    0  0.00000000000E+00  0.00000000000E+00  0.88933767913E+03  0.88933767913E+03  0.00000000000E+00 0. -1.
         -2   -1    0    0    0  501 -0.00000000000E+00 -0.00000000000E+00 -0.16339544305E+02  0.16339544305E+02  0.00000000000E+00 0.  1.
         25    2    1    2    0    0  0.36462536503E+02 -0.34797859975E+02  0.53382689982E+03  0.55060008151E+03  0.12509549614E+03 0.  0.
         23    2    1    2    0    0 -0.36462536503E+02  0.34797859975E+02  0.33917123500E+03  0.35507714193E+03  0.92207605104E+02 0.  0.
          5    1    3    3  502    0  0.68062011922E+02  0.19259759153E+02  0.32019366565E+03  0.32794028681E+03  0.41800000000E+01 0. -1.
         -5    1    3    3    0  502 -0.31599475419E+02 -0.54057619128E+02  0.21363323417E+03  0.22265979470E+03  0.41800000000E+01 0. -1.
        -11    1    4    4    0    0 -0.42584385716E+02  0.52880413578E+02  0.32299735921E+03  0.33005614993E+03  0.00000000000E+00 0. -1.
         11    1    4    4    0    0  0.61218492126E+01 -0.18082553603E+02  0.16173875792E+02  0.25020992002E+02  0.00000000000E+00 0.  1.
</event>
<event>
 8    1  0.6850220E-009  0.9758926E+02  0.7561462E-02  0.1285449E+00
         -1   -1    0    0    0  501 -0.00000000000E+00  0.00000000000E+00  0.36688911439E+02  0.36688911439E+02  0.00000000000E+00 0.  1.
          1   -1    0    0  501    0  0.00000000000E+00 -0.00000000000E+00 -0.42188950152E+03  0.42188950152E+03  0.00000000000E+00 0. -1.
         25    2    1    2    0    0  0.53725510357E+02 -0.31290542776E+01 -0.26640955843E+03  0.29919352915E+03  0.12508594492E+03 0.  0.
         23    2    1    2    0    0 -0.53725510357E+02  0.31290542776E+01 -0.11879103165E+03  0.15938488382E+03  0.91629747049E+02 0.  0.
          5    1    3    3  502    0  0.94231311297E+02 -0.87084111367E+01 -0.19531171415E+03  0.21707029860E+03  0.41800000000E+01 0.  1.
         -5    1    3    3    0  502 -0.40505800940E+02  0.55793568590E+01 -0.71097844287E+02  0.82123230544E+02  0.41800000000E+01 0.  1.
        -11    1    4    4    0    0 -0.36788764117E+02  0.13847529873E+02 -0.40151059032E+00  0.39310665977E+02  0.00000000000E+00 0.  1.
         11    1    4    4    0    0 -0.16936746240E+02 -0.10718475595E+02 -0.11838952106E+03  0.12007421784E+03  0.00000000000E+00 0. -1.
</event>
<event>
 8    1  0.6850220E-009  0.9619120E+02  0.7561462E-02  0.1288516E+00
          1   -1    0    0  501    0  0.00000000000E+00  0.00000000000E+00  0.13875793557E+03  0.13875793557E+03  0.00000000000E+00 0. -1.
         -1   -1    0    0    0  501 -0.00000000000E+00 -0.00000000000E+00 -0.11255013240E+03  0.11255013240E+03  0.00000000000E+00 0.  1.
         25    2    1    2    0    0  0.16766560736E+02 -0.85003204596E+01 -0.48431364487E+02  0.13545208436E+03  0.12509315363E+03 0.  0.
         23    2    1    2    0    0 -0.16766560736E+02  0.85003204596E+01  0.74639167659E+02  0.11585598361E+03  0.86592324041E+02 0.  0.
          5    1    3    3  502    0 -0.33335388769E+02  0.41670919890E+02 -0.32629120474E+02  0.62688480695E+02  0.41800000000E+01 0.  1.
         -5    1    3    3    0  502  0.50101949505E+02 -0.50171240350E+02 -0.15802244014E+02  0.72763603665E+02  0.41800000000E+01 0.  1.
        -11    1    4    4    0    0 -0.41701669383E+02  0.72222479767E+00  0.56514999694E+01  0.42089075660E+02  0.00000000000E+00 0.  1.
         11    1    4    4    0    0  0.24935108647E+02  0.77780956620E+01  0.68987667689E+02  0.73766907951E+02  0.00000000000E+00 0. -1.
</event>
<event>
 8    1  0.6850220E-009  0.9144530E+02  0.7561462E-02  0.1299389E+00
         -2   -1    0    0    0  501 -0.00000000000E+00  0.00000000000E+00  0.88539606504E+02  0.88539606504E+02  0.00000000000E+00 0.  1.
          2   -1    0    0  501    0  0.00000000000E+00 -0.00000000000E+00 -0.21028680811E+03  0.21028680811E+03  0.00000000000E+00 0. -1.
         25    2    1    2    0    0  0.21581809608E+02  0.34002516701E+02 -0.14708987987E+03  0.19724614206E+03  0.12509461279E+03 0.  0.
         23    2    1    2    0    0 -0.21581809608E+02 -0.34002516701E+02  0.25342678263E+02  0.10158027255E+03  0.89746057199E+02 0.  0.
          5    1    3    3  502    0  0.33403788809E+02  0.57993383723E+02 -0.15513394766E+03  0.16900609391E+03  0.41800000000E+01 0.  1.
         -5    1    3    3    0  502 -0.11821979202E+02 -0.23990867021E+02  0.80440677926E+01  0.28240048147E+02  0.41800000000E+01 0.  1.
        -11    1    4    4    0    0 -0.13922506482E+02  0.25348972021E+02 -0.11702223942E+02  0.31198535454E+02  0.00000000000E+00 0. -1.
         11    1    4    4    0    0 -0.76593031254E+01 -0.59351488723E+02  0.37044902205E+02  0.70381737101E+02  0.00000000000E+00 0.  1.
</event>
<event>
 8    1  0.6850220E-009  0.9071364E+02  0.7561462E-02  0.1301133E+00
          2   -1    0    0  501    0  0.00000000000E+00  0.00000000000E+00  0.33777396116E+03  0.33777396116E+03  0.00000000000E+00 0. -1.
         -2   -1    0    0    0  501 -0.00000000000E+00 -0.00000000000E+00 -0.43659808218E+02  0.43659808218E+02  0.00000000000E+00 0.  1.
         25    2    1    2    0    0  0.43938181276E+02  0.25964128761E+02  0.14540851888E+03  0.19848535168E+03  0.12509235673E+03 0.  0.
         23    2    1    2    0    0 -0.43938181276E+02 -0.25964128761E+02  0.14870563406E+03  0.18294841770E+03  0.93552435462E+02 0.  0.
          5    1    3    3  502    0  0.16246696927E+02  0.43282205989E+02  0.15689047290E+03  0.16361356118E+03  0.41800000000E+01 0. -1.
         -5    1    3    3    0  502  0.27691484349E+02 -0.17318077228E+02 -0.11481954019E+02  0.34871790496E+02  0.41800000000E+01 0. -1.
        -11    1    4    4    0    0  0.26588542283E+02 -0.15514012459E+02  0.22983342508E+02  0.38417043043E+02  0.00000000000E+00 0. -1.
         11    1    4    4    0    0 -0.70526723559E+02 -0.10450116302E+02  0.12572229155E+03  0.14453137466E+03  0.00000000000E+00 0.  1.
</event>
<event>
 8    1  0.6850220E-009  0.9385814E+02  0.7561462E-02  0.1293769E+00
         -2   -1    0    0    0  501 -0.00000000000E+00  0.00000000000E+00  0.31336781168E+02  0.31336781168E+02  0.00000000000E+00 0.  1.
          2   -1    0    0  501    0  0.00000000000E+00 -0.00000000000E+00 -0.42243828166E+03  0.42243828166E+03  0.00000000000E+00 0. -1.
         25    2    1    2    0    0  0.26619986712E+02 -0.17624469842E+02 -0.17681153770E+03  0.21892958266E+03  0.12509435106E+03 0.  0.
         23    2    1    2    0    0 -0.26619986712E+02  0.17624469842E+02 -0.21428996279E+03  0.23484548017E+03  0.90625414618E+02 0.  0.
          5    1    3    3  502    0  0.67956785176E+01 -0.58259728400E+02 -0.16008054237E+03  0.17053923198E+03  0.41800000000E+01 0.  1.
         -5    1    3    3    0  502  0.19824308194E+02  0.40635258559E+02 -0.16730995331E+02  0.48390350673E+02  0.41800000000E+01 0.  1.
        -11    1    4    4    0    0 -0.22527716973E+02 -0.28989491576E+02 -0.15513765659E+03  0.15942264941E+03  0.00000000000E+00 0. -1.
         11    1    4    4    0    0 -0.40922697387E+01  0.46613961418E+02 -0.59152306197E+02  0.75422830755E+02  0.00000000000E+00 0.  1.
</event>
<event>
 8    1  0.6850220E-009  0.8817512E+02  0.7561462E-02  0.1307332E+00
          2   -1    0    0  501    0  0.00000000000E+00  0.00000000000E+00  0.37756881277E+03  0.37756881277E+03  0.00000000000E+00 0. -1.
         -2   -1    0    0    0  501 -0.00000000000E+00 -0.00000000000E+00 -0.37604053752E+02  0.37604053752E+02  0.00000000000E+00 0.  1.
         25    2    1    2    0    0  0.19651971460E+02 -0.42849194409E+02  0.17331350989E+03  0.21887443606E+03  0.12508474171E+03 0.  0.
         23    2    1    2    0    0 -0.19651971460E+02  0.42849194409E+02  0.16665124913E+03  0.19629843046E+03  0.92402280924E+02 0.  0.
          5    1    3    3  502    0  0.73832669652E+00  0.13767775689E+02  0.15588480256E+03  0.15654916430E+03  0.41800000000E+01 0. -1.
         -5    1    3    3    0  502  0.18913644764E+02 -0.56616970098E+02  0.17428707325E+02  0.62325271763E+02  0.41800000000E+01 0. -1.
        -11    1    4    4    0    0 -0.41195692259E+02  0.61220864539E+02  0.13485168028E+03  0.15372070449E+03  0.00000000000E+00 0. -1.
         11    1    4    4    0    0  0.21543720799E+02 -0.18371670130E+02  0.31799568853E+02  0.42577725967E+02  0.00000000000E+00 0.  1.
</event>
<event>
 8    1  0.6850220E-009  0.1610973E+03  0.7561462E-02  0.1187463E+00
         -2   -1    0    0    0  501 -0.00000000000E+00  0.00000000000E+00  0.11581219669E+03  0.11581219669E+03  0.00000000000E+00 0. -1.
          2   -1    0    0  501    0  0.00000000000E+00 -0.00000000000E+00 -0.32542664789E+03  0.32542664789E+03  0.00000000000E+00 0.  1.
         25    2    1    2    0    0  0.82534048598E+01 -0.12707138622E+03  0.17455380654E+01  0.17850848724E+03  0.12508787801E+03 0.  0.
         23    2    1    2    0    0 -0.82534048598E+01  0.12707138622E+03 -0.21135998927E+03  0.26273035734E+03  0.90216072378E+02 0.  0.
          5    1    3    3  502    0 -0.43856070922E+02 -0.22565279112E+02  0.30539902320E+02  0.58161024853E+02  0.41800000000E+01 0. -1.
         -5    1    3    3    0  502  0.52109475782E+02 -0.10450610711E+03 -0.28794364255E+02  0.12034746238E+03  0.41800000000E+01 0. -1.
        -11    1    4    4    0    0 -0.38976184475E+02  0.18751327568E+02 -0.64939566550E+02  0.78025012307E+02  0.00000000000E+00 0.  1.
         11    1    4    4    0    0  0.30722779615E+02  0.10832005865E+03 -0.14642042272E+03  0.18470534503E+03  0.00000000000E+00 0. -1.
</event>
<event>
 8    1  0.6850220E-009  0.1211020E+03  0.7561462E-02  0.1241290E+00
          2   -1    0    0  501    0  0.00000000000E+00  0.00000000000E+00  0.15308376527E+03  0.15308376527E+03  0.00000000000E+00 0. -1.
         -2   -1    0    0    0  501 -0.00000000000E+00 -0.00000000000E+00 -0.96988599389E+02  0.96988599389E+02  0.00000000000E+00 0.  1.
         25    2    1    2    0    0 -0.33381671344E+02  0.42719674382E+02  0.40134919722E+02  0.14211759452E+03  0.12508913754E+03 0.  0.
         23    2    1    2    0    0  0.33381671344E+02 -0.42719674382E+02  0.15960246158E+02  0.10795477013E+03  0.91979325808E+02 0.  0.
          5    1    3    3  502    0 -0.16880592557E+02  0.86982247593E+02  0.22412130070E+02  0.91491211467E+02  0.41800000000E+01 0. -1.
         -5    1    3    3    0  502 -0.16501078787E+02 -0.44262573211E+02  0.17722789652E+02  0.50626383057E+02  0.41800000000E+01 0. -1.
        -11    1    4    4    0    0  0.45301113889E+02 -0.65925362601E+02  0.66906151130E+01  0.80268977098E+02  0.00000000000E+00 0. -1.
         11    1    4    4    0    0 -0.11919442545E+02  0.23205688219E+02  0.92696310449E+01  0.27685793036E+02  0.00000000000E+00 0.  1.
</event>
<event>
 8    1  0.6850220E-009  0.6097237E+02  0.7561462E-02  0.1393796E+00
          2   -1    0    0  501    0  0.00000000000E+00  0.00000000000E+00  0.77719190925E+02  0.77719190925E+02  0.00000000000E+00 0.  1.
         -2   -1    0    0    0  501 -0.00000000000E+00 -0.00000000000E+00 -0.15885678904E+03  0.15885678904E+03  0.00000000000E+00 0. -1.
         25    2    1    2    0    0 -0.66200114950E+01 -0.23491150958E+02 -0.31036460738E+02  0.13117360986E+03  0.12509034856E+03 0.  0.
         23    2    1    2    0    0  0.66200114950E+01  0.23491150958E+02 -0.50101137379E+02  0.10540237011E+03  0.89464389183E+02 0.  0.
          5    1    3    3  502    0  0.41541150013E+01 -0.30157779127E+02  0.44715445926E+02  0.54255799853E+02  0.41800000000E+01 0.  1.
         -5    1    3    3    0  502 -0.10774126496E+02  0.66666281692E+01 -0.75751906664E+02  0.76917810006E+02  0.41800000000E+01 0.  1.
        -11    1    4    4    0    0  0.21951677552E+02  0.45809717964E+02 -0.58093351757E+02  0.77170226938E+02  0.00000000000E+00 0. -1.
         11    1    4    4    0    0 -0.15331666057E+02 -0.22318567005E+02  0.79922143783E+01  0.28232143169E+02  0.00000000000E+00 0.  1.
</event>
<event>
 8    1  0.6850220E-009  0.2214798E+03  0.7561462E-02  0.1132785E+00
          2   -1    0    0  501    0  0.00000000000E+00  0.00000000000E+00  0.36493814195E+03  0.36493814195E+03  0.00000000000E+00 0. -1.
         -2   -1    0    0    0  501 -0.00000000000E+00 -0.00000000000E+00 -0.18276810732E+03  0.18276810732E+03  0.00000000000E+00 0.  1.
         25    2    1    2    0    0  0.19334362290E+03 -0.75255542687E+02  0.20666217255E+03  0.31843668624E+03  0.12509003302E+03 0.  0.
         23    2    1    2    0    0 -0.19334362290E+03  0.75255542687E+02 -0.24492137915E+02  0.22926956303E+03  0.94443181274E+02 0.  0.
          5    1    3    3  502    0  0.12379028333E+03  0.10821218666E+02  0.14739199623E+03  0.19282895522E+03  0.41800000000E+01 0. -1.
         -5    1    3    3    0  502  0.69553339566E+02 -0.86076761353E+02  0.59270176322E+02  0.12560773102E+03  0.41800000000E+01 0. -1.
        -11    1    4    4    0    0 -0.31772983275E+02  0.72890764545E+01  0.31428555137E+02  0.45281422016E+02  0.00000000000E+00 0. -1.
         11    1    4    4    0    0 -0.16157063962E+03  0.67966466233E+02 -0.55920693052E+02  0.18398814101E+03  0.00000000000E+00 0.  1.
</event>
<event>
 8    1  0.6850220E-009  0.1457334E+03  0.7561462E-02  0.1205816E+00
         -2   -1    0    0    0  501 -0.00000000000E+00  0.00000000000E+00  0.16386246168E+02  0.16386246168E+02  0.00000000000E+00 0.  1.
          2   -1    0    0  501    0  0.00000000000E+00 -0.00000000000E+00 -0.13574949855E+04  0.13574949855E+04  0.00000000000E+00 0. -1.
         25    2    1    2    0    0  0.45953122670E+02 -0.90006868404E+02 -0.64033481982E+03  0.66021743644E+03  0.12508179749E+03 0.  0.
         23    2    1    2    0    0 -0.45953122670E+02  0.90006868404E+02 -0.70077391948E+03  0.71366379519E+03  0.89548872171E+02 0.  0.
          5    1    3    3  502    0 -0.80940908921E+01 -0.10431244899E+03 -0.41077564778E+03  0.42391120123E+03  0.41800000000E+01 0. -1.
         -5    1    3    3    0  502  0.54047213563E+02  0.14305580590E+02 -0.22955917204E+03  0.23630623521E+03  0.41800000000E+01 0. -1.
        -11    1    4    4    0    0 -0.19061841719E+02 -0.13752722759E+02 -0.69829414065E+02  0.73679293303E+02  0.00000000000E+00 0.  1.
         11    1    4    4    0    0 -0.26891280951E+02  0.10375959116E+03 -0.63094450541E+03  0.63998450189E+03  0.00000000000E+00 0. -1.
</event>
<event>
 8    1  0.6850220E-009  0.2136323E+03  0.7561462E-02  0.1138721E+00
         -1   -1    0    0    0  501 -0.00000000000E+00  0.00000000000E+00  0.34359147412E+03  0.34359147412E+03  0.00000000000E+00 0.  1.
          1   -1    0    0  501    0  0.00000000000E+00 -0.00000000000E+00 -0.16376091263E+03  0.16376091263E+03  0.00000000000E+00 0. -1.
         25    2    1    2    0    0  0.19140697581E+03 -0.86774660050E+02  0.12809494076E+03  0.27608138304E+03  0.12508454820E+03 0.  0.
         23    2    1    2    0    0 -0.19140697581E+03  0.86774660050E+02  0.51735620729E+02  0.23127100371E+03  0.81506016280E+02 0.  0.
          5    1    3    3  502    0  0.10946352337E+03 -0.61914495501E+02  0.14144569008E+03  0.18931461471E+03  0.41800000000E+01 0. -1.
         -5    1    3    3    0  502  0.81943452438E+02 -0.24860164549E+02 -0.13350749322E+02  0.86766768330E+02  0.41800000000E+01 0. -1.
        -11    1    4    4    0    0 -0.13475876164E+03  0.84392262201E+02  0.71877302297E+01  0.15916545235E+03  0.00000000000E+00 0. -1.
         11    1    4    4    0    0 -0.56648214175E+02  0.23823978487E+01  0.44547890499E+02  0.72105551358E+02  0.00000000000E+00 0.  1.
</event>
<event>
 8    1  0.6850220E-009  0.1065756E+03  0.7561462E-02  0.1267046E+00
          1   -1    0    0  501    0  0.00000000000E+00  0.00000000000E+00  0.10753920471E+04  0.10753920471E+04  0.00000000000E+00 0. -1.
         -1   -1    0    0    0  501 -0.00000000000E+00 -0.00000000000E+00 -0.13133060191E+02  0.13133060191E+02  0.00000000000E+00 0.  1.
         25    2    1    2    0    0 -0.36578224451E+02  0.14053643756E+02  0.71162164759E+03  0.72359403464E+03  0.12508991261E+03 0.  0.
         23    2    1    2    0    0  0.36578224451E+02 -0.14053643756E+02  0.35063733928E+03  0.36493107261E+03  0.93234503570E+02 0.  0.
          5    1    3    3  502    0 -0.81710317165E+02  0.18808206356E+02  0.51193248010E+03  0.51877033564E+03  0.41800000000E+01 0.  1.
         -5    1    3    3    0  502  0.45132092714E+02 -0.47545626000E+01  0.19968916749E+03  0.20482369899E+03  0.41800000000E+01 0.  1.
        -11    1    4    4    0    0 -0.18165825738E+02 -0.21755979366E+02  0.37795455456E+02  0.47242103214E+02  0.00000000000E+00 0.  1.
         11    1    4    4    0    0  0.54744050188E+02  0.77023356105E+01  0.31284188382E+03  0.31768896940E+03  0.00000000000E+00 0. -1.
</event>
<event>
 8    1  0.6850220E-009  0.1100645E+03  0.7561462E-02  0.1260450E+00
          1   -1    0    0  501    0  0.00000000000E+00  0.00000000000E+00  0.87629715050E+02  0.87629715050E+02  0.00000000000E+00 0. -1.
         -1   -1    0    0    0  501 -0.00000000000E+00 -0.00000000000E+00 -0.15600405519E+03  0.15600405519E+03  0.00000000000E+00 0.  1.
         25    2    1    2    0    0  0.19299556884E+01  0.33952125665E+02 -0.47595067838E+02  0.13808634203E+03  0.12508427482E+03 0.  0.
         23    2    1    2    0    0 -0.19299556884E+01 -0.33952125665E+02 -0.20779272308E+02  0.10554742821E+03  0.97734384323E+02 0.  0.
          5    1    3    3  502    0 -0.28356509321E+02 -0.32601280145E+02  0.10431524397E+02  0.44645539410E+02  0.41800000000E+01 0.  1.
         -5    1    3    3    0  502  0.30286465009E+02  0.66553405810E+02 -0.58026592235E+02  0.93440802619E+02  0.41800000000E+01 0.  1.
        -11    1    4    4    0    0  0.45075390174E+02 -0.34022255323E+02 -0.11703035093E+02  0.57673786827E+02  0.00000000000E+00 0. -1.
         11    1    4    4    0    0 -0.47005345862E+02  0.70129658335E-01 -0.90762372145E+01  0.47873641388E+02  0.00000000000E+00 0.  1.
</event>
<event>
 8    1  0.6850220E-009  0.9540052E+02  0.7561462E-02  0.1290277E+00
         -1   -1    0    0    0  501 -0.00000000000E+00  0.00000000000E+00  0.30303360896E+03  0.30303360896E+03  0.00000000000E+00 0.  1.
          1   -1    0    0  501    0  0.00000000000E+00 -0.00000000000E+00 -0.45465644439E+02  0.45465644439E+02  0.00000000000E+00 0. -1.
         25    2    1    2    0    0 -0.76071316407E+00 -0.99409445644E+01  0.21160110305E+03  0.24601212041E+03  0.12509010958E+03 0.  0.
         23    2    1    2    0    0  0.76071316407E+00  0.99409445644E+01  0.45966861474E+02  0.10248713299E+03  0.91056350749E+02 0.  0.
          5    1    3    3  502    0  0.38808834736E+02 -0.36113220026E+02  0.36371039011E+02  0.64425268280E+02  0.41800000000E+01 0.  1.
         -5    1    3    3    0  502 -0.39569547900E+02  0.26172275461E+02  0.17523006404E+03  0.18158685213E+03  0.41800000000E+01 0.  1.
        -11    1    4    4    0    0  0.36358362120E+02 -0.21725296865E+02  0.31205206260E+02  0.52608781754E+02  0.00000000000E+00 0.  1.
         11    1    4    4    0    0 -0.35597648956E+02  0.31666241429E+02  0.14761655214E+02  0.49878351237E+02  0.00000000000E+00 0. -1.
</event>
<event>
 8    1  0.6850220E-009  0.9074975E+02  0.7561462E-02  0.1301046E+00
          2   -1    0    0  501    0  0.00000000000E+00  0.00000000000E+00  0.74512969536E+03  0.74512969536E+03  0.00000000000E+00 0. -1.
         -2   -1    0    0    0  501 -0.00000000000E+00 -0.00000000000E+00 -0.16966606767E+02  0.16966606767E+02  0.00000000000E+00 0.  1.
         25    2    1    2    0    0  0.22486421934E+02 -0.17033847671E+02  0.42808835943E+03  0.44688180861E+03  0.12509163139E+03 0.  0.
         23    2    1    2    0    0 -0.22486421934E+02  0.17033847671E+02  0.30007472916E+03  0.31521449352E+03  0.92301368931E+02 0.  0.
          5    1    3    3  502    0 -0.12529838939E+02 -0.42235162609E+02  0.37825912864E+03  0.38083887226E+03  0.41800000000E+01 0. -1.
         -5    1    3    3    0  502  0.35016260872E+02  0.25201314938E+02  0.49829230792E+02  0.66042936348E+02  0.41800000000E+01 0. -1.
        -11    1    4    4    0    0 -0.35695484832E+02  0.48243323347E+02  0.22461388310E+03  0.23249297272E+03  0.00000000000E+00 0. -1.
         11    1    4    4    0    0  0.13209062898E+02 -0.31209475676E+02  0.75460846063E+02  0.82721520798E+02  0.00000000000E+00 0.  1.
</event>
<event>
 8    1  0.6850220E-009  0.1482205E+03  0.7561462E-02  0.1202677E+00
          2   -1    0    0  501    0  0.00000000000E+00  0.00000000000E+00  0.13494359878E+03  0.13494359878E+03  0.00000000000E+00 0.  1.
         -2   -1    0    0    0  501 -0.00000000000E+00 -0.00000000000E+00 -0.26412360445E+03  0.26412360445E+03  0.00000000000E+00 0. -1.
         25    2    1    2    0    0 -0.88754690529E+02 -0.71735902733E+02  0.38423498891E+02  0.17362976351E+03  0.12508994635E+03 0.  0.
         23    2    1    2    0    0  0.88754690529E+02  0.71735902733E+02 -0.16760350457E+03  0.22543743972E+03  0.98527507082E+02 0.  0.
          5    1    3    3  502    0  0.18422588205E+02 -0.19910558747E+02  0.46755160150E+02  0.54215675837E+02  0.41800000000E+01 0. -1.
         -5    1    3    3    0  502 -0.10717727873E+03 -0.51825343986E+02 -0.83316612599E+01  0.11941408767E+03  0.41800000000E+01 0. -1.
        -11    1    4    4    0    0 -0.15118802737E+01  0.58640617392E+02 -0.53830066295E+02  0.79615851608E+02  0.00000000000E+00 0. -1.
         11    1    4    4    0    0  0.90266570802E+02  0.13095285341E+02 -0.11377343827E+03  0.14582158811E+03  0.00000000000E+00 0.  1.
</event>
<event>
 8    1  0.6850220E-009  0.1730821E+03  0.7561462E-02  0.1174671E+00
         -4   -1    0    0    0  501 -0.00000000000E+00  0.00000000000E+00  0.12863375390E+03  0.12863375390E+03  0.00000000000E+00 0.  1.
          4   -1    0    0  501    0  0.00000000000E+00 -0.00000000000E+00 -0.31458150835E+03  0.31458150835E+03  0.00000000000E+00 0. -1.
         25    2    1    2    0    0 -0.14077076201E+03 -0.44232387417E+02 -0.10565998763E+02  0.19373174617E+03  0.12508971825E+03 0.  0.
         23    2    1    2    0    0  0.14077076201E+03  0.44232387417E+02 -0.17538175569E+03  0.24948351608E+03  0.98541123571E+02 0.  0.
          5    1    3    3  502    0 -0.13665101552E+02  0.21478413763E+02  0.35024108662E+02  0.43499630409E+02  0.41800000000E+01 0. -1.
         -5    1    3    3    0  502 -0.12710566046E+03 -0.65710801179E+02 -0.45590107425E+02  0.15023211577E+03  0.41800000000E+01 0. -1.
        -11    1    4    4    0    0  0.76688220187E+02 -0.27093655514E+02 -0.74369214836E+02  0.11020857226E+03  0.00000000000E+00 0. -1.
         11    1    4    4    0    0  0.64082541823E+02  0.71326042931E+02 -0.10101254085E+03  0.13927494382E+03  0.00000000000E+00 0.  1.
</event>
<event>
 8    1  0.6850220E-009  0.1195629E+03  0.7561462E-02  0.1243820E+00
         -2   -1    0    0    0  501 -0.00000000000E+00  0.00000000000E+00  0.10855169730E+03  0.10855169730E+03  0.00000000000E+00 0.  1.
          2   -1    0    0  501    0  0.00000000000E+00 -0.00000000000E+00 -0.18449803555E+03  0.18449803555E+03  0.00000000000E+00 0. -1.
         25    2    1    2    0    0  0.76976151166E+02 -0.45015706488E+02 -0.58368976627E+02  0.16433610477E+03  0.12509067199E+03 0.  0.
         23    2    1    2    0    0 -0.76976151166E+02  0.45015706488E+02 -0.17577361618E+02  0.12871362808E+03  0.91139962327E+02 0.  0.
          5    1    3    3  502    0  0.97367848566E+02 -0.50999693162E+01 -0.97506933879E+01  0.98076786463E+02  0.41800000000E+01 0.  1.
         -5    1    3    3    0  502 -0.20391697400E+02 -0.39915737172E+02 -0.48618283239E+02  0.66259318303E+02  0.41800000000E+01 0.  1.
        -11    1    4    4    0    0 -0.55986452463E+02  0.11785526563E+02  0.31915109072E+02  0.65513019186E+02  0.00000000000E+00 0.  1.
         11    1    4    4    0    0 -0.20989698703E+02  0.33230179925E+02 -0.49492470691E+02  0.63200608894E+02  0.00000000000E+00 0. -1.
</event>
<event>
 8    1  0.6850220E-009  0.1350880E+03  0.7561462E-02  0.1220096E+00
         -2   -1    0    0    0  501 -0.00000000000E+00  0.00000000000E+00  0.16293238912E+03  0.16293238912E+03  0.00000000000E+00 0. -1.
          2   -1    0    0  501    0  0.00000000000E+00 -0.00000000000E+00 -0.25919371360E+03  0.25919371360E+03  0.00000000000E+00 0.  1.
         25    2    1    2    0    0  0.92148235994E+02  0.78523575862E+02 -0.17884089148E+03  0.24957729137E+03  0.12509000975E+03 0.  0.
         23    2    1    2    0    0 -0.92148235994E+02 -0.78523575862E+02  0.82579566998E+02  0.17254881135E+03  0.91084894737E+02 0.  0.
          5    1    3    3  502    0 -0.49606902713E+01 -0.53103192530E+01 -0.96970981808E+02  0.97332685422E+02  0.41800000000E+01 0.  1.
         -5    1    3    3    0  502  0.97108926266E+02  0.83833895115E+02 -0.81869909667E+02  0.15224460595E+03  0.41800000000E+01 0.  1.
        -11    1    4    4    0    0 -0.56041843820E+02 -0.11360747616E+02  0.77248424574E+02  0.96109697452E+02  0.00000000000E+00 0. -1.
         11    1    4    4    0    0 -0.36106392174E+02 -0.67162828246E+02  0.53311424248E+01  0.76439113898E+02  0.00000000000E+00 0.  1.
</event>
<event>
 8    1  0.6850220E-009  0.1481115E+03  0.7561462E-02  0.1202813E+00
         -2   -1    0    0    0  501 -0.00000000000E+00  0.00000000000E+00  0.42132213999E+03  0.42132213999E+03  0.00000000000E+00 0.  1.
          2   -1    0    0  501    0  0.00000000000E+00 -0.00000000000E+00 -0.78568604726E+02  0.78568604726E+02  0.00000000000E+00 0. -1.
         25    2    1    2    0    0  0.13945225332E+03 -0.98616854218E+01  0.23659824270E+03  0.30194391568E+03  0.12508883232E+03 0.  0.
         23    2    1    2    0    0 -0.13945225332E+03  0.98616854218E+01  0.10615529256E+03  0.19794682904E+03  0.91486705004E+02 0.  0.
          5    1    3    3  502    0  0.89221955760E+02  0.52991926158E+01  0.39267573480E+02  0.97714142063E+02  0.41800000000E+01 0.  1.
         -5    1    3    3    0  502  0.50230297556E+02 -0.15160878038E+02  0.19733066922E+03  0.20422977362E+03  0.41800000000E+01 0.  1.
        -11    1    4    4    0    0 -0.13969855093E+03  0.22475638154E+02  0.11516925760E+03  0.18244121612E+03  0.00000000000E+00 0.  1.
         11    1    4    4    0    0  0.24629761848E+00 -0.12613952732E+02 -0.90139650418E+01  0.15505612913E+02  0.00000000000E+00 0. -1.
</event>
<event>
 8    1  0.6850220E-009  0.1353033E+03  0.7561462E-02  0.1219792E+00
          1   -1    0    0  501    0  0.00000000000E+00  0.00000000000E+00  0.52039519439E+03  0.52039519439E+03  0.00000000000E+00 0. -1.
         -1   -1    0    0    0  501 -0.00000000000E+00 -0.00000000000E+00 -0.49160887536E+02  0.49160887536E+02  0.00000000000E+00 0.  1.
         25    2    1    2    0    0  0.10614352167E+03 -0.31603888775E+02  0.18276588798E+03  0.24762237297E+03  0.12509283276E+03 0.  0.
         23    2    1    2    0    0 -0.10614352167E+03  0.31603888775E+02  0.28846841887E+03  0.32193370895E+03  0.90343961042E+02 0.  0.
          5    1    3    3  502    0  0.12370967620E+03 -0.49439058818E+02  0.11783255169E+03  0.17790527581E+03  0.41800000000E+01 0. -1.
         -5    1    3    3    0  502 -0.17566154524E+02  0.17835170043E+02  0.64933336291E+02  0.69717097165E+02  0.41800000000E+01 0. -1.
        -11    1    4    4    0    0 -0.81900971158E+02  0.31345564672E+02  0.28406493068E+03  0.29729311856E+03  0.00000000000E+00 0. -1.
         11    1    4    4    0    0 -0.24242550515E+02  0.25832410251E+00  0.44034881929E+01  0.24640590396E+02  0.00000000000E+00 0.  1.
</event>
<event>
 8    1  0.6850220E-009  0.6546361E+02  0.7561462E-02  0.1376236E+00
         -2   -1    0    0    0  501 -0.00000000000E+00  0.00000000000E+00  0.61530312252E+02  0.61530312252E+02  0.00000000000E+00 0. -1.
          2   -1    0    0  501    0  0.00000000000E+00 -0.00000000000E+00 -0.36808340854E+03  0.36808340854E+03  0.00000000000E+00 0.  1.
         25    2    1    2    0    0 -0.63765233281E+01 -0.19232628670E+02 -0.31188742461E+03  0.33664622179E+03  0.12508540667E+03 0.  0.
         23    2    1    2    0    0  0.63765233281E+01  0.19232628670E+02  0.53343283213E+01  0.92967498999E+02  0.90575641076E+02 0.  0.
          5    1    3    3  502    0  0.17284556554E+02  0.10794492776E+02  0.15481980085E+01  0.20860160273E+02  0.41800000000E+01 0. -1.
         -5    1    3    3    0  502 -0.23661079882E+02 -0.30027121446E+02 -0.31343562262E+03  0.31578606152E+03  0.41800000000E+01 0. -1.
        -11    1    4    4    0    0 -0.70143924184E+01 -0.24732688264E+02  0.31043223567E+02  0.40306194303E+02  0.00000000000E+00 0. -1.
         11    1    4    4    0    0  0.13390915746E+02  0.43965316934E+02 -0.25708895245E+02  0.52661304697E+02  0.00000000000E+00 0.  1.
</event>
<event>
 8    1  0.6850220E-009  0.1019263E+03  0.7561462E-02  0.1276297E+00
         -2   -1    0    0    0  501 -0.00000000000E+00  0.00000000000E+00  0.28601921320E+02  0.28601921320E+02  0.00000000000E+00 0.  1.
          2   -1    0    0  501    0  0.00000000000E+00 -0.00000000000E+00 -0.49987757560E+03  0.49987757560E+03  0.00000000000E+00 0. -1.
         25    2    1    2    0    0 -0.36613903022E+02 -0.40424371909E+02 -0.27597811326E+03  0.30787486872E+03  0.12509319746E+03 0.  0.
         23    2    1    2    0    0  0.36613903022E+02  0.40424371909E+02 -0.19529754102E+03  0.22060462820E+03  0.86893985504E+02 0.  0.
          5    1    3    3  502    0 -0.70078237579E+02 -0.51980539819E+02 -0.24681418074E+03  0.26181605779E+03  0.41800000000E+01 0.  1.
         -5    1    3    3    0  502  0.33464334557E+02  0.11556167910E+02 -0.29163932516E+02  0.46058810926E+02  0.41800000000E+01 0.  1.
        -11    1    4    4    0    0 -0.13406879107E+02 -0.39579443882E+01  0.20615076079E+00  0.13980423074E+02  0.00000000000E+00 0.  1.
         11    1    4    4    0    0  0.50020782129E+02  0.44382316297E+02 -0.19550369178E+03  0.20662420513E+03  0.00000000000E+00 0. -1.
</event>
<event>
 8    1  0.6850220E-009  0.1235626E+03  0.7561462E-02  0.1237333E+00
         -2   -1    0    0    0  501 -0.00000000000E+00  0.00000000000E+00  0.12228022634E+02  0.12228022634E+02  0.00000000000E+00 0.  1.
          2   -1    0    0  501    0  0.00000000000E+00 -0.00000000000E+00 -0.14948303749E+04  0.14948303749E+04  0.00000000000E+00 0. -1.
         25    2    1    2    0    0  0.51365862278E+02 -0.43861746467E+02 -0.10609077860E+04  0.10703903207E+04  0.12509118166E+03 0.  0.
         23    2    1    2    0    0 -0.51365862278E+02  0.43861746467E+02 -0.42169456631E+03  0.43666807684E+03  0.91051619768E+02 0.  0.
          5    1    3    3  502    0  0.59965041794E+02  0.30250108678E+02 -0.52672896581E+03  0.53101012338E+03  0.41800000000E+01 0. -1.
         -5    1    3    3    0  502 -0.85991795166E+01 -0.74111855146E+02 -0.53417882015E+03  0.53938019731E+03  0.41800000000E+01 0. -1.
        -11    1    4    4    0    0  0.65146160895E+01  0.46703845856E+02 -0.27369287293E+03  0.27772554462E+03  0.00000000000E+00 0. -1.
         11    1    4    4    0    0 -0.57880478367E+02 -0.28420993890E+01 -0.14800169339E+03  0.15894253222E+03  0.00000000000E+00 0.  1.
</event>
<event>
 8    1  0.6850220E-009  0.7602176E+02  0.7561462E-02  0.1340736E+00
          1   -1    0    0  501    0  0.00000000000E+00  0.00000000000E+00  0.10861788741E+03  0.10861788741E+03  0.00000000000E+00 0. -1.
         -1   -1    0    0    0  501 -0.00000000000E+00 -0.00000000000E+00 -0.17408885286E+03  0.17408885286E+03  0.00000000000E+00 0.  1.
         25    2    1    2    0    0  0.36429860327E+02  0.56781651337E+02 -0.89292598396E+02  0.16784359216E+03  0.12508801961E+03 0.  0.
         23    2    1    2    0    0 -0.36429860327E+02 -0.56781651337E+02  0.23821632951E+02  0.11486314811E+03  0.89859790480E+02 0.  0.
          5    1    3    3  502    0  0.20897503192E+02  0.45966586263E+02  0.21738629203E+02  0.55133230379E+02  0.41800000000E+01 0. -1.
         -5    1    3    3    0  502  0.15532357135E+02  0.10815065074E+02 -0.11103122760E+03  0.11271036178E+03  0.41800000000E+01 0. -1.
        -11    1    4    4    0    0 -0.13367231637E+02 -0.57387298463E+02  0.51900800527E+02  0.78521831371E+02  0.00000000000E+00 0. -1.
         11    1    4    4    0    0 -0.23062628690E+02  0.60564712679E+00 -0.28079167575E+02  0.36341316738E+02  0.00000000000E+00 0.  1.
</event>
<event>
 8    1  0.6850220E-009  0.4223858E+03  0.7561462E-02  0.1036293E+00
          1   -1    0    0  501    0  0.00000000000E+00  0.00000000000E+00  0.48755560023E+03  0.48755560023E+03  0.00000000000E+00 0. -1.
         -1   -1    0    0    0  501 -0.00000000000E+00 -0.00000000000E+00 -0.39309097629E+03  0.39309097629E+03  0.00000000000E+00 0.  1.
         25    2    1    2    0    0  0.34408892505E+03 -0.22703551853E+03  0.14656345510E+03  0.45504977031E+03  0.12508849697E+03 0.  0.
         23    2    1    2    0    0 -0.34408892505E+03  0.22703551853E+03 -0.52098831162E+02  0.42559680621E+03  0.92065401914E+02 0.  0.
          5    1    3    3  502    0  0.19031054438E+03 -0.18591574150E+03  0.12627637605E+03  0.29452667415E+03  0.41800000000E+01 0.  1.
         -5    1    3    3    0  502  0.15377838067E+03 -0.41119777031E+02  0.20287079059E+02  0.16052309616E+03  0.41800000000E+01 0.  1.
        -11    1    4    4    0    0 -0.26802117590E+03  0.21242610290E+03 -0.22698630059E+02  0.34274688580E+03  0.00000000000E+00 0. -1.
         11    1    4    4    0    0 -0.76067749153E+02  0.14609415636E+02 -0.29400201103E+02  0.82849920406E+02  0.00000000000E+00 0.  1.
</event>
<event>
 8    1  0.6850220E-009  0.1601165E+03  0.7561462E-02  0.1188565E+00
          2   -1    0    0  501    0  0.00000000000E+00  0.00000000000E+00  0.64206546900E+03  0.64206546900E+03  0.00000000000E+00 0. -1.
         -2   -1    0    0    0  501 -0.00000000000E+00 -0.00000000000E+00 -0.52689843569E+02  0.52689843569E+02  0.00000000000E+00 0.  1.
         25    2    1    2    0    0 -0.35157995366E+01  0.14265236599E+03  0.23747773199E+03  0.30398255610E+03  0.12509061856E+03 0.  0.
         23    2    1    2    0    0  0.35157995366E+01 -0.14265236599E+03  0.35189789344E+03  0.39077275648E+03  0.92245116013E+02 0.  0.
          5    1    3    3  502    0  0.17846952005E+02  0.14724299072E+03  0.23939919439E+03  0.28165308215E+03  0.41800000000E+01 0.  1.
         -5    1    3    3    0  502 -0.21362751541E+02 -0.45906247298E+01 -0.19214623991E+01  0.22329473943E+02  0.41800000000E+01 0.  1.
        -11    1    4    4    0    0  0.24108210360E+02 -0.67144901463E+02  0.26218958442E+03  0.27172232477E+03  0.00000000000E+00 0. -1.
         11    1    4    4    0    0 -0.20592410824E+02 -0.75507464523E+02  0.89708309017E+02  0.11905043170E+03  0.00000000000E+00 0.  1.
</event>
<event>
 8    1  0.6850220E-009  0.8227462E+02  0.7561462E-02  0.1322718E+00
         -1   -1    0    0    0  501 -0.00000000000E+00  0.00000000000E+00  0.42000300390E+02  0.42000300390E+02  0.00000000000E+00 0.  1.
          1   -1    0    0  501    0  0.00000000000E+00 -0.00000000000E+00 -0.30258829498E+03  0.30258829498E+03  0.00000000000E+00 0. -1.
         25    2    1    2    0    0  0.22839838044E+02 -0.15769354349E+02 -0.16950824878E+03  0.21246693237E+03  0.12505526862E+03 0.  0.
         23    2    1    2    0    0 -0.22839838044E+02  0.15769354349E+02 -0.91079745806E+02  0.13212166300E+03  0.91598487969E+02 0.  0.
          5    1    3    3  502    0  0.15994155576E+02  0.46576480426E+02 -0.26110034362E+02  0.55896223807E+02  0.41800000000E+01 0. -1.
         -5    1    3    3    0  502  0.68456824676E+01 -0.62345834774E+02 -0.14339821442E+03  0.15657070857E+03  0.41800000000E+01 0. -1.
        -11    1    4    4    0    0  0.97754422162E+01  0.17019523904E+02 -0.96986262097E+02  0.98952304168E+02  0.00000000000E+00 0. -1.
         11    1    4    4    0    0 -0.32615280260E+02 -0.12501695551E+01  0.59065162911E+01  0.33169358828E+02  0.00000000000E+00 0.  1.
</event>
<event>
 8    1  0.6850220E-009  0.2522313E+03  0.7561462E-02  0.1111903E+00
          2   -1    0    0  501    0  0.00000000000E+00  0.00000000000E+00  0.23097670507E+03  0.23097670507E+03  0.00000000000E+00 0. -1.
         -2   -1    0    0    0  501 -0.00000000000E+00 -0.00000000000E+00 -0.33905091702E+03  0.33905091702E+03  0.00000000000E+00 0.  1.
         25    2    1    2    0    0  0.23952043422E+03 -0.31088067874E+02  0.36151553289E+02  0.27438732352E+03  0.12507982304E+03 0.  0.
         23    2    1    2    0    0 -0.23952043422E+03  0.31088067874E+02 -0.14422576524E+03  0.29564029856E+03  0.90915391434E+02 0.  0.
          5    1    3    3  502    0  0.78938825851E+02  0.37156978238E+02  0.47610796767E+02  0.99479845332E+02  0.41800000000E+01 0.  1.
         -5    1    3    3    0  502  0.16058160837E+03 -0.68245046112E+02 -0.11459243478E+02  0.17490747819E+03  0.41800000000E+01 0.  1.
        -11    1    4    4    0    0 -0.10034947022E+03  0.18038719531E+01 -0.11089286317E+03  0.14956770116E+03  0.00000000000E+00 0. -1.
         11    1    4    4    0    0 -0.13917096400E+03  0.29284195921E+02 -0.33332902070E+02  0.14607259740E+03  0.00000000000E+00 0.  1.
</event>
<event>
 8    1  0.6850220E-009  0.1406564E+03  0.7561462E-02  0.1212448E+00
         -2   -1    0    0    0  501 -0.00000000000E+00  0.00000000000E+00  0.81783848589E+02  0.81783848589E+02  0.00000000000E+00 0.  1.
          2   -1    0    0  501    0  0.00000000000E+00 -0.00000000000E+00 -0.32846382620E+03  0.32846382620E+03  0.00000000000E+00 0. -1.
         25    2    1    2    0    0  0.48671548231E+02 -0.11196696737E+03 -0.14439556838E+03  0.22672314548E+03  0.12509109936E+03 0.  0.
         23    2    1    2    0    0 -0.48671548231E+02  0.11196696737E+03 -0.10228440924E+03  0.18352452932E+03  0.91179115469E+02 0.  0.
          5    1    3    3  502    0  0.30996143334E+02 -0.12433675849E+03 -0.63841937275E+02  0.14322589071E+03  0.41800000000E+01 0. -1.
         -5    1    3    3    0  502  0.17675404897E+02  0.12369791119E+02 -0.80553631103E+02  0.83497254772E+02  0.41800000000E+01 0. -1.
        -11    1    4    4    0    0  0.13954333005E+01  0.56065776075E+02 -0.92044898878E+02  0.10778488712E+03  0.00000000000E+00 0. -1.
         11    1    4    4    0    0 -0.50066981532E+02  0.55901191297E+02 -0.10239510359E+02  0.75739642200E+02  0.00000000000E+00 0.  1.
</event>
<event>
 7    1  0.6850220E-009  0.1521366E+03  0.7561462E-02  0.1197872E+00
         -2   -1    0    0    0  501 -0.00000000000E+00  0.00000000000E+00  0.81162930628E+02  0.81162930628E+02  0.00000000000E+00 0. -1.
          2   -1    0    0  501    0  0.00000000000E+00 -0.00000000000E+00 -0.40626421709E+03  0.40626421709E+03  0.00000000000E+00 0.  1.
         23    2    1    2    0    0 -0.59076181509E+01 -0.13756072045E+03 -0.21755660342E+03  0.27243302989E+03  0.89056321044E+02 0.  0.
          5    1    1    2  502    0 -0.19219479650E+02  0.55509887053E+02 -0.11454314888E+03  0.12879573485E+03  0.41800000000E+01 0. -1.
         -5    1    1    2    0  502  0.25127097801E+02  0.82050833398E+02  0.69984658415E+01  0.86198382986E+02  0.41800000000E+01 0. -1.
        -11    1    3    3    0    0  0.57415460083E+01  0.99555107142E+01 -0.38316624663E+02  0.40003015758E+02  0.00000000000E+00 0.  1.
         11    1    3    3    0    0 -0.11649164159E+02 -0.14751623116E+03 -0.17923997876E+03  0.23243001413E+03  0.00000000000E+00 0. -1.
</event>
<event>
 8    1  0.6850220E-009  0.9464219E+02  0.7561462E-02  0.1291984E+00
          4   -1    0    0  501    0  0.00000000000E+00  0.00000000000E+00  0.11037292003E+03  0.11037292003E+03  0.00000000000E+00 0. -1.
         -4   -1    0    0    0  501 -0.00000000000E+00 -0.00000000000E+00 -0.12384420123E+03  0.12384420123E+03  0.00000000000E+00 0.  1.
         25    2    1    2    0    0 -0.36242881424E+02  0.25908337160E+02 -0.75875184713E+01  0.13300888263E+03  0.12509597929E+03 0.  0.
         23    2    1    2    0    0  0.36242881424E+02 -0.25908337160E+02 -0.58837627270E+01  0.10120823862E+03  0.90684621146E+02 0.  0.
          5    1    3    3  502    0 -0.12923848829E+02  0.58801547759E+02 -0.46983351510E+02  0.76482387558E+02  0.41800000000E+01 0. -1.
         -5    1    3    3    0  502 -0.23319032595E+02 -0.32893210599E+02  0.39395833039E+02  0.56526495075E+02  0.41800000000E+01 0. -1.
        -11    1    4    4    0    0 -0.20439919209E+02 -0.24216806245E+02 -0.26048658732E+02  0.41021660421E+02  0.00000000000E+00 0.  1.
         11    1    4    4    0    0  0.56682800633E+02 -0.16915309147E+01  0.20164896005E+02  0.60186578199E+02  0.00000000000E+00 0. -1.
</event>
<event>
 8    1  0.6850220E-009  0.2192451E+03  0.7561462E-02  0.1134447E+00
         -2   -1    0    0    0  501 -0.00000000000E+00  0.00000000000E+00  0.27030583520E+02  0.27030583520E+02  0.00000000000E+00 0. -1.
          2   -1    0    0  501    0  0.00000000000E+00 -0.00000000000E+00 -0.35877702614E+04  0.35877702614E+04  0.00000000000E+00 0.  1.
         25    2    1    2    0    0 -0.19809657306E+03 -0.69296336318E+02 -0.29885368492E+04  0.29985071867E+04  0.12509442412E+03 0.  0.
         23    2    1    2    0    0  0.19809657306E+03  0.69296336318E+02 -0.57220282865E+03  0.61629365823E+03  0.91419700135E+02 0.  0.
          5    1    3    3  502    0 -0.75624630027E+02  0.18205714712E+02 -0.57148227211E+03  0.57676684409E+03  0.41800000000E+01 0. -1.
         -5    1    3    3    0  502 -0.12247194304E+03 -0.87502051030E+02 -0.24170545771E+04  0.24217403426E+04  0.41800000000E+01 0. -1.
        -11    1    4    4    0    0  0.17380118917E+03  0.63502266155E+02 -0.55728331610E+03  0.58720020910E+03  0.00000000000E+00 0.  1.
         11    1    4    4    0    0  0.24295383892E+02  0.57940701632E+01 -0.14919512550E+02  0.29093449129E+02  0.00000000000E+00 0. -1.
</event>
<event>
 8    1  0.6850220E-009  0.1269050E+03  0.7561462E-02  0.1232122E+00
          1   -1    0    0  501    0  0.00000000000E+00  0.00000000000E+00  0.41591487514E+02  0.41591487514E+02  0.00000000000E+00 0. -1.
         -1   -1    0    0    0  501 -0.00000000000E+00 -0.00000000000E+00 -0.44221155150E+03  0.44221155150E+03  0.00000000000E+00 0.  1.
         25    2    1    2    0    0 -0.80846614116E+02  0.15494718206E+01 -0.28197363049E+03  0.31889704835E+03  0.12509046037E+03 0.  0.
         23    2    1    2    0    0  0.80846614116E+02 -0.15494718206E+01 -0.11864643349E+03  0.16490599067E+03  0.81107544036E+02 0.  0.
          5    1    3    3  502    0  0.29074006797E+02 -0.15053183377E+02 -0.35455402774E+02  0.48440212498E+02  0.41800000000E+01 0. -1.
         -5    1    3    3    0  502 -0.10992062091E+03  0.16602655197E+02 -0.24651822772E+03  0.27045683585E+03  0.41800000000E+01 0. -1.
        -11    1    4    4    0    0  0.69654771721E+02 -0.32340558511E+02 -0.10332316365E+03  0.12873762114E+03  0.00000000000E+00 0. -1.
         11    1    4    4    0    0  0.11191842395E+02  0.30791086691E+02 -0.15323269839E+02  0.36168369529E+02  0.00000000000E+00 0.  1.
</event>
<event>
 8    1  0.6850220E-009  0.1193333E+03  0.7561462E-02  0.1244201E+00
          3   -1    0    0  501    0  0.00000000000E+00  0.00000000000E+00  0.50070780779E+02  0.50070780779E+02  0.00000000000E+00 0. -1.
         -3   -1    0    0    0  501 -0.00000000000E+00 -0.00000000000E+00 -0.42517907880E+03  0.42517907880E+03  0.00000000000E+00 0.  1.
         25    2    1    2    0    0 -0.59931013301E+01  0.87757393845E+02 -0.13787616314E+03  0.20589897493E+03  0.12508906458E+03 0.  0.
         23    2    1    2    0    0  0.59931013301E+01 -0.87757393845E+02 -0.23723213488E+03  0.26935088465E+03  0.92377138955E+02 0.  0.
          5    1    3    3  502    0  0.13761716121E+02  0.89929945979E+02 -0.29640967315E+02  0.95774941179E+02  0.41800000000E+01 0. -1.
         -5    1    3    3    0  502 -0.19754817451E+02 -0.21725521344E+01 -0.10823519582E+03  0.11012403375E+03  0.41800000000E+01 0. -1.
        -11    1    4    4    0    0 -0.32836982699E+02 -0.81613715066E+02 -0.17189379659E+03  0.19309723775E+03  0.00000000000E+00 0.  1.
         11    1    4    4    0    0  0.38830084029E+02 -0.61436787787E+01 -0.65338338289E+02  0.76253646896E+02  0.00000000000E+00 0. -1.
</event>
<event>
 8    1  0.6850220E-009  0.1033694E+03  0.7561462E-02  0.1273366E+00
          1   -1    0    0  501    0  0.00000000000E+00  0.00000000000E+00  0.29986244333E+03  0.29986244333E+03  0.00000000000E+00 0. -1.
         -1   -1    0    0    0  501 -0.00000000000E+00 -0.00000000000E+00 -0.99066692536E+02  0.99066692536E+02  0.00000000000E+00 0.  1.
         25    2    1    2    0    0  0.15642036320E+01  0.30620925018E+02 -0.44235666238E+02  0.13619079554E+03  0.12510415996E+03 0.  0.
         23    2    1    2    0    0 -0.15642036320E+01 -0.30620925018E+02  0.24503141703E+03  0.26273834033E+03  0.89727099378E+02 0.  0.
          5    1    3    3  502    0 -0.58928688656E+02 -0.12304886393E+01 -0.29856421870E+02  0.66204099389E+02  0.41800000000E+01 0.  1.
         -5    1    3    3    0  502  0.60492892288E+02  0.31851413658E+02 -0.14379244368E+02  0.69986696150E+02  0.41800000000E+01 0.  1.
        -11    1    4    4    0    0  0.27776960007E+02 -0.39690352974E+02  0.70591567847E+02  0.85615729148E+02  0.00000000000E+00 0.  1.
         11    1    4    4    0    0 -0.29341163639E+02  0.90694279553E+01  0.17443984918E+03  0.17712261118E+03  0.00000000000E+00 0. -1.
</event>
<event>
 8    1  0.6850220E-009  0.1353090E+03  0.7561462E-02  0.1219784E+00
         -1   -1    0    0    0  501 -0.00000000000E+00  0.00000000000E+00  0.21077741755E+03  0.21077741755E+03  0.00000000000E+00 0.  1.
          1   -1    0    0  501    0  0.00000000000E+00 -0.00000000000E+00 -0.90171672757E+02  0.90171672757E+02  0.00000000000E+00 0. -1.
         25    2    1    2    0    0  0.30998333061E+02  0.76622176880E+02  0.41926957228E+02  0.15568566670E+03  0.12509317500E+03 0.  0.
         23    2    1    2    0    0 -0.30998333061E+02 -0.76622176880E+02  0.78678787566E+02  0.14526342360E+03  0.89884681575E+02 0.  0.
          5    1    3    3  502    0  0.15521748784E+00 -0.34282573604E+02  0.13153328925E+02  0.36956750496E+02  0.41800000000E+01 0. -1.
         -5    1    3    3    0  502  0.30843115573E+02  0.11090475048E+03  0.28773628302E+02  0.11872891621E+03  0.41800000000E+01 0. -1.
        -11    1    4    4    0    0  0.29139102513E+01 -0.85728482692E+02  0.46182274137E+02  0.97420049589E+02  0.00000000000E+00 0. -1.
         11    1    4    4    0    0 -0.33912243313E+02  0.91063058116E+01  0.32496513430E+02  0.47843374015E+02  0.00000000000E+00 0.  1.
</event>
<event>
 8    1  0.6850220E-009  0.9996285E+02  0.7561462E-02  0.1280374E+00
         -3   -1    0    0    0  501 -0.00000000000E+00  0.00000000000E+00  0.73078614758E+02  0.73078614758E+02  0.00000000000E+00 0.  1.
          3   -1    0    0  501    0  0.00000000000E+00 -0.00000000000E+00 -0.17960101864E+03  0.17960101864E+03  0.00000000000E+00 0. -1.
         25    2    1    2    0    0 -0.13844519779E+02 -0.52234956345E+01 -0.29288206248E+02  0.12932111832E+03  0.12508875643E+03 0.  0.
         23    2    1    2    0    0  0.13844519779E+02  0.52234956345E+01 -0.77234197631E+02  0.12335851507E+03  0.95043391787E+02 0.  0.
          5    1    3    3  502    0 -0.55064434111E+02  0.15693160814E+02  0.20776248842E+02  0.61053190877E+02  0.41800000000E+01 0.  1.
         -5    1    3    3    0  502  0.41219914332E+02 -0.20916656449E+02 -0.50064455091E+02  0.68267927448E+02  0.41800000000E+01 0.  1.
        -11    1    4    4    0    0 -0.29473293236E+01 -0.43998465091E+02 -0.32876970397E+02  0.55004062240E+02  0.00000000000E+00 0.  1.
         11    1    4    4    0    0  0.16791849103E+02  0.49221960725E+02 -0.44357227235E+02  0.68354452831E+02  0.00000000000E+00 0. -1.
</event>
<event>
 8    1  0.6850220E-009  0.6131746E+02  0.7561462E-02  0.1392385E+00
          2   -1    0    0  501    0  0.00000000000E+00  0.00000000000E+00  0.39790984977E+03  0.39790984977E+03  0.00000000000E+00 0.  1.
         -2   -1    0    0    0  501 -0.00000000000E+00 -0.00000000000E+00 -0.32398106270E+02  0.32398106270E+02  0.00000000000E+00 0. -1.
         25    2    1    2    0    0 -0.90184033162E+01 -0.32283467354E+02  0.21158632878E+03  0.24806968934E+03  0.12508494065E+03 0.  0.
         23    2    1    2    0    0  0.90184033162E+01  0.32283467354E+02  0.15392541472E+03  0.18223826670E+03  0.91619859705E+02 0.  0.
          5    1    3    3  502    0 -0.28455854739E+02 -0.97205404138E+01  0.21560286545E+03  0.21772986144E+03  0.41800000000E+01 0. -1.
         -5    1    3    3    0  502  0.19437451423E+02 -0.22562926940E+02 -0.40165366635E+01  0.30339827895E+02  0.41800000000E+01 0. -1.
        -11    1    4    4    0    0  0.30776416163E+02  0.23568576115E+02  0.15399573372E+03  0.15879972159E+03  0.00000000000E+00 0.  1.
         11    1    4    4    0    0 -0.21758012847E+02  0.87148912384E+01 -0.70319004870E-01  0.23438545115E+02  0.00000000000E+00 0. -1.
</event>
<event>
 8    1  0.6850220E-009  0.1172901E+03  0.7561462E-02  0.1247636E+00
         -2   -1    0    0    0  501 -0.00000000000E+00  0.00000000000E+00  0.85485021090E+02  0.85485021090E+02  0.00000000000E+00 0. -1.
          2   -1    0    0  501    0  0.00000000000E+00 -0.00000000000E+00 -0.19611510116E+03  0.19611510116E+03  0.00000000000E+00 0.  1.
         25    2    1    2    0    0  0.40192428923E+02 -0.36782197490E+02 -0.10266660717E+02  0.13681454753E+03  0.12507779458E+03 0.  0.
         23    2    1    2    0    0 -0.40192428923E+02  0.36782197490E+02 -0.10036341935E+03  0.14478557472E+03  0.89003849966E+02 0.  0.
          5    1    3    3  502    0  0.81007521384E+02 -0.82976411964E+01  0.11472209046E+02  0.82341686591E+02  0.41800000000E+01 0. -1.
         -5    1    3    3    0  502 -0.40815092462E+02 -0.28484556294E+02 -0.21738869763E+02  0.54472860935E+02  0.41800000000E+01 0. -1.
        -11    1    4    4    0    0  0.91133769631E+01  0.50977756034E+02 -0.39189461618E+02  0.64943045446E+02  0.00000000000E+00 0.  1.
         11    1    4    4    0    0 -0.49305805886E+02 -0.14195558543E+02 -0.61173957735E+02  0.79842529277E+02  0.00000000000E+00 0. -1.
</event>
<event>
 8    1  0.6850220E-009  0.2811585E+03  0.7561462E-02  0.1095058E+00
          2   -1    0    0  501    0  0.00000000000E+00  0.00000000000E+00  0.19444506068E+03  0.19444506068E+03  0.00000000000E+00 0. -1.
         -2   -1    0    0    0  501 -0.00000000000E+00 -0.00000000000E+00 -0.47545248839E+03  0.47545248839E+03  0.00000000000E+00 0.  1.
         25    2    1    2    0    0 -0.11895331153E+03  0.23488950531E+03 -0.26049337141E+03  0.39093161313E+03  0.12509100511E+03 0.  0.
         23    2    1    2    0    0  0.11895331153E+03 -0.23488950531E+03 -0.20514056302E+02  0.27896593595E+03  0.89878789941E+02 0.  0.
          5    1    3    3  502    0 -0.57814241260E+02  0.19451786540E+02 -0.92786858284E+02  0.11112034900E+03  0.41800000000E+01 0.  1.
         -5    1    3    3    0  502 -0.61139070269E+02  0.21543771877E+03 -0.16770651313E+03  0.27981126412E+03  0.41800000000E+01 0.  1.
        -11    1    4    4    0    0  0.80327467017E+02 -0.66067940990E+02  0.38401612479E+01  0.10407795935E+03  0.00000000000E+00 0. -1.
         11    1    4    4    0    0  0.38625844512E+02 -0.16882156432E+03 -0.24354217550E+02  0.17488797660E+03  0.00000000000E+00 0.  1.
</event>
<event>
 8    1  0.6850220E-009  0.1289128E+03  0.7561462E-02  0.1229078E+00
         -2   -1    0    0    0  501 -0.00000000000E+00  0.00000000000E+00  0.19985373728E+02  0.19985373728E+02  0.00000000000E+00 0.  1.
          2   -1    0    0  501    0  0.00000000000E+00 -0.00000000000E+00 -0.84733653082E+03  0.84733653082E+03  0.00000000000E+00 0. -1.
         25    2    1    2    0    0  0.37247732888E+01 -0.63495839575E+02 -0.41669965806E+03  0.43969658276E+03  0.12509550065E+03 0.  0.
         23    2    1    2    0    0 -0.37247732888E+01  0.63495839575E+02 -0.41065149904E+03  0.42762532179E+03  0.10091167722E+03 0.  0.
          5    1    3    3  502    0 -0.24524280801E+02 -0.94772467118E+02 -0.29187128399E+03  0.30787916411E+03  0.41800000000E+01 0. -1.
         -5    1    3    3    0  502  0.28249054089E+02  0.31276627543E+02 -0.12482837406E+03  0.13181741865E+03  0.41800000000E+01 0. -1.
        -11    1    4    4    0    0 -0.24231256181E+01  0.90461039559E+02 -0.34425592147E+03  0.35595113524E+03  0.00000000000E+00 0. -1.
         11    1    4    4    0    0 -0.13016476707E+01 -0.26965199984E+02 -0.66395577572E+02  0.71674186552E+02  0.00000000000E+00 0.  1.
</event>
<event>
 8    1  0.6850220E-009  0.1283360E+03  0.7561462E-02  0.1229946E+00
          2   -1    0    0  501    0  0.00000000000E+00  0.00000000000E+00  0.45445442408E+02  0.45445442408E+02  0.00000000000E+00 0. -1.
         -2   -1    0    0    0  501 -0.00000000000E+00 -0.00000000000E+00 -0.43661830179E+03  0.43661830179E+03  0.00000000000E+00 0.  1.
         25    2    1    2    0    0 -0.86296174147E+02 -0.36391580195E+01 -0.24459196337E+03  0.28797941772E+03  0.12508654341E+03 0.  0.
         23    2    1    2    0    0  0.86296174147E+02  0.36391580195E+01 -0.14658089601E+03  0.19408432648E+03  0.93394290861E+02 0.  0.
          5    1    3    3  502    0 -0.80596040969E+00  0.41002092348E+02 -0.25267180800E+02  0.48350015250E+02  0.41800000000E+01 0. -1.
         -5    1    3    3    0  502 -0.85490213737E+02 -0.44641250368E+02 -0.21932478257E+03  0.23962940247E+03  0.41800000000E+01 0. -1.
        -11    1    4    4    0    0  0.14622621786E+02 -0.34683163048E+02 -0.17410135027E+02  0.41471142600E+02  0.00000000000E+00 0. -1.
         11    1    4    4    0    0  0.71673552361E+02  0.38322321067E+02 -0.12917076099E+03  0.15261318388E+03  0.00000000000E+00 0.  1.
</event>
<event>
 8    1  0.6850220E-009  0.1241979E+03  0.7561462E-02  0.1236328E+00
          1   -1    0    0  501    0  0.00000000000E+00  0.00000000000E+00  0.11564942016E+03  0.11564942016E+03  0.00000000000E+00 0. -1.
         -1   -1    0    0    0  501 -0.00000000000E+00 -0.00000000000E+00 -0.26984988269E+03  0.26984988269E+03  0.00000000000E+00 0.  1.
         25    2    1    2    0    0  0.97796687037E+02  0.60393039209E+02  0.48598900396E+01  0.16995157041E+03  0.12509359125E+03 0.  0.
         23    2    1    2    0    0 -0.97796687037E+02 -0.60393039209E+02 -0.15906035257E+03  0.21554773245E+03  0.89157826478E+02 0.  0.
          5    1    3    3  502    0  0.64897786779E+02  0.17387122435E+02  0.61716460895E+02  0.91325947577E+02  0.41800000000E+01 0. -1.
         -5    1    3    3    0  502  0.32898900259E+02  0.43005916774E+02 -0.56856570855E+02  0.78625622829E+02  0.41800000000E+01 0. -1.
        -11    1    4    4    0    0 -0.58105016202E+01 -0.28999534802E+02 -0.51432777823E+00  0.29580390140E+02  0.00000000000E+00 0. -1.
         11    1    4    4    0    0 -0.91986185417E+02 -0.31393504407E+02 -0.15854602480E+03  0.18596734231E+03  0.00000000000E+00 0.  1.
</event>
<event>
 8    1  0.6850220E-009  0.7706686E+02  0.7561462E-02  0.1337588E+00
         -3   -1    0    0    0  501 -0.00000000000E+00  0.00000000000E+00  0.53607363752E+02  0.53607363752E+02  0.00000000000E+00 0.  1.
          3   -1    0    0  501    0  0.00000000000E+00 -0.00000000000E+00 -0.31076896305E+03  0.31076896305E+03  0.00000000000E+00 0. -1.
         25    2    1    2    0    0 -0.32012797541E+02  0.20209606272E+02 -0.20922184471E+03  0.24668742011E+03  0.12509058936E+03 0.  0.
         23    2    1    2    0    0  0.32012797541E+02 -0.20209606272E+02 -0.47939754588E+02  0.11768890669E+03  0.10059429057E+03 0.  0.
          5    1    3    3  502    0  0.10080390629E+02  0.19362863543E+02  0.93102252957E+01  0.24097457436E+02  0.41800000000E+01 0.  1.
         -5    1    3    3    0  502 -0.42093188170E+02  0.84674272893E+00 -0.21853207000E+03  0.22258996267E+03  0.41800000000E+01 0.  1.
        -11    1    4    4    0    0  0.37408794291E+02 -0.48244804236E+02  0.96954098310E+00  0.61056687069E+02  0.00000000000E+00 0.  1.
         11    1    4    4    0    0 -0.53959967497E+01  0.28035197965E+02 -0.48909295571E+02  0.56632219620E+02  0.00000000000E+00 0. -1.
</event>
<event>
 8    1  0.6850220E-009  0.1114224E+03  0.7561462E-02  0.1257958E+00
          1   -1    0    0  501    0  0.00000000000E+00  0.00000000000E+00  0.75564485491E+03  0.75564485491E+03  0.00000000000E+00 0. -1.
         -1   -1    0    0    0  501 -0.00000000000E+00 -0.00000000000E+00 -0.28969295107E+02  0.28969295107E+02  0.00000000000E+00 0.  1.
         25    2    1    2    0    0 -0.47846000591E+02 -0.76655028794E+02  0.37756537998E+03  0.40787610174E+03  0.12506824138E+03 0.  0.
         23    2    1    2    0    0  0.47846000591E+02  0.76655028794E+02  0.34911017982E+03  0.37673804827E+03  0.10903396787E+03 0.  0.
          5    1    3    3  502    0 -0.41469979910E+02 -0.91133358012E+01  0.30680990337E+03  0.30976216898E+03  0.41800000000E+01 0.  1.
         -5    1    3    3    0  502 -0.63760206813E+01 -0.67541692993E+02  0.70755476602E+02  0.98113932758E+02  0.41800000000E+01 0.  1.
        -11    1    4    4    0    0 -0.16904372253E+02  0.19857602958E+02  0.11834060209E+02  0.28637862656E+02  0.00000000000E+00 0.  1.
         11    1    4    4    0    0  0.64750372844E+02  0.56797425837E+02  0.33727611961E+03  0.34810018562E+03  0.00000000000E+00 0. -1.
</event>
<event>
 8    1  0.6850220E-009  0.9748929E+02  0.7561462E-02  0.1285666E+00
         -2   -1    0    0    0  501 -0.00000000000E+00  0.00000000000E+00  0.76746165625E+02  0.76746165625E+02  0.00000000000E+00 0.  1.
          2   -1    0    0  501    0  0.00000000000E+00 -0.00000000000E+00 -0.23187856031E+03  0.23187856031E+03  0.00000000000E+00 0. -1.
         25    2    1    2    0    0  0.59361123121E+01 -0.71126416436E+02 -0.12380344192E+03  0.18992016035E+03  0.12509264779E+03 0.  0.
         23    2    1    2    0    0 -0.59361123121E+01  0.71126416436E+02 -0.31328952763E+02  0.11870456558E+03  0.89526901347E+02 0.  0.
          5    1    3    3  502    0  0.26532823565E+02  0.17776132516E+02  0.43896064659E+01  0.32507270855E+02  0.41800000000E+01 0.  1.
         -5    1    3    3    0  502 -0.20596711253E+02 -0.88902548951E+02 -0.12819304839E+03  0.15741288950E+03  0.41800000000E+01 0.  1.
        -11    1    4    4    0    0 -0.26881101030E+01  0.46322633114E+02  0.28085650345E+02  0.54238510579E+02  0.00000000000E+00 0.  1.
         11    1    4    4    0    0 -0.32480022091E+01  0.24803783322E+02 -0.59414603108E+02  0.64466055005E+02  0.00000000000E+00 0. -1.
</event>
<event>
 8    1  0.6850220E-009  0.3957175E+03  0.7561462E-02  0.1045273E+00
          2   -1    0    0  501    0  0.00000000000E+00  0.00000000000E+00  0.74192144685E+03  0.74192144685E+03  0.00000000000E+00 0. -1.
         -2   -1    0    0    0  501 -0.00000000000E+00 -0.00000000000E+00 -0.26591509871E+03  0.26591509871E+03  0.00000000000E+00 0.  1.
         25    2    1    2    0    0 -0.29825273873E+03  0.24551765266E+03  0.25070057097E+02  0.40682829580E+03  0.12508853096E+03 0.  0.
         23    2    1    2    0    0  0.29825273873E+03 -0.24551765266E+03  0.45093629104E+03  0.60100824977E+03  0.92918048751E+02 0.  0.
          5    1    3    3  502    0 -0.22012959870E+03  0.24079089138E+03  0.33544676853E+02  0.32799391967E+03  0.41800000000E+01 0. -1.
         -5    1    3    3    0  502 -0.78123140024E+02  0.47267612730E+01 -0.84746197560E+01  0.78834376127E+02  0.41800000000E+01 0. -1.
        -11    1    4    4    0    0  0.89687171366E+02 -0.62645381785E+02  0.70357453847E+02  0.13007076489E+03  0.00000000000E+00 0.  1.
         11    1    4    4    0    0  0.20856556736E+03 -0.18287227087E+03  0.38057883720E+03  0.47093748488E+03  0.00000000000E+00 0. -1.
</event>
<event>
 8    1  0.6850220E-009  0.2196637E+03  0.7561462E-02  0.1134134E+00
          1   -1    0    0  501    0  0.00000000000E+00  0.00000000000E+00  0.49132124900E+03  0.49132124900E+03  0.00000000000E+00 0. -1.
         -1   -1    0    0    0  501 -0.00000000000E+00 -0.00000000000E+00 -0.17217313829E+03  0.17217313829E+03  0.00000000000E+00 0.  1.
         25    2    1    2    0    0  0.17430779791E+03 -0.95352777725E+02  0.37892697136E+03  0.44576706569E+03  0.12508903468E+03 0.  0.
         23    2    1    2    0    0 -0.17430779791E+03  0.95352777725E+02 -0.59778860641E+02  0.21772732161E+03  0.66002376960E+02 0.  0.
          5    1    3    3  502    0  0.91092763085E+02 -0.11371032478E+03  0.19935267729E+03  0.24695524248E+03  0.41800000000E+01 0. -1.
         -5    1    3    3    0  502  0.83215034820E+02  0.18357547059E+02  0.17957429407E+03  0.19881182320E+03  0.41800000000E+01 0. -1.
        -11    1    4    4    0    0 -0.17415099241E+03  0.77870092618E+02 -0.60777477253E+02  0.20021543703E+03  0.00000000000E+00 0.  1.
         11    1    4    4    0    0 -0.15680549530E+00  0.17482685106E+02  0.99861661244E+00  0.17511884582E+02  0.00000000000E+00 0. -1.
</event>
<event>
 8    1  0.6850220E-009  0.1031004E+03  0.7561462E-02  0.1273908E+00
         -1   -1    0    0    0  501 -0.00000000000E+00  0.00000000000E+00  0.43553761819E+02  0.43553761819E+02  0.00000000000E+00 0.  1.
          1   -1    0    0  501    0  0.00000000000E+00 -0.00000000000E+00 -0.36387576635E+03  0.36387576635E+03  0.00000000000E+00 0. -1.
         25    2    1    2    0    0  0.17577257905E+01  0.30298888569E+02 -0.26368584013E+03  0.29342639902E+03  0.12509083545E+03 0.  0.
         23    2    1    2    0    0 -0.17577257905E+01 -0.30298888569E+02 -0.56636164399E+02  0.11400312914E+03  0.94169772685E+02 0.  0.
          5    1    3    3  502    0 -0.37171710252E+02  0.58946148324E+02 -0.94939894178E+02  0.11784498442E+03  0.41800000000E+01 0. -1.
         -5    1    3    3    0  502  0.38929436042E+02 -0.28647259755E+02 -0.16874594595E+03  0.17558141461E+03  0.41800000000E+01 0. -1.
        -11    1    4    4    0    0 -0.41228434973E+02 -0.24555698046E+02 -0.56484401526E+02  0.74116487859E+02  0.00000000000E+00 0. -1.
         11    1    4    4    0    0  0.39470709182E+02 -0.57431905227E+01 -0.15176287355E+00  0.39886641281E+02  0.00000000000E+00 0.  1.
</event>
<event>
 8    1  0.6850220E-009  0.8284820E+02  0.7561462E-02  0.1321158E+00
         -1   -1    0    0    0  501 -0.00000000000E+00  0.00000000000E+00  0.33898178688E+03  0.33898178688E+03  0.00000000000E+00 0.  1.
          1   -1    0    0  501    0  0.00000000000E+00 -0.00000000000E+00 -0.41950079977E+02  0.41950079977E+02  0.00000000000E+00 0. -1.
         25    2    1    2    0    0 -0.13707649218E+02  0.38296167335E+02  0.21304133614E+03  0.25037813410E+03  0.12509237806E+03 0.  0.
         23    2    1    2    0    0  0.13707649218E+02 -0.38296167335E+02  0.83990370765E+02  0.13055373276E+03  0.91298404573E+02 0.  0.
          5    1    3    3  502    0  0.21936340658E+02  0.40554845283E+02  0.20914563902E+03  0.21420847145E+03  0.41800000000E+01 0. -1.
         -5    1    3    3    0  502 -0.35643989876E+02 -0.22586779475E+01  0.38956971202E+01  0.36169662652E+02  0.41800000000E+01 0. -1.
        -11    1    4    4    0    0  0.19057633397E+02  0.18401144641E+02 -0.29148008227E+01  0.26651296003E+02  0.00000000000E+00 0. -1.
         11    1    4    4    0    0 -0.53499841790E+01 -0.56697311977E+02  0.86905171588E+02  0.10390243676E+03  0.00000000000E+00 0.  1.
</event>
<event>
 7    1  0.6850220E-009  0.1115275E+03  0.7561462E-02  0.1257767E+00
         -2   -1    0    0    0  501 -0.00000000000E+00  0.00000000000E+00  0.51209745030E+02  0.51209745030E+02  0.00000000000E+00 0.  1.
          2   -1    0    0  501    0  0.00000000000E+00 -0.00000000000E+00 -0.45066627904E+03  0.45066627904E+03  0.00000000000E+00 0. -1.
         23    2    1    2    0    0  0.83708772334E+02 -0.98877827396E+01 -0.74208722644E+02  0.14356246110E+03  0.89433321016E+02 0.  0.
          5    1    1    2  502    0 -0.72101678956E+02  0.28723366797E+02 -0.78249718223E+02  0.11029131748E+03  0.41800000000E+01 0. -1.
         -5    1    1    2    0  502 -0.11607093378E+02 -0.18835584057E+02 -0.24699809315E+03  0.24802224550E+03  0.41800000000E+01 0. -1.
        -11    1    3    3    0    0  0.83316120439E+02 -0.40194248906E+02 -0.53617505271E+02  0.10692048654E+03  0.00000000000E+00 0. -1.
         11    1    3    3    0    0  0.39265189584E+00  0.30306466167E+02 -0.20591217372E+02  0.36641974563E+02  0.00000000000E+00 0.  1.
</event>
<event>
 8    1  0.6850220E-009  0.1250912E+03  0.7561462E-02  0.1234927E+00
          2   -1    0    0  501    0  0.00000000000E+00  0.00000000000E+00  0.16632565277E+03  0.16632565277E+03  0.00000000000E+00 0. -1.
         -2   -1    0    0    0  501 -0.00000000000E+00 -0.00000000000E+00 -0.13074564309E+03  0.13074564309E+03  0.00000000000E+00 0.  1.
         25    2    1    2    0    0  0.74647729382E+02 -0.28708057667E+02 -0.43055085361E+02  0.15458910248E+03  0.12509042391E+03 0.  0.
         23    2    1    2    0    0 -0.74647729382E+02  0.28708057667E+02  0.78635095036E+02  0.14248219338E+03  0.87870707191E+02 0.  0.
          5    1    3    3  502    0  0.31835822844E+02 -0.77132958396E+02 -0.20779658750E+02  0.86094596258E+02  0.41800000000E+01 0.  1.
         -5    1    3    3    0  502  0.42811906538E+02  0.48424900729E+02 -0.22275426611E+02  0.68494506223E+02  0.41800000000E+01 0.  1.
        -11    1    4    4    0    0 -0.31720324230E+02 -0.19560207533E+02 -0.41287654909E+01  0.37494364810E+02  0.00000000000E+00 0.  1.
         11    1    4    4    0    0 -0.42927405151E+02  0.48268265201E+02  0.82763860527E+02  0.10498782857E+03  0.00000000000E+00 0. -1.
</event>
<event>
 8    1  0.6850220E-009  0.1140581E+03  0.7561462E-02  0.1253234E+00
          2   -1    0    0  501    0  0.00000000000E+00  0.00000000000E+00  0.10058232909E+04  0.10058232909E+04  0.00000000000E+00 0.  1.
         -2   -1    0    0    0  501 -0.00000000000E+00 -0.00000000000E+00 -0.16616512814E+02  0.16616512814E+02  0.00000000000E+00 0. -1.
         25    2    1    2    0    0  0.66978294609E+02 -0.11979674620E+02  0.64785282669E+03  0.66331819849E+03  0.12509253716E+03 0.  0.
         23    2    1    2    0    0 -0.66978294609E+02  0.11979674620E+02  0.34135395139E+03  0.35912160522E+03  0.88409290509E+02 0.  0.
          5    1    3    3  502    0  0.62070477215E+02  0.33484354967E+02  0.55757653090E+03  0.56203470211E+03  0.41800000000E+01 0. -1.
         -5    1    3    3    0  502  0.49078173934E+01 -0.45464029587E+02  0.90276295790E+02  0.10128349638E+03  0.41800000000E+01 0. -1.
        -11    1    4    4    0    0 -0.35128890801E+02 -0.38337045176E+02  0.16190059687E+03  0.17004579168E+03  0.00000000000E+00 0. -1.
         11    1    4    4    0    0 -0.31849403808E+02  0.50316719797E+02  0.17945335452E+03  0.18907581353E+03  0.00000000000E+00 0.  1.
</event>
<event>
 8    1  0.6850220E-009  0.1225973E+03  0.7561462E-02  0.1238873E+00
          2   -1    0    0  501    0  0.00000000000E+00  0.00000000000E+00  0.11865581599E+03  0.11865581599E+03  0.00000000000E+00 0.  1.
         -2   -1    0    0    0  501 -0.00000000000E+00 -0.00000000000E+00 -0.13781526517E+03  0.13781526517E+03  0.00000000000E+00 0. -1.
         25    2    1    2    0    0  0.65430453392E+02  0.16467583779E+02 -0.21498614078E+02  0.14374665091E+03  0.12509429920E+03 0.  0.
         23    2    1    2    0    0 -0.65430453392E+02 -0.16467583779E+02  0.23391648993E+01  0.11272443025E+03  0.90271811418E+02 0.  0.
          5    1    3    3  502    0  0.10146175513E+03  0.21321838858E+02 -0.57963921258E+01  0.10392391028E+03  0.41800000000E+01 0. -1.
         -5    1    3    3    0  502 -0.36031301733E+02 -0.48542550791E+01 -0.15702221952E+02  0.39822740629E+02  0.41800000000E+01 0. -1.
        -11    1    4    4    0    0 -0.46074618257E+02  0.29671176488E+02  0.21881788323E+02  0.59008997805E+02  0.00000000000E+00 0.  1.
         11    1    4    4    0    0 -0.19355835135E+02 -0.46138760267E+02 -0.19542623424E+02  0.53715432448E+02  0.00000000000E+00 0. -1.
</event>
<event>
 8    1  0.6850220E-009  0.2392151E+03  0.7561462E-02  0.1120317E+00
         -1   -1    0    0    0  501 -0.00000000000E+00  0.00000000000E+00  0.47325504101E+02  0.47325504101E+02  0.00000000000E+00 0.  1.
          1   -1    0    0  501    0  0.00000000000E+00 -0.00000000000E+00 -0.15139647540E+04  0.15139647540E+04  0.00000000000E+00 0. -1.
         25    2    1    2    0    0  0.22378525955E+03  0.74329964384E+01 -0.10606365111E+04  0.10912085311E+04  0.12510458719E+03 0.  0.
         23    2    1    2    0    0 -0.22378525955E+03 -0.74329964384E+01 -0.40600273877E+03  0.47008172702E+03  0.77482348710E+02 0.  0.
          5    1    3    3  502    0  0.12024123824E+03  0.49048970738E+02 -0.38315471614E+03  0.40458468311E+03  0.41800000000E+01 0.  1.
         -5    1    3    3    0  502  0.10354402131E+03 -0.41615974299E+02 -0.67748179499E+03  0.68662384798E+03  0.41800000000E+01 0.  1.
        -11    1    4    4    0    0 -0.10808460858E+03 -0.42181437384E+02 -0.20593118500E+03  0.23636668383E+03  0.00000000000E+00 0. -1.
         11    1    4    4    0    0 -0.11570065097E+03  0.34748440946E+02 -0.20007155377E+03  0.23371504319E+03  0.00000000000E+00 0.  1.
</event>
<event>
 8    1  0.6850220E-009  0.1210543E+03  0.7561462E-02  0.1241368E+00
          2   -1    0    0  501    0  0.00000000000E+00  0.00000000000E+00  0.91740604222E+02  0.91740604222E+02  0.00000000000E+00 0. -1.
         -2   -1    0    0    0  501 -0.00000000000E+00 -0.00000000000E+00 -0.19567703010E+03  0.19567703010E+03  0.00000000000E+00 0.  1.
         25    2    1    2    0    0  0.10010842449E+02 -0.53753249056E+02  0.26620361618E+01  0.13654349753E+03  0.12508961400E+03 0.  0.
         23    2    1    2    0    0 -0.10010842449E+02  0.53753249056E+02 -0.10659846204E+03  0.15087413679E+03  0.91706838850E+02 0.  0.
          5    1    3    3  502    0  0.57722710705E+02 -0.64197699590E+02  0.98742417369E+01  0.86995568932E+02  0.41800000000E+01 0.  1.
         -5    1    3    3    0  502 -0.47711868256E+02  0.10444450534E+02 -0.72122055751E+01  0.49547928601E+02  0.41800000000E+01 0.  1.
        -11    1    4    4    0    0  0.40175832656E+02  0.13709164466E+02 -0.45873527913E+02  0.62501354250E+02  0.00000000000E+00 0. -1.
         11    1    4    4    0    0 -0.50186675105E+02  0.40044084590E+02 -0.60724934123E+02  0.88372782536E+02  0.00000000000E+00 0.  1.
</event>
<event>
 8    1  0.6850220E-009  0.1401112E+03  0.7561462E-02  0.1213179E+00
          2   -1    0    0  501    0  0.00000000000E+00  0.00000000000E+00  0.64828375694E+02  0.64828375694E+02  0.00000000000E+00 0. -1.
         -2   -1    0    0    0  501 -0.00000000000E+00 -0.00000000000E+00 -0.42366978241E+03  0.42366978241E+03  0.00000000000E+00 0.  1.
         25    2    1    2    0    0 -0.32711054156E+01 -0.11214931976E+03 -0.27403489357E+03  0.32145185870E+03  0.12509198423E+03 0.  0.
         23    2    1    2    0    0  0.32711054156E+01  0.11214931976E+03 -0.84806513152E+02  0.16704629940E+03  0.90134074672E+02 0.  0.
          5    1    3    3  502    0 -0.49738910520E+02 -0.13181449634E+02 -0.48760739129E+02  0.71012617995E+02  0.41800000000E+01 0. -1.
         -5    1    3    3    0  502  0.46467805104E+02 -0.98967870130E+02 -0.22527415444E+03  0.25043924071E+03  0.41800000000E+01 0. -1.
        -11    1    4    4    0    0 -0.10145980390E+02  0.10162719738E+03 -0.10092278987E+03  0.14358425290E+03  0.00000000000E+00 0.  1.
         11    1    4    4    0    0  0.13417085806E+02  0.10522122386E+02  0.16116276717E+02  0.23462046506E+02  0.00000000000E+00 0. -1.
</event>
<event>
 8    1  0.6850220E-009  0.2243945E+03  0.7561462E-02  0.1130649E+00
         -1   -1    0    0    0  501 -0.00000000000E+00  0.00000000000E+00  0.18366456951E+03  0.18366456951E+03  0.00000000000E+00 0.  1.
          1   -1    0    0  501    0  0.00000000000E+00 -0.00000000000E+00 -0.29537138334E+03  0.29537138334E+03  0.00000000000E+00 0. -1.
         25    2    1    2    0    0  0.16695018223E+03 -0.11681874962E+03 -0.14164731859E+02  0.23951157911E+03  0.12508466450E+03 0.  0.
         23    2    1    2    0    0 -0.16695018223E+03  0.11681874962E+03 -0.97542081963E+02  0.23952437374E+03  0.79614598253E+02 0.  0.
          5    1    3    3  502    0 -0.64178863613E+01  0.14946028641E+02  0.11282453404E+02  0.20232132668E+02  0.41800000000E+01 0. -1.
         -5    1    3    3    0  502  0.17336806859E+03 -0.13176477826E+03 -0.25447185264E+02  0.21927944644E+03  0.41800000000E+01 0. -1.
        -11    1    4    4    0    0 -0.12699841983E+03  0.50288165565E+02 -0.38206591972E+02  0.14183526327E+03  0.00000000000E+00 0.  1.
         11    1    4    4    0    0 -0.39951762392E+02  0.66530584052E+02 -0.59335489991E+02  0.97689110473E+02  0.00000000000E+00 0. -1.
</event>
<event>
 8    1  0.6850220E-009  0.9010812E+02  0.7561462E-02  0.1302590E+00
          2   -1    0    0  501    0  0.00000000000E+00  0.00000000000E+00  0.13971615632E+03  0.13971615632E+03  0.00000000000E+00 0. -1.
         -2   -1    0    0    0  501 -0.00000000000E+00 -0.00000000000E+00 -0.10022911435E+03  0.10022911435E+03  0.00000000000E+00 0.  1.
         25    2    1    2    0    0  0.34452701564E+02 -0.18731197458E+02  0.53097556433E+02  0.14143353322E+03  0.12508496079E+03 0.  0.
         23    2    1    2    0    0 -0.34452701564E+02  0.18731197458E+02 -0.13610514466E+02  0.98511737448E+02  0.89339072682E+02 0.  0.
          5    1    3    3  502    0  0.26858989984E+02  0.28181609448E+02  0.78252030477E+02  0.87501206436E+02  0.41800000000E+01 0.  1.
         -5    1    3    3    0  502  0.75937115795E+01 -0.46912806907E+02 -0.25154474043E+02  0.53932326779E+02  0.41800000000E+01 0.  1.
        -11    1    4    4    0    0 -0.68839351392E+01 -0.33550611370E+02  0.86977665024E+01  0.35336712190E+02  0.00000000000E+00 0. -1.
         11    1    4    4    0    0 -0.27568766425E+02  0.52281808828E+02 -0.22308280968E+02  0.63175025257E+02  0.00000000000E+00 0.  1.
</event>
<event>
 8    1  0.6850220E-009  0.1214921E+03  0.7561462E-02  0.1240656E+00
         -1   -1    0    0    0  501 -0.00000000000E+00  0.00000000000E+00  0.30256191543E+02  0.30256191543E+02  0.00000000000E+00 0.  1.
          1   -1    0    0  501    0  0.00000000000E+00 -0.00000000000E+00 -0.60753814005E+03  0.60753814005E+03  0.00000000000E+00 0. -1.
         25    2    1    2    0    0  0.77212193149E+02 -0.34340866253E+01 -0.37508665087E+03  0.40288048342E+03  0.12509665279E+03 0.  0.
         23    2    1    2    0    0 -0.77212193149E+02  0.34340866253E+01 -0.20219529764E+03  0.23491384817E+03  0.91258215821E+02 0.  0.
          5    1    3    3  502    0 -0.28320799580E+02  0.15629077067E+02 -0.43575885764E+02  0.54430377170E+02  0.41800000000E+01 0. -1.
         -5    1    3    3    0  502  0.10553299273E+03 -0.19063163692E+02 -0.33151076511E+03  0.34845010625E+03  0.41800000000E+01 0. -1.
        -11    1    4    4    0    0 -0.88964518541E+02  0.10097663358E+02 -0.20248852240E+03  0.22140065507E+03  0.00000000000E+00 0. -1.
         11    1    4    4    0    0  0.11752325392E+02 -0.66635767325E+01  0.29322475953E+00  0.13513193099E+02  0.00000000000E+00 0.  1.
</event>
<event>
 8    1  0.6850220E-009  0.7450522E+02  0.7561462E-02  0.1345410E+00
          2   -1    0    0  501    0  0.00000000000E+00  0.00000000000E+00  0.19619925947E+03  0.19619925947E+03  0.00000000000E+00 0. -1.
         -2   -1    0    0    0  501 -0.00000000000E+00 -0.00000000000E+00 -0.65430850997E+02  0.65430850997E+02  0.00000000000E+00 0.  1.
         25    2    1    2    0    0 -0.34546060587E+02  0.10567633651E+02  0.63339264002E+02  0.14479185546E+03  0.12509082245E+03 0.  0.
         23    2    1    2    0    0  0.34546060587E+02 -0.10567633651E+02  0.67429144469E+02  0.11683825500E+03  0.88314116228E+02 0.  0.
          5    1    3    3  502    0 -0.31243228281E+02 -0.13565673212E+02  0.97080675740E+02  0.10296745508E+03  0.41800000000E+01 0.  1.
         -5    1    3    3    0  502 -0.33028323063E+01  0.24133306863E+02 -0.33741411738E+02  0.41824400384E+02  0.41800000000E+01 0.  1.
        -11    1    4    4    0    0  0.33530835653E+02  0.32619803014E+02  0.15481121197E+02  0.49275080941E+02  0.00000000000E+00 0.  1.
         11    1    4    4    0    0  0.10152249342E+01 -0.43187436665E+02  0.51948023272E+02  0.67563174061E+02  0.00000000000E+00 0. -1.
</event>
<event>
 8    1  0.6850220E-009  0.1950783E+03  0.7561462E-02  0.1153959E+00
         -2   -1    0    0    0  501 -0.00000000000E+00  0.00000000000E+00  0.25899941861E+02  0.25899941861E+02  0.00000000000E+00 0.  1.
          2   -1    0    0  501    0  0.00000000000E+00 -0.00000000000E+00 -0.15968257395E+04  0.15968257395E+04  0.00000000000E+00 0. -1.
         25    2    1    2    0    0 -0.39405977697E+02  0.15685668186E+03 -0.10456566847E+04  0.10654579622E+04  0.12508364119E+03 0.  0.
         23    2    1    2    0    0  0.39405977697E+02 -0.15685668186E+03 -0.52526911295E+03  0.55726771914E+03  0.92102226122E+02 0.  0.
          5    1    3    3  502    0  0.26974347162E+02  0.12980030996E+03 -0.68422499377E+03  0.69696273241E+03  0.41800000000E+01 0. -1.
         -5    1    3    3    0  502 -0.66380324859E+02  0.27056371900E+02 -0.36143169092E+03  0.36849522980E+03  0.41800000000E+01 0. -1.
        -11    1    4    4    0    0  0.64558731017E+02 -0.69724280704E+02 -0.28708963479E+03  0.30240661943E+03  0.00000000000E+00 0.  1.
         11    1    4    4    0    0 -0.25152753320E+02 -0.87132401160E+02 -0.23817947816E+03  0.25486109971E+03  0.00000000000E+00 0. -1.
</event>
<event>
 8    1  0.6850220E-009  0.2335410E+03  0.7561462E-02  0.1124172E+00
         -1   -1    0    0    0  501 -0.00000000000E+00  0.00000000000E+00  0.62979780206E+02  0.62979780206E+02  0.00000000000E+00 0.  1.
          1   -1    0    0  501    0  0.00000000000E+00 -0.00000000000E+00 -0.98970397340E+03  0.98970397340E+03  0.00000000000E+00 0. -1.
         25    2    1    2    0    0  0.12625535881E+03 -0.17911035045E+03 -0.37400332600E+03  0.45116157519E+03  0.12508935127E+03 0.  0.
         23    2    1    2    0    0 -0.12625535881E+03  0.17911035045E+03 -0.55272086720E+03  0.60152217842E+03  0.91146260629E+02 0.  0.
          5    1    3    3  502    0 -0.21226711895E+02 -0.19732600760E+02 -0.83230017487E+02  0.88230703508E+02  0.41800000000E+01 0.  1.
         -5    1    3    3    0  502  0.14748207070E+03 -0.15937774969E+03 -0.29077330851E+03  0.36293087168E+03  0.41800000000E+01 0.  1.
        -11    1    4    4    0    0 -0.10378485631E+02  0.30177663102E+02 -0.23403229744E+02  0.39574176893E+02  0.00000000000E+00 0.  1.
         11    1    4    4    0    0 -0.11587687318E+03  0.14893268735E+03 -0.52931763745E+03  0.56194800153E+03  0.00000000000E+00 0. -1.
</event>
<event>
 8    1  0.6850220E-009  0.9181260E+02  0.7561462E-02  0.1298521E+00
          3   -1    0    0  501    0  0.00000000000E+00  0.00000000000E+00  0.84827334422E+02  0.84827334422E+02  0.00000000000E+00 0. -1.
         -3   -1    0    0    0  501 -0.00000000000E+00 -0.00000000000E+00 -0.16285749352E+03  0.16285749352E+03  0.00000000000E+00 0.  1.
         25    2    1    2    0    0 -0.41788358323E+02 -0.16030469349E+02 -0.28958897668E+02  0.13597674321E+03  0.12509122311E+03 0.  0.
         23    2    1    2    0    0  0.41788358323E+02  0.16030469349E+02 -0.49071261435E+02  0.11170808474E+03  0.89819066231E+02 0.  0.
          5    1    3    3  502    0 -0.65287772034E+02 -0.56082340672E+02 -0.20788647426E+02  0.88641764277E+02  0.41800000000E+01 0. -1.
         -5    1    3    3    0  502  0.23499413710E+02  0.40051871323E+02 -0.81702502416E+01  0.47334978929E+02  0.41800000000E+01 0. -1.
        -11    1    4    4    0    0  0.23097655497E+02 -0.39925205935E+01 -0.72167849882E+02  0.75879117461E+02  0.00000000000E+00 0.  1.
         11    1    4    4    0    0  0.18690702826E+02  0.20022989942E+02  0.23096588447E+02  0.35828967279E+02  0.00000000000E+00 0. -1.
</event>
<event>
 8    1  0.6850220E-009  0.1160436E+03  0.7561462E-02  0.1249770E+00
          2   -1    0    0  501    0  0.00000000000E+00  0.00000000000E+00  0.19452360733E+03  0.19452360733E+03  0.00000000000E+00 0. -1.
         -2   -1    0    0    0  501 -0.00000000000E+00 -0.00000000000E+00 -0.74376401613E+02  0.74376401613E+02  0.00000000000E+00 0.  1.
         25    2    1    2    0    0  0.28737141575E+02 -0.32169029590E+02  0.42543166267E+02  0.13898790639E+03  0.12508815834E+03 0.  0.
         23    2    1    2    0    0 -0.28737141575E+02  0.32169029590E+02  0.77604039447E+02  0.12991210255E+03  0.94837216746E+02 0.  0.
          5    1    3    3  502    0 -0.49315343494E+02 -0.12400436828E+02  0.23340437950E+02  0.56107240007E+02  0.41800000000E+01 0. -1.
         -5    1    3    3    0  502  0.78052485069E+02 -0.19768592762E+02  0.19202728317E+02  0.82880666383E+02  0.41800000000E+01 0. -1.
        -11    1    4    4    0    0  0.16717307953E+02  0.49151417118E+02  0.22767340222E+02  0.56689346184E+02  0.00000000000E+00 0.  1.
         11    1    4    4    0    0 -0.45454449528E+02 -0.16982387529E+02  0.54836699226E+02  0.73222756368E+02  0.00000000000E+00 0. -1.
</event>
<event>
 8    1  0.6850220E-009  0.1402778E+03  0.7561462E-02  0.1212956E+00
         -2   -1    0    0    0  501 -0.00000000000E+00  0.00000000000E+00  0.26133016802E+03  0.26133016802E+03  0.00000000000E+00 0.  1.
          2   -1    0    0  501    0  0.00000000000E+00 -0.00000000000E+00 -0.88850509495E+02  0.88850509495E+02  0.00000000000E+00 0. -1.
         25    2    1    2    0    0  0.97253842971E+02  0.30967522131E+02  0.63882491030E+02  0.17362634388E+03  0.12509131556E+03 0.  0.
         23    2    1    2    0    0 -0.97253842971E+02 -0.30967522131E+02  0.10859716749E+03  0.17655433363E+03  0.94661452228E+02 0.  0.
          5    1    3    3  502    0  0.11484076378E+03 -0.11290519198E+02  0.46752067524E+02  0.12457570015E+03  0.41800000000E+01 0.  1.
         -5    1    3    3    0  502 -0.17586920813E+02  0.42258041329E+02  0.17130423505E+02  0.49050643728E+02  0.41800000000E+01 0.  1.
        -11    1    4    4    0    0 -0.33485682386E+02 -0.42721690785E+02  0.52298191761E+01  0.54532419688E+02  0.00000000000E+00 0. -1.
         11    1    4    4    0    0 -0.63768160584E+02  0.11754168654E+02  0.10336734832E+03  0.12202191395E+03  0.00000000000E+00 0.  1.
</event>
<event>
 8    1  0.6850220E-009  0.1099731E+03  0.7561462E-02  0.1260620E+00
         -1   -1    0    0    0  501 -0.00000000000E+00  0.00000000000E+00  0.98300100003E+02  0.98300100003E+02  0.00000000000E+00 0.  1.
          1   -1    0    0  501    0  0.00000000000E+00 -0.00000000000E+00 -0.18942640354E+03  0.18942640354E+03  0.00000000000E+00 0. -1.
         25    2    1    2    0    0 -0.24552988722E+02 -0.62989731064E+02 -0.10214433723E+03  0.17507738113E+03  0.12509223909E+03 0.  0.
         23    2    1    2    0    0  0.24552988722E+02  0.62989731064E+02  0.11018033689E+02  0.11264912242E+03  0.89430823773E+02 0.  0.
          5    1    3    3  502    0 -0.59530974866E+02 -0.80401559021E+02 -0.88033178291E+02  0.13332539346E+03  0.41800000000E+01 0.  1.
         -5    1    3    3    0  502  0.34977986144E+02  0.17411827957E+02 -0.14111158937E+02  0.41751987666E+02  0.41800000000E+01 0.  1.
        -11    1    4    4    0    0  0.34916908634E+02  0.30306455650E+02 -0.33035989821E+02  0.56824716331E+02  0.00000000000E+00 0.  1.
         11    1    4    4    0    0 -0.10363919912E+02  0.32683275414E+02  0.44054023510E+02  0.55824406088E+02  0.00000000000E+00 0. -1.
</event>
<event>
 8    1  0.6850220E-009  0.9515715E+02  0.7561462E-02  0.1290823E+00
          1   -1    0    0  501    0  0.00000000000E+00  0.00000000000E+00  0.22226940523E+03  0.22226940523E+03  0.00000000000E+00 0. -1.
         -1   -1    0    0    0  501 -0.00000000000E+00 -0.00000000000E+00 -0.57350742294E+02  0.57350742294E+02  0.00000000000E+00 0.  1.
         25    2    1    2    0    0 -0.15144808387E+02 -0.25273838931E+02  0.91661351201E+02  0.15785388295E+03  0.12509161803E+03 0.  0.
         23    2    1    2    0    0  0.15144808387E+02  0.25273838931E+02  0.73257311733E+02  0.12176626457E+03  0.92694429771E+02 0.  0.
          5    1    3    3  502    0 -0.39840392201E+02 -0.51098788669E+02  0.10155951222E+03  0.12054107174E+03  0.41800000000E+01 0.  1.
         -5    1    3    3    0  502  0.24695583814E+02  0.25824949738E+02 -0.98981610156E+01  0.37312811209E+02  0.41800000000E+01 0.  1.
        -11    1    4    4    0    0 -0.35022227641E+02  0.53414108107E+01  0.53735581978E+02  0.64363031850E+02  0.00000000000E+00 0. -1.
         11    1    4    4    0    0  0.50167036028E+02  0.19932428120E+02  0.19521729755E+02  0.57403232725E+02  0.00000000000E+00 0.  1.
</event>
<event>
 8    1  0.6850220E-009  0.6587092E+02  0.7561462E-02  0.1374725E+00
          1   -1    0    0  501    0  0.00000000000E+00  0.00000000000E+00  0.37893482330E+02  0.37893482330E+02  0.00000000000E+00 0. -1.
         -1   -1    0    0    0  501 -0.00000000000E+00 -0.00000000000E+00 -0.35493411841E+03  0.35493411841E+03  0.00000000000E+00 0.  1.
         25    2    1    2    0    0 -0.33014790270E+02  0.85675845278E+01 -0.14027642811E+03  0.19101949830E+03  0.12509033762E+03 0.  0.
         23    2    1    2    0    0  0.33014790270E+02 -0.85675845278E+01 -0.17676420797E+03  0.20180810244E+03  0.91200576265E+02 0.  0.
          5    1    3    3  502    0 -0.74905440240E+01  0.24265677252E+02  0.17009485439E+02  0.30850062191E+02  0.41800000000E+01 0.  1.
         -5    1    3    3    0  502 -0.25524246246E+02 -0.15698092724E+02 -0.15728591355E+03  0.16016943611E+03  0.41800000000E+01 0.  1.
        -11    1    4    4    0    0  0.33851615501E+02 -0.35355425124E+02 -0.16575987998E+03  0.17283597938E+03  0.00000000000E+00 0.  1.
         11    1    4    4    0    0 -0.83682523067E+00  0.26787840596E+02 -0.11004327992E+02  0.28972123063E+02  0.00000000000E+00 0. -1.
</event>
<event>
 8    1  0.6850220E-009  0.1727161E+03  0.7561462E-02  0.1175045E+00
          1   -1    0    0  501    0  0.00000000000E+00  0.00000000000E+00  0.13420211656E+03  0.13420211656E+03  0.00000000000E+00 0. -1.
         -1   -1    0    0    0  501 -0.00000000000E+00 -0.00000000000E+00 -0.24295901899E+03  0.24295901899E+03  0.00000000000E+00 0.  1.
         25    2    1    2    0    0 -0.80613991130E+02 -0.11920248792E+03 -0.57212152490E+02  0.19907137000E+03  0.12509329026E+03 0.  0.
         23    2    1    2    0    0  0.80613991130E+02  0.11920248792E+03 -0.51544749938E+02  0.17808976555E+03  0.91385199327E+02 0.  0.
          5    1    3    3  502    0 -0.79998411553E+02 -0.14257887628E+03 -0.61888446404E+02  0.17486032715E+03  0.41800000000E+01 0. -1.
         -5    1    3    3    0  502 -0.61557957662E+00  0.23376388360E+02  0.46762939144E+01  0.24211042847E+02  0.41800000000E+01 0. -1.
        -11    1    4    4    0    0 -0.11250367852E+02  0.75522523399E+01  0.13874447081E+02  0.19393493085E+02  0.00000000000E+00 0.  1.
         11    1    4    4    0    0  0.91864358982E+02  0.11165023558E+03 -0.65419197019E+02  0.15869627247E+03  0.00000000000E+00 0. -1.
</event>
<event>
 8    1  0.6850220E-009  0.6730571E+02  0.7561462E-02  0.1369502E+00
         -2   -1    0    0    0  501 -0.00000000000E+00  0.00000000000E+00  0.10344365988E+03  0.10344365988E+03  0.00000000000E+00 0.  1.
          2   -1    0    0  501    0  0.00000000000E+00 -0.00000000000E+00 -0.12003610117E+03  0.12003610117E+03  0.00000000000E+00 0. -1.
         25    2    1    2    0    0  0.24353785066E+02 -0.48202568624E+01 -0.16633622283E+02  0.12861075642E+03  0.12509079724E+03 0.  0.
         23    2    1    2    0    0 -0.24353785066E+02  0.48202568624E+01  0.41180990794E-01  0.94869004636E+02  0.91563009024E+02 0.  0.
          5    1    3    3  502    0  0.39492797104E+02 -0.22378002723E+02  0.44126705587E+02  0.63443633053E+02  0.41800000000E+01 0. -1.
         -5    1    3    3    0  502 -0.15139012038E+02  0.17557745861E+02 -0.60760327870E+02  0.65167123368E+02  0.41800000000E+01 0. -1.
        -11    1    4    4    0    0 -0.33783817736E+02 -0.19763260263E+02 -0.33991681067E+02  0.51839822326E+02  0.00000000000E+00 0. -1.
         11    1    4    4    0    0  0.94300326705E+01  0.24583517126E+02  0.34032862057E+02  0.43029182310E+02  0.00000000000E+00 0.  1.
</event>
<event>
 8    1  0.6850220E-009  0.1510748E+03  0.7561462E-02  0.1199158E+00
         -4   -1    0    0    0  501 -0.00000000000E+00  0.00000000000E+00  0.59858585295E+02  0.59858585295E+02  0.00000000000E+00 0.  1.
          4   -1    0    0  501    0  0.00000000000E+00 -0.00000000000E+00 -0.48270645567E+03  0.48270645567E+03  0.00000000000E+00 0. -1.
         25    2    1    2    0    0 -0.78851129783E+02  0.91787413902E+02 -0.16572779740E+03  0.24032512841E+03  0.12509210406E+03 0.  0.
         23    2    1    2    0    0  0.78851129783E+02 -0.91787413902E+02 -0.25712007297E+03  0.30223991255E+03  0.10293591595E+03 0.  0.
          5    1    3    3  502    0 -0.94232622143E+02  0.79870015981E+02 -0.17817787050E+03  0.21684979241E+03  0.41800000000E+01 0.  1.
         -5    1    3    3    0  502  0.15381492360E+02  0.11917397921E+02  0.12450073105E+02  0.23475336010E+02  0.41800000000E+01 0.  1.
        -11    1    4    4    0    0  0.10382436233E+03 -0.67658294108E+02 -0.19412915339E+03  0.23031124847E+03  0.00000000000E+00 0. -1.
         11    1    4    4    0    0 -0.24973232551E+02 -0.24129119793E+02 -0.62990919580E+02  0.71928664075E+02  0.00000000000E+00 0.  1.
</event>
<event>
 8    1  0.6850220E-009  0.1101929E+03  0.7561462E-02  0.1260213E+00
         -1   -1    0    0    0  501 -0.00000000000E+00  0.00000000000E+00  0.81074343320E+02  0.81074343320E+02  0.00000000000E+00 0.  1.
          1   -1    0    0  501    0  0.00000000000E+00 -0.00000000000E+00 -0.16582725974E+03  0.16582725974E+03  0.00000000000E+00 0. -1.
         25    2    1    2    0    0  0.22248057768E+02 -0.19270824662E+02 -0.23974197038E+02  0.13072399325E+03  0.12509060528E+03 0.  0.
         23    2    1    2    0    0 -0.22248057768E+02  0.19270824662E+02 -0.60778719383E+02  0.11617760982E+03  0.94534879991E+02 0.  0.
          5    1    3    3  502    0  0.47992680102E+02  0.39623242571E+02 -0.11435115629E+01  0.62386526701E+02  0.41800000000E+01 0.  1.
         -5    1    3    3    0  502 -0.25744622333E+02 -0.58894067233E+02 -0.22830685475E+02  0.68337466544E+02  0.41800000000E+01 0.  1.
        -11    1    4    4    0    0 -0.54334885460E+02  0.26882887589E+02 -0.20221383795E+02  0.63905193730E+02  0.00000000000E+00 0.  1.
         11    1    4    4    0    0  0.32086827692E+02 -0.76120629273E+01 -0.40557335589E+02  0.52272416085E+02  0.00000000000E+00 0. -1.
</event>
<event>
 8    1  0.6850220E-009  0.1543496E+03  0.7561462E-02  0.1195228E+00
         -2   -1    0    0    0  501 -0.00000000000E+00  0.00000000000E+00  0.67563571752E+02  0.67563571752E+02  0.00000000000E+00 0. -1.
          2   -1    0    0  501    0  0.00000000000E+00 -0.00000000000E+00 -0.54525089771E+03  0.54525089771E+03  0.00000000000E+00 0.  1.
         25    2    1    2    0    0  0.11538785618E+03 -0.37055074180E+02 -0.41176824772E+03  0.44708903993E+03  0.12509230161E+03 0.  0.
         23    2    1    2    0    0 -0.11538785618E+03  0.37055074180E+02 -0.65919078242E+02  0.16572542953E+03  0.91826778459E+02 0.  0.
          5    1    3    3  502    0  0.64898320399E+02  0.35274756456E+02 -0.27097573394E+03  0.28089396793E+03  0.41800000000E+01 0.  1.
         -5    1    3    3    0  502  0.50489535776E+02 -0.72329830636E+02 -0.14079251378E+03  0.16619507201E+03  0.41800000000E+01 0.  1.
        -11    1    4    4    0    0 -0.92575524284E+02 -0.10986376492E+02 -0.62893774231E+02  0.11245690286E+03  0.00000000000E+00 0.  1.
         11    1    4    4    0    0 -0.22812331891E+02  0.48041450672E+02 -0.30253040109E+01  0.53268526668E+02  0.00000000000E+00 0. -1.
</event>
<event>
 8    1  0.6850220E-009  0.5114278E+02  0.7561462E-02  0.1439273E+00
         -1   -1    0    0    0  501 -0.00000000000E+00  0.00000000000E+00  0.41005193739E+02  0.41005193739E+02  0.00000000000E+00 0.  1.
          1   -1    0    0  501    0  0.00000000000E+00 -0.00000000000E+00 -0.34522721809E+03  0.34522721809E+03  0.00000000000E+00 0. -1.
         25    2    1    2    0    0  0.53717940558E+01  0.28321843033E+01 -0.88514734587E+02  0.15335582143E+03  0.12508506021E+03 0.  0.
         23    2    1    2    0    0 -0.53717940558E+01 -0.28321843033E+01 -0.21570728976E+03  0.23287659039E+03  0.87549951788E+02 0.  0.
          5    1    3    3  502    0  0.66897018436E+01 -0.10494440346E+02 -0.11903969386E+03  0.11976145667E+03  0.41800000000E+01 0.  1.
         -5    1    3    3    0  502 -0.13179077878E+01  0.13326624650E+02  0.30524959271E+02  0.33594364766E+02  0.41800000000E+01 0.  1.
        -11    1    4    4    0    0  0.13614088620E+02  0.32378946998E+02 -0.42629828610E+02  0.55236237245E+02  0.00000000000E+00 0.  1.
         11    1    4    4    0    0 -0.18985882676E+02 -0.35211131301E+02 -0.17307746115E+03  0.17764035315E+03  0.00000000000E+00 0. -1.
</event>
<event>
 8    1  0.6850220E-009  0.2702396E+03  0.7561462E-02  0.1101143E+00
          1   -1    0    0  501    0  0.00000000000E+00  0.00000000000E+00  0.13178250331E+04  0.13178250331E+04  0.00000000000E+00 0. -1.
         -1   -1    0    0    0  501 -0.00000000000E+00 -0.00000000000E+00 -0.83568665108E+02  0.83568665108E+02  0.00000000000E+00 0.  1.
         25    2    1    2    0    0 -0.17479137091E+03  0.19142755606E+03  0.25659012625E+03  0.38559712201E+03  0.12510041986E+03 0.  0.
         23    2    1    2    0    0  0.17479137091E+03 -0.19142755606E+03  0.97766624174E+03  0.10157965762E+04  0.93887546656E+02 0.  0.
          5    1    3    3  502    0 -0.68829072057E+02  0.11980171466E+03  0.20581145951E+03  0.24792281311E+03  0.41800000000E+01 0.  1.
         -5    1    3    3    0  502 -0.10596229885E+03  0.71625841397E+02  0.50778666741E+02  0.13767430890E+03  0.41800000000E+01 0.  1.
        -11    1    4    4    0    0  0.16746724441E+03 -0.12890859281E+03  0.70719620958E+03  0.73809835530E+03  0.00000000000E+00 0.  1.
         11    1    4    4    0    0  0.73241264993E+01 -0.62518963246E+02  0.27047003216E+03  0.27769822090E+03  0.00000000000E+00 0. -1.
</event>
<event>
 8    1  0.6850220E-009  0.1400546E+03  0.7561462E-02  0.1213256E+00
         -3   -1    0    0    0  501 -0.00000000000E+00  0.00000000000E+00  0.12606527736E+03  0.12606527736E+03  0.00000000000E+00 0.  1.
          3   -1    0    0  501    0  0.00000000000E+00 -0.00000000000E+00 -0.21903798130E+03  0.21903798130E+03  0.00000000000E+00 0. -1.
         25    2    1    2    0    0  0.53309634487E+02 -0.11024617678E+03 -0.78990029561E+02  0.19204588651E+03  0.12508421616E+03 0.  0.
         23    2    1    2    0    0 -0.53309634487E+02  0.11024617678E+03 -0.13982674374E+02  0.15305737214E+03  0.90746390343E+02 0.  0.
          5    1    3    3  502    0  0.57747759626E+02 -0.84472480677E+02 -0.11064978109E+03  0.15076886346E+03  0.41800000000E+01 0. -1.
         -5    1    3    3    0  502 -0.44381251383E+01 -0.25773696105E+02  0.31659751526E+02  0.41277023056E+02  0.41800000000E+01 0. -1.
        -11    1    4    4    0    0  0.20326522285E+02  0.56512486679E+02  0.38200882114E+01  0.60178249666E+02  0.00000000000E+00 0.  1.
         11    1    4    4    0    0 -0.73636156773E+02  0.53733690102E+02 -0.17802762585E+02  0.92879122476E+02  0.00000000000E+00 0. -1.
</event>
<event>
 8    1  0.6850220E-009  0.1019254E+03  0.7561462E-02  0.1276298E+00
         -2   -1    0    0    0  501 -0.00000000000E+00  0.00000000000E+00  0.21215367128E+03  0.21215367128E+03  0.00000000000E+00 0.  1.
          2   -1    0    0  501    0  0.00000000000E+00 -0.00000000000E+00 -0.68267287392E+02  0.68267287392E+02  0.00000000000E+00 0. -1.
         25    2    1    2    0    0 -0.23274303455E+02 -0.26478519463E-01  0.13428847231E+03  0.18499984514E+03  0.12509938052E+03 0.  0.
         23    2    1    2    0    0  0.23274303455E+02  0.26478519463E-01  0.95979115784E+01  0.95421113524E+02  0.92040073322E+02 0.  0.
          5    1    3    3  502    0 -0.20149502904E+02 -0.53804800808E+02  0.11317118327E+03  0.12698877187E+03  0.41800000000E+01 0.  1.
         -5    1    3    3    0  502 -0.31248005515E+01  0.53778322288E+02  0.21117289036E+02  0.58011073278E+02  0.41800000000E+01 0.  1.
        -11    1    4    4    0    0  0.49125319754E+02 -0.25957103215E+02  0.16845052379E+02  0.58058798109E+02  0.00000000000E+00 0.  1.
         11    1    4    4    0    0 -0.25851016298E+02  0.25983581734E+02 -0.72471408005E+01  0.37362315415E+02  0.00000000000E+00 0. -1.
</event>
<event>
 8    1  0.6850220E-009  0.1022738E+03  0.7561462E-02  0.1275586E+00
          1   -1    0    0  501    0  0.00000000000E+00  0.00000000000E+00  0.99346760283E+02  0.99346760283E+02  0.00000000000E+00 0. -1.
         -1   -1    0    0    0  501 -0.00000000000E+00 -0.00000000000E+00 -0.11346957785E+03  0.11346957785E+03  0.00000000000E+00 0.  1.
         25    2    1    2    0    0 -0.85346799871E+01  0.67173634965E+01 -0.53658977135E+01  0.12567430512E+03  0.12508906577E+03 0.  0.
         23    2    1    2    0    0  0.85346799871E+01 -0.67173634965E+01 -0.87569198512E+01  0.87142033009E+02  0.86017943109E+02 0.  0.
          5    1    3    3  502    0 -0.19803611743E+02  0.62896060568E+02 -0.14110973557E+02  0.67562485506E+02  0.41800000000E+01 0. -1.
         -5    1    3    3    0  502  0.11268931756E+02 -0.56178697071E+02  0.87450758440E+01  0.58111819616E+02  0.41800000000E+01 0. -1.
        -11    1    4    4    0    0 -0.30132521914E+02  0.18031837391E+02 -0.19253928679E+02  0.40047843964E+02  0.00000000000E+00 0.  1.
         11    1    4    4    0    0  0.38667201901E+02 -0.24749200887E+02  0.10497008828E+02  0.47094189045E+02  0.00000000000E+00 0. -1.
</event>
<event>
 8    1  0.6850220E-009  0.1678066E+03  0.7561462E-02  0.1180155E+00
         -2   -1    0    0    0  501 -0.00000000000E+00  0.00000000000E+00  0.28574283360E+03  0.28574283360E+03  0.00000000000E+00 0.  1.
          2   -1    0    0  501    0  0.00000000000E+00 -0.00000000000E+00 -0.13478194825E+03  0.13478194825E+03  0.00000000000E+00 0. -1.
         25    2    1    2    0    0  0.15624179136E+03  0.42232030469E+02  0.10386672360E+03  0.22941705432E+03  0.12509535074E+03 0.  0.
         23    2    1    2    0    0 -0.15624179136E+03 -0.42232030469E+02  0.47094161741E+02  0.19110772752E+03  0.90051439097E+02 0.  0.
          5    1    3    3  502    0  0.79132829005E+02  0.24000687265E+02 -0.17296678292E+02  0.84585371640E+02  0.41800000000E+01 0. -1.
         -5    1    3    3    0  502  0.77108962359E+02  0.18231343204E+02  0.12116340189E+03  0.14483168268E+03  0.41800000000E+01 0. -1.
        -11    1    4    4    0    0 -0.15599956697E+03 -0.27099887598E+02  0.19362767306E+02  0.15951547123E+03  0.00000000000E+00 0. -1.
         11    1    4    4    0    0 -0.24222439096E+00 -0.15132142871E+02  0.27731394436E+02  0.31592256296E+02  0.00000000000E+00 0.  1.
</event>
<event>
 8    1  0.6850220E-009  0.8077399E+02  0.7561462E-02  0.1326869E+00
         -4   -1    0    0    0  501 -0.00000000000E+00  0.00000000000E+00  0.96345899428E+02  0.96345899428E+02  0.00000000000E+00 0.  1.
          4   -1    0    0  501    0  0.00000000000E+00 -0.00000000000E+00 -0.17634791079E+03  0.17634791079E+03  0.00000000000E+00 0. -1.
         25    2    1    2    0    0  0.44119465647E+02  0.12748369392E+02 -0.10072603797E+03  0.16704220723E+03  0.12509322963E+03 0.  0.
         23    2    1    2    0    0 -0.44119465647E+02 -0.12748369392E+02  0.20724026613E+02  0.10565160299E+03  0.92864028362E+02 0.  0.
          5    1    3    3  502    0  0.18046328569E+02 -0.17796949753E+02 -0.11970284544E+03  0.12242812178E+03  0.41800000000E+01 0. -1.
         -5    1    3    3    0  502  0.26073137077E+02  0.30545319145E+02  0.18976807470E+02  0.44614085449E+02  0.41800000000E+01 0. -1.
        -11    1    4    4    0    0 -0.60543502837E+02  0.15778691620E+02  0.32734360411E+02  0.70611763868E+02  0.00000000000E+00 0.  1.
         11    1    4    4    0    0  0.16424037190E+02 -0.28527061012E+02 -0.12010333798E+02  0.35039839120E+02  0.00000000000E+00 0. -1.
</event>
<event>
 8    1  0.6850220E-009  0.7161230E+02  0.7561462E-02  0.1354695E+00
          2   -1    0    0  501    0  0.00000000000E+00  0.00000000000E+00  0.16341040993E+03  0.16341040993E+03  0.00000000000E+00 0. -1.
         -2   -1    0    0    0  501 -0.00000000000E+00 -0.00000000000E+00 -0.76643362251E+02  0.76643362251E+02  0.00000000000E+00 0.  1.
         25    2    1    2    0    0 -0.11570571185E+02 -0.24222785056E+02  0.33541526333E+02  0.13225982775E+03  0.12508799549E+03 0.  0.
         23    2    1    2    0    0  0.11570571185E+02  0.24222785056E+02  0.53225521341E+02  0.10779394442E+03  0.89810672520E+02 0.  0.
          5    1    3    3  502    0 -0.30003582637E+02  0.18938223579E+02 -0.34388966590E+02  0.49587747544E+02  0.41800000000E+01 0.  1.
         -5    1    3    3    0  502  0.18433011452E+02 -0.43161008635E+02  0.67930492923E+02  0.82672080210E+02  0.41800000000E+01 0.  1.
        -11    1    4    4    0    0 -0.15506373550E+02 -0.86786744961E+01 -0.17681950223E+02  0.25068274280E+02  0.00000000000E+00 0.  1.
         11    1    4    4    0    0  0.27076944735E+02  0.32901459553E+02  0.70907471564E+02  0.82725670142E+02  0.00000000000E+00 0. -1.
</event>
<event>
 8    1  0.6850220E-009  0.1099097E+03  0.7561462E-02  0.1260737E+00
         -3   -1    0    0    0  501 -0.00000000000E+00  0.00000000000E+00  0.24306427969E+03  0.24306427969E+03  0.00000000000E+00 0.  1.
          3   -1    0    0  501    0  0.00000000000E+00 -0.00000000000E+00 -0.11027474744E+03  0.11027474744E+03  0.00000000000E+00 0. -1.
         25    2    1    2    0    0 -0.18193373103E+02 -0.88008538670E+02  0.15904981434E+03  0.22140850720E+03  0.12509349270E+03 0.  0.
         23    2    1    2    0    0  0.18193373103E+02  0.88008538670E+02 -0.26260282087E+02  0.13193051993E+03  0.92949222531E+02 0.  0.
          5    1    3    3  502    0  0.27794047395E+02 -0.16482708876E+02  0.12589620537E+03  0.13004428357E+03  0.41800000000E+01 0. -1.
         -5    1    3    3    0  502 -0.45987420498E+02 -0.71525829794E+02  0.33153608965E+02  0.91364223628E+02  0.41800000000E+01 0. -1.
        -11    1    4    4    0    0  0.34705028823E+02  0.52420539400E+02  0.24762333401E+02  0.67568669752E+02  0.00000000000E+00 0.  1.
         11    1    4    4    0    0 -0.16511655720E+02  0.35587999270E+02 -0.51022615488E+02  0.64361850174E+02  0.00000000000E+00 0. -1.
</event>
<event>
 8    1  0.6850220E-009  0.1079156E+03  0.7561462E-02  0.1264479E+00
          2   -1    0    0  501    0  0.00000000000E+00  0.00000000000E+00  0.86946158174E+03  0.86946158174E+03  0.00000000000E+00 0. -1.
         -2   -1    0    0    0  501 -0.00000000000E+00 -0.00000000000E+00 -0.16422754942E+02  0.16422754942E+02  0.00000000000E+00 0.  1.
         25    2    1    2    0    0 -0.44012240787E+02  0.19214267989E+02  0.66386162426E+03  0.67725019416E+03  0.12509717782E+03 0.  0.
         23    2    1    2    0    0  0.44012240787E+02 -0.19214267989E+02  0.18917720254E+03  0.20863414252E+03  0.73715168249E+02 0.  0.
          5    1    3    3  502    0 -0.81255110116E+02 -0.96879790060E+01  0.32844922355E+03  0.33851530941E+03  0.41800000000E+01 0. -1.
         -5    1    3    3    0  502  0.37242869328E+02  0.28902246995E+02  0.33541240071E+03  0.33873488475E+03  0.41800000000E+01 0. -1.
        -11    1    4    4    0    0  0.28023399372E+02  0.26235016142E+02  0.65734773038E+02  0.76122581214E+02  0.00000000000E+00 0.  1.
         11    1    4    4    0    0  0.15988841415E+02 -0.45449284131E+02  0.12344242950E+03  0.13251156131E+03  0.00000000000E+00 0. -1.
</event>
<event>
 8    1  0.6850220E-009  0.1023407E+03  0.7561462E-02  0.1275449E+00
          4   -1    0    0  501    0  0.00000000000E+00  0.00000000000E+00  0.36746985292E+03  0.36746985292E+03  0.00000000000E+00 0. -1.
         -4   -1    0    0    0  501 -0.00000000000E+00 -0.00000000000E+00 -0.37847152041E+02  0.37847152041E+02  0.00000000000E+00 0.  1.
         25    2    1    2    0    0 -0.39564904226E+02  0.53359427516E+01  0.14003781339E+03  0.19197567776E+03  0.12510083030E+03 0.  0.
         23    2    1    2    0    0  0.39564904226E+02 -0.53359427516E+01  0.18958488748E+03  0.21334132720E+03  0.89320985194E+02 0.  0.
          5    1    3    3  502    0  0.11706693458E+02  0.55204200810E+02  0.41631509307E+02  0.70251017259E+02  0.41800000000E+01 0.  1.
         -5    1    3    3    0  502 -0.51271597684E+02 -0.49868258058E+02  0.98406304085E+02  0.12172466050E+03  0.41800000000E+01 0.  1.
        -11    1    4    4    0    0  0.14753888178E+02  0.29907397131E+02  0.21174388355E+02  0.39502966239E+02  0.00000000000E+00 0.  1.
         11    1    4    4    0    0  0.24811016048E+02 -0.35243339882E+02  0.16841049913E+03  0.17383836096E+03  0.00000000000E+00 0. -1.
</event>
<event>
 8    1  0.6850220E-009  0.5236232E+02  0.7561462E-02  0.1433001E+00
         -1   -1    0    0    0  501 -0.00000000000E+00  0.00000000000E+00  0.72566674729E+02  0.72566674729E+02  0.00000000000E+00 0.  1.
          1   -1    0    0  501    0  0.00000000000E+00 -0.00000000000E+00 -0.18485022599E+03  0.18485022599E+03  0.00000000000E+00 0. -1.
         25    2    1    2    0    0 -0.97113093095E+01 -0.44380206812E+01 -0.14870900223E+02  0.12642429842E+03  0.12509178231E+03 0.  0.
         23    2    1    2    0    0  0.97113093095E+01  0.44380206812E+01 -0.97412651040E+02  0.13099260230E+03  0.86924287275E+02 0.  0.
          5    1    3    3  502    0 -0.32863829387E+02 -0.64906383878E+01  0.48331425255E+02  0.58953869558E+02  0.41800000000E+01 0.  1.
         -5    1    3    3    0  502  0.23152520077E+02  0.20526177067E+01 -0.63202325478E+02  0.67470428865E+02  0.41800000000E+01 0.  1.
        -11    1    4    4    0    0  0.26692187571E+02  0.11364531016E+02 -0.10660263013E+03  0.11047961891E+03  0.00000000000E+00 0. -1.
         11    1    4    4    0    0 -0.16980878262E+02 -0.69265103350E+01  0.91899790918E+01  0.20512983393E+02  0.00000000000E+00 0.  1.
</event>
<event>
 8    1  0.6850220E-009  0.1224859E+03  0.7561462E-02  0.1239052E+00
         -2   -1    0    0    0  501 -0.00000000000E+00  0.00000000000E+00  0.44604631916E+02  0.44604631916E+02  0.00000000000E+00 0.  1.
          2   -1    0    0  501    0  0.00000000000E+00 -0.00000000000E+00 -0.38320353929E+03  0.38320353929E+03  0.00000000000E+00 0. -1.
         25    2    1    2    0    0 -0.46132400091E+02  0.35410226140E+02 -0.25540976367E+03  0.29027816638E+03  0.12508071013E+03 0.  0.
         23    2    1    2    0    0  0.46132400091E+02 -0.35410226140E+02 -0.83189143700E+02  0.13753000482E+03  0.92800787403E+02 0.  0.
          5    1    3    3  502    0  0.41853285389E+02  0.17980979524E+02 -0.11319516026E+03  0.12208861466E+03  0.41800000000E+01 0.  1.
         -5    1    3    3    0  502 -0.87985685480E+02  0.17429246616E+02 -0.14221460341E+03  0.16818955172E+03  0.41800000000E+01 0.  1.
        -11    1    4    4    0    0  0.72565525437E+01 -0.61944056851E+02 -0.44766538063E+02  0.76770871196E+02  0.00000000000E+00 0. -1.
         11    1    4    4    0    0  0.38875847548E+02  0.26533830711E+02 -0.38422605637E+02  0.60759133624E+02  0.00000000000E+00 0.  1.
</event>
<event>
 8    1  0.6850220E-009  0.1247255E+03  0.7561462E-02  0.1235499E+00
         -2   -1    0    0    0  501 -0.00000000000E+00  0.00000000000E+00  0.28809698261E+03  0.28809698261E+03  0.00000000000E+00 0.  1.
          2   -1    0    0  501    0  0.00000000000E+00 -0.00000000000E+00 -0.81755576749E+02  0.81755576749E+02  0.00000000000E+00 0. -1.
         25    2    1    2    0    0 -0.79208113521E+02 -0.72060595104E+02  0.95623942399E+02  0.19041488172E+03  0.12508890521E+03 0.  0.
         23    2    1    2    0    0  0.79208113521E+02  0.72060595104E+02  0.11071746346E+03  0.17943767763E+03  0.92048187519E+02 0.  0.
          5    1    3    3  502    0 -0.39601228591E+02 -0.45032332443E+02  0.12165343289E+03  0.13569524090E+03  0.41800000000E+01 0. -1.
         -5    1    3    3    0  502 -0.39606884930E+02 -0.27028262661E+02 -0.26029490486E+02  0.54719640818E+02  0.41800000000E+01 0. -1.
        -11    1    4    4    0    0 -0.33510632204E+01  0.57225782604E+02  0.44459725547E+02  0.72544379624E+02  0.00000000000E+00 0.  1.
         11    1    4    4    0    0  0.82559176742E+02  0.14834812499E+02  0.66257737913E+02  0.10689329801E+03  0.00000000000E+00 0. -1.
</event>
<event>
 8    1  0.6850220E-009  0.1353870E+03  0.7561462E-02  0.1219674E+00
         -1   -1    0    0    0  501 -0.00000000000E+00  0.00000000000E+00  0.32525503014E+02  0.32525503014E+02  0.00000000000E+00 0.  1.
          1   -1    0    0  501    0  0.00000000000E+00 -0.00000000000E+00 -0.61891072202E+03  0.61891072202E+03  0.00000000000E+00 0. -1.
         25    2    1    2    0    0 -0.80203926307E+02  0.32104400327E+02 -0.25485208775E+03  0.29674829026E+03  0.12508636548E+03 0.  0.
         23    2    1    2    0    0  0.80203926307E+02 -0.32104400327E+02 -0.33153313126E+03  0.35468793478E+03  0.91792982495E+02 0.  0.
          5    1    3    3  502    0 -0.10305273621E+01  0.65167796636E+02 -0.95119335694E+02  0.11538225222E+03  0.41800000000E+01 0.  1.
         -5    1    3    3    0  502 -0.79173398945E+02 -0.33063396309E+02 -0.15973275205E+03  0.18136603804E+03  0.41800000000E+01 0.  1.
        -11    1    4    4    0    0 -0.17088315267E+02 -0.99700200354E+01 -0.10939853269E+03  0.11117306676E+03  0.00000000000E+00 0. -1.
         11    1    4    4    0    0  0.97292241574E+02 -0.22134380291E+02 -0.22213459857E+03  0.24351486801E+03  0.00000000000E+00 0.  1.
</event>
<event>
 8    1  0.6850220E-009  0.1765827E+03  0.7561462E-02  0.1171152E+00
         -2   -1    0    0    0  501 -0.00000000000E+00  0.00000000000E+00  0.27123181385E+03  0.27123181385E+03  0.00000000000E+00 0.  1.
          2   -1    0    0  501    0  0.00000000000E+00 -0.00000000000E+00 -0.22182975031E+03  0.22182975031E+03  0.00000000000E+00 0. -1.
         25    2    1    2    0    0  0.46961438026E+02 -0.15372453305E+03  0.17800882669E+03  0.27050046639E+03  0.12508697461E+03 0.  0.
         23    2    1    2    0    0 -0.46961438026E+02  0.15372453305E+03 -0.12860676315E+03  0.22256109777E+03  0.84599846275E+02 0.  0.
          5    1    3    3  502    0 -0.16453955547E+02 -0.10935042016E+03  0.15345374675E+03  0.18919242013E+03  0.41800000000E+01 0. -1.
         -5    1    3    3    0  502  0.63415393572E+02 -0.44374112888E+02  0.24555079938E+02  0.81308046264E+02  0.41800000000E+01 0. -1.
        -11    1    4    4    0    0 -0.26897522711E+02  0.32812061876E+02  0.32317655819E+01  0.42550586851E+02  0.00000000000E+00 0.  1.
         11    1    4    4    0    0 -0.20063915314E+02  0.12091247117E+03 -0.13183852873E+03  0.18001051092E+03  0.00000000000E+00 0. -1.
</event>
<event>
 8    1  0.6850220E-009  0.1052846E+03  0.7561462E-02  0.1269560E+00
          3   -1    0    0  501    0  0.00000000000E+00  0.00000000000E+00  0.23403812442E+03  0.23403812442E+03  0.00000000000E+00 0. -1.
         -3   -1    0    0    0  501 -0.00000000000E+00 -0.00000000000E+00 -0.58897847432E+02  0.58897847432E+02  0.00000000000E+00 0.  1.
         25    2    1    2    0    0 -0.18956048004E+02 -0.35514079082E+02  0.12921014835E+03  0.18429171378E+03  0.12509033440E+03 0.  0.
         23    2    1    2    0    0  0.18956048004E+02  0.35514079082E+02  0.45930128641E+02  0.10864425808E+03  0.89852192671E+02 0.  0.
          5    1    3    3  502    0 -0.62728848669E+02  0.11431689072E+02  0.84571187748E+02  0.10599693471E+03  0.41800000000E+01 0.  1.
         -5    1    3    3    0  502  0.43772800666E+02 -0.46945768155E+02  0.44638960603E+02  0.78294779069E+02  0.41800000000E+01 0.  1.
        -11    1    4    4    0    0  0.41447008515E+02  0.41931827895E+02  0.21377581750E+01  0.58997480585E+02  0.00000000000E+00 0.  1.
         11    1    4    4    0    0 -0.22490960511E+02 -0.64177488122E+01  0.43792370466E+02  0.49646777494E+02  0.00000000000E+00 0. -1.
</event>
<event>
 8    1  0.6850220E-009  0.2003733E+03  0.7561462E-02  0.1149424E+00
          1   -1    0    0  501    0  0.00000000000E+00  0.00000000000E+00  0.13954891592E+04  0.13954891592E+04  0.00000000000E+00 0. -1.
         -1   -1    0    0    0  501 -0.00000000000E+00 -0.00000000000E+00 -0.35982916386E+02  0.35982916386E+02  0.00000000000E+00 0.  1.
         25    2    1    2    0    0 -0.18838943724E+03 -0.48951393150E+02  0.76819675448E+03  0.80228494127E+03  0.12509218375E+03 0.  0.
         23    2    1    2    0    0  0.18838943724E+03  0.48951393150E+02  0.59130948835E+03  0.62918713433E+03  0.91338491564E+02 0.  0.
          5    1    3    3  502    0 -0.83828310158E+02  0.11633810684E+02  0.51227238422E+03  0.51923308751E+03  0.41800000000E+01 0.  1.
         -5    1    3    3    0  502 -0.10456112709E+03 -0.60585203833E+02  0.25592437026E+03  0.28305185376E+03  0.41800000000E+01 0.  1.
        -11    1    4    4    0    0  0.82091401357E+02  0.14571508675E+02  0.39136878185E+03  0.40015103454E+03  0.00000000000E+00 0.  1.
         11    1    4    4    0    0  0.10629803589E+03  0.34379884474E+02  0.19994070650E+03  0.22903609979E+03  0.00000000000E+00 0. -1.
</event>
<event>
 8    1  0.6850220E-009  0.1649385E+03  0.7561462E-02  0.1183231E+00
          1   -1    0    0  501    0  0.00000000000E+00  0.00000000000E+00  0.23831654237E+03  0.23831654237E+03  0.00000000000E+00 0. -1.
         -1   -1    0    0    0  501 -0.00000000000E+00 -0.00000000000E+00 -0.14184421729E+03  0.14184421729E+03  0.00000000000E+00 0.  1.
         25    2    1    2    0    0 -0.12267963977E+03  0.77922420958E+02  0.84354508752E+02  0.20948984781E+03  0.12509242778E+03 0.  0.
         23    2    1    2    0    0  0.12267963977E+03 -0.77922420958E+02  0.12117816332E+02  0.17067091185E+03  0.88653939429E+02 0.  0.
          5    1    3    3  502    0 -0.12312442476E+03  0.88149581213E+02  0.10620201882E+03  0.18500355089E+03  0.41800000000E+01 0.  1.
         -5    1    3    3    0  502  0.44478499579E+00 -0.10227160255E+02 -0.21847510068E+02  0.24486296918E+02  0.41800000000E+01 0.  1.
        -11    1    4    4    0    0  0.21468442615E+02 -0.61066379593E+02  0.20037232620E+02  0.67760515317E+02  0.00000000000E+00 0. -1.
         11    1    4    4    0    0  0.10121119715E+03 -0.16856041365E+02 -0.79194162876E+01  0.10291039653E+03  0.00000000000E+00 0.  1.
</event>
<event>
 8    1  0.6850220E-009  0.2199457E+03  0.7561462E-02  0.1133924E+00
         -1   -1    0    0    0  501 -0.00000000000E+00  0.00000000000E+00  0.79385829894E+02  0.79385829894E+02  0.00000000000E+00 0.  1.
          1   -1    0    0  501    0  0.00000000000E+00 -0.00000000000E+00 -0.71327347109E+03  0.71327347109E+03  0.00000000000E+00 0. -1.
         25    2    1    2    0    0 -0.16798517977E+03  0.10316016659E+03 -0.19864743746E+03  0.30654733219E+03  0.12509764933E+03 0.  0.
         23    2    1    2    0    0  0.16798517977E+03 -0.10316016659E+03 -0.43524020374E+03  0.48611196880E+03  0.89497322117E+02 0.  0.
          5    1    3    3  502    0 -0.15634981252E+03  0.12430746498E+03 -0.19908679733E+03  0.28204722122E+03  0.41800000000E+01 0.  1.
         -5    1    3    3    0  502 -0.11635367251E+02 -0.21147298393E+02  0.43935987342E+00  0.24500110969E+02  0.41800000000E+01 0.  1.
        -11    1    4    4    0    0  0.80888422946E+02 -0.38294835385E+00 -0.18504843469E+03  0.20195545746E+03  0.00000000000E+00 0. -1.
         11    1    4    4    0    0  0.87096756823E+02 -0.10277721823E+03 -0.25019176904E+03  0.28415651134E+03  0.00000000000E+00 0.  1.
</event>
<event>
 8    1  0.6850220E-009  0.1168559E+03  0.7561462E-02  0.1248376E+00
         -2   -1    0    0    0  501 -0.00000000000E+00  0.00000000000E+00  0.15748345940E+02  0.15748345940E+02  0.00000000000E+00 0.  1.
          2   -1    0    0  501    0  0.00000000000E+00 -0.00000000000E+00 -0.12083611358E+04  0.12083611358E+04  0.00000000000E+00 0. -1.
         25    2    1    2    0    0 -0.47298998118E+02  0.65431096361E+01 -0.94238431862E+03  0.95184834936E+03  0.12508824366E+03 0.  0.
         23    2    1    2    0    0  0.47298998118E+02 -0.65431096361E+01 -0.25022847122E+03  0.27226113235E+03  0.96082406690E+02 0.  0.
          5    1    3    3  502    0 -0.87157907120E+02  0.75461831961E+01 -0.76460078068E+03  0.76960072237E+03  0.41800000000E+01 0.  1.
         -5    1    3    3    0  502  0.39858909002E+02 -0.10030735601E+01 -0.17778353794E+03  0.18224762700E+03  0.41800000000E+01 0.  1.
        -11    1    4    4    0    0  0.55228616893E+02 -0.42202757824E+02 -0.18287534822E+03  0.19563912154E+03  0.00000000000E+00 0.  1.
         11    1    4    4    0    0 -0.79296187754E+01  0.35659648188E+02 -0.67353122997E+02  0.76622010808E+02  0.00000000000E+00 0. -1.
</event>
<event>
 8    1  0.6850220E-009  0.1294805E+03  0.7561462E-02  0.1228229E+00
          1   -1    0    0  501    0  0.00000000000E+00  0.00000000000E+00  0.24987393795E+03  0.24987393795E+03  0.00000000000E+00 0. -1.
         -1   -1    0    0    0  501 -0.00000000000E+00 -0.00000000000E+00 -0.98717447516E+02  0.98717447516E+02  0.00000000000E+00 0.  1.
         25    2    1    2    0    0  0.63991965444E+02 -0.89640060286E+02  0.57006563996E+02  0.17614462227E+03  0.12508743968E+03 0.  0.
         23    2    1    2    0    0 -0.63991965444E+02  0.89640060286E+02  0.94149926440E+02  0.17244676320E+03  0.93505964733E+02 0.  0.
          5    1    3    3  502    0  0.53595438675E+02 -0.11096741391E+03  0.10476673975E+02  0.12374761046E+03  0.41800000000E+01 0.  1.
         -5    1    3    3    0  502  0.10396526770E+02  0.21327353621E+02  0.46529890021E+02  0.52397011811E+02  0.41800000000E+01 0.  1.
        -11    1    4    4    0    0 -0.34822679961E+02  0.33605639768E+02  0.97853550223E+02  0.10916627389E+03  0.00000000000E+00 0. -1.
         11    1    4    4    0    0 -0.29169285483E+02  0.56034420518E+02 -0.37036237829E+01  0.63280489311E+02  0.00000000000E+00 0.  1.
</event>
<event>
 8    1  0.6850220E-009  0.1075573E+03  0.7561462E-02  0.1265161E+00
         -1   -1    0    0    0  501 -0.00000000000E+00  0.00000000000E+00  0.81591557913E+02  0.81591557913E+02  0.00000000000E+00 0.  1.
          1   -1    0    0  501    0  0.00000000000E+00 -0.00000000000E+00 -0.21867421001E+03  0.21867421001E+03  0.00000000000E+00 0. -1.
         25    2    1    2    0    0  0.50936203525E+02  0.58413241063E+02 -0.81916247670E+02  0.16841662222E+03  0.12508910203E+03 0.  0.
         23    2    1    2    0    0 -0.50936203525E+02 -0.58413241063E+02 -0.55166404428E+02  0.13184914570E+03  0.91292176464E+02 0.  0.
          5    1    3    3  502    0  0.25642425466E+02  0.84022160312E+02 -0.10809463838E+02  0.88609109666E+02  0.41800000000E+01 0. -1.
         -5    1    3    3    0  502  0.25293778059E+02 -0.25608919249E+02 -0.71106783832E+02  0.79807512557E+02  0.41800000000E+01 0. -1.
        -11    1    4    4    0    0 -0.41259949514E+02 -0.66540588618E+02 -0.31908723210E+01  0.78359524206E+02  0.00000000000E+00 0.  1.
         11    1    4    4    0    0 -0.96762540108E+01  0.81273475549E+01 -0.51975532107E+02  0.53489621495E+02  0.00000000000E+00 0. -1.
</event>
<event>
 8    1  0.6850220E-009  0.9679795E+02  0.7561462E-02  0.1287177E+00
         -1   -1    0    0    0  501 -0.00000000000E+00  0.00000000000E+00  0.28324562239E+02  0.28324562239E+02  0.00000000000E+00 0.  1.
          1   -1    0    0  501    0  0.00000000000E+00 -0.00000000000E+00 -0.51155429791E+03  0.51155429791E+03  0.00000000000E+00 0. -1.
         25    2    1    2    0    0 -0.11317900550E+02 -0.47236194235E+01 -0.15737024882E+03  0.20140198344E+03  0.12508779423E+03 0.  0.
         23    2    1    2    0    0  0.11317900550E+02  0.47236194235E+01 -0.32585948685E+03  0.33847687671E+03  0.90729176365E+02 0.  0.
          5    1    3    3  502    0 -0.16928448993E+01  0.51007405177E+02 -0.24154010209E+02  0.56617221019E+02  0.41800000000E+01 0. -1.
         -5    1    3    3    0  502 -0.96250556504E+01 -0.55731024600E+02 -0.13321623861E+03  0.14478476242E+03  0.41800000000E+01 0. -1.
        -11    1    4    4    0    0  0.19166089960E+02 -0.37829887322E+02 -0.22113831860E+03  0.22516792696E+03  0.00000000000E+00 0. -1.
         11    1    4    4    0    0 -0.78481894106E+01  0.42553506746E+02 -0.10472116826E+03  0.11330894975E+03  0.00000000000E+00 0.  1.
</event>
<event>
 8    1  0.6850220E-009  0.1498124E+03  0.7561462E-02  0.1200704E+00
          1   -1    0    0  501    0  0.00000000000E+00  0.00000000000E+00  0.32168797731E+02  0.32168797731E+02  0.00000000000E+00 0. -1.
         -1   -1    0    0    0  501 -0.00000000000E+00 -0.00000000000E+00 -0.12963545723E+04  0.12963545723E+04  0.00000000000E+00 0.  1.
         25    2    1    2    0    0 -0.10453028829E+03 -0.49298952465E+02 -0.10763850252E+04  0.10897742704E+04  0.12508505102E+03 0.  0.
         23    2    1    2    0    0  0.10453028829E+03  0.49298952465E+02 -0.18780074935E+03  0.23874909965E+03  0.91515262350E+02 0.  0.
          5    1    3    3  502    0 -0.47343559470E+02 -0.76090332457E+02 -0.37683266599E+03  0.38736479173E+03  0.41800000000E+01 0.  1.
         -5    1    3    3    0  502 -0.57186728820E+02  0.26791379992E+02 -0.69955235923E+03  0.70240947865E+03  0.41800000000E+01 0.  1.
        -11    1    4    4    0    0  0.37900361787E+02  0.67620935599E+02 -0.86857085774E+02  0.11641813306E+03  0.00000000000E+00 0.  1.
         11    1    4    4    0    0  0.66629926503E+02 -0.18321983135E+02 -0.10094366358E+03  0.12233096660E+03  0.00000000000E+00 0. -1.
</event>
<event>
 8    1  0.6850220E-009  0.1215714E+03  0.7561462E-02  0.1240527E+00
         -1   -1    0    0    0  501 -0.00000000000E+00  0.00000000000E+00  0.38852509945E+03  0.38852509945E+03  0.00000000000E+00 0.  1.
          1   -1    0    0  501    0  0.00000000000E+00 -0.00000000000E+00 -0.81500001173E+02  0.81500001173E+02  0.00000000000E+00 0. -1.
         25    2    1    2    0    0 -0.47341701773E+02  0.31021958596E+02 -0.72962424467E+01  0.13749805671E+03  0.12509549073E+03 0.  0.
         23    2    1    2    0    0  0.47341701773E+02 -0.31021958596E+02  0.31432134073E+03  0.33252704392E+03  0.92589043950E+02 0.  0.
          5    1    3    3  502    0  0.37427315250E+02 -0.11958741623E+02  0.10105653397E+02  0.40784948922E+02  0.41800000000E+01 0. -1.
         -5    1    3    3    0  502 -0.84769017023E+02  0.42980700218E+02 -0.17401895844E+02  0.96713107784E+02  0.41800000000E+01 0. -1.
        -11    1    4    4    0    0  0.69948252305E+01  0.32499173200E+02  0.93126650320E+02  0.98882237224E+02  0.00000000000E+00 0. -1.
         11    1    4    4    0    0  0.40346876542E+02 -0.63521131796E+02  0.22119469041E+03  0.23364480669E+03  0.00000000000E+00 0.  1.
</event>
<event>
 8    1  0.6850220E-009  0.1073129E+03  0.7561462E-02  0.1265628E+00
          2   -1    0    0  501    0  0.00000000000E+00  0.00000000000E+00  0.18054886895E+03  0.18054886895E+03  0.00000000000E+00 0. -1.
         -2   -1    0    0    0  501 -0.00000000000E+00 -0.00000000000E+00 -0.64992376850E+02  0.64992376850E+02  0.00000000000E+00 0.  1.
         25    2    1    2    0    0 -0.43461806792E+01 -0.73220798582E+01  0.56867042442E+02  0.13767303209E+03  0.12508997206E+03 0.  0.
         23    2    1    2    0    0  0.43461806792E+01  0.73220798582E+01  0.58689449655E+02  0.10786821370E+03  0.90103262353E+02 0.  0.
          5    1    3    3  502    0  0.53770020460E+02  0.23272081418E+02  0.34736856805E+02  0.68241677107E+02  0.41800000000E+01 0. -1.
         -5    1    3    3    0  502 -0.58116201139E+02 -0.30594161276E+02  0.22130185637E+02  0.69431354987E+02  0.41800000000E+01 0. -1.
        -11    1    4    4    0    0  0.33494971034E+02 -0.28439900912E+02  0.23398168209E+02  0.49781676589E+02  0.00000000000E+00 0.  1.
         11    1    4    4    0    0 -0.29148790355E+02  0.35761980770E+02  0.35291281446E+02  0.58086537114E+02  0.00000000000E+00 0. -1.
</event>
<event>
 8    1  0.6850220E-009  0.1905402E+03  0.7561462E-02  0.1157975E+00
          1   -1    0    0  501    0  0.00000000000E+00  0.00000000000E+00  0.13855049095E+04  0.13855049095E+04  0.00000000000E+00 0. -1.
         -1   -1    0    0    0  501 -0.00000000000E+00 -0.00000000000E+00 -0.29783047274E+02  0.29783047274E+02  0.00000000000E+00 0.  1.
         25    2    1    2    0    0  0.16010104992E+03 -0.21842154421E+02  0.90228455030E+03  0.92513529389E+03  0.12509387035E+03 0.  0.
         23    2    1    2    0    0 -0.16010104992E+03  0.21842154421E+02  0.45343731194E+03  0.49015266290E+03  0.92384041866E+02 0.  0.
          5    1    3    3  502    0  0.14109477627E+03 -0.64328957680E+02  0.62647036573E+03  0.64539022476E+03  0.41800000000E+01 0.  1.
         -5    1    3    3    0  502  0.19006273645E+02  0.42486803259E+02  0.27581418457E+03  0.27974506913E+03  0.41800000000E+01 0.  1.
        -11    1    4    4    0    0 -0.58589506413E+02 -0.29356617817E+02  0.23411392026E+03  0.24311287282E+03  0.00000000000E+00 0. -1.
         11    1    4    4    0    0 -0.10151154350E+03  0.51198772238E+02  0.21932339168E+03  0.24703979008E+03  0.00000000000E+00 0.  1.
</event>
<event>
 8    1  0.6850220E-009  0.3012763E+03  0.7561462E-02  0.1084604E+00
          4   -1    0    0  501    0  0.00000000000E+00  0.00000000000E+00  0.20203419230E+03  0.20203419230E+03  0.00000000000E+00 0. -1.
         -4   -1    0    0    0  501 -0.00000000000E+00 -0.00000000000E+00 -0.54970561886E+03  0.54970561886E+03  0.00000000000E+00 0.  1.
         25    2    1    2    0    0  0.23525799606E+03 -0.15366751969E+03 -0.33703831431E+03  0.45629203604E+03  0.12509022953E+03 0.  0.
         23    2    1    2    0    0 -0.23525799606E+03  0.15366751969E+03 -0.10633112249E+02  0.29544777512E+03  0.90643772168E+02 0.  0.
          5    1    3    3  502    0  0.37799888796E+02  0.21297236464E+02 -0.52700571036E+02  0.68390251217E+02  0.41800000000E+01 0. -1.
         -5    1    3    3    0  502  0.19745810726E+03 -0.17496475615E+03 -0.28433774328E+03  0.38790178483E+03  0.41800000000E+01 0. -1.
        -11    1    4    4    0    0 -0.15674666644E+03  0.48917432146E+02 -0.12833023856E+01  0.16420742819E+03  0.00000000000E+00 0. -1.
         11    1    4    4    0    0 -0.78511329618E+02  0.10475008754E+03 -0.93498098636E+01  0.13124034693E+03  0.00000000000E+00 0.  1.
</event>
<event>
 8    1  0.6850220E-009  0.1075827E+03  0.7561462E-02  0.1265113E+00
         -3   -1    0    0    0  501 -0.00000000000E+00  0.00000000000E+00  0.16843310073E+03  0.16843310073E+03  0.00000000000E+00 0. -1.
          3   -1    0    0  501    0  0.00000000000E+00 -0.00000000000E+00 -0.89199400389E+02  0.89199400389E+02  0.00000000000E+00 0.  1.
         25    2    1    2    0    0  0.26139720090E+02 -0.13412356607E+02  0.94765448091E+02  0.15965933071E+03  0.12508970963E+03 0.  0.
         23    2    1    2    0    0 -0.26139720090E+02  0.13412356607E+02 -0.15531747747E+02  0.97973170412E+02  0.92164693112E+02 0.  0.
          5    1    3    3  502    0 -0.35767230660E+02  0.34671738696E+02  0.36111397600E+02  0.61667898374E+02  0.41800000000E+01 0. -1.
         -5    1    3    3    0  502  0.61906950750E+02 -0.48084095304E+02  0.58654050491E+02  0.97991432337E+02  0.41800000000E+01 0. -1.
        -11    1    4    4    0    0 -0.53793875464E+02 -0.40921193461E+01 -0.30511208085E+02  0.61979515140E+02  0.00000000000E+00 0.  1.
         11    1    4    4    0    0  0.27654155373E+02  0.17504475953E+02  0.14979460338E+02  0.35993655272E+02  0.00000000000E+00 0. -1.
</event>
<event>
 8    1  0.6850220E-009  0.2046462E+03  0.7561462E-02  0.1145877E+00
         -1   -1    0    0    0  501 -0.00000000000E+00  0.00000000000E+00  0.29037522052E+02  0.29037522052E+02  0.00000000000E+00 0.  1.
          1   -1    0    0  501    0  0.00000000000E+00 -0.00000000000E+00 -0.15813305422E+04  0.15813305422E+04  0.00000000000E+00 0. -1.
         25    2    1    2    0    0 -0.13517678259E+03  0.12520602249E+03 -0.83637688071E+03  0.86551929391E+03  0.12509216975E+03 0.  0.
         23    2    1    2    0    0  0.13517678259E+03 -0.12520602249E+03 -0.71591613948E+03  0.74484877038E+03  0.91183668222E+02 0.  0.
          5    1    3    3  502    0 -0.15487908264E+03  0.10318284543E+03 -0.77795465987E+03  0.79991571747E+03  0.41800000000E+01 0. -1.
         -5    1    3    3    0  502  0.19702300052E+02  0.22023177063E+02 -0.58422220834E+02  0.65603576445E+02  0.41800000000E+01 0. -1.
        -11    1    4    4    0    0  0.23165837150E+02 -0.58522781977E+02 -0.12779591860E+03  0.14245479575E+03  0.00000000000E+00 0. -1.
         11    1    4    4    0    0  0.11201094544E+03 -0.66683240512E+02 -0.58812022089E+03  0.60239397464E+03  0.00000000000E+00 0.  1.
</event>
<event>
 8    1  0.6850220E-009  0.1195634E+03  0.7561462E-02  0.1243819E+00
         -1   -1    0    0    0  501 -0.00000000000E+00  0.00000000000E+00  0.25023037418E+03  0.25023037418E+03  0.00000000000E+00 0.  1.
          1   -1    0    0  501    0  0.00000000000E+00 -0.00000000000E+00 -0.10653434490E+03  0.10653434490E+03  0.00000000000E+00 0. -1.
         25    2    1    2    0    0 -0.24167891557E+02 -0.87580447097E+02  0.16555996394E+03  0.22651572218E+03  0.12507937096E+03 0.  0.
         23    2    1    2    0    0  0.24167891557E+02  0.87580447097E+02 -0.21863934668E+02  0.13024899690E+03  0.90732286748E+02 0.  0.
          5    1    3    3  502    0  0.44662367945E+02 -0.55466287259E+02  0.11448651685E+03  0.13489207194E+03  0.41800000000E+01 0.  1.
         -5    1    3    3    0  502 -0.68830259502E+02 -0.32114159838E+02  0.51073447099E+02  0.91623650243E+02  0.41800000000E+01 0.  1.
        -11    1    4    4    0    0  0.32943908025E+01  0.34945701724E+02  0.35305551627E+02  0.49784907908E+02  0.00000000000E+00 0.  1.
         11    1    4    4    0    0  0.20873500754E+02  0.52634745373E+02 -0.57169486295E+02  0.80464088993E+02  0.00000000000E+00 0. -1.
</event>
<event>
 8    1  0.6850220E-009  0.1038166E+03  0.7561462E-02  0.1272469E+00
          1   -1    0    0  501    0  0.00000000000E+00  0.00000000000E+00  0.12063676752E+03  0.12063676752E+03  0.00000000000E+00 0. -1.
         -1   -1    0    0    0  501 -0.00000000000E+00 -0.00000000000E+00 -0.15473656187E+03  0.15473656187E+03  0.00000000000E+00 0.  1.
         25    2    1    2    0    0  0.38537083329E+02 -0.32547390616E+02  0.48694884945E+02  0.14339947850E+03  0.12509108356E+03 0.  0.
         23    2    1    2    0    0 -0.38537083329E+02  0.32547390616E+02 -0.82794679300E+02  0.13197385090E+03  0.89541604702E+02 0.  0.
          5    1    3    3  502    0  0.32388891322E+02  0.44984332463E+02  0.10193167471E+02  0.56515515668E+02  0.41800000000E+01 0. -1.
         -5    1    3    3    0  502  0.61481920072E+01 -0.77531723079E+02  0.38501717475E+02  0.86883962830E+02  0.41800000000E+01 0. -1.
        -11    1    4    4    0    0  0.98999786042E+01  0.22650253932E+02  0.10131688193E+02  0.26715064761E+02  0.00000000000E+00 0. -1.
         11    1    4    4    0    0 -0.48437061933E+02  0.98971366845E+01 -0.92926367493E+02  0.10525878614E+03  0.00000000000E+00 0.  1.
</event>
<event>
 8    1  0.6850220E-009  0.1181485E+03  0.7561462E-02  0.1246183E+00
          1   -1    0    0  501    0  0.00000000000E+00  0.00000000000E+00  0.88668438224E+03  0.88668438224E+03  0.00000000000E+00 0. -1.
         -1   -1    0    0    0  501 -0.00000000000E+00 -0.00000000000E+00 -0.27429221860E+02  0.27429221860E+02  0.00000000000E+00 0.  1.
         25    2    1    2    0    0 -0.19277068234E+01  0.91633250717E+02  0.64078047257E+03  0.65927823753E+03  0.12509121379E+03 0.  0.
         23    2    1    2    0    0  0.19277068234E+01 -0.91633250717E+02  0.21847468781E+03  0.25483536657E+03  0.93858969464E+02 0.  0.
          5    1    3    3  502    0  0.51904124705E+02  0.67798525665E+02  0.25350413320E+03  0.26753036499E+03  0.41800000000E+01 0. -1.
         -5    1    3    3    0  502 -0.53831831528E+02  0.23834725052E+02  0.38727633937E+03  0.39174787254E+03  0.41800000000E+01 0. -1.
        -11    1    4    4    0    0 -0.14938782797E+01 -0.13870015732E+02 -0.74942507824E+01  0.15835807637E+02  0.00000000000E+00 0.  1.
         11    1    4    4    0    0  0.34215851032E+01 -0.77763234985E+02  0.22596893860E+03  0.23899955893E+03  0.00000000000E+00 0. -1.
</event>
<event>
 8    1  0.6850220E-009  0.1247284E+03  0.7561462E-02  0.1235494E+00
         -1   -1    0    0    0  501 -0.00000000000E+00  0.00000000000E+00  0.30200294816E+02  0.30200294816E+02  0.00000000000E+00 0.  1.
          1   -1    0    0  501    0  0.00000000000E+00 -0.00000000000E+00 -0.55557968088E+03  0.55557968088E+03  0.00000000000E+00 0. -1.
         25    2    1    2    0    0  0.11719135821E+02 -0.70061930633E+02 -0.25003378997E+03  0.28846283486E+03  0.12509156127E+03 0.  0.
         23    2    1    2    0    0 -0.11719135821E+02  0.70061930633E+02 -0.27534559609E+03  0.29731714083E+03  0.86811708178E+02 0.  0.
          5    1    3    3  502    0  0.27560196836E+02  0.30806687564E+02 -0.67080498160E+02  0.78904258958E+02  0.41800000000E+01 0. -1.
         -5    1    3    3    0  502 -0.15841061015E+02 -0.10086861820E+03 -0.18295329181E+03  0.20955857591E+03  0.41800000000E+01 0. -1.
        -11    1    4    4    0    0 -0.37700437391E+02  0.70262618017E+02 -0.15624749732E+03  0.17541789786E+03  0.00000000000E+00 0.  1.
         11    1    4    4    0    0  0.25981301570E+02 -0.20068738383E+00 -0.11909809877E+03  0.12189924297E+03  0.00000000000E+00 0. -1.
</event>
<event>
 8    1  0.6850220E-009  0.1056243E+03  0.7561462E-02  0.1268894E+00
         -1   -1    0    0    0  501 -0.00000000000E+00  0.00000000000E+00  0.10640728087E+03  0.10640728087E+03  0.00000000000E+00 0.  1.
          1   -1    0    0  501    0  0.00000000000E+00 -0.00000000000E+00 -0.13909027619E+03  0.13909027619E+03  0.00000000000E+00 0. -1.
         25    2    1    2    0    0 -0.27107962371E+01  0.38100313463E+02  0.20948424317E+02  0.13248428316E+03  0.12511701124E+03 0.  0.
         23    2    1    2    0    0  0.27107962371E+01 -0.38100313463E+02 -0.53631419637E+02  0.11301327389E+03  0.91851448555E+02 0.  0.
          5    1    3    3  502    0 -0.55699354995E+02  0.89206454626E+01 -0.19231829696E+02  0.59743884506E+02  0.41800000000E+01 0. -1.
         -5    1    3    3    0  502  0.52988558758E+02  0.29179668001E+02  0.40180254013E+02  0.72740398655E+02  0.41800000000E+01 0. -1.
        -11    1    4    4    0    0 -0.21335614760E+02 -0.58654887975E+02 -0.17153299706E+02  0.64728973662E+02  0.00000000000E+00 0.  1.
         11    1    4    4    0    0  0.24046410997E+02  0.20554574511E+02 -0.36478119931E+02  0.48284300232E+02  0.00000000000E+00 0. -1.
</event>
<event>
 8    1  0.6850220E-009  0.9732484E+02  0.7561462E-02  0.1286024E+00
          1   -1    0    0  501    0  0.00000000000E+00  0.00000000000E+00  0.60036579249E+02  0.60036579249E+02  0.00000000000E+00 0. -1.
         -1   -1    0    0    0  501 -0.00000000000E+00 -0.00000000000E+00 -0.28982696101E+03  0.28982696101E+03  0.00000000000E+00 0.  1.
         25    2    1    2    0    0 -0.31963675000E+02 -0.47068460418E+02 -0.19323936803E+03  0.23711989410E+03  0.12508906561E+03 0.  0.
         23    2    1    2    0    0  0.31963675000E+02  0.47068460418E+02 -0.36551013733E+02  0.11274364616E+03  0.90211067277E+02 0.  0.
          5    1    3    3  502    0  0.13000776946E+02  0.14225634459E+02  0.85145446640E+01  0.21479263204E+02  0.41800000000E+01 0.  1.
         -5    1    3    3    0  502 -0.44964451946E+02 -0.61294094878E+02 -0.20175391269E+03  0.21564063089E+03  0.41800000000E+01 0.  1.
        -11    1    4    4    0    0 -0.13065889267E+02  0.51890358566E+02  0.15921405830E+01  0.53533743434E+02  0.00000000000E+00 0. -1.
         11    1    4    4    0    0  0.45029564267E+02 -0.48218981472E+01 -0.38143154316E+02  0.59209902728E+02  0.00000000000E+00 0.  1.
</event>
<event>
 8    1  0.6850220E-009  0.1119037E+03  0.7561462E-02  0.1257085E+00
         -4   -1    0    0    0  501 -0.00000000000E+00  0.00000000000E+00  0.27077200266E+02  0.27077200266E+02  0.00000000000E+00 0.  1.
          4   -1    0    0  501    0  0.00000000000E+00 -0.00000000000E+00 -0.57702511585E+03  0.57702511585E+03  0.00000000000E+00 0. -1.
         25    2    1    2    0    0  0.42049163526E+02 -0.40898478108E+02 -0.26231182485E+03  0.29647281868E+03  0.12509125108E+03 0.  0.
         23    2    1    2    0    0 -0.42049163526E+02  0.40898478108E+02 -0.28763609074E+03  0.30762949744E+03  0.91981353187E+02 0.  0.
          5    1    3    3  502    0 -0.49229825580E+01 -0.65074432982E+02 -0.65132722107E+02  0.92296595139E+02  0.41800000000E+01 0.  1.
         -5    1    3    3    0  502  0.46972146084E+02  0.24175954874E+02 -0.19717910274E+03  0.20417622354E+03  0.41800000000E+01 0.  1.
        -11    1    4    4    0    0 -0.55008494437E+02 -0.73169548338E+01 -0.19043829266E+03  0.19835880520E+03  0.00000000000E+00 0.  1.
         11    1    4    4    0    0  0.12959330911E+02  0.48215432942E+02 -0.97197798083E+02  0.10927069224E+03  0.00000000000E+00 0. -1.
</event>
<event>
 8    1  0.6850220E-009  0.2291982E+03  0.7561462E-02  0.1127205E+00
          2   -1    0    0  501    0  0.00000000000E+00  0.00000000000E+00  0.67269226425E+02  0.67269226425E+02  0.00000000000E+00 0. -1.
         -2   -1    0    0    0  501 -0.00000000000E+00 -0.00000000000E+00 -0.87524574983E+03  0.87524574983E+03  0.00000000000E+00 0.  1.
         25    2    1    2    0    0  0.19206791852E+03  0.69393073615E+02 -0.27309721800E+03  0.36322840073E+03  0.12508915470E+03 0.  0.
         23    2    1    2    0    0 -0.19206791852E+03 -0.69393073615E+02 -0.53487930540E+03  0.57928657553E+03  0.88156572336E+02 0.  0.
          5    1    3    3  502    0  0.47587129567E+02  0.81318792417E+02 -0.11371450830E+03  0.14773538066E+03  0.41800000000E+01 0.  1.
         -5    1    3    3    0  502  0.14448078896E+03 -0.11925718802E+02 -0.15938270970E+03  0.21549302007E+03  0.41800000000E+01 0.  1.
        -11    1    4    4    0    0 -0.71191647060E+02 -0.67583668155E+02 -0.19047278189E+03  0.21427945178E+03  0.00000000000E+00 0. -1.
         11    1    4    4    0    0 -0.12087627146E+03 -0.18094054596E+01 -0.34440652351E+03  0.36500712375E+03  0.00000000000E+00 0.  1.
</event>
<event>
 8    1  0.6850220E-009  0.9572238E+02  0.7561462E-02  0.1289557E+00
         -1   -1    0    0    0  501 -0.00000000000E+00  0.00000000000E+00  0.36165968300E+03  0.36165968300E+03  0.00000000000E+00 0. -1.
          1   -1    0    0  501    0  0.00000000000E+00 -0.00000000000E+00 -0.48908553886E+02  0.48908553886E+02  0.00000000000E+00 0.  1.
         25    2    1    2    0    0  0.41687796116E+02 -0.58861278835E+02  0.19872414653E+03  0.24564407280E+03  0.12508877485E+03 0.  0.
         23    2    1    2    0    0 -0.41687796116E+02  0.58861278835E+02  0.11402698258E+03  0.16492416409E+03  0.94843579922E+02 0.  0.
          5    1    3    3  502    0  0.60847178464E+02 -0.28933709702E+02  0.31245597504E+02  0.74386144190E+02  0.41800000000E+01 0. -1.
         -5    1    3    3    0  502 -0.19159382348E+02 -0.29927569133E+02  0.16747854903E+03  0.17125792861E+03  0.41800000000E+01 0. -1.
        -11    1    4    4    0    0  0.21413847273E+01  0.40634733638E+02  0.11000087319E+03  0.11728580140E+03  0.00000000000E+00 0.  1.
         11    1    4    4    0    0 -0.43829180843E+02  0.18226545196E+02  0.40261093919E+01  0.47638362692E+02  0.00000000000E+00 0. -1.
</event>
<event>
 8    1  0.6850220E-009  0.1796915E+03  0.7561462E-02  0.1168102E+00
         -2   -1    0    0    0  501 -0.00000000000E+00  0.00000000000E+00  0.19715445831E+03  0.19715445831E+03  0.00000000000E+00 0.  1.
          2   -1    0    0  501    0  0.00000000000E+00 -0.00000000000E+00 -0.34135921862E+03  0.34135921862E+03  0.00000000000E+00 0. -1.
         25    2    1    2    0    0 -0.80626524251E+00 -0.16687793995E+03 -0.24568941828E+03  0.32227249050E+03  0.12508945188E+03 0.  0.
         23    2    1    2    0    0  0.80626524251E+00  0.16687793995E+03  0.10148465798E+03  0.21624118644E+03  0.92802036626E+02 0.  0.
          5    1    3    3  502    0  0.13444014959E+02 -0.28981291418E+02  0.79528370040E+01  0.33186997557E+02  0.41800000000E+01 0. -1.
         -5    1    3    3    0  502 -0.14250280202E+02 -0.13789664853E+03 -0.25364225529E+03  0.28908549294E+03  0.41800000000E+01 0. -1.
        -11    1    4    4    0    0 -0.42823674963E+02  0.67539351578E+02  0.60430647464E+02  0.10023619257E+03  0.00000000000E+00 0.  1.
         11    1    4    4    0    0  0.43629940206E+02  0.99338588371E+02  0.41054010512E+02  0.11600499386E+03  0.00000000000E+00 0. -1.
</event>
<event>
 8    1  0.6850220E-009  0.8317357E+02  0.7561462E-02  0.1320279E+00
          1   -1    0    0  501    0  0.00000000000E+00  0.00000000000E+00  0.30543166039E+03  0.30543166039E+03  0.00000000000E+00 0. -1.
         -1   -1    0    0    0  501 -0.00000000000E+00 -0.00000000000E+00 -0.47172420116E+02  0.47172420116E+02  0.00000000000E+00 0.  1.
         25    2    1    2    0    0 -0.33876738236E+02  0.30472794536E+02  0.10396175433E+03  0.16891107421E+03  0.12508669005E+03 0.  0.
         23    2    1    2    0    0  0.33876738236E+02 -0.30472794536E+02  0.15429748594E+03  0.18369300629E+03  0.88652026437E+02 0.  0.
          5    1    3    3  502    0 -0.45509785451E+02  0.55400847243E+02  0.11769901941E+03  0.13788011465E+03  0.41800000000E+01 0. -1.
         -5    1    3    3    0  502  0.11633047215E+02 -0.24928052706E+02 -0.13737265082E+02  0.31030959559E+02  0.41800000000E+01 0. -1.
        -11    1    4    4    0    0  0.13713371189E+02 -0.41510810931E+02  0.15464282618E+03  0.16070347745E+03  0.00000000000E+00 0. -1.
         11    1    4    4    0    0  0.20163367047E+02  0.11038016395E+02 -0.34534023952E+00  0.22989528844E+02  0.00000000000E+00 0.  1.
</event>
<event>
 8    1  0.6850220E-009  0.1012832E+03  0.7561462E-02  0.1277620E+00
         -3   -1    0    0    0  501 -0.00000000000E+00  0.00000000000E+00  0.16032535631E+03  0.16032535631E+03  0.00000000000E+00 0.  1.
          3   -1    0    0  501    0  0.00000000000E+00 -0.00000000000E+00 -0.91601137307E+02  0.91601137307E+02  0.00000000000E+00 0. -1.
         25    2    1    2    0    0 -0.42274567288E+02  0.29399729261E+02  0.24168276334E+02  0.13741658048E+03  0.12509087852E+03 0.  0.
         23    2    1    2    0    0  0.42274567288E+02 -0.29399729261E+02  0.44555942664E+02  0.11450991314E+03  0.92064135580E+02 0.  0.
          5    1    3    3  502    0 -0.49303887675E+02  0.61829238922E+02 -0.20322539361E+02  0.81756994390E+02  0.41800000000E+01 0.  1.
         -5    1    3    3    0  502  0.70293203864E+01 -0.32429509661E+02  0.44490815696E+02  0.55659586086E+02  0.41800000000E+01 0.  1.
        -11    1    4    4    0    0 -0.17111427225E+01 -0.43658150004E+02 -0.80972313609E+01  0.44435652656E+02  0.00000000000E+00 0. -1.
         11    1    4    4    0    0  0.43985710011E+02  0.14258420743E+02  0.52653174025E+02  0.70074260483E+02  0.00000000000E+00 0.  1.
</event>
<event>
 8    1  0.6850220E-009  0.6004140E+02  0.7561462E-02  0.1397658E+00
         -1   -1    0    0    0  501 -0.00000000000E+00  0.00000000000E+00  0.26849144848E+03  0.26849144848E+03  0.00000000000E+00 0.  1.
          1   -1    0    0  501    0  0.00000000000E+00 -0.00000000000E+00 -0.53330122082E+02  0.53330122082E+02  0.00000000000E+00 0. -1.
         25    2    1    2    0    0 -0.31854986830E+02  0.77649301669E+01  0.16939099983E+03  0.21311170582E+03  0.12509298145E+03 0.  0.
         23    2    1    2    0    0  0.31854986830E+02 -0.77649301669E+01  0.45770326563E+02  0.10870986474E+03  0.92993965243E+02 0.  0.
          5    1    3    3  502    0  0.22874486781E+02  0.11543042006E+02  0.15373116471E+03  0.15590775275E+03  0.41800000000E+01 0.  1.
         -5    1    3    3    0  502 -0.54729473612E+02 -0.37781118394E+01  0.15659835122E+02  0.57203953071E+02  0.41800000000E+01 0.  1.
        -11    1    4    4    0    0  0.17180965570E+02  0.67537500673E+01  0.72570275176E+02  0.74881530146E+02  0.00000000000E+00 0.  1.
         11    1    4    4    0    0  0.14674021261E+02 -0.14518680234E+02 -0.26799948613E+02  0.33828334593E+02  0.00000000000E+00 0. -1.
</event>
<event>
 8    1  0.6850220E-009  0.9277226E+02  0.7561462E-02  0.1296274E+00
          4   -1    0    0  501    0  0.00000000000E+00  0.00000000000E+00  0.31864546619E+03  0.31864546619E+03  0.00000000000E+00 0.  1.
         -4   -1    0    0    0  501 -0.00000000000E+00 -0.00000000000E+00 -0.39500758875E+02  0.39500758875E+02  0.00000000000E+00 0. -1.
         25    2    1    2    0    0  0.13605007609E+02 -0.57185636870E+01  0.12362667795E+03  0.17648614970E+03  0.12508400111E+03 0.  0.
         23    2    1    2    0    0 -0.13605007609E+02  0.57185636870E+01  0.15551802937E+03  0.18166007536E+03  0.92718538162E+02 0.  0.
          5    1    3    3  502    0  0.68815120770E+02 -0.10910750837E+02  0.76861850128E+02  0.10382572771E+03  0.41800000000E+01 0. -1.
         -5    1    3    3    0  502 -0.55210113161E+02  0.51921871503E+01  0.46764827818E+02  0.72660421988E+02  0.41800000000E+01 0. -1.
        -11    1    4    4    0    0  0.21338422721E+02  0.12220919547E+02  0.14122625050E+03  0.14335108297E+03  0.00000000000E+00 0.  1.
         11    1    4    4    0    0 -0.34943430330E+02 -0.65023558599E+01  0.14291778875E+02  0.38308992396E+02  0.00000000000E+00 0. -1.
</event>
<event>
 8    1  0.6850220E-009  0.1311110E+03  0.7561462E-02  0.1225816E+00
         -4   -1    0    0    0  501 -0.00000000000E+00  0.00000000000E+00  0.48700378858E+03  0.48700378858E+03  0.00000000000E+00 0.  1.
          4   -1    0    0  501    0  0.00000000000E+00 -0.00000000000E+00 -0.37510126247E+02  0.37510126247E+02  0.00000000000E+00 0. -1.
         25    2    1    2    0    0 -0.28906224160E+02 -0.72179186219E+02  0.20190350752E+03  0.24991516791E+03  0.12508860894E+03 0.  0.
         23    2    1    2    0    0  0.28906224160E+02  0.72179186219E+02  0.24759015482E+03  0.27459874692E+03  0.89767378968E+02 0.  0.
          5    1    3    3  502    0 -0.43552116789E+02 -0.10354798411E+03  0.15367602948E+03  0.19040159223E+03  0.41800000000E+01 0. -1.
         -5    1    3    3    0  502  0.14645892629E+02  0.31368797888E+02  0.48227478040E+02  0.59513575678E+02  0.41800000000E+01 0. -1.
        -11    1    4    4    0    0  0.42513743083E+02  0.85756788408E+02  0.17454791669E+03  0.19906938572E+03  0.00000000000E+00 0. -1.
         11    1    4    4    0    0 -0.13607518923E+02 -0.13577602189E+02  0.73042238127E+02  0.75529361198E+02  0.00000000000E+00 0.  1.
</event>
<event>
 8    1  0.6850220E-009  0.1091279E+03  0.7561462E-02  0.1262193E+00
          2   -1    0    0  501    0  0.00000000000E+00  0.00000000000E+00  0.30423504664E+03  0.30423504664E+03  0.00000000000E+00 0. -1.
         -2   -1    0    0    0  501 -0.00000000000E+00 -0.00000000000E+00 -0.50995212918E+02  0.50995212918E+02  0.00000000000E+00 0.  1.
         25    2    1    2    0    0 -0.86151492290E+01  0.37747832309E+02  0.77091114216E+02  0.15195210594E+03  0.12508910012E+03 0.  0.
         23    2    1    2    0    0  0.86151492290E+01 -0.37747832309E+02  0.17614871950E+03  0.20327815361E+03  0.93779084634E+02 0.  0.
          5    1    3    3  502    0 -0.53559024379E+02 -0.14314286293E+02  0.58237774230E+02  0.80514462252E+02  0.41800000000E+01 0. -1.
         -5    1    3    3    0  502  0.44943875150E+02  0.52062118603E+02  0.18853339986E+02  0.71437643687E+02  0.41800000000E+01 0. -1.
        -11    1    4    4    0    0 -0.38498563664E+02 -0.20225252095E+02  0.12139670572E+03  0.12895099994E+03  0.00000000000E+00 0. -1.
         11    1    4    4    0    0  0.47113712893E+02 -0.17522580215E+02  0.54752013782E+02  0.74327153673E+02  0.00000000000E+00 0.  1.
</event>
<event>
 8    1  0.6850220E-009  0.1690838E+03  0.7561462E-02  0.1178807E+00
          1   -1    0    0  501    0  0.00000000000E+00  0.00000000000E+00  0.50370976218E+03  0.50370976218E+03  0.00000000000E+00 0. -1.
         -1   -1    0    0    0  501 -0.00000000000E+00 -0.00000000000E+00 -0.73872823521E+02  0.73872823521E+02  0.00000000000E+00 0.  1.
         25    2    1    2    0    0  0.10698557088E+03 -0.11628064886E+03  0.25339753735E+03  0.32376907440E+03  0.12509596285E+03 0.  0.
         23    2    1    2    0    0 -0.10698557088E+03  0.11628064886E+03  0.17643940131E+03  0.25381351131E+03  0.91232310677E+02 0.  0.
          5    1    3    3  502    0  0.51341532633E+02 -0.91094142647E+02  0.59382509353E+02  0.12032394032E+03  0.41800000000E+01 0. -1.
         -5    1    3    3    0  502  0.55644038248E+02 -0.25186506216E+02  0.19401502800E+03  0.20344513407E+03  0.41800000000E+01 0. -1.
        -11    1    4    4    0    0 -0.33502301342E+02  0.86940052528E+02  0.52998796327E+02  0.10719071481E+03  0.00000000000E+00 0.  1.
         11    1    4    4    0    0 -0.73483269539E+02  0.29340596335E+02  0.12344060498E+03  0.14662279650E+03  0.00000000000E+00 0. -1.
</event>
<event>
 8    1  0.6850220E-009  0.1069945E+03  0.7561462E-02  0.1266239E+00
          3   -1    0    0  501    0  0.00000000000E+00  0.00000000000E+00  0.42351770765E+03  0.42351770765E+03  0.00000000000E+00 0. -1.
         -3   -1    0    0    0  501 -0.00000000000E+00 -0.00000000000E+00 -0.34473157226E+02  0.34473157226E+02  0.00000000000E+00 0.  1.
         25    2    1    2    0    0  0.91105613775E+01  0.53261151434E+02  0.20385068944E+03  0.24519384507E+03  0.12508063598E+03 0.  0.
         23    2    1    2    0    0 -0.91105613775E+01 -0.53261151434E+02  0.18519386099E+03  0.21279701981E+03  0.89811207038E+02 0.  0.
          5    1    3    3  502    0 -0.10769870836E+02  0.90751515048E+02  0.11774131645E+03  0.14910505558E+03  0.41800000000E+01 0. -1.
         -5    1    3    3    0  502  0.19880432214E+02 -0.37490363614E+02  0.86109372988E+02  0.96088789488E+02  0.41800000000E+01 0. -1.
        -11    1    4    4    0    0  0.22115758722E+02 -0.54803721108E+01  0.43986572843E+01  0.23205375417E+02  0.00000000000E+00 0.  1.
         11    1    4    4    0    0 -0.31226320099E+02 -0.47780779323E+02  0.18079520371E+03  0.18959164439E+03  0.00000000000E+00 0. -1.
</event>
<event>
 8    1  0.6850220E-009  0.1812395E+03  0.7561462E-02  0.1166609E+00
         -2   -1    0    0    0  501 -0.00000000000E+00  0.00000000000E+00  0.56840360276E+02  0.56840360276E+02  0.00000000000E+00 0. -1.
          2   -1    0    0  501    0  0.00000000000E+00 -0.00000000000E+00 -0.61281879703E+03  0.61281879703E+03  0.00000000000E+00 0.  1.
         25    2    1    2    0    0  0.50662678450E+00 -0.14900173950E+03 -0.33951759349E+03  0.39130666585E+03  0.12508771085E+03 0.  0.
         23    2    1    2    0    0 -0.50662678450E+00  0.14900173950E+03 -0.21646084326E+03  0.27835249145E+03  0.91777109276E+02 0.  0.
          5    1    3    3  502    0  0.56858812733E+02 -0.59351542817E+02 -0.19869787713E+03  0.21506708023E+03  0.41800000000E+01 0. -1.
         -5    1    3    3    0  502 -0.56352185949E+02 -0.89650196683E+02 -0.14081971636E+03  0.17623958562E+03  0.41800000000E+01 0. -1.
        -11    1    4    4    0    0 -0.45175839789E+02  0.83265459114E+02 -0.13079165953E+03  0.16149443144E+03  0.00000000000E+00 0.  1.
         11    1    4    4    0    0  0.44669213004E+02  0.65736280385E+02 -0.85669183728E+02  0.11685806001E+03  0.00000000000E+00 0. -1.
</event>
<event>
 8    1  0.6850220E-009  0.1336363E+03  0.7561462E-02  0.1222158E+00
          1   -1    0    0  501    0  0.00000000000E+00  0.00000000000E+00  0.92621147918E+02  0.92621147918E+02  0.00000000000E+00 0.  1.
         -1   -1    0    0    0  501 -0.00000000000E+00 -0.00000000000E+00 -0.38160171560E+03  0.38160171560E+03  0.00000000000E+00 0. -1.
         25    2    1    2    0    0 -0.64453196018E+02 -0.82086867135E+02 -0.29087262124E+03  0.33338614365E+03  0.12508785215E+03 0.  0.
         23    2    1    2    0    0  0.64453196018E+02  0.82086867135E+02  0.18920535553E+01  0.14083671987E+03  0.94545933626E+02 0.  0.
          5    1    3    3  502    0 -0.30921935761E+02 -0.11288109336E+03 -0.21375945967E+03  0.24373938202E+03  0.41800000000E+01 0. -1.
         -5    1    3    3    0  502 -0.33531260257E+02  0.30794226223E+02 -0.77113161577E+02  0.89646761634E+02  0.41800000000E+01 0. -1.
        -11    1    4    4    0    0  0.34836946791E+02  0.41194691259E+02 -0.46259028855E+02  0.71066962790E+02  0.00000000000E+00 0. -1.
         11    1    4    4    0    0  0.29616249227E+02  0.40892175876E+02  0.48151082411E+02  0.69769757083E+02  0.00000000000E+00 0.  1.
</event>
<event>
 8    1  0.6850220E-009  0.2219036E+03  0.7561462E-02  0.1132472E+00
         -4   -1    0    0    0  501 -0.00000000000E+00  0.00000000000E+00  0.12797192508E+03  0.12797192508E+03  0.00000000000E+00 0.  1.
          4   -1    0    0  501    0  0.00000000000E+00 -0.00000000000E+00 -0.43383590910E+03  0.43383590910E+03  0.00000000000E+00 0. -1.
         25    2    1    2    0    0  0.17585964027E+03 -0.77773061047E+02 -0.70040709187E+02  0.23985037723E+03  0.12508893003E+03 0.  0.
         23    2    1    2    0    0 -0.17585964027E+03  0.77773061047E+02 -0.23582327483E+03  0.32195745695E+03  0.10520800840E+03 0.  0.
          5    1    3    3  502    0 -0.17115164474E+02 -0.38102827716E+01 -0.20486729038E+02  0.27287828357E+02  0.41800000000E+01 0. -1.
         -5    1    3    3    0  502  0.19297480474E+03 -0.73962778275E+02 -0.49553980149E+02  0.21256254888E+03  0.41800000000E+01 0. -1.
        -11    1    4    4    0    0 -0.64522984446E+02  0.85910577362E+02 -0.11047994579E+03  0.15410925101E+03  0.00000000000E+00 0. -1.
         11    1    4    4    0    0 -0.11133665582E+03 -0.81375163154E+01 -0.12534332904E+03  0.16784820594E+03  0.00000000000E+00 0.  1.
</event>
<event>
 8    1  0.6850220E-009  0.8998353E+02  0.7561462E-02  0.1302892E+00
         -2   -1    0    0    0  501 -0.00000000000E+00  0.00000000000E+00  0.42648292246E+03  0.42648292246E+03  0.00000000000E+00 0.  1.
          2   -1    0    0  501    0  0.00000000000E+00 -0.00000000000E+00 -0.42701939555E+02  0.42701939555E+02  0.00000000000E+00 0. -1.
         25    2    1    2    0    0 -0.61138416017E+01 -0.33798188070E+01  0.71659928904E+02  0.14433202011E+03  0.12509110434E+03 0.  0.
         23    2    1    2    0    0  0.61138416017E+01  0.33798188070E+01  0.31212105400E+03  0.32485284191E+03  0.89783151584E+02 0.  0.
          5    1    3    3  502    0 -0.41767129109E+02 -0.28517165994E+02  0.84586948473E+02  0.98641502839E+02  0.41800000000E+01 0.  1.
         -5    1    3    3    0  502  0.35653287507E+02  0.25137347187E+02 -0.12927019569E+02  0.45690517272E+02  0.41800000000E+01 0.  1.
        -11    1    4    4    0    0  0.35208126402E+02  0.29777506962E+02  0.11586845351E+03  0.12470689878E+03  0.00000000000E+00 0. -1.
         11    1    4    4    0    0 -0.29094284801E+02 -0.26397688155E+02  0.19625260049E+03  0.20014594312E+03  0.00000000000E+00 0.  1.
</event>
<event>
 8    1  0.6850220E-009  0.1381081E+03  0.7561462E-02  0.1215898E+00
          1   -1    0    0  501    0  0.00000000000E+00  0.00000000000E+00  0.23441153741E+03  0.23441153741E+03  0.00000000000E+00 0. -1.
         -1   -1    0    0    0  501 -0.00000000000E+00 -0.00000000000E+00 -0.12827428883E+03  0.12827428883E+03  0.00000000000E+00 0.  1.
         25    2    1    2    0    0  0.97585632074E+02  0.56142312781E+02 -0.26377591672E+02  0.17034785313E+03  0.12509076245E+03 0.  0.
         23    2    1    2    0    0 -0.97585632074E+02 -0.56142312781E+02  0.13251484025E+03  0.19233797311E+03  0.82211909969E+02 0.  0.
          5    1    3    3  502    0 -0.94628742975E+01 -0.25100658909E+02 -0.23434082266E+02  0.35863877081E+02  0.41800000000E+01 0.  1.
         -5    1    3    3    0  502  0.10704850637E+03  0.81242971690E+02 -0.29435094063E+01  0.13448397605E+03  0.41800000000E+01 0.  1.
        -11    1    4    4    0    0 -0.58393378489E+02 -0.21244148284E+02  0.15421440744E+02  0.64022818762E+02  0.00000000000E+00 0.  1.
         11    1    4    4    0    0 -0.39192253586E+02 -0.34898164497E+02  0.11709339951E+03  0.12831515435E+03  0.00000000000E+00 0. -1.
</event>
<event>
 8    1  0.6850220E-009  0.1638176E+03  0.7561462E-02  0.1184453E+00
          2   -1    0    0  501    0  0.00000000000E+00  0.00000000000E+00  0.67934797967E+03  0.67934797967E+03  0.00000000000E+00 0. -1.
         -2   -1    0    0    0  501 -0.00000000000E+00 -0.00000000000E+00 -0.42733423161E+02  0.42733423161E+02  0.00000000000E+00 0.  1.
         25    2    1    2    0    0 -0.63308758963E+02 -0.11023825060E+03  0.27079117390E+03  0.32424397587E+03  0.12508327295E+03 0.  0.
         23    2    1    2    0    0  0.63308758963E+02  0.11023825060E+03  0.36582338261E+03  0.39783742696E+03  0.91035158970E+02 0.  0.
          5    1    3    3  502    0 -0.10046177218E+03 -0.87080316383E+02  0.18523079254E+03  0.22804268916E+03  0.41800000000E+01 0. -1.
         -5    1    3    3    0  502  0.37153013218E+02 -0.23157934214E+02  0.85560381351E+02  0.96201286713E+02  0.41800000000E+01 0. -1.
        -11    1    4    4    0    0  0.75535039714E+02  0.11494357563E+03  0.29089452878E+03  0.32177196068E+03  0.00000000000E+00 0.  1.
         11    1    4    4    0    0 -0.12226280751E+02 -0.47053250294E+01  0.74928853832E+02  0.76065466286E+02  0.00000000000E+00 0. -1.
</event>
<event>
 8    1  0.6850220E-009  0.9710469E+02  0.7561462E-02  0.1286505E+00
         -1   -1    0    0    0  501 -0.00000000000E+00  0.00000000000E+00  0.83128056920E+02  0.83128056920E+02  0.00000000000E+00 0.  1.
          1   -1    0    0  501    0  0.00000000000E+00 -0.00000000000E+00 -0.23611160328E+03  0.23611160328E+03  0.00000000000E+00 0. -1.
         25    2    1    2    0    0  0.22563809808E+02  0.73244890673E+02 -0.32415229983E+02  0.15024706498E+03  0.12509793714E+03 0.  0.
         23    2    1    2    0    0 -0.22563809808E+02 -0.73244890673E+02 -0.12056831638E+03  0.16899259522E+03  0.90265379872E+02 0.  0.
          5    1    3    3  502    0  0.28654573971E+01  0.21920602664E+02  0.47847132615E+02  0.52872905790E+02  0.41800000000E+01 0. -1.
         -5    1    3    3    0  502  0.19698352411E+02  0.51324288010E+02 -0.80262362598E+02  0.97374159186E+02  0.41800000000E+01 0. -1.
        -11    1    4    4    0    0 -0.18585508320E+02  0.17628941985E+02 -0.15171642395E+02  0.29772125352E+02  0.00000000000E+00 0.  1.
         11    1    4    4    0    0 -0.39783014887E+01 -0.90873832658E+02 -0.10539667398E+03  0.13922046987E+03  0.00000000000E+00 0. -1.
</event>
<event>
 8    1  0.6850220E-009  0.9948185E+02  0.7561462E-02  0.1281389E+00
         -1   -1    0    0    0  501 -0.00000000000E+00  0.00000000000E+00  0.15393716527E+03  0.15393716527E+03  0.00000000000E+00 0.  1.
          1   -1    0    0  501    0  0.00000000000E+00 -0.00000000000E+00 -0.10619262717E+03  0.10619262717E+03  0.00000000000E+00 0. -1.
         25    2    1    2    0    0 -0.47540055529E+02 -0.45677493272E+02  0.32107432986E+02  0.14500013810E+03  0.12509061726E+03 0.  0.
         23    2    1    2    0    0  0.47540055529E+02  0.45677493272E+02  0.15637105118E+02  0.11512965434E+03  0.93079686184E+02 0.  0.
          5    1    3    3  502    0 -0.53490103189E+02 -0.57403151048E+02  0.69651836234E+02  0.10500077895E+03  0.41800000000E+01 0.  1.
         -5    1    3    3    0  502  0.59500476602E+01  0.11725657776E+02 -0.37544403248E+02  0.39999359153E+02  0.41800000000E+01 0.  1.
        -11    1    4    4    0    0  0.41816723108E+02  0.70036534895E+02  0.29234937773E+02  0.86651232756E+02  0.00000000000E+00 0.  1.
         11    1    4    4    0    0  0.57233324210E+01 -0.24359041624E+02 -0.13597832655E+02  0.28478421581E+02  0.00000000000E+00 0. -1.
</event>
<event>
 8    1  0.6850220E-009  0.1166033E+03  0.7561462E-02  0.1248808E+00
         -2   -1    0    0    0  501 -0.00000000000E+00  0.00000000000E+00  0.84484763251E+02  0.84484763251E+02  0.00000000000E+00 0.  1.
          2   -1    0    0  501    0  0.00000000000E+00 -0.00000000000E+00 -0.19808736801E+03  0.19808736801E+03  0.00000000000E+00 0. -1.
         25    2    1    2    0    0  0.69727866344E+02  0.70511749671E+01 -0.73626708777E+02  0.16118756851E+03  0.12509534597E+03 0.  0.
         23    2    1    2    0    0 -0.69727866344E+02 -0.70511749671E+01 -0.39975895983E+02  0.12138456275E+03  0.90688728080E+02 0.  0.
          5    1    3    3  502    0 -0.25346370890E+02 -0.10182035509E+02  0.13735282827E+02  0.30858430918E+02  0.41800000000E+01 0. -1.
         -5    1    3    3    0  502  0.95074237235E+02  0.17233210476E+02 -0.87361991604E+02  0.13032913759E+03  0.41800000000E+01 0. -1.
        -11    1    4    4    0    0 -0.35918662672E+02  0.38159790166E+02 -0.34149529025E+00  0.52406455067E+02  0.00000000000E+00 0.  1.
         11    1    4    4    0    0 -0.33809203673E+02 -0.45210965133E+02 -0.39634400693E+02  0.68978107683E+02  0.00000000000E+00 0. -1.
</event>
<event>
 8    1  0.6850220E-009  0.1289495E+03  0.7561462E-02  0.1229023E+00
          1   -1    0    0  501    0  0.00000000000E+00  0.00000000000E+00  0.19332361538E+02  0.19332361538E+02  0.00000000000E+00 0. -1.
         -1   -1    0    0    0  501 -0.00000000000E+00 -0.00000000000E+00 -0.94845512703E+03  0.94845512703E+03  0.00000000000E+00 0.  1.
         25    2    1    2    0    0  0.62774425323E+02 -0.47674202692E+02 -0.47839620941E+03  0.50072363947E+03  0.12509105432E+03 0.  0.
         23    2    1    2    0    0 -0.62774425323E+02  0.47674202692E+02 -0.45072655608E+03  0.46706384910E+03  0.93705670581E+02 0.  0.
          5    1    3    3  502    0  0.66483394419E+02 -0.85868085190E+02 -0.37158581156E+03  0.38715224078E+03  0.41800000000E+01 0.  1.
         -5    1    3    3    0  502 -0.37089690959E+01  0.38193882498E+02 -0.10681039785E+03  0.11357139869E+03  0.41800000000E+01 0.  1.
        -11    1    4    4    0    0 -0.22672301307E+02  0.63563212830E+02 -0.36399256376E+03  0.37019576138E+03  0.00000000000E+00 0. -1.
         11    1    4    4    0    0 -0.40102124016E+02 -0.15889010138E+02 -0.86733992325E+02  0.96868087719E+02  0.00000000000E+00 0.  1.
</event>
<event>
 8    1  0.6850220E-009  0.8693672E+02  0.7561462E-02  0.1310444E+00
          1   -1    0    0  501    0  0.00000000000E+00  0.00000000000E+00  0.17478868106E+03  0.17478868106E+03  0.00000000000E+00 0. -1.
         -1   -1    0    0    0  501 -0.00000000000E+00 -0.00000000000E+00 -0.15207994751E+03  0.15207994751E+03  0.00000000000E+00 0.  1.
         25    2    1    2    0    0 -0.34563537066E+02  0.56217453491E+02 -0.89713768824E+02  0.16748038716E+03  0.12508428997E+03 0.  0.
         23    2    1    2    0    0  0.34563537066E+02 -0.56217453491E+02  0.11242250238E+03  0.15938824141E+03  0.91710153677E+02 0.  0.
          5    1    3    3  502    0  0.37726161467E+01 -0.19632930045E+01  0.29086788690E+02  0.29691763644E+02  0.41800000000E+01 0. -1.
         -5    1    3    3    0  502 -0.38336153213E+02  0.58180746496E+02 -0.11880055751E+03  0.13778862352E+03  0.41800000000E+01 0. -1.
        -11    1    4    4    0    0  0.23625098515E+02  0.13721262688E+02  0.73917005258E+02  0.78804454163E+02  0.00000000000E+00 0. -1.
         11    1    4    4    0    0  0.10938438550E+02 -0.69938716179E+02  0.38505497120E+02  0.80583787248E+02  0.00000000000E+00 0.  1.
</event>
<event>
 8    1  0.6850220E-009  0.8819478E+02  0.7561462E-02  0.1307283E+00
          1   -1    0    0  501    0  0.00000000000E+00  0.00000000000E+00  0.15195127006E+03  0.15195127006E+03  0.00000000000E+00 0. -1.
         -1   -1    0    0    0  501 -0.00000000000E+00 -0.00000000000E+00 -0.17130913924E+03  0.17130913924E+03  0.00000000000E+00 0.  1.
         25    2    1    2    0    0  0.39055611377E+01 -0.60617089387E+02  0.91009627490E+02  0.16618996722E+03  0.12508664188E+03 0.  0.
         23    2    1    2    0    0 -0.39055611377E+01  0.60617089387E+02 -0.11036749667E+03  0.15707044207E+03  0.93810737747E+02 0.  0.
          5    1    3    3  502    0 -0.14283516983E+02 -0.29964441557E+02 -0.26906367052E+02  0.42933804900E+02  0.41800000000E+01 0. -1.
         -5    1    3    3    0  502  0.18189078121E+02 -0.30652647830E+02  0.11791599454E+03  0.12325616232E+03  0.41800000000E+01 0. -1.
        -11    1    4    4    0    0  0.22407443850E+02 -0.15010842519E+02 -0.49926171408E+02  0.56745409721E+02  0.00000000000E+00 0.  1.
         11    1    4    4    0    0 -0.26313004988E+02  0.75627931906E+02 -0.60441325264E+02  0.10032503235E+03  0.00000000000E+00 0. -1.
</event>
<event>
 8    1  0.6850220E-009  0.7421742E+02  0.7561462E-02  0.1346312E+00
          2   -1    0    0  501    0  0.00000000000E+00  0.00000000000E+00  0.50653903591E+03  0.50653903591E+03  0.00000000000E+00 0. -1.
         -2   -1    0    0    0  501 -0.00000000000E+00 -0.00000000000E+00 -0.27269226926E+02  0.27269226926E+02  0.00000000000E+00 0.  1.
         25    2    1    2    0    0 -0.22514208287E+02 -0.31066345878E+02  0.31229972431E+03  0.33860110072E+03  0.12509028813E+03 0.  0.
         23    2    1    2    0    0  0.22514208287E+02  0.31066345878E+02  0.16697008467E+03  0.19520716211E+03  0.93567192668E+02 0.  0.
          5    1    3    3  502    0  0.37695842493E+01  0.99075162263E+00 -0.11123149628E+02  0.12505527252E+02  0.41800000000E+01 0.  1.
         -5    1    3    3    0  502 -0.26283792536E+02 -0.32057097501E+02  0.32342287394E+03  0.32609557347E+03  0.41800000000E+01 0.  1.
        -11    1    4    4    0    0  0.16855418510E+02 -0.32832182870E+02  0.64584912475E+02  0.74385941444E+02  0.00000000000E+00 0. -1.
         11    1    4    4    0    0  0.56587897768E+01  0.63898528748E+02  0.10238517219E+03  0.12082122067E+03  0.00000000000E+00 0.  1.
</event>
<event>
 8    1  0.6850220E-009  0.9895466E+02  0.7561462E-02  0.1282510E+00
         -2   -1    0    0    0  501 -0.00000000000E+00  0.00000000000E+00  0.17034231554E+03  0.17034231554E+03  0.00000000000E+00 0.  1.
          2   -1    0    0  501    0  0.00000000000E+00 -0.00000000000E+00 -0.81553616374E+02  0.81553616374E+02  0.00000000000E+00 0. -1.
         25    2    1    2    0    0  0.11432738139E+02 -0.41236561447E+02  0.42933287542E+02  0.13898652264E+03  0.12507127886E+03 0.  0.
         23    2    1    2    0    0 -0.11432738139E+02  0.41236561447E+02  0.45855411623E+02  0.11290940927E+03  0.93886391054E+02 0.  0.
          5    1    3    3  502    0  0.50057336806E+02 -0.22869373948E+02  0.69281946299E+02  0.88578810761E+02  0.41800000000E+01 0.  1.
         -5    1    3    3    0  502 -0.38624598667E+02 -0.18367187500E+02 -0.26348658758E+02  0.50407711882E+02  0.41800000000E+01 0.  1.
        -11    1    4    4    0    0  0.24115736334E+02 -0.18387925408E+02  0.11617572542E+01  0.30348545593E+02  0.00000000000E+00 0. -1.
         11    1    4    4    0    0 -0.35548474472E+02  0.59624486855E+02  0.44693654369E+02  0.82560863676E+02  0.00000000000E+00 0.  1.
</event>
<event>
 8    1  0.6850220E-009  0.2755178E+03  0.7561462E-02  0.1098163E+00
          2   -1    0    0  501    0  0.00000000000E+00  0.00000000000E+00  0.18394379361E+04  0.18394379361E+04  0.00000000000E+00 0. -1.
         -2   -1    0    0    0  501 -0.00000000000E+00 -0.00000000000E+00 -0.42083029492E+02  0.42083029492E+02  0.00000000000E+00 0.  1.
         25    2    1    2    0    0 -0.25148313226E+03 -0.31802037025E+02  0.10226490921E+04  0.10609962697E+04  0.12508710366E+03 0.  0.
         23    2    1    2    0    0  0.25148313226E+03  0.31802037025E+02  0.77470581452E+03  0.82052469585E+03  0.94002883274E+02 0.  0.
          5    1    3    3  502    0 -0.46074651042E+02  0.43519778762E+02  0.25212900484E+03  0.26000644625E+03  0.41800000000E+01 0. -1.
         -5    1    3    3    0  502 -0.20540848122E+03 -0.75321815787E+02  0.77052008722E+03  0.80098982347E+03  0.41800000000E+01 0. -1.
        -11    1    4    4    0    0  0.16302892365E+03  0.63177638587E+02  0.45938985769E+03  0.49153726748E+03  0.00000000000E+00 0.  1.
         11    1    4    4    0    0  0.88454208608E+02 -0.31375601562E+02  0.31531595683E+03  0.32898742837E+03  0.00000000000E+00 0. -1.
</event>
<event>
 8    1  0.6850220E-009  0.1826119E+03  0.7561462E-02  0.1165299E+00
         -1   -1    0    0    0  501 -0.00000000000E+00  0.00000000000E+00  0.11863341832E+03  0.11863341832E+03  0.00000000000E+00 0.  1.
          1   -1    0    0  501    0  0.00000000000E+00 -0.00000000000E+00 -0.32735730851E+03  0.32735730851E+03  0.00000000000E+00 0. -1.
         25    2    1    2    0    0 -0.16091931862E+03  0.70993243664E+01 -0.14533908179E+03  0.25043241127E+03  0.12509003320E+03 0.  0.
         23    2    1    2    0    0  0.16091931862E+03 -0.70993243664E+01 -0.63384808389E+02  0.19555831556E+03  0.90994468722E+02 0.  0.
          5    1    3    3  502    0 -0.24720521820E+02 -0.48498496228E+02 -0.56301889374E+02  0.78425655768E+02  0.41800000000E+01 0. -1.
         -5    1    3    3    0  502 -0.13619879680E+03  0.55597820595E+02 -0.89037192418E+02  0.17200675550E+03  0.41800000000E+01 0. -1.
        -11    1    4    4    0    0  0.10702851601E+03  0.84737865235E+01  0.45462886393E+01  0.10745965307E+03  0.00000000000E+00 0.  1.
         11    1    4    4    0    0  0.53890802608E+02 -0.15573110890E+02 -0.67931097028E+02  0.88098662487E+02  0.00000000000E+00 0. -1.
</event>
<event>
 8    1  0.6850220E-009  0.8063282E+02  0.7561462E-02  0.1327265E+00
         -3   -1    0    0    0  501 -0.00000000000E+00  0.00000000000E+00  0.47099370256E+03  0.47099370256E+03  0.00000000000E+00 0.  1.
          3   -1    0    0  501    0  0.00000000000E+00 -0.00000000000E+00 -0.30894375213E+02  0.30894375213E+02  0.00000000000E+00 0. -1.
         25    2    1    2    0    0 -0.44956071374E+02  0.10345247732E+02  0.31468860286E+03  0.34176692326E+03  0.12509052947E+03 0.  0.
         23    2    1    2    0    0  0.44956071374E+02 -0.10345247732E+02  0.12541072449E+03  0.16012115451E+03  0.88220529363E+02 0.  0.
          5    1    3    3  502    0 -0.20594212652E+02 -0.26253177669E+02  0.11742938942E+02  0.35619095264E+02  0.41800000000E+01 0. -1.
         -5    1    3    3    0  502 -0.24361858722E+02  0.36598425401E+02  0.30294566391E+03  0.30614782800E+03  0.41800000000E+01 0. -1.
        -11    1    4    4    0    0 -0.37908586583E+01  0.23709218921E+02  0.84747681135E+02  0.88083296538E+02  0.00000000000E+00 0.  1.
         11    1    4    4    0    0  0.48746930032E+02 -0.34054466653E+02  0.40663043354E+02  0.72037857974E+02  0.00000000000E+00 0. -1.
</event>
<event>
 8    1  0.6850220E-009  0.9340469E+02  0.7561462E-02  0.1294810E+00
          4   -1    0    0  501    0  0.00000000000E+00  0.00000000000E+00  0.62370865876E+03  0.62370865876E+03  0.00000000000E+00 0.  1.
         -4   -1    0    0    0  501 -0.00000000000E+00 -0.00000000000E+00 -0.26370787329E+02  0.26370787329E+02  0.00000000000E+00 0. -1.
         25    2    1    2    0    0 -0.24250542923E+02 -0.26763663910E+00  0.50128409558E+03  0.51722466773E+03  0.12508977559E+03 0.  0.
         23    2    1    2    0    0  0.24250542923E+02  0.26763663910E+00  0.96053775851E+02  0.13285477837E+03  0.88520640633E+02 0.  0.
          5    1    3    3  502    0 -0.13025134651E+01 -0.61128292256E+02  0.21142626611E+03  0.22012928714E+03  0.41800000000E+01 0.  1.
         -5    1    3    3    0  502 -0.22948029458E+02  0.60860655617E+02  0.28985782948E+03  0.29709538059E+03  0.41800000000E+01 0.  1.
        -11    1    4    4    0    0  0.37865193713E+02 -0.14237433363E+02  0.63222144783E+01  0.40944447727E+02  0.00000000000E+00 0. -1.
         11    1    4    4    0    0 -0.13614650790E+02  0.14505070002E+02  0.89731561372E+02  0.91910330639E+02  0.00000000000E+00 0.  1.
</event>
<event>
 8    1  0.6850220E-009  0.1230508E+03  0.7561462E-02  0.1238147E+00
          2   -1    0    0  501    0  0.00000000000E+00  0.00000000000E+00  0.69571465395E+03  0.69571465395E+03  0.00000000000E+00 0. -1.
         -2   -1    0    0    0  501 -0.00000000000E+00 -0.00000000000E+00 -0.24667231423E+02  0.24667231423E+02  0.00000000000E+00 0.  1.
         25    2    1    2    0    0  0.31694509475E+02 -0.23475459182E+02  0.25608440156E+03  0.28771947339E+03  0.12509050937E+03 0.  0.
         23    2    1    2    0    0 -0.31694509475E+02  0.23475459182E+02  0.41496302097E+03  0.43266241198E+03  0.11596040209E+03 0.  0.
          5    1    3    3  502    0  0.68491119122E+02  0.19414786093E+02  0.17329669219E+03  0.18739579302E+03  0.41800000000E+01 0. -1.
         -5    1    3    3    0  502 -0.36796609647E+02 -0.42890245275E+02  0.82787709360E+02  0.10032368037E+03  0.41800000000E+01 0. -1.
        -11    1    4    4    0    0  0.32811698271E+02 -0.21729357279E+02  0.19726348251E+03  0.20115082412E+03  0.00000000000E+00 0. -1.
         11    1    4    4    0    0 -0.64506207746E+02  0.45204816461E+02  0.21769953846E+03  0.23151158786E+03  0.00000000000E+00 0.  1.
</event>
<event>
 8    1  0.6850220E-009  0.1205839E+03  0.7561462E-02  0.1242137E+00
         -2   -1    0    0    0  501 -0.00000000000E+00  0.00000000000E+00  0.13087997226E+02  0.13087997226E+02  0.00000000000E+00 0.  1.
          2   -1    0    0  501    0  0.00000000000E+00 -0.00000000000E+00 -0.11586804413E+04  0.11586804413E+04  0.00000000000E+00 0. -1.
         25    2    1    2    0    0  0.12911069708E+02  0.57123582850E+02 -0.63523666946E+03  0.65007930580E+03  0.12509067980E+03 0.  0.
         23    2    1    2    0    0 -0.12911069708E+02 -0.57123582850E+02 -0.51035577459E+03  0.52168913269E+03  0.90921587515E+02 0.  0.
          5    1    3    3  502    0  0.66738625355E+02  0.26171119165E+02 -0.41721709856E+03  0.42335156942E+03  0.41800000000E+01 0. -1.
         -5    1    3    3    0  502 -0.53827555646E+02  0.30952463686E+02 -0.21801957089E+03  0.22672773639E+03  0.41800000000E+01 0. -1.
        -11    1    4    4    0    0  0.36428417436E+02 -0.75862859130E+01 -0.14460570076E+03  0.14931640909E+03  0.00000000000E+00 0.  1.
         11    1    4    4    0    0 -0.49339487144E+02 -0.49537296937E+02 -0.36575007383E+03  0.37237272361E+03  0.00000000000E+00 0. -1.
</event>
<event>
 8    1  0.6850220E-009  0.1028104E+03  0.7561462E-02  0.1274495E+00
         -1   -1    0    0    0  501 -0.00000000000E+00  0.00000000000E+00  0.20285029217E+02  0.20285029217E+02  0.00000000000E+00 0.  1.
          1   -1    0    0  501    0  0.00000000000E+00 -0.00000000000E+00 -0.69299941962E+03  0.69299941962E+03  0.00000000000E+00 0. -1.
         25    2    1    2    0    0  0.18574111609E+02  0.37763968012E+02 -0.39060871004E+03  0.41230289320E+03  0.12508955385E+03 0.  0.
         23    2    1    2    0    0 -0.18574111609E+02 -0.37763968012E+02 -0.28210568037E+03  0.30098155564E+03  0.96099776464E+02 0.  0.
          5    1    3    3  502    0  0.37358729375E+02  0.60390941795E+02 -0.11587262007E+03  0.13596571992E+03  0.41800000000E+01 0. -1.
         -5    1    3    3    0  502 -0.18784617765E+02 -0.22626973782E+02 -0.27473608997E+03  0.27633717328E+03  0.41800000000E+01 0. -1.
        -11    1    4    4    0    0 -0.57076448719E+02 -0.11633970190E+02 -0.16420210051E+03  0.17422801173E+03  0.00000000000E+00 0. -1.
         11    1    4    4    0    0  0.38502337110E+02 -0.26129997822E+02 -0.11790357986E+03  0.12675354391E+03  0.00000000000E+00 0.  1.
</event>
<event>
 8    1  0.6850220E-009  0.1045759E+03  0.7561462E-02  0.1270957E+00
          1   -1    0    0  501    0  0.00000000000E+00  0.00000000000E+00  0.54896704361E+03  0.54896704361E+03  0.00000000000E+00 0. -1.
         -1   -1    0    0    0  501 -0.00000000000E+00 -0.00000000000E+00 -0.25337103578E+02  0.25337103578E+02  0.00000000000E+00 0.  1.
         25    2    1    2    0    0 -0.33333027699E+02 -0.25623712939E+02  0.34007579292E+03  0.36478378878E+03  0.12509197507E+03 0.  0.
         23    2    1    2    0    0  0.33333027699E+02  0.25623712939E+02  0.18355414712E+03  0.20952035841E+03  0.91863976972E+02 0.  0.
          5    1    3    3  502    0  0.46202132392E+02 -0.23503213210E+02  0.14629059381E+03  0.15525929378E+03  0.41800000000E+01 0.  1.
         -5    1    3    3    0  502 -0.79535160090E+02 -0.21204997290E+01  0.19378519911E+03  0.20952449499E+03  0.41800000000E+01 0.  1.
        -11    1    4    4    0    0  0.44704059924E+02 -0.48320486632E+01  0.33729375326E+02  0.56209184551E+02  0.00000000000E+00 0. -1.
         11    1    4    4    0    0 -0.11371032225E+02  0.30455761602E+02  0.14982477179E+03  0.15331117386E+03  0.00000000000E+00 0.  1.
</event>
<event>
 8    1  0.6850220E-009  0.1053398E+03  0.7561462E-02  0.1269452E+00
          1   -1    0    0  501    0  0.00000000000E+00  0.00000000000E+00  0.71727200962E+03  0.71727200962E+03  0.00000000000E+00 0. -1.
         -1   -1    0    0    0  501 -0.00000000000E+00 -0.00000000000E+00 -0.18659017559E+02  0.18659017559E+02  0.00000000000E+00 0.  1.
         25    2    1    2    0    0 -0.40101491136E+01 -0.40030114354E+02  0.43476249315E+03  0.45418441578E+03  0.12508623720E+03 0.  0.
         23    2    1    2    0    0  0.40101491136E+01  0.40030114354E+02  0.26385049891E+03  0.28174661140E+03  0.90252844322E+02 0.  0.
          5    1    3    3  502    0 -0.46043757272E+02 -0.57425488419E+02  0.16694611406E+03  0.18249984028E+03  0.41800000000E+01 0.  1.
         -5    1    3    3    0  502  0.42033608158E+02  0.17395374064E+02  0.26781637909E+03  0.27168457550E+03  0.41800000000E+01 0.  1.
        -11    1    4    4    0    0 -0.18892913637E+02  0.58737441816E+02  0.22258732936E+03  0.23098084000E+03  0.00000000000E+00 0.  1.
         11    1    4    4    0    0  0.22903062751E+02 -0.18707327462E+02  0.41263169554E+02  0.50765771400E+02  0.00000000000E+00 0. -1.
</event>
<event>
 8    1  0.6850220E-009  0.2821707E+03  0.7561462E-02  0.1094509E+00
          2   -1    0    0  501    0  0.00000000000E+00  0.00000000000E+00  0.76170381786E+03  0.76170381786E+03  0.00000000000E+00 0. -1.
         -2   -1    0    0    0  501 -0.00000000000E+00 -0.00000000000E+00 -0.12309735209E+03  0.12309735209E+03  0.00000000000E+00 0.  1.
         25    2    1    2    0    0 -0.17167187671E+03  0.20965129641E+03  0.45917999780E+03  0.54764853975E+03  0.12509098036E+03 0.  0.
         23    2    1    2    0    0  0.17167187671E+03 -0.20965129641E+03  0.17942646797E+03  0.33715263020E+03  0.89739285194E+02 0.  0.
          5    1    3    3  502    0 -0.18578979193E+03  0.19423617641E+03  0.45055053084E+03  0.52465111479E+03  0.41800000000E+01 0.  1.
         -5    1    3    3    0  502  0.14117915220E+02  0.15415119995E+02  0.86294669675E+01  0.22997424959E+02  0.41800000000E+01 0.  1.
        -11    1    4    4    0    0  0.86305649269E+02 -0.13795108921E+03  0.59111158843E+02  0.17312797928E+03  0.00000000000E+00 0.  1.
         11    1    4    4    0    0  0.85366227438E+02 -0.71700207193E+02  0.12031530913E+03  0.16402465092E+03  0.00000000000E+00 0. -1.
</event>
<event>
 8    1  0.6850220E-009  0.1241184E+03  0.7561462E-02  0.1236454E+00
          1   -1    0    0  501    0  0.00000000000E+00  0.00000000000E+00  0.24823034131E+03  0.24823034131E+03  0.00000000000E+00 0. -1.
         -1   -1    0    0    0  501 -0.00000000000E+00 -0.00000000000E+00 -0.74696417417E+02  0.74696417417E+02  0.00000000000E+00 0.  1.
         25    2    1    2    0    0  0.52742012019E+02  0.43752863030E+02  0.14970246545E+03  0.20676963976E+03  0.12508726118E+03 0.  0.
         23    2    1    2    0    0 -0.52742012019E+02 -0.43752863030E+02  0.23831458447E+02  0.11615711897E+03  0.90711107484E+02 0.  0.
          5    1    3    3  502    0 -0.33875262575E+02  0.40704392979E+02  0.37947710508E+02  0.65283092414E+02  0.41800000000E+01 0. -1.
         -5    1    3    3    0  502  0.86617274594E+02  0.30484700514E+01  0.11175475494E+03  0.14148654734E+03  0.41800000000E+01 0. -1.
        -11    1    4    4    0    0  0.21894230493E+02 -0.20948190019E+02 -0.88207668151E+01  0.31559307995E+02  0.00000000000E+00 0.  1.
         11    1    4    4    0    0 -0.74636242512E+02 -0.22804673012E+02  0.32652225262E+02  0.84597810976E+02  0.00000000000E+00 0. -1.
</event>
<event>
 8    1  0.6850220E-009  0.1178747E+03  0.7561462E-02  0.1246645E+00
         -3   -1    0    0    0  501 -0.00000000000E+00  0.00000000000E+00  0.11638968981E+03  0.11638968981E+03  0.00000000000E+00 0.  1.
          3   -1    0    0  501    0  0.00000000000E+00 -0.00000000000E+00 -0.12548313317E+03  0.12548313317E+03  0.00000000000E+00 0. -1.
         25    2    1    2    0    0 -0.37866287938E+02  0.31305466725E+02  0.13857255589E+02  0.13510325113E+03  0.12508787681E+03 0.  0.
         23    2    1    2    0    0  0.37866287938E+02 -0.31305466725E+02 -0.22950698952E+02  0.10676957185E+03  0.91973468358E+02 0.  0.
          5    1    3    3  502    0 -0.32636564855E+02  0.79298399683E+02  0.11085340499E+02  0.86566383381E+02  0.41800000000E+01 0.  1.
         -5    1    3    3    0  502 -0.52297230833E+01 -0.47992932958E+02  0.27719150896E+01  0.48536867747E+02  0.41800000000E+01 0.  1.
        -11    1    4    4    0    0  0.14345953844E+02 -0.61507247951E+02 -0.21306965575E+01  0.63194048850E+02  0.00000000000E+00 0.  1.
         11    1    4    4    0    0  0.23520334094E+02  0.30201781226E+02 -0.20820002394E+02  0.43575523001E+02  0.00000000000E+00 0. -1.
</event>
<event>
 8    1  0.6850220E-009  0.9112667E+02  0.7561462E-02  0.1300146E+00
          2   -1    0    0  501    0  0.00000000000E+00  0.00000000000E+00  0.55155264957E+03  0.55155264957E+03  0.00000000000E+00 0. -1.
         -2   -1    0    0    0  501 -0.00000000000E+00 -0.00000000000E+00 -0.22778820784E+02  0.22778820784E+02  0.00000000000E+00 0.  1.
         25    2    1    2    0    0 -0.15046424659E+02 -0.15516772727E+02  0.34725039826E+03  0.36972619816E+03  0.12508979727E+03 0.  0.
         23    2    1    2    0    0  0.15046424659E+02  0.15516772727E+02  0.18152343052E+03  0.20460527220E+03  0.91898838136E+02 0.  0.
          5    1    3    3  502    0 -0.45625750433E+02 -0.58044343850E+02  0.18748982308E+03  0.20154592805E+03  0.41800000000E+01 0.  1.
         -5    1    3    3    0  502  0.30579325774E+02  0.42527571123E+02  0.15976057518E+03  0.16818027010E+03  0.41800000000E+01 0.  1.
        -11    1    4    4    0    0 -0.59433758787E+01 -0.16464493319E+02 -0.15546729924E+01  0.17573282709E+02  0.00000000000E+00 0.  1.
         11    1    4    4    0    0  0.20989800538E+02  0.31981266046E+02  0.18307810352E+03  0.18703198949E+03  0.00000000000E+00 0. -1.
</event>
<event>
 8    1  0.6850220E-009  0.1147555E+03  0.7561462E-02  0.1252009E+00
          2   -1    0    0  501    0  0.00000000000E+00  0.00000000000E+00  0.22563773618E+03  0.22563773618E+03  0.00000000000E+00 0. -1.
         -2   -1    0    0    0  501 -0.00000000000E+00 -0.00000000000E+00 -0.65143563609E+02  0.65143563609E+02  0.00000000000E+00 0.  1.
         25    2    1    2    0    0 -0.36639389499E+02  0.40354479885E+02  0.98116150158E+02  0.16806382020E+03  0.12509092624E+03 0.  0.
         23    2    1    2    0    0  0.36639389499E+02 -0.40354479885E+02  0.62378022412E+02  0.12271747959E+03  0.90540782011E+02 0.  0.
          5    1    3    3  502    0 -0.75295676717E+02  0.41016548161E+02  0.32501267787E+02  0.91791072349E+02  0.41800000000E+01 0.  1.
         -5    1    3    3    0  502  0.38656287217E+02 -0.66206827662E+00  0.65614882371E+02  0.76272747848E+02  0.41800000000E+01 0.  1.
        -11    1    4    4    0    0  0.23142819204E+02  0.27301280697E+02  0.13879483845E+02  0.38387368758E+02  0.00000000000E+00 0. -1.
         11    1    4    4    0    0  0.13496570295E+02 -0.67655760582E+02  0.48498538567E+02  0.84330110831E+02  0.00000000000E+00 0.  1.
</event>
<event>
 8    1  0.6850220E-009  0.1023276E+03  0.7561462E-02  0.1275476E+00
          1   -1    0    0  501    0  0.00000000000E+00  0.00000000000E+00  0.56731218447E+03  0.56731218447E+03  0.00000000000E+00 0. -1.
         -1   -1    0    0    0  501 -0.00000000000E+00 -0.00000000000E+00 -0.41458063464E+02  0.41458063464E+02  0.00000000000E+00 0.  1.
         25    2    1    2    0    0 -0.76706214505E+02 -0.54919690521E+02  0.16334682780E+03  0.22634178236E+03  0.12509356712E+03 0.  0.
         23    2    1    2    0    0  0.76706214505E+02  0.54919690521E+02  0.36250729320E+03  0.38242846558E+03  0.77071252152E+02 0.  0.
          5    1    3    3  502    0 -0.28860690102E+02  0.51823367636E+01  0.14399652863E+03  0.14701111762E+03  0.41800000000E+01 0. -1.
         -5    1    3    3    0  502 -0.47845524404E+02 -0.60102027285E+02  0.19350299176E+02  0.79330664736E+02  0.41800000000E+01 0. -1.
        -11    1    4    4    0    0  0.63993564602E+02  0.31208729954E+02  0.33993090426E+03  0.34730704112E+03  0.00000000000E+00 0. -1.
         11    1    4    4    0    0  0.12712649903E+02  0.23710960568E+02  0.22576388937E+02  0.35121424459E+02  0.00000000000E+00 0.  1.
</event>
<event>
 8    1  0.6850220E-009  0.1014796E+03  0.7561462E-02  0.1277215E+00
          2   -1    0    0  501    0  0.00000000000E+00  0.00000000000E+00  0.10040554672E+04  0.10040554672E+04  0.00000000000E+00 0. -1.
         -2   -1    0    0    0  501 -0.00000000000E+00 -0.00000000000E+00 -0.14804946354E+02  0.14804946354E+02  0.00000000000E+00 0.  1.
         25    2    1    2    0    0 -0.40753029812E+01  0.33948822206E+01  0.81577412943E+03  0.82532720536E+03  0.12509769115E+03 0.  0.
         23    2    1    2    0    0  0.40753029812E+01 -0.33948822206E+01  0.17347639145E+03  0.19353320823E+03  0.85632417805E+02 0.  0.
          5    1    3    3  502    0  0.57711656734E+02  0.36235024384E+01  0.51434709142E+03  0.51760425804E+03  0.41800000000E+01 0. -1.
         -5    1    3    3    0  502 -0.61786959715E+02 -0.22862021778E+00  0.30142703801E+03  0.30772294731E+03  0.41800000000E+01 0. -1.
        -11    1    4    4    0    0 -0.14746390359E+02  0.36268556084E+02  0.57857304740E+02  0.69859372319E+02  0.00000000000E+00 0.  1.
         11    1    4    4    0    0  0.18821693340E+02 -0.39663438304E+02  0.11561908671E+03  0.12367383591E+03  0.00000000000E+00 0. -1.
</event>
<event>
 8    1  0.6850220E-009  0.1835327E+03  0.7561462E-02  0.1164427E+00
         -2   -1    0    0    0  501 -0.00000000000E+00  0.00000000000E+00  0.15365662672E+04  0.15365662672E+04  0.00000000000E+00 0. -1.
          2   -1    0    0  501    0  0.00000000000E+00 -0.00000000000E+00 -0.23516952193E+02  0.23516952193E+02  0.00000000000E+00 0.  1.
         25    2    1    2    0    0  0.10459850106E+03  0.11021113832E+03  0.93762075222E+03  0.95805420884E+03  0.12509136917E+03 0.  0.
         23    2    1    2    0    0 -0.10459850106E+03 -0.11021113832E+03  0.57542856275E+03  0.60202901052E+03  0.90738951078E+02 0.  0.
          5    1    3    3  502    0  0.38189328116E+01 -0.24439257635E+02  0.72258463589E+02  0.76489342538E+02  0.41800000000E+01 0. -1.
         -5    1    3    3    0  502  0.10077956825E+03  0.13465039596E+03  0.86536228864E+03  0.88156486630E+03  0.41800000000E+01 0. -1.
        -11    1    4    4    0    0 -0.89663493011E+02 -0.33705971207E+02  0.37321451953E+03  0.38531118861E+03  0.00000000000E+00 0.  1.
         11    1    4    4    0    0 -0.14935008054E+02 -0.76505167117E+02  0.20221404322E+03  0.21671782192E+03  0.00000000000E+00 0. -1.
</event>
<event>
 8    1  0.6850220E-009  0.1330665E+03  0.7561462E-02  0.1222975E+00
          2   -1    0    0  501    0  0.00000000000E+00  0.00000000000E+00  0.42464200606E+03  0.42464200606E+03  0.00000000000E+00 0. -1.
         -2   -1    0    0    0  501 -0.00000000000E+00 -0.00000000000E+00 -0.57650364304E+02  0.57650364304E+02  0.00000000000E+00 0.  1.
         25    2    1    2    0    0  0.60886300394E+02 -0.95238368926E+02  0.16003650286E+03  0.23245771502E+03  0.12508964200E+03 0.  0.
         23    2    1    2    0    0 -0.60886300394E+02  0.95238368926E+02  0.20695513890E+03  0.24983465534E+03  0.82519312909E+02 0.  0.
          5    1    3    3  502    0 -0.14785980426E+02 -0.52022013585E+02  0.12885913346E+03  0.13981081429E+03  0.41800000000E+01 0.  1.
         -5    1    3    3    0  502  0.75672280819E+02 -0.43216355341E+02  0.31177369395E+02  0.92646900735E+02  0.41800000000E+01 0.  1.
        -11    1    4    4    0    0 -0.32896594319E+02  0.91848104660E+01  0.14380557197E+02  0.37058697851E+02  0.00000000000E+00 0.  1.
         11    1    4    4    0    0 -0.27989706074E+02  0.86053558460E+02  0.19257458170E+03  0.21277595749E+03  0.00000000000E+00 0. -1.
</event>
<event>
 8    1  0.6850220E-009  0.7575325E+02  0.7561462E-02  0.1341554E+00
          4   -1    0    0  501    0  0.00000000000E+00  0.00000000000E+00  0.45384623155E+02  0.45384623155E+02  0.00000000000E+00 0. -1.
         -4   -1    0    0    0  501 -0.00000000000E+00 -0.00000000000E+00 -0.29738543537E+03  0.29738543537E+03  0.00000000000E+00 0.  1.
         25    2    1    2    0    0 -0.66293609106E+00 -0.27498212839E+02 -0.16265333751E+03  0.20702906599E+03  0.12509330425E+03 0.  0.
         23    2    1    2    0    0  0.66293609106E+00  0.27498212839E+02 -0.89347474711E+02  0.13574099254E+03  0.98417755638E+02 0.  0.
          5    1    3    3  502    0  0.66879982155E+01  0.42187564280E+02 -0.18586258438E+02  0.46770089830E+02  0.41800000000E+01 0. -1.
         -5    1    3    3    0  502 -0.73509343066E+01 -0.69685777119E+02 -0.14406707907E+03  0.16025897616E+03  0.41800000000E+01 0. -1.
        -11    1    4    4    0    0 -0.12431364577E+02  0.19251356767E+02 -0.10862767686E+03  0.11101858287E+03  0.00000000000E+00 0.  1.
         11    1    4    4    0    0  0.13094300668E+02  0.82468560720E+01  0.19280202147E+02  0.24722409670E+02  0.00000000000E+00 0. -1.
</event>
<event>
 8    1  0.6850220E-009  0.1308988E+03  0.7561462E-02  0.1226128E+00
          1   -1    0    0  501    0  0.00000000000E+00  0.00000000000E+00  0.27584351613E+03  0.27584351613E+03  0.00000000000E+00 0. -1.
         -1   -1    0    0    0  501 -0.00000000000E+00 -0.00000000000E+00 -0.77711223004E+02  0.77711223004E+02  0.00000000000E+00 0.  1.
         25    2    1    2    0    0 -0.86827558513E+02  0.30049646083E+02  0.65246604536E+02  0.16836390132E+03  0.12508907913E+03 0.  0.
         23    2    1    2    0    0  0.86827558513E+02 -0.30049646083E+02  0.13288568859E+03  0.18519083781E+03  0.90526427246E+02 0.  0.
          5    1    3    3  502    0 -0.11818206336E+03  0.12231383777E+02  0.48982381164E+02  0.12858208629E+03  0.41800000000E+01 0. -1.
         -5    1    3    3    0  502  0.31354504847E+02  0.17818262306E+02  0.16264223372E+02  0.39781815038E+02  0.41800000000E+01 0. -1.
        -11    1    4    4    0    0  0.35869867096E+02 -0.41008829289E+02  0.15330714369E+02  0.56598606416E+02  0.00000000000E+00 0.  1.
         11    1    4    4    0    0  0.50957691417E+02  0.10959183206E+02  0.11755497422E+03  0.12859223139E+03  0.00000000000E+00 0. -1.
</event>
<event>
 8    1  0.6850220E-009  0.1235313E+03  0.7561462E-02  0.1237383E+00
          1   -1    0    0  501    0  0.00000000000E+00  0.00000000000E+00  0.24207836629E+03  0.24207836629E+03  0.00000000000E+00 0. -1.
         -1   -1    0    0    0  501 -0.00000000000E+00 -0.00000000000E+00 -0.88156972036E+02  0.88156972036E+02  0.00000000000E+00 0.  1.
         25    2    1    2    0    0 -0.63869109548E+02  0.59222690168E+02  0.13531551062E+03  0.20382472901E+03  0.12509053744E+03 0.  0.
         23    2    1    2    0    0  0.63869109548E+02 -0.59222690168E+02  0.18605883634E+02  0.12641060931E+03  0.89704364756E+02 0.  0.
          5    1    3    3  502    0 -0.80180130940E+02  0.86979287107E+01  0.12614889968E+03  0.14978492798E+03  0.41800000000E+01 0.  1.
         -5    1    3    3    0  502  0.16311021393E+02  0.50524761458E+02  0.91666109471E+01  0.54039801031E+02  0.41800000000E+01 0.  1.
        -11    1    4    4    0    0 -0.13485105118E+02  0.29504034133E+01 -0.16161071385E+02  0.21254015354E+02  0.00000000000E+00 0.  1.
         11    1    4    4    0    0  0.77354214665E+02 -0.62173093582E+02  0.34766955019E+02  0.10515659396E+03  0.00000000000E+00 0. -1.
</event>
<event>
 8    1  0.6850220E-009  0.1590760E+03  0.7561462E-02  0.1189744E+00
          2   -1    0    0  501    0  0.00000000000E+00  0.00000000000E+00  0.76462011621E+02  0.76462011621E+02  0.00000000000E+00 0. -1.
         -2   -1    0    0    0  501 -0.00000000000E+00 -0.00000000000E+00 -0.56867733368E+03  0.56867733368E+03  0.00000000000E+00 0.  1.
         25    2    1    2    0    0 -0.82692459291E+02 -0.93364723378E+02 -0.44493116699E+03  0.47870976206E+03  0.12507709039E+03 0.  0.
         23    2    1    2    0    0  0.82692459291E+02  0.93364723378E+02 -0.47284155070E+02  0.16642958324E+03  0.99538939422E+02 0.  0.
          5    1    3    3  502    0 -0.47960606834E+02  0.21180653771E+02 -0.18828510043E+03  0.19549320026E+03  0.41800000000E+01 0. -1.
         -5    1    3    3    0  502 -0.34731852458E+02 -0.11454537715E+03 -0.25664606655E+03  0.28321656180E+03  0.41800000000E+01 0. -1.
        -11    1    4    4    0    0  0.92713771128E+01 -0.13351154479E+02 -0.32136452520E+02  0.36013377238E+02  0.00000000000E+00 0.  1.
         11    1    4    4    0    0  0.73421082179E+02  0.10671587786E+03 -0.15147702549E+02  0.13041620600E+03  0.00000000000E+00 0. -1.
</event>
<event>
 8    1  0.6850220E-009  0.1041701E+03  0.7561462E-02  0.1271763E+00
         -2   -1    0    0    0  501 -0.00000000000E+00  0.00000000000E+00  0.24133753836E+02  0.24133753836E+02  0.00000000000E+00 0.  1.
          2   -1    0    0  501    0  0.00000000000E+00 -0.00000000000E+00 -0.75590549523E+03  0.75590549523E+03  0.00000000000E+00 0. -1.
         25    2    1    2    0    0  0.30280125562E+02  0.74546826708E+02 -0.42682637050E+03  0.45199789564E+03  0.12508889532E+03 0.  0.
         23    2    1    2    0    0 -0.30280125562E+02 -0.74546826708E+02 -0.30494537089E+03  0.32804135342E+03  0.90251509412E+02 0.  0.
          5    1    3    3  502    0  0.26096920683E+02  0.18281718901E+02 -0.13565005138E+02  0.34881976428E+02  0.41800000000E+01 0.  1.
         -5    1    3    3    0  502  0.41832048795E+01  0.56265107807E+02 -0.41326136536E+03  0.41711591922E+03  0.41800000000E+01 0.  1.
        -11    1    4    4    0    0 -0.43047887622E+02  0.95161291154E+00 -0.87771909511E+02  0.97764688385E+02  0.00000000000E+00 0.  1.
         11    1    4    4    0    0  0.12767762059E+02 -0.75498439620E+02 -0.21717346138E+03  0.23027666503E+03  0.00000000000E+00 0. -1.
</event>
<event>
 8    1  0.6850220E-009  0.8817342E+02  0.7561462E-02  0.1307336E+00
          1   -1    0    0  501    0  0.00000000000E+00  0.00000000000E+00  0.45892336677E+02  0.45892336677E+02  0.00000000000E+00 0. -1.
         -1   -1    0    0    0  501 -0.00000000000E+00 -0.00000000000E+00 -0.40485539967E+03  0.40485539967E+03  0.00000000000E+00 0.  1.
         25    2    1    2    0    0 -0.49341988338E+02 -0.29377430853E+02 -0.29067491851E+03  0.32162075255E+03  0.12510129881E+03 0.  0.
         23    2    1    2    0    0  0.49341988338E+02  0.29377430853E+02 -0.68288144481E+02  0.12912698379E+03  0.93342605547E+02 0.  0.
          5    1    3    3  502    0 -0.31817049258E+02  0.24552665190E+02 -0.24603617380E+03  0.24933196588E+03  0.41800000000E+01 0.  1.
         -5    1    3    3    0  502 -0.17524939080E+02 -0.53930096043E+02 -0.44638744708E+02  0.72288786669E+02  0.41800000000E+01 0.  1.
        -11    1    4    4    0    0  0.10498488372E+02 -0.16132801918E+02  0.16500562420E+02  0.25352595844E+02  0.00000000000E+00 0. -1.
         11    1    4    4    0    0  0.38843499966E+02  0.45510232771E+02 -0.84788706901E+02  0.10377438795E+03  0.00000000000E+00 0.  1.
</event>
<event>
 8    1  0.6850220E-009  0.1398935E+03  0.7561462E-02  0.1213472E+00
         -1   -1    0    0    0  501 -0.00000000000E+00  0.00000000000E+00  0.16721372795E+03  0.16721372795E+03  0.00000000000E+00 0.  1.
          1   -1    0    0  501    0  0.00000000000E+00 -0.00000000000E+00 -0.16358868915E+03  0.16358868915E+03  0.00000000000E+00 0. -1.
         25    2    1    2    0    0 -0.10831061431E+03 -0.44656226288E+02 -0.46881866023E+02  0.17768495463E+03  0.12509462827E+03 0.  0.
         23    2    1    2    0    0  0.10831061431E+03  0.44656226288E+02  0.50506904824E+02  0.15311746247E+03  0.84667834269E+02 0.  0.
          5    1    3    3  502    0 -0.20269315810E+02 -0.67161443737E+02  0.91100276699E+01  0.70865857029E+02  0.41800000000E+01 0.  1.
         -5    1    3    3    0  502 -0.88041298499E+02  0.22505217449E+02 -0.55991893693E+02  0.10681909761E+03  0.41800000000E+01 0.  1.
        -11    1    4    4    0    0  0.55485543033E+02  0.32612781099E+02  0.70413664580E+02  0.95395613821E+02  0.00000000000E+00 0.  1.
         11    1    4    4    0    0  0.52825071276E+02  0.12043445189E+02 -0.19906759756E+02  0.57721848648E+02  0.00000000000E+00 0. -1.
</event>
<event>
 8    1  0.6850220E-009  0.1196750E+03  0.7561462E-02  0.1243634E+00
         -3   -1    0    0    0  501 -0.00000000000E+00  0.00000000000E+00  0.57618780877E+02  0.57618780877E+02  0.00000000000E+00 0.  1.
          3   -1    0    0  501    0  0.00000000000E+00 -0.00000000000E+00 -0.29749224524E+03  0.29749224524E+03  0.00000000000E+00 0. -1.
         25    2    1    2    0    0  0.68598296558E+02  0.25518064249E+02 -0.11384988700E+03  0.18430212876E+03  0.12509428445E+03 0.  0.
         23    2    1    2    0    0 -0.68598296558E+02 -0.25518064249E+02 -0.12602357736E+03  0.17080889735E+03  0.89088941347E+02 0.  0.
          5    1    3    3  502    0  0.72825603787E+01 -0.38036929280E+02  0.14839833756E+01  0.38980998979E+02  0.41800000000E+01 0. -1.
         -5    1    3    3    0  502  0.61315736179E+02  0.63554993529E+02 -0.11533387037E+03  0.14532112978E+03  0.41800000000E+01 0. -1.
        -11    1    4    4    0    0 -0.85595336628E+02 -0.55648158973E+01 -0.11202838941E+03  0.14109531836E+03  0.00000000000E+00 0. -1.
         11    1    4    4    0    0  0.16997040071E+02 -0.19953248352E+02 -0.13995187952E+02  0.29713578996E+02  0.00000000000E+00 0.  1.
</event>
<event>
 8    1  0.6850220E-009  0.1229811E+03  0.7561462E-02  0.1238259E+00
          2   -1    0    0  501    0  0.00000000000E+00  0.00000000000E+00  0.13813450151E+03  0.13813450151E+03  0.00000000000E+00 0.  1.
         -2   -1    0    0    0  501 -0.00000000000E+00 -0.00000000000E+00 -0.13470043655E+03  0.13470043655E+03  0.00000000000E+00 0. -1.
         25    2    1    2    0    0 -0.18307063472E+02 -0.76626222848E+02  0.25872163073E+02  0.15007699890E+03  0.12508800972E+03 0.  0.
         23    2    1    2    0    0  0.18307063472E+02  0.76626222848E+02 -0.22438098117E+02  0.12275793916E+03  0.91429299347E+02 0.  0.
          5    1    3    3  502    0  0.49044141289E+02 -0.35331622541E+02 -0.12939954521E+02  0.61956163286E+02  0.41800000000E+01 0. -1.
         -5    1    3    3    0  502 -0.67351204761E+02 -0.41294600307E+02  0.38812117593E+02  0.88120835614E+02  0.41800000000E+01 0. -1.
        -11    1    4    4    0    0 -0.27441255269E+02  0.23303655330E+02 -0.36322480912E+02  0.51141035012E+02  0.00000000000E+00 0.  1.
         11    1    4    4    0    0  0.45748318741E+02  0.53322567518E+02  0.13884382795E+02  0.71616904149E+02  0.00000000000E+00 0. -1.
</event>
<event>
 8    1  0.6850220E-009  0.1626441E+03  0.7561462E-02  0.1185744E+00
         -2   -1    0    0    0  501 -0.00000000000E+00  0.00000000000E+00  0.28059832783E+02  0.28059832783E+02  0.00000000000E+00 0.  1.
          2   -1    0    0  501    0  0.00000000000E+00 -0.00000000000E+00 -0.11286095166E+04  0.11286095166E+04  0.00000000000E+00 0. -1.
         25    2    1    2    0    0  0.69041459737E+02 -0.94409384988E+02 -0.37717404640E+03  0.41423143333E+03  0.12509022323E+03 0.  0.
         23    2    1    2    0    0 -0.69041459737E+02  0.94409384988E+02 -0.72337563745E+03  0.74243791608E+03  0.11942316042E+03 0.  0.
          5    1    3    3  502    0  0.13297833874E+02 -0.10155413611E+03 -0.16124337585E+03  0.19106798163E+03  0.41800000000E+01 0.  1.
         -5    1    3    3    0  502  0.55743625863E+02  0.71447511261E+01 -0.21593067055E+03  0.22316345170E+03  0.41800000000E+01 0.  1.
        -11    1    4    4    0    0 -0.72672805880E+02  0.72920634646E+00 -0.28188948744E+03  0.29110745711E+03  0.00000000000E+00 0.  1.
         11    1    4    4    0    0  0.36313461433E+01  0.93680178642E+02 -0.44148615001E+03  0.45133045897E+03  0.00000000000E+00 0. -1.
</event>
<event>
 8    1  0.6850220E-009  0.1818211E+03  0.7561462E-02  0.1166052E+00
         -1   -1    0    0    0  501 -0.00000000000E+00  0.00000000000E+00  0.29002410530E+02  0.29002410530E+02  0.00000000000E+00 0.  1.
          1   -1    0    0  501    0  0.00000000000E+00 -0.00000000000E+00 -0.14508343537E+04  0.14508343537E+04  0.00000000000E+00 0. -1.
         25    2    1    2    0    0 -0.14229415068E+03  0.77942976467E+02 -0.98202970094E+03  0.10031715147E+04  0.12509205206E+03 0.  0.
         23    2    1    2    0    0  0.14229415068E+03 -0.77942976467E+02 -0.43980224221E+03  0.47666524951E+03  0.86377166750E+02 0.  0.
          5    1    3    3  502    0 -0.65035970017E+02 -0.23892088765E+02 -0.22661624576E+03  0.23700823729E+03  0.41800000000E+01 0.  1.
         -5    1    3    3    0  502 -0.77258180662E+02  0.10183506523E+03 -0.75541345517E+03  0.76616327741E+03  0.41800000000E+01 0.  1.
        -11    1    4    4    0    0  0.37946633962E+02 -0.40437961040E+02 -0.63205876535E+02  0.84084234852E+02  0.00000000000E+00 0.  1.
         11    1    4    4    0    0  0.10434751672E+03 -0.37505015428E+02 -0.37659636568E+03  0.39258101466E+03  0.00000000000E+00 0. -1.
</event>
<event>
 8    1  0.6850220E-009  0.1761083E+03  0.7561462E-02  0.1171623E+00
         -1   -1    0    0    0  501 -0.00000000000E+00  0.00000000000E+00  0.16717609389E+03  0.16717609389E+03  0.00000000000E+00 0.  1.
          1   -1    0    0  501    0  0.00000000000E+00 -0.00000000000E+00 -0.23639288347E+03  0.23639288347E+03  0.00000000000E+00 0. -1.
         25    2    1    2    0    0 -0.14223092317E+03 -0.55636257157E+02 -0.10294454800E+03  0.22264479189E+03  0.12509234501E+03 0.  0.
         23    2    1    2    0    0  0.14223092317E+03  0.55636257157E+02  0.33727758413E+02  0.18092418547E+03  0.90944876622E+02 0.  0.
          5    1    3    3  502    0 -0.14046472848E+02 -0.66313670597E+02 -0.45250614481E+02  0.81608190878E+02  0.41800000000E+01 0.  1.
         -5    1    3    3    0  502 -0.12818445032E+03  0.10677413440E+02 -0.57693933515E+02  0.14103660102E+03  0.41800000000E+01 0.  1.
        -11    1    4    4    0    0  0.53521087483E+01  0.99615982022E+01 -0.23194607992E+02  0.25804424944E+02  0.00000000000E+00 0. -1.
         11    1    4    4    0    0  0.13687881442E+03  0.45674658954E+02  0.56922366405E+02  0.15511976052E+03  0.00000000000E+00 0.  1.
</event>
<event>
 8    1  0.6850220E-009  0.1038537E+03  0.7561462E-02  0.1272395E+00
         -1   -1    0    0    0  501 -0.00000000000E+00  0.00000000000E+00  0.20497634952E+03  0.20497634952E+03  0.00000000000E+00 0.  1.
          1   -1    0    0  501    0  0.00000000000E+00 -0.00000000000E+00 -0.85562636343E+02  0.85562636343E+02  0.00000000000E+00 0. -1.
         25    2    1    2    0    0  0.41250931199E+02  0.33172695853E+02  0.12260725605E+03  0.18298112382E+03  0.12508990913E+03 0.  0.
         23    2    1    2    0    0 -0.41250931199E+02 -0.33172695853E+02 -0.31935428711E+01  0.10755786204E+03  0.93575786906E+02 0.  0.
          5    1    3    3  502    0  0.71232623883E+02  0.48891450623E+02  0.43471981507E+02  0.96807779777E+02  0.41800000000E+01 0.  1.
         -5    1    3    3    0  502 -0.29981692685E+02 -0.15718754770E+02  0.79135274539E+02  0.86173344046E+02  0.41800000000E+01 0.  1.
        -11    1    4    4    0    0 -0.31816835603E+02 -0.54877197240E+02 -0.31365565818E+02  0.70764514580E+02  0.00000000000E+00 0. -1.
         11    1    4    4    0    0 -0.94340955960E+01  0.21704501388E+02  0.28172022946E+02  0.36793347457E+02  0.00000000000E+00 0.  1.
</event>
<event>
 8    1  0.6850220E-009  0.1255682E+03  0.7561462E-02  0.1234184E+00
          1   -1    0    0  501    0  0.00000000000E+00  0.00000000000E+00  0.81761638609E+02  0.81761638609E+02  0.00000000000E+00 0. -1.
         -1   -1    0    0    0  501 -0.00000000000E+00 -0.00000000000E+00 -0.24457557108E+03  0.24457557108E+03  0.00000000000E+00 0.  1.
         25    2    1    2    0    0  0.67245228183E+02  0.53092812394E+02 -0.58585731705E+02  0.16254364590E+03  0.12508949365E+03 0.  0.
         23    2    1    2    0    0 -0.67245228183E+02 -0.53092812394E+02 -0.10422820077E+03  0.16379356379E+03  0.92865743220E+02 0.  0.
          5    1    3    3  502    0  0.87903543965E+01  0.80406291948E+02 -0.98777182664E+01  0.81593405576E+02  0.41800000000E+01 0. -1.
         -5    1    3    3    0  502  0.58454873786E+02 -0.27313479554E+02 -0.48708013438E+02  0.80950240320E+02  0.41800000000E+01 0. -1.
        -11    1    4    4    0    0  0.11700491598E+02 -0.10814148406E+02  0.98742832346E+01  0.18744299901E+02  0.00000000000E+00 0. -1.
         11    1    4    4    0    0 -0.78945719781E+02 -0.42278663988E+02 -0.11410248400E+03  0.14504926389E+03  0.00000000000E+00 0.  1.
</event>
<event>
 8    1  0.6850220E-009  0.2612853E+03  0.7561462E-02  0.1106373E+00
         -2   -1    0    0    0  501 -0.00000000000E+00  0.00000000000E+00  0.49571731483E+02  0.49571731483E+02  0.00000000000E+00 0.  1.
          2   -1    0    0  501    0  0.00000000000E+00 -0.00000000000E+00 -0.14809133096E+04  0.14809133096E+04  0.00000000000E+00 0. -1.
         25    2    1    2    0    0  0.22381916903E+03  0.90387900478E+02 -0.56394322026E+03  0.62605471881E+03  0.12509021658E+03 0.  0.
         23    2    1    2    0    0 -0.22381916903E+03 -0.90387900478E+02 -0.86739835781E+03  0.90443032223E+03  0.85728079764E+02 0.  0.
          5    1    3    3  502    0 -0.58709049440E+00  0.42043652454E+02 -0.84872600627E+02  0.94809514945E+02  0.41800000000E+01 0. -1.
         -5    1    3    3    0  502  0.22440625952E+03  0.48344248024E+02 -0.47907061964E+03  0.53124520386E+03  0.41800000000E+01 0. -1.
        -11    1    4    4    0    0 -0.21685464111E+03 -0.67983901707E+02 -0.82755118644E+03  0.85818920550E+03  0.00000000000E+00 0.  1.
         11    1    4    4    0    0 -0.69645279190E+01 -0.22403998771E+02 -0.39847171370E+02  0.46241116728E+02  0.00000000000E+00 0. -1.
</event>
<event>
 8    1  0.6850220E-009  0.9608743E+02  0.7561462E-02  0.1288746E+00
         -2   -1    0    0    0  501 -0.00000000000E+00  0.00000000000E+00  0.29265095151E+02  0.29265095151E+02  0.00000000000E+00 0.  1.
          2   -1    0    0  501    0  0.00000000000E+00 -0.00000000000E+00 -0.43133482722E+03  0.43133482722E+03  0.00000000000E+00 0. -1.
         25    2    1    2    0    0 -0.25415526568E+02 -0.10610065327E+02 -0.26509713694E+03  0.29441631397E+03  0.12508377769E+03 0.  0.
         23    2    1    2    0    0  0.25415526568E+02  0.10610065327E+02 -0.13697259513E+03  0.16618360840E+03  0.89983206254E+02 0.  0.
          5    1    3    3  502    0 -0.70913416072E+01 -0.67226511485E+02 -0.12555528066E+03  0.14265795412E+03  0.41800000000E+01 0. -1.
         -5    1    3    3    0  502 -0.18324184961E+02  0.56616446158E+02 -0.13954185628E+03  0.15175835985E+03  0.41800000000E+01 0. -1.
        -11    1    4    4    0    0  0.44065463262E+02  0.16381901088E+01 -0.21844373995E+02  0.49210013153E+02  0.00000000000E+00 0.  1.
         11    1    4    4    0    0 -0.18649936694E+02  0.89718752181E+01 -0.11512822114E+03  0.11697359525E+03  0.00000000000E+00 0. -1.
</event>
<event>
 8    1  0.6850220E-009  0.1485274E+03  0.7561462E-02  0.1202294E+00
          2   -1    0    0  501    0  0.00000000000E+00  0.00000000000E+00  0.35431281549E+03  0.35431281549E+03  0.00000000000E+00 0.  1.
         -2   -1    0    0    0  501 -0.00000000000E+00 -0.00000000000E+00 -0.65676474533E+02  0.65676474533E+02  0.00000000000E+00 0. -1.
         25    2    1    2    0    0  0.12017331569E+02  0.10542265554E+03  0.13590782936E+03  0.21301839548E+03  0.12509015219E+03 0.  0.
         23    2    1    2    0    0 -0.12017331569E+02 -0.10542265554E+03  0.15272851159E+03  0.20697089454E+03  0.90843824072E+02 0.  0.
          5    1    3    3  502    0 -0.55186389641E+02  0.63473902200E+02  0.61791024783E+02  0.10445131405E+03  0.41800000000E+01 0.  1.
         -5    1    3    3    0  502  0.67203721210E+02  0.41948753341E+02  0.74116804579E+02  0.10856708144E+03  0.41800000000E+01 0.  1.
        -11    1    4    4    0    0 -0.45471777177E+02 -0.42473643789E+02  0.10198609580E+03  0.11946906157E+03  0.00000000000E+00 0.  1.
         11    1    4    4    0    0  0.33454445608E+02 -0.62949011752E+02  0.50742415793E+02  0.87501832964E+02  0.00000000000E+00 0. -1.
</event>
<event>
 8    1  0.6850220E-009  0.1205723E+03  0.7561462E-02  0.1242156E+00
         -1   -1    0    0    0  501 -0.00000000000E+00  0.00000000000E+00  0.20027189079E+03  0.20027189079E+03  0.00000000000E+00 0.  1.
          1   -1    0    0  501    0  0.00000000000E+00 -0.00000000000E+00 -0.95890566745E+02  0.95890566745E+02  0.00000000000E+00 0. -1.
         25    2    1    2    0    0 -0.71567933758E+02  0.15406828306E+02  0.99657520756E+01  0.14528080418E+03  0.12509139198E+03 0.  0.
         23    2    1    2    0    0  0.71567933758E+02 -0.15406828306E+02  0.94415571966E+02  0.15088165335E+03  0.92150060160E+02 0.  0.
          5    1    3    3  502    0 -0.10458289598E+03 -0.14246882500E+00  0.21356631522E+02  0.10682312736E+03  0.41800000000E+01 0.  1.
         -5    1    3    3    0  502  0.33014962223E+02  0.15549297131E+02 -0.11390879446E+02  0.38457676820E+02  0.41800000000E+01 0.  1.
        -11    1    4    4    0    0  0.56811002700E+02  0.20916889932E+02  0.15083441509E+02  0.62390035422E+02  0.00000000000E+00 0. -1.
         11    1    4    4    0    0  0.14756931058E+02 -0.36323718238E+02  0.79332130457E+02  0.88491617929E+02  0.00000000000E+00 0.  1.
</event>
<event>
 8    1  0.6850220E-009  0.1203561E+03  0.7561462E-02  0.1242511E+00
          2   -1    0    0  501    0  0.00000000000E+00  0.00000000000E+00  0.12124685808E+03  0.12124685808E+03  0.00000000000E+00 0. -1.
         -2   -1    0    0    0  501 -0.00000000000E+00 -0.00000000000E+00 -0.16900906982E+03  0.16900906982E+03  0.00000000000E+00 0.  1.
         25    2    1    2    0    0  0.11739365472E+02 -0.88208661548E+02  0.19120127704E+01  0.15352301964E+03  0.12508829318E+03 0.  0.
         23    2    1    2    0    0 -0.11739365472E+02  0.88208661548E+02 -0.49674224518E+02  0.13673290826E+03  0.91157988939E+02 0.  0.
          5    1    3    3  502    0  0.42210719010E+02 -0.20405978288E+02 -0.45328863729E+02  0.65347739335E+02  0.41800000000E+01 0.  1.
         -5    1    3    3    0  502 -0.30471353538E+02 -0.67802683260E+02  0.47240876500E+02  0.88175280301E+02  0.41800000000E+01 0.  1.
        -11    1    4    4    0    0  0.10231453206E+02 -0.12476310311E+02  0.86617609907E+01  0.18313029710E+02  0.00000000000E+00 0. -1.
         11    1    4    4    0    0 -0.21970818678E+02  0.10068497186E+03 -0.58335985508E+02  0.11841987855E+03  0.00000000000E+00 0.  1.
</event>
<event>
 8    1  0.6850220E-009  0.2852878E+03  0.7561462E-02  0.1092835E+00
          1   -1    0    0  501    0  0.00000000000E+00  0.00000000000E+00  0.47662567218E+03  0.47662567218E+03  0.00000000000E+00 0. -1.
         -1   -1    0    0    0  501 -0.00000000000E+00 -0.00000000000E+00 -0.18390372685E+03  0.18390372685E+03  0.00000000000E+00 0.  1.
         25    2    1    2    0    0  0.21921426476E+03 -0.16200762486E+03  0.12928905017E+03  0.32659631415E+03  0.12509248393E+03 0.  0.
         23    2    1    2    0    0 -0.21921426476E+03  0.16200762486E+03  0.16343289516E+03  0.33393308488E+03  0.10246770012E+03 0.  0.
          5    1    3    3  502    0  0.70416217642E+02 -0.10865273372E+03  0.10470514656E+03  0.16656680453E+03  0.41800000000E+01 0. -1.
         -5    1    3    3    0  502  0.14879804712E+03 -0.53354891135E+02  0.24583903605E+02  0.16002950962E+03  0.41800000000E+01 0. -1.
        -11    1    4    4    0    0 -0.62316524809E+02  0.76147667112E+01  0.55120231161E+01  0.63021554529E+02  0.00000000000E+00 0.  1.
         11    1    4    4    0    0 -0.15689773995E+03  0.15439285815E+03  0.15792087204E+03  0.27091153035E+03  0.00000000000E+00 0. -1.
</event>
<event>
 8    1  0.6850220E-009  0.1656098E+03  0.7561462E-02  0.1182505E+00
         -2   -1    0    0    0  501 -0.00000000000E+00  0.00000000000E+00  0.95173994219E+02  0.95173994219E+02  0.00000000000E+00 0.  1.
          2   -1    0    0  501    0  0.00000000000E+00 -0.00000000000E+00 -0.36926593377E+03  0.36926593377E+03  0.00000000000E+00 0. -1.
         25    2    1    2    0    0 -0.73024879076E+02  0.13279059434E+03 -0.15878421518E+03  0.25264318599E+03  0.12510066956E+03 0.  0.
         23    2    1    2    0    0  0.73024879076E+02 -0.13279059434E+03 -0.11530772437E+03  0.21179674200E+03  0.92714689843E+02 0.  0.
          5    1    3    3  502    0 -0.80255014921E+02  0.12722159759E+03 -0.17670933392E+03  0.23209882251E+03  0.41800000000E+01 0.  1.
         -5    1    3    3    0  502  0.72301358449E+01  0.55689967524E+01  0.17925118739E+02  0.20544363484E+02  0.41800000000E+01 0.  1.
        -11    1    4    4    0    0  0.17491975358E+02 -0.10882196076E+03 -0.44997722630E+02  0.11905033972E+03  0.00000000000E+00 0.  1.
         11    1    4    4    0    0  0.55532903718E+02 -0.23968633582E+02 -0.70310001739E+02  0.92746402279E+02  0.00000000000E+00 0. -1.
</event>
<event>
 8    1  0.6850220E-009  0.8651726E+02  0.7561462E-02  0.1311512E+00
          1   -1    0    0  501    0  0.00000000000E+00  0.00000000000E+00  0.47214986430E+03  0.47214986430E+03  0.00000000000E+00 0. -1.
         -1   -1    0    0    0  501 -0.00000000000E+00 -0.00000000000E+00 -0.30788661454E+02  0.30788661454E+02  0.00000000000E+00 0.  1.
         25    2    1    2    0    0 -0.16056138016E+02 -0.43056614650E+02  0.30601850135E+03  0.33377600523E+03  0.12508967529E+03 0.  0.
         23    2    1    2    0    0  0.16056138016E+02  0.43056614650E+02  0.13534270150E+03  0.16916252053E+03  0.90480052332E+02 0.  0.
          5    1    3    3  502    0  0.78269855770E+01  0.34875585280E+02  0.33026521827E+02  0.48844566697E+02  0.41800000000E+01 0.  1.
         -5    1    3    3    0  502 -0.23883123593E+02 -0.77932199930E+02  0.27299197952E+03  0.28493143853E+03  0.41800000000E+01 0.  1.
        -11    1    4    4    0    0  0.25225212428E+02  0.27067693687E+02  0.14408725188E+03  0.14876191562E+03  0.00000000000E+00 0. -1.
         11    1    4    4    0    0 -0.91690744120E+01  0.15988920962E+02 -0.87445503876E+01  0.20400604908E+02  0.00000000000E+00 0.  1.
</event>
<event>
 8    1  0.6850220E-009  0.1148858E+03  0.7561462E-02  0.1251781E+00
          2   -1    0    0  501    0  0.00000000000E+00  0.00000000000E+00  0.89336150186E+03  0.89336150186E+03  0.00000000000E+00 0. -1.
         -2   -1    0    0    0  501 -0.00000000000E+00 -0.00000000000E+00 -0.26000781587E+02  0.26000781587E+02  0.00000000000E+00 0.  1.
         25    2    1    2    0    0 -0.10538653764E+03 -0.21287832488E+02  0.48644531964E+03  0.51365011425E+03  0.12509155344E+03 0.  0.
         23    2    1    2    0    0  0.10538653764E+03  0.21287832488E+02  0.38091540063E+03  0.40571216920E+03  0.89142176696E+02 0.  0.
          5    1    3    3  502    0 -0.15169815154E+02  0.74238532689E+01  0.33194743581E+03  0.33240308276E+03  0.41800000000E+01 0. -1.
         -5    1    3    3    0  502 -0.90216722487E+02 -0.28711685757E+02  0.15449788383E+03  0.18124703149E+03  0.41800000000E+01 0. -1.
        -11    1    4    4    0    0  0.49050167246E+02 -0.14149696670E+02  0.63913788435E+02  0.81799175881E+02  0.00000000000E+00 0.  1.
         11    1    4    4    0    0  0.56336370396E+02  0.35437529158E+02  0.31700161220E+03  0.32391299332E+03  0.00000000000E+00 0. -1.
</event>
<event>
 8    1  0.6850220E-009  0.8254238E+02  0.7561462E-02  0.1321988E+00
         -1   -1    0    0    0  501 -0.00000000000E+00  0.00000000000E+00  0.19062427637E+03  0.19062427637E+03  0.00000000000E+00 0.  1.
          1   -1    0    0  501    0  0.00000000000E+00 -0.00000000000E+00 -0.81387150207E+02  0.81387150207E+02  0.00000000000E+00 0. -1.
         25    2    1    2    0    0  0.44946951302E+02  0.32252840394E+02  0.86077545016E+02  0.16160862036E+03  0.12509008063E+03 0.  0.
         23    2    1    2    0    0 -0.44946951302E+02 -0.32252840394E+02  0.23159581146E+02  0.11040280622E+03  0.92692714263E+02 0.  0.
          5    1    3    3  502    0  0.11803349692E+02 -0.22797022060E+02 -0.23145585314E+02  0.34816860834E+02  0.41800000000E+01 0. -1.
         -5    1    3    3    0  502  0.33143601610E+02  0.55049862454E+02  0.10922313033E+03  0.12679175952E+03  0.41800000000E+01 0. -1.
        -11    1    4    4    0    0 -0.36769443435E+02 -0.45876197385E+02 -0.21810516570E+02  0.62708182003E+02  0.00000000000E+00 0. -1.
         11    1    4    4    0    0 -0.81775078673E+01  0.13623356992E+02  0.44970097716E+02  0.47694624217E+02  0.00000000000E+00 0.  1.
</event>
<event>
 8    1  0.6850220E-009  0.1979347E+03  0.7561462E-02  0.1151493E+00
         -2   -1    0    0    0  501 -0.00000000000E+00  0.00000000000E+00  0.47415437674E+02  0.47415437674E+02  0.00000000000E+00 0.  1.
          2   -1    0    0  501    0  0.00000000000E+00 -0.00000000000E+00 -0.13076208987E+04  0.13076208987E+04  0.00000000000E+00 0. -1.
         25    2    1    2    0    0  0.15020781347E+02  0.18197311406E+03 -0.10006537024E+04  0.10248382845E+04  0.12508332913E+03 0.  0.
         23    2    1    2    0    0 -0.15020781347E+02 -0.18197311406E+03 -0.25955175871E+03  0.33019805191E+03  0.91234861356E+02 0.  0.
          5    1    3    3  502    0 -0.21422649242E+02  0.42177483416E+02 -0.80985655978E+02  0.93883006354E+02  0.41800000000E+01 0. -1.
         -5    1    3    3    0  502  0.36443430589E+02  0.13979563064E+03 -0.91966804638E+03  0.93095527815E+03  0.41800000000E+01 0. -1.
        -11    1    4    4    0    0  0.38341803050E+02 -0.70025006075E+02 -0.10994904163E+03  0.13587636694E+03  0.00000000000E+00 0.  1.
         11    1    4    4    0    0 -0.53362584397E+02 -0.11194810798E+03 -0.14960271708E+03  0.19432168498E+03  0.00000000000E+00 0. -1.
</event>
<event>
 8    1  0.6850220E-009  0.1367753E+03  0.7561462E-02  0.1217735E+00
         -3   -1    0    0    0  501 -0.00000000000E+00  0.00000000000E+00  0.39021766095E+02  0.39021766095E+02  0.00000000000E+00 0.  1.
          3   -1    0    0  501    0  0.00000000000E+00 -0.00000000000E+00 -0.60747329274E+03  0.60747329274E+03  0.00000000000E+00 0. -1.
         25    2    1    2    0    0  0.10396307220E+03  0.29704618675E+02 -0.33784527299E+03  0.37613448699E+03  0.12508812520E+03 0.  0.
         23    2    1    2    0    0 -0.10396307220E+03 -0.29704618675E+02 -0.23060625365E+03  0.27036057185E+03  0.90691288637E+02 0.  0.
          5    1    3    3  502    0  0.96220502774E+02  0.72831844086E+02 -0.26094425150E+03  0.28752780293E+03  0.41800000000E+01 0.  1.
         -5    1    3    3    0  502  0.77425694215E+01 -0.43127225411E+02 -0.76901021488E+02  0.88606684053E+02  0.41800000000E+01 0.  1.
        -11    1    4    4    0    0 -0.61736014259E+02 -0.23723763973E+02 -0.21500622524E+03  0.22494850372E+03  0.00000000000E+00 0. -1.
         11    1    4    4    0    0 -0.42227057937E+02 -0.59808547023E+01 -0.15600028409E+02  0.45412068124E+02  0.00000000000E+00 0.  1.
</event>
<event>
 8    1  0.6850220E-009  0.1052417E+03  0.7561462E-02  0.1269644E+00
          3   -1    0    0  501    0  0.00000000000E+00  0.00000000000E+00  0.42203483506E+03  0.42203483506E+03  0.00000000000E+00 0. -1.
         -3   -1    0    0    0  501 -0.00000000000E+00 -0.00000000000E+00 -0.34697634544E+02  0.34697634544E+02  0.00000000000E+00 0.  1.
         25    2    1    2    0    0 -0.38460382761E+01  0.37422950890E+02  0.29086262592E+03  0.31884873005E+03  0.12509267058E+03 0.  0.
         23    2    1    2    0    0  0.38460382761E+01 -0.37422950890E+02  0.96474574593E+02  0.13788373955E+03  0.91045663413E+02 0.  0.
          5    1    3    3  502    0  0.13933799197E+01  0.82339937589E+02  0.15457019570E+03  0.17518911104E+03  0.41800000000E+01 0. -1.
         -5    1    3    3    0  502 -0.52394181958E+01 -0.44916986700E+02  0.13629243022E+03  0.14365961901E+03  0.41800000000E+01 0. -1.
        -11    1    4    4    0    0 -0.34298183051E+01  0.22241748648E+02 -0.19161634062E+01  0.22586073557E+02  0.00000000000E+00 0.  1.
         11    1    4    4    0    0  0.72758565812E+01 -0.59664699538E+02  0.98390738000E+02  0.11529766600E+03  0.00000000000E+00 0. -1.
</event>
<event>
 8    1  0.6850220E-009  0.1182593E+03  0.7561462E-02  0.1245997E+00
          1   -1    0    0  501    0  0.00000000000E+00  0.00000000000E+00  0.21501962003E+02  0.21501962003E+02  0.00000000000E+00 0. -1.
         -1   -1    0    0    0  501 -0.00000000000E+00 -0.00000000000E+00 -0.81772241614E+03  0.81772241614E+03  0.00000000000E+00 0.  1.
         25    2    1    2    0    0  0.37295246946E+02 -0.75355731143E+02 -0.49073403254E+03  0.51335759876E+03  0.12508681726E+03 0.  0.
         23    2    1    2    0    0 -0.37295246946E+02  0.75355731143E+02 -0.30548642160E+03  0.32586677938E+03  0.76143170831E+02 0.  0.
          5    1    3    3  502    0 -0.29868683538E+02 -0.47235396582E+02 -0.89865473684E+02  0.10590843549E+03  0.41800000000E+01 0. -1.
         -5    1    3    3    0  502  0.67163930484E+02 -0.28120334561E+02 -0.40086855886E+03  0.40744916328E+03  0.41800000000E+01 0. -1.
        -11    1    4    4    0    0  0.14298540441E+01  0.68135251326E+02 -0.13932447512E+03  0.15509921445E+03  0.00000000000E+00 0. -1.
         11    1    4    4    0    0 -0.38725100990E+02  0.72204798165E+01 -0.16616194648E+03  0.17076756494E+03  0.00000000000E+00 0.  1.
</event>
<event>
 8    1  0.6850220E-009  0.8843642E+02  0.7561462E-02  0.1306683E+00
          3   -1    0    0  501    0  0.00000000000E+00  0.00000000000E+00  0.75017627065E+02  0.75017627065E+02  0.00000000000E+00 0. -1.
         -3   -1    0    0    0  501 -0.00000000000E+00 -0.00000000000E+00 -0.18204054718E+03  0.18204054718E+03  0.00000000000E+00 0.  1.
         25    2    1    2    0    0  0.26371206639E+02 -0.11824155886E+02 -0.68221538392E+02  0.14538998574E+03  0.12509523753E+03 0.  0.
         23    2    1    2    0    0 -0.26371206639E+02  0.11824155886E+02 -0.38801381722E+02  0.11166818850E+03  0.10064286312E+03 0.  0.
          5    1    3    3  502    0  0.27349716505E+02  0.25801430020E+02 -0.92819347450E+02  0.10023285113E+03  0.41800000000E+01 0. -1.
         -5    1    3    3    0  502 -0.97850986577E+00 -0.37625585906E+02  0.24597809058E+02  0.45157134617E+02  0.41800000000E+01 0. -1.
        -11    1    4    4    0    0  0.50895091042E+01  0.50816275467E+02 -0.33965257723E+02  0.61333805422E+02  0.00000000000E+00 0.  1.
         11    1    4    4    0    0 -0.31460715744E+02 -0.38992119581E+02 -0.48361239988E+01  0.50334383078E+02  0.00000000000E+00 0. -1.
</event>
<event>
 8    1  0.6850220E-009  0.1470418E+03  0.7561462E-02  0.1204156E+00
          1   -1    0    0  501    0  0.00000000000E+00  0.00000000000E+00  0.20267069172E+04  0.20267069172E+04  0.00000000000E+00 0. -1.
         -1   -1    0    0    0  501 -0.00000000000E+00 -0.00000000000E+00 -0.12143348396E+02  0.12143348396E+02  0.00000000000E+00 0.  1.
         25    2    1    2    0    0 -0.26825569414E+02  0.10629185816E+03  0.13234002962E+04  0.13338117920E+04  0.12509189523E+03 0.  0.
         23    2    1    2    0    0  0.26825569414E+02 -0.10629185816E+03  0.69116327258E+03  0.70503847356E+03  0.85761352291E+02 0.  0.
          5    1    3    3  502    0 -0.17887933523E+02  0.12951414249E+03  0.12341631909E+04  0.12410762045E+04  0.41800000000E+01 0.  1.
         -5    1    3    3    0  502 -0.89376358907E+01 -0.23222284330E+02  0.89237105353E+02  0.92735587541E+02  0.41800000000E+01 0.  1.
        -11    1    4    4    0    0 -0.30622491226E+02 -0.36164607274E+02  0.19617593320E+03  0.20181826616E+03  0.00000000000E+00 0.  1.
         11    1    4    4    0    0  0.57448060640E+02 -0.70127250885E+02  0.49498733939E+03  0.50322020741E+03  0.00000000000E+00 0. -1.
</event>
<event>
 8    1  0.6850220E-009  0.2010636E+03  0.7561462E-02  0.1148845E+00
          1   -1    0    0  501    0  0.00000000000E+00  0.00000000000E+00  0.97027795577E+03  0.97027795577E+03  0.00000000000E+00 0. -1.
         -1   -1    0    0    0  501 -0.00000000000E+00 -0.00000000000E+00 -0.49773312130E+02  0.49773312130E+02  0.00000000000E+00 0.  1.
         25    2    1    2    0    0  0.10383215091E+03 -0.14899852411E+03  0.34160538385E+03  0.40660001724E+03  0.12509060715E+03 0.  0.
         23    2    1    2    0    0 -0.10383215091E+03  0.14899852411E+03  0.57889925979E+03  0.61345125066E+03  0.90644405231E+02 0.  0.
          5    1    3    3  502    0 -0.23789648900E+02 -0.56064202358E+02  0.11787288435E+03  0.13274272653E+03  0.41800000000E+01 0.  1.
         -5    1    3    3    0  502  0.12762179981E+03 -0.92934321748E+02  0.22373249950E+03  0.27385729072E+03  0.41800000000E+01 0.  1.
        -11    1    4    4    0    0 -0.43238255576E+02  0.42535954509E+02  0.33578388210E+03  0.34121792106E+03  0.00000000000E+00 0.  1.
         11    1    4    4    0    0 -0.60593895332E+02  0.10646256960E+03  0.24311537769E+03  0.27223332960E+03  0.00000000000E+00 0. -1.
</event>
<event>
 8    1  0.6850220E-009  0.9807510E+02  0.7561462E-02  0.1284397E+00
          1   -1    0    0  501    0  0.00000000000E+00  0.00000000000E+00  0.72596285442E+03  0.72596285442E+03  0.00000000000E+00 0. -1.
         -1   -1    0    0    0  501 -0.00000000000E+00 -0.00000000000E+00 -0.20407591274E+02  0.20407591274E+02  0.00000000000E+00 0.  1.
         25    2    1    2    0    0 -0.32463872426E+02  0.47543862748E+02  0.43548582224E+03  0.45673700333E+03  0.12508583829E+03 0.  0.
         23    2    1    2    0    0  0.32463872426E+02 -0.47543862748E+02  0.27006944090E+03  0.28963344236E+03  0.87382527585E+02 0.  0.
          5    1    3    3  502    0  0.17403070610E+02  0.46299192095E+02  0.59738849150E+02  0.77670358265E+02  0.41800000000E+01 0.  1.
         -5    1    3    3    0  502 -0.49866943036E+02  0.12446706531E+01  0.37574697309E+03  0.37906664507E+03  0.41800000000E+01 0.  1.
        -11    1    4    4    0    0  0.49216902914E+02 -0.58490440629E+02  0.15486568226E+03  0.17270441430E+03  0.00000000000E+00 0.  1.
         11    1    4    4    0    0 -0.16753030487E+02  0.10946577881E+02  0.11520375864E+03  0.11692902806E+03  0.00000000000E+00 0. -1.
</event>
<event>
 8    1  0.6850220E-009  0.1324273E+03  0.7561462E-02  0.1223898E+00
          2   -1    0    0  501    0  0.00000000000E+00  0.00000000000E+00  0.66020537097E+03  0.66020537097E+03  0.00000000000E+00 0. -1.
         -2   -1    0    0    0  501 -0.00000000000E+00 -0.00000000000E+00 -0.34848903083E+02  0.34848903083E+02  0.00000000000E+00 0.  1.
         25    2    1    2    0    0 -0.73493435588E+02 -0.12995078347E+02  0.17047532056E+03  0.22423005019E+03  0.12508846211E+03 0.  0.
         23    2    1    2    0    0  0.73493435588E+02  0.12995078347E+02  0.45488114732E+03  0.47082422386E+03  0.95856321887E+02 0.  0.
          5    1    3    3  502    0 -0.33568684907E+02 -0.68762446897E+02  0.97229424617E+02  0.12379888578E+03  0.41800000000E+01 0.  1.
         -5    1    3    3    0  502 -0.39924750681E+02  0.55767368550E+02  0.73245895942E+02  0.10043116441E+03  0.41800000000E+01 0.  1.
        -11    1    4    4    0    0 -0.88517908258E+01 -0.26675599328E+02  0.74771145526E+02  0.79879071123E+02  0.00000000000E+00 0.  1.
         11    1    4    4    0    0  0.82345226414E+02  0.39670677674E+02  0.38011000180E+03  0.39094515274E+03  0.00000000000E+00 0. -1.
</event>
<event>
 8    1  0.6850220E-009  0.1408933E+03  0.7561462E-02  0.1212132E+00
          1   -1    0    0  501    0  0.00000000000E+00  0.00000000000E+00  0.54410688942E+03  0.54410688942E+03  0.00000000000E+00 0. -1.
         -1   -1    0    0    0  501 -0.00000000000E+00 -0.00000000000E+00 -0.42140541124E+02  0.42140541124E+02  0.00000000000E+00 0.  1.
         25    2    1    2    0    0 -0.10176831233E+03 -0.19357245410E+02  0.27701496193E+03  0.32111608105E+03  0.12508699384E+03 0.  0.
         23    2    1    2    0    0  0.10176831233E+03  0.19357245410E+02  0.22495138637E+03  0.26513134950E+03  0.94657350036E+02 0.  0.
          5    1    3    3  502    0  0.28815535845E+02 -0.30819048577E+01  0.68739949692E+02  0.74716037952E+02  0.41800000000E+01 0.  1.
         -5    1    3    3    0  502 -0.13058384817E+03 -0.16275340552E+02  0.20827501224E+03  0.24640004310E+03  0.41800000000E+01 0.  1.
        -11    1    4    4    0    0  0.65878873244E+02 -0.18753955855E+02  0.56685046738E+02  0.88909680709E+02  0.00000000000E+00 0.  1.
         11    1    4    4    0    0  0.35889439083E+02  0.38111201265E+02  0.16826633963E+03  0.17622166879E+03  0.00000000000E+00 0. -1.
</event>
<event>
 8    1  0.6850220E-009  0.2551112E+03  0.7561462E-02  0.1110117E+00
         -1   -1    0    0    0  501 -0.00000000000E+00  0.00000000000E+00  0.42834286825E+03  0.42834286825E+03  0.00000000000E+00 0.  1.
          1   -1    0    0  501    0  0.00000000000E+00 -0.00000000000E+00 -0.16796653088E+03  0.16796653088E+03  0.00000000000E+00 0. -1.
         25    2    1    2    0    0  0.22634034473E+03 -0.58458390628E+02  0.21781605317E+03  0.34312982779E+03  0.12508761176E+03 0.  0.
         23    2    1    2    0    0 -0.22634034473E+03  0.58458390628E+02  0.42560284203E+02  0.25317957133E+03  0.87413857380E+02 0.  0.
          5    1    3    3  502    0  0.18827651623E+03  0.28935508389E+01  0.18395393636E+03  0.26327351235E+03  0.41800000000E+01 0.  1.
         -5    1    3    3    0  502  0.38063828495E+02 -0.61351941467E+02  0.33862116811E+02  0.79856315445E+02  0.41800000000E+01 0.  1.
        -11    1    4    4    0    0 -0.14163917458E+03  0.79301163792E+02  0.29245744728E+02  0.16494133484E+03  0.00000000000E+00 0. -1.
         11    1    4    4    0    0 -0.84701170150E+02 -0.20842773164E+02  0.13314539474E+02  0.88238236493E+02  0.00000000000E+00 0.  1.
</event>
<event>
 8    1  0.6850220E-009  0.2247463E+03  0.7561462E-02  0.1130393E+00
          1   -1    0    0  501    0  0.00000000000E+00  0.00000000000E+00  0.29591428946E+03  0.29591428946E+03  0.00000000000E+00 0. -1.
         -1   -1    0    0    0  501 -0.00000000000E+00 -0.00000000000E+00 -0.26545361834E+03  0.26545361834E+03  0.00000000000E+00 0.  1.
         25    2    1    2    0    0  0.67745483746E+02 -0.20137786341E+03  0.16939233456E+03  0.29913918264E+03  0.12509193877E+03 0.  0.
         23    2    1    2    0    0 -0.67745483746E+02  0.20137786341E+03 -0.13893166344E+03  0.26222872515E+03  0.65722163299E+02 0.  0.
          5    1    3    3  502    0 -0.27791805437E+01  0.71375270226E+01 -0.11333127307E+02  0.14303157381E+02  0.41800000000E+01 0.  1.
         -5    1    3    3    0  502  0.70524664290E+02 -0.20851539043E+03  0.18072546187E+03  0.28483602526E+03  0.41800000000E+01 0.  1.
        -11    1    4    4    0    0 -0.34800093027E+01  0.10325054127E+03 -0.48552260821E+02  0.11414949307E+03  0.00000000000E+00 0.  1.
         11    1    4    4    0    0 -0.64265474444E+02  0.98127322137E+02 -0.90379402621E+02  0.14807923208E+03  0.00000000000E+00 0. -1.
</event>
<event>
 8    1  0.6850220E-009  0.1335214E+03  0.7561462E-02  0.1222322E+00
          1   -1    0    0  501    0  0.00000000000E+00  0.00000000000E+00  0.14506884071E+03  0.14506884071E+03  0.00000000000E+00 0. -1.
         -1   -1    0    0    0  501 -0.00000000000E+00 -0.00000000000E+00 -0.20381809516E+03  0.20381809516E+03  0.00000000000E+00 0.  1.
         25    2    1    2    0    0 -0.28877114430E+02  0.10049143158E+03  0.48106249887E+02  0.16998236303E+03  0.12508947559E+03 0.  0.
         23    2    1    2    0    0  0.28877114430E+02 -0.10049143158E+03 -0.10685550434E+03  0.17890457284E+03  0.98266636352E+02 0.  0.
          5    1    3    3  502    0 -0.44131902610E+02  0.18410016959E+02  0.68779144092E+02  0.83872502135E+02  0.41800000000E+01 0. -1.
         -5    1    3    3    0  502  0.15254788180E+02  0.82081414616E+02 -0.20672894205E+02  0.86109860890E+02  0.41800000000E+01 0. -1.
        -11    1    4    4    0    0  0.57738868202E+02 -0.84825967525E+02 -0.52160442388E+02  0.11510835512E+03  0.00000000000E+00 0. -1.
         11    1    4    4    0    0 -0.28861753772E+02 -0.15665464050E+02 -0.54695061949E+02  0.63796217727E+02  0.00000000000E+00 0.  1.
</event>
<event>
 8    1  0.6850220E-009  0.1311191E+03  0.7561462E-02  0.1225805E+00
         -3   -1    0    0    0  501 -0.00000000000E+00  0.00000000000E+00  0.58541888827E+02  0.58541888827E+02  0.00000000000E+00 0.  1.
          3   -1    0    0  501    0  0.00000000000E+00 -0.00000000000E+00 -0.29636129970E+03  0.29636129970E+03  0.00000000000E+00 0. -1.
         25    2    1    2    0    0 -0.59822713956E+02 -0.58918939929E+02 -0.14320868257E+03  0.20786065652E+03  0.12508847740E+03 0.  0.
         23    2    1    2    0    0  0.59822713956E+02  0.58918939929E+02 -0.94610728304E+02  0.14704253201E+03  0.74967444416E+02 0.  0.
          5    1    3    3  502    0  0.38530308917E+02 -0.99201477411E+01 -0.47296180836E+02  0.61946712246E+02  0.41800000000E+01 0. -1.
         -5    1    3    3    0  502 -0.98353022873E+02 -0.48998792188E+02 -0.95912501733E+02  0.14591394427E+03  0.41800000000E+01 0. -1.
        -11    1    4    4    0    0  0.65836489567E+02  0.14459256887E+02 -0.61941965660E+02  0.91544090897E+02  0.00000000000E+00 0. -1.
         11    1    4    4    0    0 -0.60137756113E+01  0.44459683042E+02 -0.32668762644E+02  0.55498441113E+02  0.00000000000E+00 0.  1.
</event>
<event>
 8    1  0.6850220E-009  0.1531005E+03  0.7561462E-02  0.1196714E+00
         -2   -1    0    0    0  501 -0.00000000000E+00  0.00000000000E+00  0.37454221739E+03  0.37454221739E+03  0.00000000000E+00 0. -1.
          2   -1    0    0  501    0  0.00000000000E+00 -0.00000000000E+00 -0.87745883390E+02  0.87745883390E+02  0.00000000000E+00 0.  1.
         25    2    1    2    0    0  0.30129046712E+01 -0.12121830602E+03  0.25116326847E+03  0.30566092212E+03  0.12507060634E+03 0.  0.
         23    2    1    2    0    0 -0.30129046712E+01  0.12121830602E+03  0.35633065532E+02  0.15662717867E+03  0.92517038587E+02 0.  0.
          5    1    3    3  502    0  0.16470404943E+02  0.14986813951E+02  0.38672844702E+01  0.22984932468E+02  0.41800000000E+01 0. -1.
         -5    1    3    3    0  502 -0.13457500272E+02 -0.13620511997E+03  0.24729598400E+03  0.28267598965E+03  0.41800000000E+01 0. -1.
        -11    1    4    4    0    0 -0.11128497720E+02  0.13236033285E+03  0.17689274314E+02  0.13400004328E+03  0.00000000000E+00 0.  1.
         11    1    4    4    0    0  0.81155930486E+01 -0.11142026830E+02  0.17943791218E+02  0.22627135384E+02  0.00000000000E+00 0. -1.
</event>
<event>
 8    1  0.6850220E-009  0.1079586E+03  0.7561462E-02  0.1264398E+00
          2   -1    0    0  501    0  0.00000000000E+00  0.00000000000E+00  0.38710526769E+03  0.38710526769E+03  0.00000000000E+00 0.  1.
         -2   -1    0    0    0  501 -0.00000000000E+00 -0.00000000000E+00 -0.48761803346E+02  0.48761803346E+02  0.00000000000E+00 0. -1.
         25    2    1    2    0    0  0.24219557637E+02  0.61349496905E+02  0.22802656347E+03  0.26831787481E+03  0.12509204831E+03 0.  0.
         23    2    1    2    0    0 -0.24219557637E+02 -0.61349496905E+02  0.11031690087E+03  0.16754919623E+03  0.10748286745E+03 0.  0.
          5    1    3    3  502    0 -0.46518036781E+02  0.15216354500E+02  0.12938552041E+03  0.13839635285E+03  0.41800000000E+01 0. -1.
         -5    1    3    3    0  502  0.70737594418E+02  0.46133142405E+02  0.98641043056E+02  0.12992152196E+03  0.41800000000E+01 0. -1.
        -11    1    4    4    0    0  0.12737657186E+02 -0.33871822311E+02 -0.10969631492E+02  0.37813768291E+02  0.00000000000E+00 0. -1.
         11    1    4    4    0    0 -0.36957214823E+02 -0.27477674594E+02  0.12128653237E+03  0.12973542794E+03  0.00000000000E+00 0.  1.
</event>
<event>
 8    1  0.6850220E-009  0.2456405E+03  0.7561462E-02  0.1116091E+00
          2   -1    0    0  501    0  0.00000000000E+00  0.00000000000E+00  0.49300334105E+03  0.49300334105E+03  0.00000000000E+00 0. -1.
         -2   -1    0    0    0  501 -0.00000000000E+00 -0.00000000000E+00 -0.13026810522E+03  0.13026810522E+03  0.00000000000E+00 0.  1.
         25    2    1    2    0    0 -0.22443849087E+03 -0.42464543961E+02  0.17941509519E+03  0.31624833291E+03  0.12508940006E+03 0.  0.
         23    2    1    2    0    0  0.22443849087E+03  0.42464543961E+02  0.18332014064E+03  0.30702311336E+03  0.92092586532E+02 0.  0.
          5    1    3    3  502    0 -0.22425615826E+03 -0.18627735959E+02  0.18507990798E+03  0.29139296800E+03  0.41800000000E+01 0.  1.
         -5    1    3    3    0  502 -0.18233261954E+00 -0.23836808002E+02 -0.56648127885E+01  0.24855364911E+02  0.41800000000E+01 0.  1.
        -11    1    4    4    0    0  0.15751738651E+03  0.66398826942E+02  0.15421070507E+03  0.23022048743E+03  0.00000000000E+00 0.  1.
         11    1    4    4    0    0  0.66921104365E+02 -0.23934282981E+02  0.29109435563E+02  0.76802625932E+02  0.00000000000E+00 0. -1.
</event>
<event>
 7    1  0.6850220E-009  0.2293118E+03  0.7561462E-02  0.1127125E+00
          1   -1    0    0  501    0  0.00000000000E+00  0.00000000000E+00  0.73992429535E+03  0.73992429535E+03  0.00000000000E+00 0. -1.
         -1   -1    0    0    0  501 -0.00000000000E+00 -0.00000000000E+00 -0.82441691065E+02  0.82441691065E+02  0.00000000000E+00 0.  1.
         23    2    1    2    0    0  0.20062123825E+03 -0.32531230781E+02  0.17169369119E+03  0.28108878852E+03  0.90691902723E+02 0.  0.
          5    1    1    2  502    0 -0.18797503041E+03 -0.15325363172E+02  0.37122886354E+03  0.41641063908E+03  0.41800000000E+01 0. -1.
         -5    1    1    2    0  502 -0.12646207841E+02  0.47856593952E+02  0.11456004956E+03  0.12486655882E+03  0.41800000000E+01 0. -1.
        -11    1    3    3    0    0  0.11036322131E+03  0.25143937584E+02  0.10811786048E+03  0.15653028451E+03  0.00000000000E+00 0. -1.
         11    1    3    3    0    0  0.90258016945E+02 -0.57675168364E+02  0.63575830711E+02  0.12455850400E+03  0.00000000000E+00 0.  1.
</event>
<event>
 8    1  0.6850220E-009  0.1305607E+03  0.7561462E-02  0.1226626E+00
         -1   -1    0    0    0  501 -0.00000000000E+00  0.00000000000E+00  0.46206521837E+02  0.46206521837E+02  0.00000000000E+00 0.  1.
          1   -1    0    0  501    0  0.00000000000E+00 -0.00000000000E+00 -0.44197351404E+03  0.44197351404E+03  0.00000000000E+00 0. -1.
         25    2    1    2    0    0 -0.87665470221E+02 -0.26999461643E+02 -0.19402542058E+03  0.24840786379E+03  0.12508556017E+03 0.  0.
         23    2    1    2    0    0  0.87665470221E+02  0.26999461643E+02 -0.20174157162E+03  0.23977217209E+03  0.91525008541E+02 0.  0.
          5    1    3    3  502    0 -0.18904633919E+01 -0.60120683860E+02 -0.54612066233E+02  0.81351217925E+02  0.41800000000E+01 0.  1.
         -5    1    3    3    0  502 -0.85775006829E+02  0.33121222217E+02 -0.13941335435E+03  0.16705664587E+03  0.41800000000E+01 0.  1.
        -11    1    4    4    0    0  0.45528269529E+02 -0.16306422027E+02 -0.15784500795E+03  0.16508715655E+03  0.00000000000E+00 0. -1.
         11    1    4    4    0    0  0.42137200692E+02  0.43305883670E+02 -0.43896563677E+02  0.74685015533E+02  0.00000000000E+00 0.  1.
</event>
<event>
 8    1  0.6850220E-009  0.1048648E+03  0.7561462E-02  0.1270386E+00
         -3   -1    0    0    0  501 -0.00000000000E+00  0.00000000000E+00  0.22460854883E+02  0.22460854883E+02  0.00000000000E+00 0.  1.
          3   -1    0    0  501    0  0.00000000000E+00 -0.00000000000E+00 -0.69507132658E+03  0.69507132658E+03  0.00000000000E+00 0. -1.
         25    2    1    2    0    0 -0.37039340814E+02  0.51677732787E+02 -0.39112148209E+03  0.41552929449E+03  0.12508429154E+03 0.  0.
         23    2    1    2    0    0  0.37039340814E+02 -0.51677732787E+02 -0.28148898960E+03  0.30200288697E+03  0.89034777693E+02 0.  0.
          5    1    3    3  502    0  0.23267831227E+02 -0.88564540995E+01 -0.24430684541E+03  0.24560768690E+03  0.41800000000E+01 0.  1.
         -5    1    3    3    0  502 -0.60307172042E+02  0.60534186886E+02 -0.14681463668E+03  0.16992160759E+03  0.41800000000E+01 0.  1.
        -11    1    4    4    0    0  0.12888886638E+02 -0.68371750585E+02 -0.12757770702E+03  0.14531652007E+03  0.00000000000E+00 0.  1.
         11    1    4    4    0    0  0.24150454177E+02  0.16694017798E+02 -0.15391128258E+03  0.15668636690E+03  0.00000000000E+00 0. -1.
</event>
<event>
 8    1  0.6850220E-009  0.1724119E+03  0.7561462E-02  0.1175356E+00
          1   -1    0    0  501    0  0.00000000000E+00  0.00000000000E+00  0.56411729639E+02  0.56411729639E+02  0.00000000000E+00 0. -1.
         -1   -1    0    0    0  501 -0.00000000000E+00 -0.00000000000E+00 -0.69818155425E+03  0.69818155425E+03  0.00000000000E+00 0.  1.
         25    2    1    2    0    0  0.36324929528E+02 -0.15985250619E+03 -0.30704857988E+03  0.36986310094E+03  0.12509020259E+03 0.  0.
         23    2    1    2    0    0 -0.36324929528E+02  0.15985250619E+03 -0.33472124473E+03  0.38473018295E+03  0.95428914711E+02 0.  0.
          5    1    3    3  502    0 -0.44277162466E+01 -0.12595002842E+03 -0.11525291474E+03  0.17083243570E+03  0.41800000000E+01 0. -1.
         -5    1    3    3    0  502  0.40752645775E+02 -0.33902477766E+02 -0.19179566514E+03  0.19903066524E+03  0.41800000000E+01 0. -1.
        -11    1    4    4    0    0 -0.23820662237E+02  0.54749650621E+02 -0.22290550368E+03  0.23076354081E+03  0.00000000000E+00 0.  1.
         11    1    4    4    0    0 -0.12504267291E+02  0.10510285557E+03 -0.11181574105E+03  0.15396664215E+03  0.00000000000E+00 0. -1.
</event>
<event>
 8    1  0.6850220E-009  0.7007818E+02  0.7561462E-02  0.1359827E+00
          1   -1    0    0  501    0  0.00000000000E+00  0.00000000000E+00  0.11314756094E+04  0.11314756094E+04  0.00000000000E+00 0. -1.
         -1   -1    0    0    0  501 -0.00000000000E+00 -0.00000000000E+00 -0.11719394599E+02  0.11719394599E+02  0.00000000000E+00 0.  1.
         25    2    1    2    0    0  0.23161946689E+02  0.22435949374E+02  0.73607475006E+03  0.74732390966E+03  0.12508853139E+03 0.  0.
         23    2    1    2    0    0 -0.23161946689E+02 -0.22435949374E+02  0.38368146475E+03  0.39587109434E+03  0.91992441773E+02 0.  0.
          5    1    3    3  502    0  0.33777631328E+02  0.13959810260E+02  0.73145422222E+03  0.73237869731E+03  0.41800000000E+01 0. -1.
         -5    1    3    3    0  502 -0.10615684639E+02  0.84761391146E+01  0.46205278380E+01  0.14945212349E+02  0.41800000000E+01 0. -1.
        -11    1    4    4    0    0  0.26659623943E+02  0.11333504949E+02  0.59829818148E+02  0.66473987565E+02  0.00000000000E+00 0.  1.
         11    1    4    4    0    0 -0.49821570632E+02 -0.33769454324E+02  0.32385164660E+03  0.32939710678E+03  0.00000000000E+00 0. -1.
</event>
<event>
 8    1  0.6850220E-009  0.9858426E+02  0.7561462E-02  0.1283302E+00
         -2   -1    0    0    0  501 -0.00000000000E+00  0.00000000000E+00  0.16692022393E+02  0.16692022393E+02  0.00000000000E+00 0. -1.
          2   -1    0    0  501    0  0.00000000000E+00 -0.00000000000E+00 -0.71067354916E+03  0.71067354916E+03  0.00000000000E+00 0.  1.
         25    2    1    2    0    0  0.95711541583E+01 -0.86057718194E+01 -0.38935275765E+03  0.40915748199E+03  0.12509439987E+03 0.  0.
         23    2    1    2    0    0 -0.95711541583E+01  0.86057718194E+01 -0.30462876911E+03  0.31820808956E+03  0.91060611625E+02 0.  0.
          5    1    3    3  502    0 -0.44168870996E+01 -0.59528780751E+02 -0.29446809769E+03  0.30048646823E+03  0.41800000000E+01 0. -1.
         -5    1    3    3    0  502  0.13988041258E+02  0.50923008931E+02 -0.94884659962E+02  0.10867101377E+03  0.41800000000E+01 0. -1.
        -11    1    4    4    0    0  0.32657927158E+02  0.22772307158E+02 -0.20842079339E+03  0.21218940902E+03  0.00000000000E+00 0.  1.
         11    1    4    4    0    0 -0.42229081317E+02 -0.14166535339E+02 -0.96207975722E+02  0.10601868055E+03  0.00000000000E+00 0. -1.
</event>
<event>
 8    1  0.6850220E-009  0.1505809E+03  0.7561462E-02  0.1199761E+00
         -1   -1    0    0    0  501 -0.00000000000E+00  0.00000000000E+00  0.98732421609E+02  0.98732421609E+02  0.00000000000E+00 0.  1.
          1   -1    0    0  501    0  0.00000000000E+00 -0.00000000000E+00 -0.27675153975E+03  0.27675153975E+03  0.00000000000E+00 0. -1.
         25    2    1    2    0    0 -0.51107122827E+02 -0.12189666018E+03 -0.69307326738E+02  0.19473500727E+03  0.12508990267E+03 0.  0.
         23    2    1    2    0    0  0.51107122827E+02  0.12189666018E+03 -0.10871179140E+03  0.18074895409E+03  0.58148061429E+02 0.  0.
          5    1    3    3  502    0  0.16431182099E+02  0.46502452411E+01  0.19279274827E+02  0.26091595655E+02  0.41800000000E+01 0.  1.
         -5    1    3    3    0  502 -0.67538304925E+02 -0.12654690542E+03 -0.88586601565E+02  0.16864341161E+03  0.41800000000E+01 0.  1.
        -11    1    4    4    0    0  0.17335214759E+02  0.95914389331E+02 -0.54083818676E+02  0.11146810842E+03  0.00000000000E+00 0.  1.
         11    1    4    4    0    0  0.33771908068E+02  0.25982270848E+02 -0.54627972723E+02  0.69280845670E+02  0.00000000000E+00 0. -1.
</event>
<event>
 8    1  0.6850220E-009  0.1582921E+03  0.7561462E-02  0.1190639E+00
          4   -1    0    0  501    0  0.00000000000E+00  0.00000000000E+00  0.91097898956E+02  0.91097898956E+02  0.00000000000E+00 0. -1.
         -4   -1    0    0    0  501 -0.00000000000E+00 -0.00000000000E+00 -0.37907697759E+03  0.37907697759E+03  0.00000000000E+00 0.  1.
         25    2    1    2    0    0  0.11243391545E+03 -0.73327928146E+02 -0.66386048134E+02  0.19512218768E+03  0.12508872990E+03 0.  0.
         23    2    1    2    0    0 -0.11243391545E+03  0.73327928146E+02 -0.22159303050E+03  0.27505268887E+03  0.92369584270E+02 0.  0.
          5    1    3    3  502    0  0.11732993890E+03 -0.99133943169E+02 -0.42637364608E+02  0.15946557782E+03  0.41800000000E+01 0. -1.
         -5    1    3    3    0  502 -0.48960234505E+01  0.25806015023E+02 -0.23748683526E+02  0.35656609853E+02  0.41800000000E+01 0.  1.
        -11    1    4    4    0    0 -0.81753707843E+02  0.65253518663E+02 -0.21962962493E+03  0.24326706022E+03  0.00000000000E+00 0.  1.
         11    1    4    4    0    0 -0.30680207605E+02  0.80744094838E+01 -0.19634055786E+01  0.31785628650E+02  0.00000000000E+00 0. -1.
</event>
<event>
 8    1  0.6850220E-009  0.7960770E+02  0.7561462E-02  0.1330168E+00
         -2   -1    0    0    0  501 -0.00000000000E+00  0.00000000000E+00  0.94382385024E+02  0.94382385024E+02  0.00000000000E+00 0. -1.
          2   -1    0    0  501    0  0.00000000000E+00 -0.00000000000E+00 -0.18101202934E+03  0.18101202934E+03  0.00000000000E+00 0.  1.
         25    2    1    2    0    0  0.66934126268E+02  0.28967038588E+01 -0.10696993483E+02  0.14230475593E+03  0.12509056614E+03 0.  0.
         23    2    1    2    0    0 -0.66934126268E+02 -0.28967038588E+01 -0.75932650833E+02  0.13308965843E+03  0.86362732513E+02 0.  0.
          5    1    3    3  502    0  0.17771750032E+02  0.61949768435E+01  0.56028735614E+02  0.59252885599E+02  0.41800000000E+01 0. -1.
         -5    1    3    3    0  502  0.49162376236E+02 -0.32982729847E+01 -0.66725729098E+02  0.83051870331E+02  0.41800000000E+01 0. -1.
        -11    1    4    4    0    0 -0.96339502378E+01  0.24973859390E+02 -0.62471332060E+02  0.67964505290E+02  0.00000000000E+00 0.  1.
         11    1    4    4    0    0 -0.57300176030E+02 -0.27870563249E+02 -0.13461318773E+02  0.65125153144E+02  0.00000000000E+00 0. -1.
</event>
<event>
 8    1  0.6850220E-009  0.1468724E+03  0.7561462E-02  0.1204370E+00
          4   -1    0    0  501    0  0.00000000000E+00  0.00000000000E+00  0.46411156375E+03  0.46411156375E+03  0.00000000000E+00 0. -1.
         -4   -1    0    0    0  501 -0.00000000000E+00 -0.00000000000E+00 -0.48346665692E+02  0.48346665692E+02  0.00000000000E+00 0.  1.
         25    2    1    2    0    0  0.64409278532E+02  0.80984735443E+02  0.21296928365E+03  0.26779399337E+03  0.12510245630E+03 0.  0.
         23    2    1    2    0    0 -0.64409278532E+02 -0.80984735443E+02  0.20279561441E+03  0.24466423607E+03  0.89596008020E+02 0.  0.
          5    1    3    3  502    0  0.97552999146E+02  0.44036290293E+02  0.17493048767E+03  0.20511930778E+03  0.41800000000E+01 0.  1.
         -5    1    3    3    0  502 -0.33143720614E+02  0.36948445150E+02  0.38038795981E+02  0.62674685598E+02  0.41800000000E+01 0.  1.
        -11    1    4    4    0    0 -0.58149980510E+01 -0.77929686867E+02  0.11921603210E+03  0.14254582634E+03  0.00000000000E+00 0. -1.
         11    1    4    4    0    0 -0.58594280481E+02 -0.30550485757E+01  0.83579582301E+02  0.10211840972E+03  0.00000000000E+00 0.  1.
</event>
<event>
 8    1  0.6850220E-009  0.9356451E+02  0.7561462E-02  0.1294442E+00
         -2   -1    0    0    0  501 -0.00000000000E+00  0.00000000000E+00  0.17211437282E+02  0.17211437282E+02  0.00000000000E+00 0.  1.
          2   -1    0    0  501    0  0.00000000000E+00 -0.00000000000E+00 -0.11359723185E+04  0.11359723185E+04  0.00000000000E+00 0. -1.
         25    2    1    2    0    0 -0.39423714268E+02 -0.68488972055E+01 -0.89189666022E+03  0.90151466132E+03  0.12509154816E+03 0.  0.
         23    2    1    2    0    0  0.39423714268E+02  0.68488972055E+01 -0.22686422103E+03  0.25166909450E+03  0.10133519478E+03 0.  0.
          5    1    3    3  502    0 -0.77556630090E+02 -0.46390328795E+01 -0.36408669063E+03  0.37230785943E+03  0.41800000000E+01 0.  1.
         -5    1    3    3    0  502  0.38132915822E+02 -0.22098643260E+01 -0.52780996959E+03  0.52920680189E+03  0.41800000000E+01 0.  1.
        -11    1    4    4    0    0  0.28184822651E+02 -0.24655766149E+02 -0.21162377124E+03  0.21491140404E+03  0.00000000000E+00 0. -1.
         11    1    4    4    0    0  0.11238891617E+02  0.31504663354E+02 -0.15240449787E+02  0.36757690455E+02  0.00000000000E+00 0.  1.
</event>
<event>
 8    1  0.6850220E-009  0.1727838E+03  0.7561462E-02  0.1174975E+00
         -2   -1    0    0    0  501 -0.00000000000E+00  0.00000000000E+00  0.20931424672E+03  0.20931424672E+03  0.00000000000E+00 0.  1.
          2   -1    0    0  501    0  0.00000000000E+00 -0.00000000000E+00 -0.19530542431E+03  0.19530542431E+03  0.00000000000E+00 0. -1.
         25    2    1    2    0    0  0.52547907398E+02  0.15803865188E+03  0.50567197792E+02  0.21433968600E+03  0.12508781493E+03 0.  0.
         23    2    1    2    0    0 -0.52547907398E+02 -0.15803865188E+03 -0.36558375383E+02  0.19027998503E+03  0.84453891755E+02 0.  0.
          5    1    3    3  502    0  0.37247002341E+02  0.28038390889E+02  0.67651251002E+02  0.82265756601E+02  0.41800000000E+01 0.  1.
         -5    1    3    3    0  502  0.15300905057E+02  0.13000026099E+03 -0.17084053211E+02  0.13207392940E+03  0.41800000000E+01 0.  1.
        -11    1    4    4    0    0 -0.25986016541E+02 -0.10868265901E+03  0.16670524816E+02  0.11298274126E+03  0.00000000000E+00 0.  1.
         11    1    4    4    0    0 -0.26561890856E+02 -0.49355992873E+02 -0.53228900200E+02  0.77297243772E+02  0.00000000000E+00 0. -1.
</event>
<event>
 8    1  0.6850220E-009  0.1024543E+03  0.7561462E-02  0.1275218E+00
         -3   -1    0    0    0  501 -0.00000000000E+00  0.00000000000E+00  0.46591207550E+03  0.46591207550E+03  0.00000000000E+00 0.  1.
          3   -1    0    0  501    0  0.00000000000E+00 -0.00000000000E+00 -0.28637138214E+02  0.28637138214E+02  0.00000000000E+00 0. -1.
         25    2    1    2    0    0 -0.19570639968E+02 -0.27976437334E+02  0.20177141413E+03  0.23985091061E+03  0.12510421562E+03 0.  0.
         23    2    1    2    0    0  0.19570639968E+02  0.27976437334E+02  0.23550352316E+03  0.25469830310E+03  0.90794411672E+02 0.  0.
          5    1    3    3  502    0 -0.58106472375E+02 -0.38419593949E+02  0.18236727003E+03  0.19526320931E+03  0.41800000000E+01 0.  1.
         -5    1    3    3    0  502  0.38535832407E+02  0.10443156615E+02  0.19404144105E+02  0.44587701307E+02  0.41800000000E+01 0.  1.
        -11    1    4    4    0    0  0.38710895321E+01  0.59572581591E+02  0.12174133448E+03  0.13559067200E+03  0.00000000000E+00 0. -1.
         11    1    4    4    0    0  0.15699550436E+02 -0.31596144257E+02  0.11376218868E+03  0.11910763111E+03  0.00000000000E+00 0.  1.
</event>
<event>
 8    1  0.6850220E-009  0.1246091E+03  0.7561462E-02  0.1235681E+00
         -2   -1    0    0    0  501 -0.00000000000E+00  0.00000000000E+00  0.38995187391E+02  0.38995187391E+02  0.00000000000E+00 0. -1.
          2   -1    0    0  501    0  0.00000000000E+00 -0.00000000000E+00 -0.46250806532E+03  0.46250806532E+03  0.00000000000E+00 0.  1.
         25    2    1    2    0    0  0.67005809933E+02  0.28101227824E+01 -0.31210154877E+03  0.34286115706E+03  0.12509484771E+03 0.  0.
         23    2    1    2    0    0 -0.67005809933E+02 -0.28101227824E+01 -0.11141132916E+03  0.15864209565E+03  0.90868888466E+02 0.  0.
          5    1    3    3  502    0  0.58623971622E+02 -0.56223171548E+02 -0.19793637205E+03  0.21399554866E+03  0.41800000000E+01 0.  1.
         -5    1    3    3    0  502  0.83818383115E+01  0.59033294330E+02 -0.11416517672E+03  0.12886560840E+03  0.41800000000E+01 0.  1.
        -11    1    4    4    0    0 -0.13685209950E+02  0.38372180999E+02 -0.20839470872E+02  0.45760165998E+02  0.00000000000E+00 0. -1.
         11    1    4    4    0    0 -0.53320599984E+02 -0.41182303781E+02 -0.90571858288E+02  0.11288192965E+03  0.00000000000E+00 0.  1.
</event>
<event>
 8    1  0.6850220E-009  0.9470725E+02  0.7561462E-02  0.1291837E+00
         -1   -1    0    0    0  501 -0.00000000000E+00  0.00000000000E+00  0.45987351568E+02  0.45987351568E+02  0.00000000000E+00 0.  1.
          1   -1    0    0  501    0  0.00000000000E+00 -0.00000000000E+00 -0.28258130792E+03  0.28258130792E+03  0.00000000000E+00 0. -1.
         25    2    1    2    0    0 -0.22863045571E+02 -0.26445098460E+02 -0.14286629200E+03  0.19308039632E+03  0.12508876835E+03 0.  0.
         23    2    1    2    0    0  0.22863045571E+02  0.26445098460E+02 -0.93727664348E+02  0.13548826316E+03  0.91379058353E+02 0.  0.
          5    1    3    3  502    0 -0.67261174267E+02 -0.29618941972E+02 -0.12473459178E+03  0.14483624572E+03  0.41800000000E+01 0.  1.
         -5    1    3    3    0  502  0.44398128696E+02  0.31738435125E+01 -0.18131700218E+02  0.48244150601E+02  0.41800000000E+01 0.  1.
        -11    1    4    4    0    0 -0.56928304812E+01  0.39348900350E+02 -0.34281363158E+01  0.39906094726E+02  0.00000000000E+00 0.  1.
         11    1    4    4    0    0  0.28555876052E+02 -0.12903801890E+02 -0.90299528032E+02  0.95582168437E+02  0.00000000000E+00 0. -1.
</event>
<event>
 8    1  0.6850220E-009  0.1179794E+03  0.7561462E-02  0.1246468E+00
         -1   -1    0    0    0  501 -0.00000000000E+00  0.00000000000E+00  0.59785979221E+03  0.59785979221E+03  0.00000000000E+00 0.  1.
          1   -1    0    0  501    0  0.00000000000E+00 -0.00000000000E+00 -0.28428164258E+02  0.28428164258E+02  0.00000000000E+00 0. -1.
         25    2    1    2    0    0  0.50958007370E+02 -0.41637999939E+02  0.27480565934E+03  0.30902210979E+03  0.12508426112E+03 0.  0.
         23    2    1    2    0    0 -0.50958007370E+02  0.41637999939E+02  0.29462596861E+03  0.31726584668E+03  0.97584396976E+02 0.  0.
          5    1    3    3  502    0  0.74711853283E+02 -0.55205445921E+01  0.24529575845E+03  0.25651475386E+03  0.41800000000E+01 0. -1.
         -5    1    3    3    0  502 -0.23753845913E+02 -0.36117455347E+02  0.29509900889E+02  0.52507355931E+02  0.41800000000E+01 0. -1.
        -11    1    4    4    0    0 -0.39102953305E+02 -0.27207879612E+02  0.11040191857E+03  0.12024098009E+03  0.00000000000E+00 0. -1.
         11    1    4    4    0    0 -0.11855054064E+02  0.68845879551E+02  0.18422405004E+03  0.19702486658E+03  0.00000000000E+00 0.  1.
</event>
<event>
 8    1  0.6850220E-009  0.1022662E+03  0.7561462E-02  0.1275601E+00
          1   -1    0    0  501    0  0.00000000000E+00  0.00000000000E+00  0.23662336527E+03  0.23662336527E+03  0.00000000000E+00 0. -1.
         -1   -1    0    0    0  501 -0.00000000000E+00 -0.00000000000E+00 -0.69757197914E+02  0.69757197914E+02  0.00000000000E+00 0.  1.
         25    2    1    2    0    0  0.66063157711E+02  0.47834684196E+01  0.11376291838E+03  0.18160071393E+03  0.12509834261E+03 0.  0.
         23    2    1    2    0    0 -0.66063157711E+02 -0.47834684196E+01  0.53103248973E+02  0.12477984925E+03  0.91448528426E+02 0.  0.
          5    1    3    3  502    0  0.74209339788E+02 -0.19652233034E+02  0.13575194594E+02  0.78070446927E+02  0.41800000000E+01 0. -1.
         -5    1    3    3    0  502 -0.81461820772E+01  0.24435701454E+02  0.10018772379E+03  0.10353026700E+03  0.41800000000E+01 0. -1.
        -11    1    4    4    0    0 -0.24438822455E+02 -0.40105516938E+02  0.52149062591E+02  0.70180006134E+02  0.00000000000E+00 0. -1.
         11    1    4    4    0    0 -0.41624335256E+02  0.35322048518E+02  0.95418638287E+00  0.54599843120E+02  0.00000000000E+00 0.  1.
</event>
<event>
 8    1  0.6850220E-009  0.8913048E+02  0.7561462E-02  0.1304971E+00
          1   -1    0    0  501    0  0.00000000000E+00  0.00000000000E+00  0.18916641580E+03  0.18916641580E+03  0.00000000000E+00 0. -1.
         -1   -1    0    0    0  501 -0.00000000000E+00 -0.00000000000E+00 -0.83407404080E+02  0.83407404080E+02  0.00000000000E+00 0.  1.
         25    2    1    2    0    0 -0.31508551969E+02  0.11667327185E+02  0.81423883584E+00  0.12952831113E+03  0.12509198627E+03 0.  0.
         23    2    1    2    0    0  0.31508551969E+02 -0.11667327185E+02  0.10494477288E+03  0.14304550875E+03  0.91212372224E+02 0.  0.
          5    1    3    3  502    0 -0.66099816874E+02  0.33123990332E+02 -0.28333983374E+02  0.79288533472E+02  0.41800000000E+01 0.  1.
         -5    1    3    3    0  502  0.34591264905E+02 -0.21456663147E+02  0.29148222210E+02  0.50239777658E+02  0.41800000000E+01 0.  1.
        -11    1    4    4    0    0 -0.15010008993E+02 -0.69191092876E+01 -0.97468968935E+01  0.19187924389E+02  0.00000000000E+00 0.  1.
         11    1    4    4    0    0  0.46518560962E+02 -0.47482178972E+01  0.11469166978E+03  0.12385758436E+03  0.00000000000E+00 0. -1.
</event>
<event>
 8    1  0.6850220E-009  0.1130048E+03  0.7561462E-02  0.1255104E+00
         -2   -1    0    0    0  501 -0.00000000000E+00  0.00000000000E+00  0.25611136606E+02  0.25611136606E+02  0.00000000000E+00 0.  1.
          2   -1    0    0  501    0  0.00000000000E+00 -0.00000000000E+00 -0.71653847220E+03  0.71653847220E+03  0.00000000000E+00 0. -1.
         25    2    1    2    0    0  0.24581906917E+02 -0.74878300547E+02 -0.30918118950E+03  0.34271103335E+03  0.12508722718E+03 0.  0.
         23    2    1    2    0    0 -0.24581906917E+02  0.74878300547E+02 -0.38174614610E+03  0.39943857545E+03  0.87235459872E+02 0.  0.
          5    1    3    3  502    0  0.31119318560E+02  0.78203015921E+01 -0.21378991556E+03  0.21622481240E+03  0.41800000000E+01 0. -1.
         -5    1    3    3    0  502 -0.65374116429E+01 -0.82698602139E+02 -0.95391273941E+02  0.12648622095E+03  0.41800000000E+01 0. -1.
        -11    1    4    4    0    0  0.27649273948E+02  0.16254168006E+02 -0.18218926132E+03  0.18499083023E+03  0.00000000000E+00 0. -1.
         11    1    4    4    0    0 -0.52231180864E+02  0.58624132541E+02 -0.19955688477E+03  0.21444774522E+03  0.00000000000E+00 0.  1.
</event>
<event>
 8    1  0.6850220E-009  0.1168524E+03  0.7561462E-02  0.1248382E+00
          1   -1    0    0  501    0  0.00000000000E+00  0.00000000000E+00  0.56644207402E+03  0.56644207402E+03  0.00000000000E+00 0. -1.
         -1   -1    0    0    0  501 -0.00000000000E+00 -0.00000000000E+00 -0.41181655565E+02  0.41181655565E+02  0.00000000000E+00 0.  1.
         25    2    1    2    0    0  0.27548955580E+02  0.90951969550E+02  0.38561174306E+03  0.41638098379E+03  0.12508197934E+03 0.  0.
         23    2    1    2    0    0 -0.27548955580E+02 -0.90951969550E+02  0.13964867540E+03  0.19124274580E+03  0.89670672805E+02 0.  0.
          5    1    3    3  502    0  0.14259742167E+02  0.46771596304E+00  0.26270079564E+03  0.26312114973E+03  0.41800000000E+01 0.  1.
         -5    1    3    3    0  502  0.13289213413E+02  0.90484253587E+02  0.12291094742E+03  0.15325983406E+03  0.41800000000E+01 0.  1.
        -11    1    4    4    0    0 -0.57967447083E+02 -0.52066774831E+02  0.63622133967E+02  0.10059299127E+03  0.00000000000E+00 0.  1.
         11    1    4    4    0    0  0.30418491503E+02 -0.38885194719E+02  0.76026541429E+02  0.90649754524E+02  0.00000000000E+00 0. -1.
</event>
<event>
 8    1  0.6850220E-009  0.1629839E+03  0.7561462E-02  0.1185369E+00
         -1   -1    0    0    0  501 -0.00000000000E+00  0.00000000000E+00  0.10051766699E+03  0.10051766699E+03  0.00000000000E+00 0.  1.
          1   -1    0    0  501    0  0.00000000000E+00 -0.00000000000E+00 -0.42496687548E+03  0.42496687548E+03  0.00000000000E+00 0. -1.
         25    2    1    2    0    0  0.12103474795E+03  0.82532250379E+02 -0.28868818925E+03  0.34705830238E+03  0.12509041560E+03 0.  0.
         23    2    1    2    0    0 -0.12103474795E+03 -0.82532250379E+02 -0.35761019234E+02  0.17842624009E+03  0.95373424454E+02 0.  0.
          5    1    3    3  502    0  0.48010433050E+02  0.68307870404E+01 -0.10739833463E+02  0.49844535870E+02  0.41800000000E+01 0. -1.
         -5    1    3    3    0  502  0.73024314900E+02  0.75701463339E+02 -0.27794835579E+03  0.29721376651E+03  0.41800000000E+01 0. -1.
        -11    1    4    4    0    0 -0.96541961314E+02 -0.11902454990E+02 -0.44406436100E+01  0.97374216530E+02  0.00000000000E+00 0.  1.
         11    1    4    4    0    0 -0.24492786636E+02 -0.70629795390E+02 -0.31320375624E+02  0.81052023560E+02  0.00000000000E+00 0. -1.
</event>
<event>
 8    1  0.6850220E-009  0.1095396E+03  0.7561462E-02  0.1261425E+00
         -2   -1    0    0    0  501 -0.00000000000E+00  0.00000000000E+00  0.71884649508E+02  0.71884649508E+02  0.00000000000E+00 0.  1.
          2   -1    0    0  501    0  0.00000000000E+00 -0.00000000000E+00 -0.21375485178E+03  0.21375485178E+03  0.00000000000E+00 0. -1.
         25    2    1    2    0    0  0.26667252577E+00  0.55092167040E+02 -0.10201056212E+03  0.17055356624E+03  0.12508855339E+03 0.  0.
         23    2    1    2    0    0 -0.26667252577E+00 -0.55092167040E+02 -0.39859640148E+02  0.11508593505E+03  0.92848067024E+02 0.  0.
          5    1    3    3  502    0 -0.54028141025E+02  0.31967689504E+02 -0.13916180614E+02  0.64436834789E+02  0.41800000000E+01 0.  1.
         -5    1    3    3    0  502  0.54294813550E+02  0.23124477536E+02 -0.88094381509E+02  0.10611673145E+03  0.41800000000E+01 0.  1.
        -11    1    4    4    0    0  0.89743202144E+01 -0.74746099059E+02 -0.50748998515E+02  0.90790850850E+02  0.00000000000E+00 0. -1.
         11    1    4    4    0    0 -0.92409927402E+01  0.19653932019E+02  0.10889358367E+02  0.24295084200E+02  0.00000000000E+00 0.  1.
</event>
<event>
 8    1  0.6850220E-009  0.2690734E+03  0.7561462E-02  0.1101811E+00
         -1   -1    0    0    0  501 -0.00000000000E+00  0.00000000000E+00  0.11494139756E+03  0.11494139756E+03  0.00000000000E+00 0.  1.
          1   -1    0    0  501    0  0.00000000000E+00 -0.00000000000E+00 -0.71508397862E+03  0.71508397862E+03  0.00000000000E+00 0. -1.
         25    2    1    2    0    0  0.25721577798E+03 -0.37490829453E+02 -0.23157800612E+03  0.36991997530E+03  0.12508755522E+03 0.  0.
         23    2    1    2    0    0 -0.25721577798E+03  0.37490829453E+02 -0.36856457493E+03  0.46010540088E+03  0.91058307072E+02 0.  0.
          5    1    3    3  502    0  0.25313441564E+02  0.10829595232E+02  0.11820177495E+02  0.30252924697E+02  0.41800000000E+01 0. -1.
         -5    1    3    3    0  502  0.23190233642E+03 -0.48320424685E+02 -0.24339818362E+03  0.33966705060E+03  0.41800000000E+01 0. -1.
        -11    1    4    4    0    0 -0.77761546562E+02  0.51673450236E+02 -0.10018760790E+03  0.13694729044E+03  0.00000000000E+00 0.  1.
         11    1    4    4    0    0 -0.17945423142E+03 -0.14182620783E+02 -0.26837696703E+03  0.32315811043E+03  0.00000000000E+00 0. -1.
</event>
<event>
 8    1  0.6850220E-009  0.2437649E+03  0.7561462E-02  0.1117310E+00
          2   -1    0    0  501    0  0.00000000000E+00  0.00000000000E+00  0.79764228171E+03  0.79764228171E+03  0.00000000000E+00 0. -1.
         -2   -1    0    0    0  501 -0.00000000000E+00 -0.00000000000E+00 -0.80605193016E+02  0.80605193016E+02  0.00000000000E+00 0.  1.
         25    2    1    2    0    0 -0.11375230936E+03 -0.19766335531E+03  0.41321084868E+03  0.48826588260E+03  0.12509986703E+03 0.  0.
         23    2    1    2    0    0  0.11375230936E+03  0.19766335531E+03  0.30382624002E+03  0.38998159213E+03  0.88118489312E+02 0.  0.
          5    1    3    3  502    0 -0.88266126086E+02 -0.60446674862E+02  0.25889306525E+03  0.28015674389E+03  0.41800000000E+01 0. -1.
         -5    1    3    3    0  502 -0.25486183274E+02 -0.13721668045E+03  0.15431778343E+03  0.20810913871E+03  0.41800000000E+01 0. -1.
        -11    1    4    4    0    0  0.12534102241E+03  0.18682146928E+03  0.29728921143E+03  0.37281833179E+03  0.00000000000E+00 0. -1.
         11    1    4    4    0    0 -0.11588713052E+02  0.10841886023E+02  0.65370285914E+01  0.17163260342E+02  0.00000000000E+00 0.  1.
</event>
<event>
 8    1  0.6850220E-009  0.1192912E+03  0.7561462E-02  0.1244271E+00
          1   -1    0    0  501    0  0.00000000000E+00  0.00000000000E+00  0.43375536877E+03  0.43375536877E+03  0.00000000000E+00 0. -1.
         -1   -1    0    0    0  501 -0.00000000000E+00 -0.00000000000E+00 -0.43868834191E+02  0.43868834191E+02  0.00000000000E+00 0.  1.
         25    2    1    2    0    0 -0.10358656166E+02  0.81311359411E+02  0.19759127526E+03  0.24780697409E+03  0.12508855032E+03 0.  0.
         23    2    1    2    0    0  0.10358656166E+02 -0.81311359411E+02  0.19229525932E+03  0.22981722887E+03  0.95496874318E+02 0.  0.
          5    1    3    3  502    0  0.19082668141E+02  0.98068406792E+02  0.88614378234E+02  0.13360965932E+03  0.41800000000E+01 0. -1.
         -5    1    3    3    0  502 -0.29441324307E+02 -0.16757047381E+02  0.10897689703E+03  0.11419731477E+03  0.41800000000E+01 0. -1.
        -11    1    4    4    0    0 -0.23568278484E+02 -0.59814300242E+02  0.17435159925E+03  0.18582705515E+03  0.00000000000E+00 0. -1.
         11    1    4    4    0    0  0.33926934649E+02 -0.21497059169E+02  0.17943660063E+02  0.43990173722E+02  0.00000000000E+00 0.  1.
</event>
<event>
 8    1  0.6850220E-009  0.7962133E+02  0.7561462E-02  0.1330130E+00
          1   -1    0    0  501    0  0.00000000000E+00  0.00000000000E+00  0.23220732252E+03  0.23220732252E+03  0.00000000000E+00 0. -1.
         -1   -1    0    0    0  501 -0.00000000000E+00 -0.00000000000E+00 -0.58802481386E+02  0.58802481386E+02  0.00000000000E+00 0.  1.
         25    2    1    2    0    0 -0.65420085351E+01 -0.20277720981E+02  0.45189093561E+02  0.13469955902E+03  0.12509169908E+03 0.  0.
         23    2    1    2    0    0  0.65420085351E+01  0.20277720981E+02  0.12821574757E+03  0.15631024489E+03  0.86831047945E+02 0.  0.
          5    1    3    3  502    0 -0.24508235377E+02  0.46464906376E+02  0.12942129659E+01  0.52714215474E+02  0.41800000000E+01 0.  1.
         -5    1    3    3    0  502  0.17966226842E+02 -0.66742627357E+02  0.43894880595E+02  0.81985343544E+02  0.41800000000E+01 0.  1.
        -11    1    4    4    0    0 -0.33264519377E+01  0.25784804011E+02  0.13856708007E+03  0.14098495338E+03  0.00000000000E+00 0. -1.
         11    1    4    4    0    0  0.98684604728E+01 -0.55070830299E+01 -0.10351332492E+02  0.15325291513E+02  0.00000000000E+00 0.  1.
</event>
<event>
 8    1  0.6850220E-009  0.1003185E+03  0.7561462E-02  0.1279628E+00
         -2   -1    0    0    0  501 -0.00000000000E+00  0.00000000000E+00  0.11671279867E+02  0.11671279867E+02  0.00000000000E+00 0.  1.
          2   -1    0    0  501    0  0.00000000000E+00 -0.00000000000E+00 -0.16626969949E+04  0.16626969949E+04  0.00000000000E+00 0. -1.
         25    2    1    2    0    0 -0.47425460190E+02  0.12169167776E+02 -0.13392527356E+04  0.13459755573E+04  0.12512013422E+03 0.  0.
         23    2    1    2    0    0  0.47425460190E+02 -0.12169167776E+02 -0.31177297942E+03  0.32839271751E+03  0.90786140432E+02 0.  0.
          5    1    3    3  502    0 -0.72704039605E+02 -0.30859997420E+02 -0.62783712688E+03  0.63279945252E+03  0.41800000000E+01 0. -1.
         -5    1    3    3    0  502  0.25278579415E+02  0.43029165197E+02 -0.71141560876E+03  0.71317610477E+03  0.41800000000E+01 0. -1.
        -11    1    4    4    0    0  0.74457914984E+01  0.19234627423E+02 -0.11042710233E+02  0.23395558391E+02  0.00000000000E+00 0.  1.
         11    1    4    4    0    0  0.39979668692E+02 -0.31403795199E+02 -0.30073026919E+03  0.30499715912E+03  0.00000000000E+00 0. -1.
</event>
<event>
 8    1  0.6850220E-009  0.1005323E+03  0.7561462E-02  0.1279181E+00
         -3   -1    0    0    0  501 -0.00000000000E+00  0.00000000000E+00  0.10930147345E+04  0.10930147345E+04  0.00000000000E+00 0.  1.
          3   -1    0    0  501    0  0.00000000000E+00 -0.00000000000E+00 -0.35114999667E+02  0.35114999667E+02  0.00000000000E+00 0. -1.
         25    2    1    2    0    0 -0.87124885765E+02 -0.24577013931E+02  0.94610107254E+03  0.95862059982E+03  0.12510571368E+03 0.  0.
         23    2    1    2    0    0  0.87124885765E+02  0.24577013931E+02  0.11179866226E+03  0.16950913432E+03  0.89663986089E+02 0.  0.
          5    1    3    3  502    0 -0.68929756025E+02 -0.23531625394E+02  0.21054046480E+03  0.22282236956E+03  0.41800000000E+01 0. -1.
         -5    1    3    3    0  502 -0.18195129740E+02 -0.10453885374E+01  0.73556060774E+03  0.73579823026E+03  0.41800000000E+01 0. -1.
        -11    1    4    4    0    0  0.89922038008E+02  0.36586247416E+02  0.55393577567E+02  0.11177197706E+03  0.00000000000E+00 0. -1.
         11    1    4    4    0    0 -0.27971522428E+01 -0.12009233485E+02  0.56405084694E+02  0.57737157263E+02  0.00000000000E+00 0.  1.
</event>
<event>
 8    1  0.6850220E-009  0.1484891E+03  0.7561462E-02  0.1202342E+00
          2   -1    0    0  501    0  0.00000000000E+00  0.00000000000E+00  0.85448414765E+02  0.85448414765E+02  0.00000000000E+00 0. -1.
         -2   -1    0    0    0  501 -0.00000000000E+00 -0.00000000000E+00 -0.27339578423E+03  0.27339578423E+03  0.00000000000E+00 0.  1.
         25    2    1    2    0    0 -0.65683109578E+02 -0.76146252741E+02 -0.13055227416E+03  0.20689132765E+03  0.12509037725E+03 0.  0.
         23    2    1    2    0    0  0.65683109578E+02  0.76146252741E+02 -0.57395095304E+02  0.15195287134E+03  0.98402009392E+02 0.  0.
          5    1    3    3  502    0  0.26114299887E+02 -0.58527241247E+02 -0.34940392433E+02  0.73114280752E+02  0.41800000000E+01 0.  1.
         -5    1    3    3    0  502 -0.91797409465E+02 -0.17619011494E+02 -0.95611881725E+02  0.13377704690E+03  0.41800000000E+01 0.  1.
        -11    1    4    4    0    0  0.65765392132E+02  0.97623596577E+02 -0.56212857011E+02  0.13044285609E+03  0.00000000000E+00 0.  1.
         11    1    4    4    0    0 -0.82282553743E-01 -0.21477343836E+02 -0.11822382922E+01  0.21510015250E+02  0.00000000000E+00 0. -1.
</event>
<event>
 8    1  0.6850220E-009  0.1037462E+03  0.7561462E-02  0.1272610E+00
         -2   -1    0    0    0  501 -0.00000000000E+00  0.00000000000E+00  0.16157580993E+02  0.16157580993E+02  0.00000000000E+00 0.  1.
          2   -1    0    0  501    0  0.00000000000E+00 -0.00000000000E+00 -0.77491881307E+03  0.77491881307E+03  0.00000000000E+00 0. -1.
         25    2    1    2    0    0 -0.63767107216E+01  0.19668530595E+02 -0.46599278497E+03  0.48293265329E+03  0.12508860232E+03 0.  0.
         23    2    1    2    0    0  0.63767107216E+01 -0.19668530595E+02 -0.29276844710E+03  0.30814374077E+03  0.93870590835E+02 0.  0.
          5    1    3    3  502    0  0.13607145207E+02 -0.44931499053E+02 -0.97874329360E+02  0.10863172076E+03  0.41800000000E+01 0.  1.
         -5    1    3    3    0  502 -0.19983855928E+02  0.64600029648E+02 -0.36811845561E+03  0.37430093252E+03  0.41800000000E+01 0.  1.
        -11    1    4    4    0    0  0.54772502570E+01  0.36261750600E+02 -0.15853682644E+03  0.16272320106E+03  0.00000000000E+00 0.  1.
         11    1    4    4    0    0  0.89946046456E+00 -0.55930281195E+02 -0.13423162067E+03  0.14542053971E+03  0.00000000000E+00 0. -1.
</event>
<event>
 8    1  0.6850220E-009  0.1338359E+03  0.7561462E-02  0.1221872E+00
         -1   -1    0    0    0  501 -0.00000000000E+00  0.00000000000E+00  0.23901172432E+02  0.23901172432E+02  0.00000000000E+00 0.  1.
          1   -1    0    0  501    0  0.00000000000E+00 -0.00000000000E+00 -0.97264074238E+03  0.97264074238E+03  0.00000000000E+00 0. -1.
         25    2    1    2    0    0 -0.22777242162E+02  0.99870616665E+02 -0.59346746570E+03  0.61509614166E+03  0.12508672117E+03 0.  0.
         23    2    1    2    0    0  0.22777242162E+02 -0.99870616665E+02 -0.35527210425E+03  0.38144577315E+03  0.93753223740E+02 0.  0.
          5    1    3    3  502    0  0.28134809135E+02  0.10310495242E+03 -0.33681505393E+03  0.35338937682E+03  0.41800000000E+01 0. -1.
         -5    1    3    3    0  502 -0.50912051296E+02 -0.32343357586E+01 -0.25665241177E+03  0.26170676484E+03  0.41800000000E+01 0. -1.
        -11    1    4    4    0    0  0.17602567731E+02 -0.11540675701E+02 -0.71108742731E+01  0.22217158218E+02  0.00000000000E+00 0.  1.
         11    1    4    4    0    0  0.51746744306E+01 -0.88329940963E+02 -0.34816122998E+03  0.35922861493E+03  0.00000000000E+00 0. -1.
</event>
<event>
 7    1  0.6850220E-009  0.8962859E+02  0.7561462E-02  0.1303754E+00
          2   -1    0    0  501    0  0.00000000000E+00  0.00000000000E+00  0.28505316618E+03  0.28505316618E+03  0.00000000000E+00 0. -1.
         -2   -1    0    0    0  501 -0.00000000000E+00 -0.00000000000E+00 -0.53717904240E+02  0.53717904240E+02  0.00000000000E+00 0.  1.
         23    2    1    2    0    0 -0.29994032244E+02 -0.50857134652E+02  0.80713149536E+02  0.13437919977E+03  0.89761164811E+02 0.  0.
          5    1    1    2  502    0 -0.19539146929E+01 -0.30347667011E+02  0.50109323897E+00  0.30700523938E+02  0.41800000000E+01 0. -1.
         -5    1    1    2    0  502  0.31947946937E+02  0.81204801663E+02  0.15012101916E+03  0.17369134671E+03  0.41800000000E+01 0. -1.
        -11    1    3    3    0    0 -0.10628963034E+02 -0.33660847112E+02 -0.12644843666E+02  0.37495593805E+02  0.00000000000E+00 0.  1.
         11    1    3    3    0    0 -0.19365069210E+02 -0.17196287541E+02  0.93357993202E+02  0.96883605968E+02  0.00000000000E+00 0. -1.
</event>
<event>
 8    1  0.6850220E-009  0.1200302E+03  0.7561462E-02  0.1243047E+00
          2   -1    0    0  501    0  0.00000000000E+00  0.00000000000E+00  0.46764394121E+03  0.46764394121E+03  0.00000000000E+00 0. -1.
         -2   -1    0    0    0  501 -0.00000000000E+00 -0.00000000000E+00 -0.34245508864E+02  0.34245508864E+02  0.00000000000E+00 0.  1.
         25    2    1    2    0    0  0.40555141720E+02 -0.50871264425E+02  0.22543209916E+03  0.26589233242E+03  0.12508595462E+03 0.  0.
         23    2    1    2    0    0 -0.40555141720E+02  0.50871264425E+02  0.20796633319E+03  0.23599711766E+03  0.90620299809E+02 0.  0.
          5    1    3    3  502    0  0.58347218343E+02 -0.84403099441E+02  0.15954024302E+03  0.18973360964E+03  0.41800000000E+01 0.  1.
         -5    1    3    3    0  502 -0.17792076623E+02  0.33531835017E+02  0.65891856136E+02  0.76158722778E+02  0.41800000000E+01 0.  1.
        -11    1    4    4    0    0 -0.20120827179E+02  0.68992584963E+02  0.91380951981E+02  0.11625533472E+03  0.00000000000E+00 0. -1.
         11    1    4    4    0    0 -0.20434314541E+02 -0.18121320538E+02  0.11658538121E+03  0.11974178293E+03  0.00000000000E+00 0.  1.
</event>
<event>
 8    1  0.6850220E-009  0.3840268E+02  0.7561462E-02  0.1520306E+00
          2   -1    0    0  501    0  0.00000000000E+00  0.00000000000E+00  0.14540905176E+03  0.14540905176E+03  0.00000000000E+00 0. -1.
         -2   -1    0    0    0  501 -0.00000000000E+00 -0.00000000000E+00 -0.13500579111E+03  0.13500579111E+03  0.00000000000E+00 0.  1.
         25    2    1    2    0    0 -0.17234556136E+02 -0.19407100747E+02  0.88531585461E+02  0.15543061181E+03  0.12508864048E+03 0.  0.
         23    2    1    2    0    0  0.17234556136E+02  0.19407100747E+02 -0.78128324813E+02  0.12498423106E+03  0.94039126920E+02 0.  0.
          5    1    3    3  502    0  0.10729056210E+01 -0.19868630263E+02 -0.29547364725E+02  0.35866875487E+02  0.41800000000E+01 0.  1.
         -5    1    3    3    0  502 -0.18307461757E+02  0.46152951614E+00  0.11807895019E+03  0.11956373632E+03  0.41800000000E+01 0.  1.
        -11    1    4    4    0    0  0.24405323921E+02  0.11387740204E+02 -0.98408657482E+02  0.10202727248E+03  0.00000000000E+00 0.  1.
         11    1    4    4    0    0 -0.71707677853E+01  0.80193605421E+01  0.20280332669E+02  0.22956958581E+02  0.00000000000E+00 0. -1.
</event>
<event>
 8    1  0.6850220E-009  0.1267500E+03  0.7561462E-02  0.1232359E+00
         -2   -1    0    0    0  501 -0.00000000000E+00  0.00000000000E+00  0.62988737050E+02  0.62988737050E+02  0.00000000000E+00 0.  1.
          2   -1    0    0  501    0  0.00000000000E+00 -0.00000000000E+00 -0.43243387543E+03  0.43243387543E+03  0.00000000000E+00 0. -1.
         25    2    1    2    0    0 -0.34970256961E+02  0.91220590362E+02 -0.31121252885E+03  0.34935866121E+03  0.12511643004E+03 0.  0.
         23    2    1    2    0    0  0.34970256961E+02 -0.91220590362E+02 -0.58232609529E+02  0.14606395128E+03  0.91648928374E+02 0.  0.
          5    1    3    3  502    0 -0.54074865080E+02  0.41656763423E+02 -0.27863801406E+03  0.28690763715E+03  0.41800000000E+01 0. -1.
         -5    1    3    3    0  502  0.19104608119E+02  0.49563826939E+02 -0.32574514791E+02  0.62451024060E+02  0.41800000000E+01 0. -1.
        -11    1    4    4    0    0 -0.12002894242E+01 -0.95410096081E+02 -0.53367444877E+02  0.10932799871E+03  0.00000000000E+00 0. -1.
         11    1    4    4    0    0  0.36170546385E+02  0.41895057191E+01 -0.48651646513E+01  0.36735952568E+02  0.00000000000E+00 0.  1.
</event>
<event>
 8    1  0.6850220E-009  0.1097819E+03  0.7561462E-02  0.1260974E+00
         -2   -1    0    0    0  501 -0.00000000000E+00  0.00000000000E+00  0.18974986523E+02  0.18974986523E+02  0.00000000000E+00 0.  1.
          2   -1    0    0  501    0  0.00000000000E+00 -0.00000000000E+00 -0.69991877703E+03  0.69991877703E+03  0.00000000000E+00 0. -1.
         25    2    1    2    0    0 -0.10532931797E+02 -0.86494139754E+01 -0.29147713980E+03  0.31747808243E+03  0.12509058629E+03 0.  0.
         23    2    1    2    0    0  0.10532931797E+02  0.86494139754E+01 -0.38946665070E+03  0.40141568113E+03  0.96252387141E+02 0.  0.
          5    1    3    3  502    0 -0.32188087339E+02  0.50066222419E+02 -0.10543221044E+03  0.12114504940E+03  0.41800000000E+01 0.  1.
         -5    1    3    3    0  502  0.21655155542E+02 -0.58715636394E+02 -0.18604492936E+03  0.19633303303E+03  0.41800000000E+01 0.  1.
        -11    1    4    4    0    0 -0.42900757791E+02  0.85357930856E+01 -0.18083835731E+03  0.18605334251E+03  0.00000000000E+00 0. -1.
         11    1    4    4    0    0  0.53433689588E+02  0.11362088987E+00 -0.20862829339E+03  0.21536233862E+03  0.00000000000E+00 0.  1.
</event>
<event>
 8    1  0.6850220E-009  0.9935879E+02  0.7561462E-02  0.1281650E+00
          2   -1    0    0  501    0  0.00000000000E+00  0.00000000000E+00  0.50119295620E+02  0.50119295620E+02  0.00000000000E+00 0.  1.
         -2   -1    0    0    0  501 -0.00000000000E+00 -0.00000000000E+00 -0.28049351143E+03  0.28049351143E+03  0.00000000000E+00 0. -1.
         25    2    1    2    0    0  0.40767993572E+02 -0.23986629720E+02 -0.13075589594E+03  0.18703252043E+03  0.12508665664E+03 0.  0.
         23    2    1    2    0    0 -0.40767993572E+02  0.23986629720E+02 -0.99618319875E+02  0.14358028662E+03  0.91946187236E+02 0.  0.
          5    1    3    3  502    0  0.17988739268E+02 -0.67447129140E+02 -0.11630592562E+03  0.13571017170E+03  0.41800000000E+01 0. -1.
         -5    1    3    3    0  502  0.22779254303E+02  0.43460499419E+02 -0.14449970319E+02  0.51322348725E+02  0.41800000000E+01 0. -1.
        -11    1    4    4    0    0 -0.55461034299E+02  0.30696153325E+02 -0.10811623848E+03  0.12532877235E+03  0.00000000000E+00 0. -1.
         11    1    4    4    0    0  0.14693040727E+02 -0.67095236050E+01  0.84979186062E+01  0.18251514278E+02  0.00000000000E+00 0.  1.
</event>
<event>
 8    1  0.6850220E-009  0.9046025E+02  0.7561462E-02  0.1301741E+00
          1   -1    0    0  501    0  0.00000000000E+00  0.00000000000E+00  0.11050562114E+03  0.11050562114E+03  0.00000000000E+00 0. -1.
         -1   -1    0    0    0  501 -0.00000000000E+00 -0.00000000000E+00 -0.16513219039E+03  0.16513219039E+03  0.00000000000E+00 0.  1.
         25    2    1    2    0    0 -0.52026857272E+01 -0.41196562062E+02 -0.10078837477E+03  0.16589247777E+03  0.12505116164E+03 0.  0.
         23    2    1    2    0    0  0.52026857272E+01  0.41196562062E+02  0.46161805520E+02  0.10974533375E+03  0.90492548459E+02 0.  0.
          5    1    3    3  502    0 -0.60400827431E+01 -0.73567714415E+02 -0.16852689998E+02  0.75829919978E+02  0.41800000000E+01 0. -1.
         -5    1    3    3    0  502  0.83739701584E+00  0.32371152352E+02 -0.83935684773E+02  0.90062557796E+02  0.41800000000E+01 0. -1.
        -11    1    4    4    0    0  0.33120757764E+02  0.16232260439E+02 -0.13521162906E+02  0.39284764479E+02  0.00000000000E+00 0. -1.
         11    1    4    4    0    0 -0.27918072037E+02  0.24964301624E+02  0.59682968427E+02  0.70460569271E+02  0.00000000000E+00 0.  1.
</event>
<event>
 8    1  0.6850220E-009  0.1020779E+03  0.7561462E-02  0.1275986E+00
          1   -1    0    0  501    0  0.00000000000E+00  0.00000000000E+00  0.25151238225E+03  0.25151238225E+03  0.00000000000E+00 0. -1.
         -1   -1    0    0    0  501 -0.00000000000E+00 -0.00000000000E+00 -0.60582769443E+02  0.60582769443E+02  0.00000000000E+00 0.  1.
         25    2    1    2    0    0  0.13872620472E+02  0.25389993841E+02  0.16674016640E+03  0.21044238996E+03  0.12508643018E+03 0.  0.
         23    2    1    2    0    0 -0.13872620472E+02 -0.25389993841E+02  0.24189446404E+02  0.10165276173E+03  0.94398375325E+02 0.  0.
          5    1    3    3  502    0  0.13196831441E+02 -0.48562271036E+02  0.43476996451E+02  0.66634616744E+02  0.41800000000E+01 0.  1.
         -5    1    3    3    0  502  0.67578903089E+00  0.73952264877E+02  0.12326316995E+03  0.14380777322E+03  0.41800000000E+01 0.  1.
        -11    1    4    4    0    0  0.59831692091E+01  0.24852161620E+02 -0.19518745571E+02  0.32162239966E+02  0.00000000000E+00 0.  1.
         11    1    4    4    0    0 -0.19855789681E+02 -0.50242155461E+02  0.43708191975E+02  0.69490521764E+02  0.00000000000E+00 0. -1.
</event>
<event>
 8    1  0.6850220E-009  0.1148964E+03  0.7561462E-02  0.1251762E+00
         -1   -1    0    0    0  501 -0.00000000000E+00  0.00000000000E+00  0.64846676590E+02  0.64846676590E+02  0.00000000000E+00 0.  1.
          1   -1    0    0  501    0  0.00000000000E+00 -0.00000000000E+00 -0.40213785444E+03  0.40213785444E+03  0.00000000000E+00 0. -1.
         25    2    1    2    0    0 -0.62707849356E+02 -0.28407979724E+02 -0.32384007394E+03  0.35390769435E+03  0.12505588728E+03 0.  0.
         23    2    1    2    0    0  0.62707849356E+02  0.28407979724E+02 -0.13451103903E+02  0.11307683668E+03  0.88691324911E+02 0.  0.
          5    1    3    3  502    0  0.23066187830E+02  0.20704718958E+02 -0.28047529291E+02  0.42010364286E+02  0.41800000000E+01 0.  1.
         -5    1    3    3    0  502 -0.85774037185E+02 -0.49112698681E+02 -0.29579254465E+03  0.31189733006E+03  0.41800000000E+01 0.  1.
        -11    1    4    4    0    0 -0.16088591778E+02  0.90101300039E+01  0.18260897031E+02  0.25951600885E+02  0.00000000000E+00 0.  1.
         11    1    4    4    0    0  0.78796441134E+02  0.19397849720E+02 -0.31712000934E+02  0.87125235795E+02  0.00000000000E+00 0. -1.
</event>
<event>
 8    1  0.6850220E-009  0.2001254E+03  0.7561462E-02  0.1149633E+00
          2   -1    0    0  501    0  0.00000000000E+00  0.00000000000E+00  0.14137081688E+03  0.14137081688E+03  0.00000000000E+00 0. -1.
         -2   -1    0    0    0  501 -0.00000000000E+00 -0.00000000000E+00 -0.31268234016E+03  0.31268234016E+03  0.00000000000E+00 0.  1.
         25    2    1    2    0    0 -0.17651218378E+03  0.18919935503E+02 -0.59160699272E+02  0.22508164065E+03  0.12508893492E+03 0.  0.
         23    2    1    2    0    0  0.17651218378E+03 -0.18919935503E+02 -0.11215082401E+03  0.22897151638E+03  0.91299687875E+02 0.  0.
          5    1    3    3  502    0  0.32886580270E+01 -0.30232702248E+02 -0.95690619266E+01  0.32153862956E+02  0.41800000000E+01 0. -1.
         -5    1    3    3    0  502 -0.17980084181E+03  0.49152637751E+02 -0.49591637345E+02  0.19292777770E+03  0.41800000000E+01 0. -1.
        -11    1    4    4    0    0  0.14423349203E+03  0.26994882724E+01 -0.12195789267E+03  0.18890292493E+03  0.00000000000E+00 0.  1.
         11    1    4    4    0    0  0.32278691747E+02 -0.21619423776E+02  0.98070686653E+01  0.40068591454E+02  0.00000000000E+00 0. -1.
</event>
<event>
 8    1  0.6850220E-009  0.1676682E+03  0.7561462E-02  0.1180302E+00
          4   -1    0    0  501    0  0.00000000000E+00  0.00000000000E+00  0.45741920045E+02  0.45741920045E+02  0.00000000000E+00 0.  1.
         -4   -1    0    0    0  501 -0.00000000000E+00 -0.00000000000E+00 -0.79002022351E+03  0.79002022351E+03  0.00000000000E+00 0. -1.
         25    2    1    2    0    0  0.15364291857E+03 -0.12454436147E+02 -0.48475669775E+03  0.52383196853E+03  0.12509842462E+03 0.  0.
         23    2    1    2    0    0 -0.15364291857E+03  0.12454436147E+02 -0.25952160572E+03  0.31193017502E+03  0.78662003815E+02 0.  0.
          5    1    3    3  502    0  0.44604143337E+02  0.19247547301E+02 -0.35201512691E+02  0.60138312046E+02  0.41800000000E+01 0.  1.
         -5    1    3    3    0  502  0.10903877524E+03 -0.31701983448E+02 -0.44955518505E+03  0.46369365649E+03  0.41800000000E+01 0.  1.
        -11    1    4    4    0    0 -0.10971178841E+03  0.44682301005E+02 -0.17250438020E+03  0.20926286275E+03  0.00000000000E+00 0.  1.
         11    1    4    4    0    0 -0.43931130164E+02 -0.32227864858E+02 -0.87017225519E+02  0.10266731227E+03  0.00000000000E+00 0. -1.
</event>
<event>
 8    1  0.6850220E-009  0.1274673E+03  0.7561462E-02  0.1231263E+00
          1   -1    0    0  501    0  0.00000000000E+00  0.00000000000E+00  0.11851400633E+04  0.11851400633E+04  0.00000000000E+00 0. -1.
         -1   -1    0    0    0  501 -0.00000000000E+00 -0.00000000000E+00 -0.16728058180E+02  0.16728058180E+02  0.00000000000E+00 0.  1.
         25    2    1    2    0    0 -0.26272965080E+02 -0.66764970992E+02  0.89068286164E+03  0.90227786140E+03  0.12506617885E+03 0.  0.
         23    2    1    2    0    0  0.26272965080E+02  0.66764970992E+02  0.27772914343E+03  0.29959026004E+03  0.86446612161E+02 0.  0.
          5    1    3    3  502    0 -0.68824015728E+02 -0.73546226422E+02  0.60896752317E+03  0.61725578914E+03  0.41800000000E+01 0. -1.
         -5    1    3    3    0  502  0.42551050647E+02  0.67812554302E+01  0.28171533848E+03  0.28502207225E+03  0.41800000000E+01 0. -1.
        -11    1    4    4    0    0  0.47815048901E+02  0.83081307598E+01  0.97771672356E+02  0.10915403727E+03  0.00000000000E+00 0.  1.
         11    1    4    4    0    0 -0.21542083820E+02  0.58456840232E+02  0.17995747108E+03  0.19043622277E+03  0.00000000000E+00 0. -1.
</event>
<event>
 8    1  0.6850220E-009  0.1105788E+03  0.7561462E-02  0.1259502E+00
         -2   -1    0    0    0  501 -0.00000000000E+00  0.00000000000E+00  0.48377349029E+02  0.48377349029E+02  0.00000000000E+00 0.  1.
          2   -1    0    0  501    0  0.00000000000E+00 -0.00000000000E+00 -0.39389479834E+03  0.39389479834E+03  0.00000000000E+00 0. -1.
         25    2    1    2    0    0  0.67012939480E+02  0.29502603648E+02 -0.13458705406E+03  0.19779827262E+03  0.12509733751E+03 0.  0.
         23    2    1    2    0    0 -0.67012939480E+02 -0.29502603648E+02 -0.21093039525E+03  0.24447387474E+03  0.99572617285E+02 0.  0.
          5    1    3    3  502    0  0.50324969577E+01  0.40369860069E+02  0.81945569983E+01  0.41709408915E+02  0.41800000000E+01 0. -1.
         -5    1    3    3    0  502  0.61980442522E+02 -0.10867256422E+02 -0.14278161106E+03  0.15608886371E+03  0.41800000000E+01 0. -1.
        -11    1    4    4    0    0  0.21232122644E+02  0.60216203896E+01 -0.77665421992E+02  0.80740205086E+02  0.00000000000E+00 0. -1.
         11    1    4    4    0    0 -0.88245062124E+02 -0.35524224037E+02 -0.13326497326E+03  0.16373366966E+03  0.00000000000E+00 0.  1.
</event>
<event>
 7    1  0.6850220E-009  0.1781873E+03  0.7561462E-02  0.1169569E+00
         -2   -1    0    0    0  501 -0.00000000000E+00  0.00000000000E+00  0.66570194986E+02  0.66570194986E+02  0.00000000000E+00 0.  1.
          2   -1    0    0  501    0  0.00000000000E+00 -0.00000000000E+00 -0.49017456745E+03  0.49017456745E+03  0.00000000000E+00 0. -1.
         25    2    1    2    0    0  0.62920226272E+02  0.14149056846E+03 -0.21321282687E+03  0.29169127891E+03  0.12508220023E+03 0.  0.
          5    1    3    3  502    0  0.43817929069E+02  0.16358492250E+03 -0.18549854871E+03  0.25121150800E+03  0.41800000000E+01 0. -1.
         -5    1    3    3    0  502  0.19102297203E+02 -0.22094354046E+02 -0.27714278159E+02  0.40479770911E+02  0.41800000000E+01 0. -1.
        -11    1    1    2    0    0 -0.27433399373E+02 -0.30894718349E+02 -0.82648787700E+02  0.92400742049E+02  0.00000000000E+00 0. -1.
         11    1    1    2    0    0 -0.35486826900E+02 -0.11059585011E+03 -0.12774275789E+03  0.17265274147E+03  0.00000000000E+00 0.  1.
</event>
<event>
 8    1  0.6850220E-009  0.1861103E+03  0.7561462E-02  0.1162017E+00
         -2   -1    0    0    0  501 -0.00000000000E+00  0.00000000000E+00  0.47186699866E+03  0.47186699866E+03  0.00000000000E+00 0.  1.
          2   -1    0    0  501    0  0.00000000000E+00 -0.00000000000E+00 -0.10173611991E+03  0.10173611991E+03  0.00000000000E+00 0. -1.
         25    2    1    2    0    0  0.41317428972E+02  0.15271641010E+03  0.33008858166E+03  0.38682789545E+03  0.12509163484E+03 0.  0.
         23    2    1    2    0    0 -0.41317428972E+02 -0.15271641010E+03  0.40042297099E+02  0.18677522312E+03  0.90841436384E+02 0.  0.
          5    1    3    3  502    0  0.70532104349E+02  0.35695041529E+02  0.15688385071E+03  0.17572401301E+03  0.41800000000E+01 0.  1.
         -5    1    3    3    0  502 -0.29214675377E+02  0.11702136857E+03  0.17320473094E+03  0.21110388244E+03  0.41800000000E+01 0.  1.
        -11    1    4    4    0    0  0.19304608432E+02 -0.38348838600E+02 -0.15872374809E+02  0.45773721837E+02  0.00000000000E+00 0. -1.
         11    1    4    4    0    0 -0.60622037404E+02 -0.11436757150E+03  0.55914671909E+02  0.14100150128E+03  0.00000000000E+00 0.  1.
</event>
<event>
 8    1  0.6850220E-009  0.1007603E+03  0.7561462E-02  0.1278705E+00
         -2   -1    0    0    0  501 -0.00000000000E+00  0.00000000000E+00  0.89865962711E+02  0.89865962711E+02  0.00000000000E+00 0.  1.
          2   -1    0    0  501    0  0.00000000000E+00 -0.00000000000E+00 -0.22738239172E+03  0.22738239172E+03  0.00000000000E+00 0. -1.
         25    2    1    2    0    0  0.64136379124E+02 -0.32561053064E+02 -0.95961061878E+01  0.14461321113E+03  0.12508876159E+03 0.  0.
         23    2    1    2    0    0 -0.64136379124E+02  0.32561053064E+02 -0.12792032282E+03  0.17263514330E+03  0.90915270486E+02 0.  0.
          5    1    3    3  502    0  0.89898384219E+02 -0.45020520817E+02 -0.34571384883E+02  0.10640122101E+03  0.41800000000E+01 0. -1.
         -5    1    3    3    0  502 -0.25762005094E+02  0.12459467753E+02  0.24975278696E+02  0.38211990122E+02  0.41800000000E+01 0. -1.
        -11    1    4    4    0    0 -0.39309278394E+02  0.21319018416E+02 -0.30465432541E+01  0.44821884609E+02  0.00000000000E+00 0.  1.
         11    1    4    4    0    0 -0.24827100730E+02  0.11242034648E+02 -0.12487377957E+03  0.12781325869E+03  0.00000000000E+00 0. -1.
</event>
<event>
 8    1  0.6850220E-009  0.1408922E+03  0.7561462E-02  0.1212134E+00
          2   -1    0    0  501    0  0.00000000000E+00  0.00000000000E+00  0.15630662644E+04  0.15630662644E+04  0.00000000000E+00 0. -1.
         -2   -1    0    0    0  501 -0.00000000000E+00 -0.00000000000E+00 -0.26547464131E+02  0.26547464131E+02  0.00000000000E+00 0.  1.
         25    2    1    2    0    0 -0.53439928068E+02  0.12003875803E+03  0.12397825515E+04  0.12529859091E+04  0.12509110240E+03 0.  0.
         23    2    1    2    0    0  0.53439928068E+02 -0.12003875803E+03  0.29673624867E+03  0.33662781940E+03  0.89446957323E+02 0.  0.
          5    1    3    3  502    0 -0.16423979339E+02  0.10171989400E+03  0.43200483657E+03  0.44414224653E+03  0.41800000000E+01 0.  1.
         -5    1    3    3    0  502 -0.37015948729E+02  0.18318864035E+02  0.80777771498E+03  0.80884366255E+03  0.41800000000E+01 0.  1.
        -11    1    4    4    0    0  0.53494101167E+02 -0.75060304098E+02  0.10513438034E+03  0.13981740249E+03  0.00000000000E+00 0.  1.
         11    1    4    4    0    0 -0.54173098966E-01 -0.44978453936E+02  0.19160186833E+03  0.19681041690E+03  0.00000000000E+00 0. -1.
</event>
<event>
 8    1  0.6850220E-009  0.1001354E+03  0.7561462E-02  0.1280011E+00
          2   -1    0    0  501    0  0.00000000000E+00  0.00000000000E+00  0.49525703952E+03  0.49525703952E+03  0.00000000000E+00 0. -1.
         -2   -1    0    0    0  501 -0.00000000000E+00 -0.00000000000E+00 -0.32338357436E+02  0.32338357436E+02  0.00000000000E+00 0.  1.
         25    2    1    2    0    0 -0.13593404245E+02  0.51399970213E+02  0.17286745446E+03  0.21990328077E+03  0.12509020149E+03 0.  0.
         23    2    1    2    0    0  0.13593404245E+02 -0.51399970213E+02  0.29005122763E+03  0.30769211618E+03  0.87852069614E+02 0.  0.
          5    1    3    3  502    0  0.46924042591E+02  0.41601129488E+02  0.13173480419E+03  0.14595907228E+03  0.41800000000E+01 0.  1.
         -5    1    3    3    0  502 -0.60517446836E+02  0.97988407251E+01  0.41132650269E+02  0.73944208491E+02  0.41800000000E+01 0.  1.
        -11    1    4    4    0    0 -0.21168490749E+02 -0.18554510175E+02  0.22881978651E+02  0.36276160153E+02  0.00000000000E+00 0.  1.
         11    1    4    4    0    0  0.34761894995E+02 -0.32845460038E+02  0.26716924898E+03  0.27141595603E+03  0.00000000000E+00 0. -1.
</event>
<event>
 8    1  0.6850220E-009  0.2209597E+03  0.7561462E-02  0.1133170E+00
         -2   -1    0    0    0  501 -0.00000000000E+00  0.00000000000E+00  0.14187264624E+03  0.14187264624E+03  0.00000000000E+00 0. -1.
          2   -1    0    0  501    0  0.00000000000E+00 -0.00000000000E+00 -0.35448047121E+03  0.35448047121E+03  0.00000000000E+00 0.  1.
         25    2    1    2    0    0 -0.14523099409E+03  0.12669042194E+03 -0.73584770664E+02  0.24125693298E+03  0.12509070541E+03 0.  0.
         23    2    1    2    0    0  0.14523099409E+03 -0.12669042194E+03 -0.13902305431E+03  0.25509618446E+03  0.92758552389E+02 0.  0.
          5    1    3    3  502    0 -0.15215619640E+03  0.64168858504E+02 -0.40583440934E+02  0.17009890824E+03  0.41800000000E+01 0.  1.
         -5    1    3    3    0  502  0.69252023082E+01  0.62521563435E+02 -0.33001329729E+02  0.71158024743E+02  0.41800000000E+01 0.  1.
        -11    1    4    4    0    0  0.10878160879E+03 -0.33811505534E+02 -0.68675826731E+02  0.13301513258E+03  0.00000000000E+00 0.  1.
         11    1    4    4    0    0  0.36449385306E+02 -0.92878916405E+02 -0.70347227578E+02  0.12208105189E+03  0.00000000000E+00 0. -1.
</event>
<event>
 8    1  0.6850220E-009  0.7412998E+02  0.7561462E-02  0.1346587E+00
         -1   -1    0    0    0  501 -0.00000000000E+00  0.00000000000E+00  0.11955518331E+03  0.11955518331E+03  0.00000000000E+00 0.  1.
          1   -1    0    0  501    0  0.00000000000E+00 -0.00000000000E+00 -0.13957502358E+03  0.13957502358E+03  0.00000000000E+00 0. -1.
         25    2    1    2    0    0  0.20545833734E+02  0.65247871453E+02 -0.25947981310E+02  0.14492002362E+03  0.12509636086E+03 0.  0.
         23    2    1    2    0    0 -0.20545833734E+02 -0.65247871453E+02  0.59281410383E+01  0.11421018326E+03  0.91265585473E+02 0.  0.
          5    1    3    3  502    0  0.22928549218E+02  0.58990362401E+02  0.42286023324E+02  0.76230973981E+02  0.41800000000E+01 0.  1.
         -5    1    3    3    0  502 -0.23827154841E+01  0.62575090516E+01 -0.68234004634E+02  0.68689049644E+02  0.41800000000E+01 0.  1.
        -11    1    4    4    0    0 -0.28931106647E+02 -0.34283989674E+02  0.45078190704E+02  0.63595944501E+02  0.00000000000E+00 0.  1.
         11    1    4    4    0    0  0.83852729123E+01 -0.30963881778E+02 -0.39150049666E+02  0.50614238762E+02  0.00000000000E+00 0. -1.
</event>
<event>
 8    1  0.6850220E-009  0.1189893E+03  0.7561462E-02  0.1244774E+00
         -4   -1    0    0    0  501 -0.00000000000E+00  0.00000000000E+00  0.25334920666E+03  0.25334920666E+03  0.00000000000E+00 0.  1.
          4   -1    0    0  501    0  0.00000000000E+00 -0.00000000000E+00 -0.81463146078E+02  0.81463146078E+02  0.00000000000E+00 0. -1.
         25    2    1    2    0    0  0.86930127991E+02  0.28053941832E+02  0.11871629829E+03  0.19515251905E+03  0.12508827046E+03 0.  0.
         23    2    1    2    0    0 -0.86930127991E+02 -0.28053941832E+02  0.53169762297E+02  0.13965983369E+03  0.91290605868E+02 0.  0.
          5    1    3    3  502    0  0.13906127007E+02  0.33229977700E+02  0.11626044334E+03  0.12178495339E+03  0.41800000000E+01 0.  1.
         -5    1    3    3    0  502  0.73024000984E+02 -0.51760358675E+01  0.24558549473E+01  0.73367565658E+02  0.41800000000E+01 0.  1.
        -11    1    4    4    0    0 -0.85968938029E+02  0.13327134393E+02  0.42970401568E+02  0.97029512149E+02  0.00000000000E+00 0. -1.
         11    1    4    4    0    0 -0.96118996220E+00 -0.41381076225E+02  0.10199360729E+02  0.42630321544E+02  0.00000000000E+00 0.  1.
</event>
<event>
 8    1  0.6850220E-009  0.1387156E+03  0.7561462E-02  0.1215068E+00
          2   -1    0    0  501    0  0.00000000000E+00  0.00000000000E+00  0.52445272273E+03  0.52445272273E+03  0.00000000000E+00 0. -1.
         -2   -1    0    0    0  501 -0.00000000000E+00 -0.00000000000E+00 -0.49637234635E+02  0.49637234635E+02  0.00000000000E+00 0.  1.
         25    2    1    2    0    0 -0.10885571096E+03 -0.12016997228E+02  0.28356124701E+03  0.32870751419E+03  0.12509066731E+03 0.  0.
         23    2    1    2    0    0  0.10885571096E+03  0.12016997228E+02  0.19125424108E+03  0.24538244318E+03  0.10789061431E+03 0.  0.
          5    1    3    3  502    0 -0.50837925318E+02  0.34162977175E+02  0.22754322802E+03  0.23567986057E+03  0.41800000000E+01 0. -1.
         -5    1    3    3    0  502 -0.58017785638E+02 -0.46179974403E+02  0.56018018993E+02  0.93027653621E+02  0.41800000000E+01 0. -1.
        -11    1    4    4    0    0  0.12326749020E+03  0.41815673656E+00  0.12099173665E+03  0.17272535810E+03  0.00000000000E+00 0.  1.
         11    1    4    4    0    0 -0.14411779244E+02  0.11598840491E+02  0.70262504436E+02  0.72657085073E+02  0.00000000000E+00 0. -1.
</event>
<event>
 8    1  0.6850220E-009  0.2061482E+03  0.7561462E-02  0.1144653E+00
          1   -1    0    0  501    0  0.00000000000E+00  0.00000000000E+00  0.48599199373E+03  0.48599199373E+03  0.00000000000E+00 0. -1.
         -1   -1    0    0    0  501 -0.00000000000E+00 -0.00000000000E+00 -0.10165130703E+03  0.10165130703E+03  0.00000000000E+00 0.  1.
         25    2    1    2    0    0 -0.18371647804E+03  0.57593470736E+02  0.16931073114E+03  0.28527463927E+03  0.12508694557E+03 0.  0.
         23    2    1    2    0    0  0.18371647804E+03 -0.57593470736E+02  0.21502995555E+03  0.30236866149E+03  0.90112005238E+02 0.  0.
          5    1    3    3  502    0 -0.13414154380E+03  0.88414643393E+02  0.15857166166E+03  0.22577322077E+03  0.41800000000E+01 0.  1.
         -5    1    3    3    0  502 -0.49574934243E+02 -0.30821172657E+02  0.10739069490E+02  0.59501418493E+02  0.41800000000E+01 0.  1.
        -11    1    4    4    0    0  0.15688249324E+03 -0.54349588735E+02  0.12348494500E+03  0.20691671301E+03  0.00000000000E+00 0.  1.
         11    1    4    4    0    0  0.26833984804E+02 -0.32438820010E+01  0.91545010557E+02  0.95451948480E+02  0.00000000000E+00 0. -1.
</event>
<event>
 8    1  0.6850220E-009  0.1351913E+03  0.7561462E-02  0.1219950E+00
          2   -1    0    0  501    0  0.00000000000E+00  0.00000000000E+00  0.73044987166E+03  0.73044987166E+03  0.00000000000E+00 0. -1.
         -2   -1    0    0    0  501 -0.00000000000E+00 -0.00000000000E+00 -0.26592070721E+02  0.26592070721E+02  0.00000000000E+00 0.  1.
         25    2    1    2    0    0 -0.64864202664E+02  0.62994698895E+02  0.40693718006E+03  0.43522573338E+03  0.12509146095E+03 0.  0.
         23    2    1    2    0    0  0.64864202664E+02 -0.62994698895E+02  0.29692062088E+03  0.32181620900E+03  0.85018353301E+02 0.  0.
          5    1    3    3  502    0 -0.66865526918E+02 -0.21006247916E+02  0.18290288888E+03  0.19591630944E+03  0.41800000000E+01 0. -1.
         -5    1    3    3    0  502  0.20013242546E+01  0.84000946810E+02  0.22403429118E+03  0.23930942394E+03  0.41800000000E+01 0. -1.
        -11    1    4    4    0    0 -0.53400452938E+01 -0.42602546906E+02  0.59354340739E+02  0.73255927073E+02  0.00000000000E+00 0.  1.
         11    1    4    4    0    0  0.70204247958E+02 -0.20392151988E+02  0.23756628014E+03  0.24856028193E+03  0.00000000000E+00 0. -1.
</event>
<event>
 8    1  0.6850220E-009  0.1266902E+03  0.7561462E-02  0.1232451E+00
         -1   -1    0    0    0  501 -0.00000000000E+00  0.00000000000E+00  0.24550939050E+02  0.24550939050E+02  0.00000000000E+00 0.  1.
          1   -1    0    0  501    0  0.00000000000E+00 -0.00000000000E+00 -0.95284186134E+03  0.95284186134E+03  0.00000000000E+00 0. -1.
         25    2    1    2    0    0 -0.48583790634E+02 -0.97329381019E+02 -0.50686625802E+03  0.53328657205E+03  0.12509105198E+03 0.  0.
         23    2    1    2    0    0  0.48583790634E+02  0.97329381019E+02 -0.42142466427E+03  0.44410622834E+03  0.88307424805E+02 0.  0.
          5    1    3    3  502    0 -0.74784298287E+02 -0.73700294947E+02 -0.21541654450E+03  0.23967933742E+03  0.41800000000E+01 0.  1.
         -5    1    3    3    0  502  0.26200507653E+02 -0.23629086073E+02 -0.29144971353E+03  0.29360723463E+03  0.41800000000E+01 0.  1.
        -11    1    4    4    0    0 -0.40095889280E+01  0.10703725516E+02 -0.81373296273E+00  0.11459001031E+02  0.00000000000E+00 0.  1.
         11    1    4    4    0    0  0.52593379562E+02  0.86625655503E+02 -0.42061093131E+03  0.43264722731E+03  0.00000000000E+00 0. -1.
</event>
<event>
 8    1  0.6850220E-009  0.1182320E+03  0.7561462E-02  0.1246043E+00
          1   -1    0    0  501    0  0.00000000000E+00  0.00000000000E+00  0.16582534793E+03  0.16582534793E+03  0.00000000000E+00 0. -1.
         -1   -1    0    0    0  501 -0.00000000000E+00 -0.00000000000E+00 -0.85552457551E+02  0.85552457551E+02  0.00000000000E+00 0.  1.
         25    2    1    2    0    0 -0.15110950231E+02 -0.50813081638E+02  0.58143122809E+02  0.14774278843E+03  0.12504798568E+03 0.  0.
         23    2    1    2    0    0  0.15110950231E+02  0.50813081638E+02  0.22129767566E+02  0.10363501704E+03  0.86256478380E+02 0.  0.
          5    1    3    3  502    0  0.52666430204E+02 -0.41026576005E+02  0.23620598630E+02  0.70938972990E+02  0.41800000000E+01 0. -1.
         -5    1    3    3    0  502 -0.67777380435E+02 -0.97865056326E+01  0.34522524179E+02  0.76803815444E+02  0.41800000000E+01 0. -1.
        -11    1    4    4    0    0 -0.15556105358E+02 -0.19093177611E+02  0.21211211876E+01  0.24719243521E+02  0.00000000000E+00 0. -1.
         11    1    4    4    0    0  0.30667055588E+02  0.69906259249E+02  0.20008646378E+02  0.78915773521E+02  0.00000000000E+00 0.  1.
</event>
<event>
 8    1  0.6850220E-009  0.1214160E+03  0.7561462E-02  0.1240779E+00
          1   -1    0    0  501    0  0.00000000000E+00  0.00000000000E+00  0.84681216361E+03  0.84681216361E+03  0.00000000000E+00 0. -1.
         -1   -1    0    0    0  501 -0.00000000000E+00 -0.00000000000E+00 -0.18279652847E+02  0.18279652847E+02  0.00000000000E+00 0.  1.
         25    2    1    2    0    0  0.45202379262E+02  0.39785892406E+02  0.44474873203E+03  0.46591261015E+03  0.12508778250E+03 0.  0.
         23    2    1    2    0    0 -0.45202379262E+02 -0.39785892406E+02  0.38378377874E+03  0.39917920631E+03  0.91803472714E+02 0.  0.
          5    1    3    3  502    0  0.79473287697E+02  0.55680968995E+02  0.36283782875E+03  0.37561301380E+03  0.41800000000E+01 0.  1.
         -5    1    3    3    0  502 -0.34270908435E+02 -0.15895076589E+02  0.81910903277E+02  0.90299596347E+02  0.41800000000E+01 0.  1.
        -11    1    4    4    0    0 -0.70883160685E+02 -0.15944671888E+02  0.21992002823E+03  0.23161060823E+03  0.00000000000E+00 0.  1.
         11    1    4    4    0    0  0.25680781423E+02 -0.23841220517E+02  0.16386375051E+03  0.16756859808E+03  0.00000000000E+00 0. -1.
</event>
<event>
 8    1  0.6850220E-009  0.1299896E+03  0.7561462E-02  0.1227471E+00
          1   -1    0    0  501    0  0.00000000000E+00  0.00000000000E+00  0.18140802142E+03  0.18140802142E+03  0.00000000000E+00 0. -1.
         -1   -1    0    0    0  501 -0.00000000000E+00 -0.00000000000E+00 -0.22080845599E+03  0.22080845599E+03  0.00000000000E+00 0.  1.
         25    2    1    2    0    0  0.10867106707E+03  0.12710875200E+02  0.10697461730E+03  0.19764127037E+03  0.12509011088E+03 0.  0.
         23    2    1    2    0    0 -0.10867106707E+03 -0.12710875200E+02 -0.14637505187E+03  0.20457520704E+03  0.91947769720E+02 0.  0.
          5    1    3    3  502    0  0.13194387954E+02  0.18631893590E+02 -0.25308840887E+02  0.34340197427E+02  0.41800000000E+01 0.  1.
         -5    1    3    3    0  502  0.95476679120E+02 -0.59210183901E+01  0.13228345819E+03  0.16330107294E+03  0.41800000000E+01 0.  1.
        -11    1    4    4    0    0 -0.32841497896E+02 -0.47371356835E+02 -0.76535473983E+02  0.95813820560E+02  0.00000000000E+00 0.  1.
         11    1    4    4    0    0 -0.75829569178E+02  0.34660481634E+02 -0.69839577887E+02  0.10876138648E+03  0.00000000000E+00 0. -1.
</event>
<event>
 8    1  0.6850220E-009  0.9423320E+02  0.7561462E-02  0.1292913E+00
          2   -1    0    0  501    0  0.00000000000E+00  0.00000000000E+00  0.15589842469E+04  0.15589842469E+04  0.00000000000E+00 0.  1.
         -2   -1    0    0    0  501 -0.00000000000E+00 -0.00000000000E+00 -0.14076638240E+02  0.14076638240E+02  0.00000000000E+00 0. -1.
         25    2    1    2    0    0  0.13318997222E+01 -0.65633897082E+01  0.12729367241E+04  0.12790857588E+04  0.12509045806E+03 0.  0.
         23    2    1    2    0    0 -0.13318997222E+01  0.65633897082E+01  0.27197088456E+03  0.29397512637E+03  0.11139282217E+03 0.  0.
          5    1    3    3  502    0 -0.34409676626E+02 -0.22445403523E+02  0.15348464369E+03  0.15894285210E+03  0.41800000000E+01 0.  1.
         -5    1    3    3    0  502  0.35741576348E+02  0.15882013814E+02  0.11194520804E+04  0.11201429067E+04  0.41800000000E+01 0.  1.
        -11    1    4    4    0    0  0.15176710421E+02  0.54795269417E+02  0.10514282098E+03  0.11953186560E+03  0.00000000000E+00 0. -1.
         11    1    4    4    0    0 -0.16508610143E+02 -0.48231879709E+02  0.16682806358E+03  0.17444326077E+03  0.00000000000E+00 0.  1.
</event>
<event>
 8    1  0.6850220E-009  0.1210452E+03  0.7561462E-02  0.1241383E+00
         -2   -1    0    0    0  501 -0.00000000000E+00  0.00000000000E+00  0.20511356812E+04  0.20511356812E+04  0.00000000000E+00 0.  1.
          2   -1    0    0  501    0  0.00000000000E+00 -0.00000000000E+00 -0.10022353718E+02  0.10022353718E+02  0.00000000000E+00 0. -1.
         25    2    1    2    0    0  0.45263878881E+01  0.59107331326E+02  0.16324479887E+04  0.16383064239E+04  0.12508932054E+03 0.  0.
         23    2    1    2    0    0 -0.45263878881E+01 -0.59107331326E+02  0.40866533877E+03  0.42285161097E+03  0.91005279955E+02 0.  0.
          5    1    3    3  502    0  0.40088219087E+02  0.84839136737E+02  0.10507980936E+04  0.10549876067E+04  0.41800000000E+01 0.  1.
         -5    1    3    3    0  502 -0.35561831199E+02 -0.25731805411E+02  0.58164989505E+03  0.58331881717E+03  0.41800000000E+01 0.  1.
        -11    1    4    4    0    0 -0.42098378291E+02 -0.50089417577E+02  0.19401154108E+03  0.20474789689E+03  0.00000000000E+00 0. -1.
         11    1    4    4    0    0  0.37571990403E+02 -0.90179137484E+01  0.21465379769E+03  0.21810371408E+03  0.00000000000E+00 0.  1.
</event>
<event>
 8    1  0.6850220E-009  0.1328925E+03  0.7561462E-02  0.1223226E+00
         -1   -1    0    0    0  501 -0.00000000000E+00  0.00000000000E+00  0.43145832880E+02  0.43145832880E+02  0.00000000000E+00 0.  1.
          1   -1    0    0  501    0  0.00000000000E+00 -0.00000000000E+00 -0.73268424538E+03  0.73268424538E+03  0.00000000000E+00 0. -1.
         25    2    1    2    0    0 -0.93612525362E+02 -0.64751252743E+02 -0.55106245071E+03  0.57642986732E+03  0.12508212388E+03 0.  0.
         23    2    1    2    0    0  0.93612525362E+02  0.64751252743E+02 -0.13847596179E+03  0.19940021095E+03  0.87343130784E+02 0.  0.
          5    1    3    3  502    0 -0.56924632907E+02 -0.79291860565E+02 -0.51019265954E+03  0.51946283335E+03  0.41800000000E+01 0. -1.
         -5    1    3    3    0  502 -0.36687892455E+02  0.14540607822E+02 -0.40869791176E+02  0.56967033971E+02  0.41800000000E+01 0. -1.
        -11    1    4    4    0    0  0.57889844538E+02  0.41294679146E+01 -0.19594096273E+02  0.61255328051E+02  0.00000000000E+00 0.  1.
         11    1    4    4    0    0  0.35722680824E+02  0.60621784828E+02 -0.11888186552E+03  0.13814488289E+03  0.00000000000E+00 0. -1.
</event>
<event>
 8    1  0.6850220E-009  0.1092580E+03  0.7561462E-02  0.1261950E+00
          1   -1    0    0  501    0  0.00000000000E+00  0.00000000000E+00  0.25743800842E+02  0.25743800842E+02  0.00000000000E+00 0. -1.
         -1   -1    0    0    0  501 -0.00000000000E+00 -0.00000000000E+00 -0.50446843675E+03  0.50446843675E+03  0.00000000000E+00 0.  1.
         25    2    1    2    0    0 -0.25844522650E+02  0.12872492574E+02 -0.32909890504E+03  0.35325187117E+03  0.12508858770E+03 0.  0.
         23    2    1    2    0    0  0.25844522650E+02 -0.12872492574E+02 -0.14962573087E+03  0.17696036642E+03  0.89963723404E+02 0.  0.
          5    1    3    3  502    0 -0.26519960018E+02  0.65939827528E+02 -0.22988854241E+03  0.24066072273E+03  0.41800000000E+01 0. -1.
         -5    1    3    3    0  502  0.67543736825E+00 -0.53067334954E+02 -0.99210362631E+02  0.11259114844E+03  0.41800000000E+01 0. -1.
        -11    1    4    4    0    0  0.27832066933E+02 -0.49828662239E+02 -0.82694554163E+02  0.10047839976E+03  0.00000000000E+00 0.  1.
         11    1    4    4    0    0 -0.19875442836E+01  0.36956169664E+02 -0.66931176704E+02  0.76481966656E+02  0.00000000000E+00 0. -1.
</event>
<event>
 8    1  0.6850220E-009  0.7070977E+02  0.7561462E-02  0.1357696E+00
         -3   -1    0    0    0  501 -0.00000000000E+00  0.00000000000E+00  0.26928408625E+03  0.26928408625E+03  0.00000000000E+00 0.  1.
          3   -1    0    0  501    0  0.00000000000E+00 -0.00000000000E+00 -0.54252031371E+02  0.54252031371E+02  0.00000000000E+00 0. -1.
         25    2    1    2    0    0  0.13022028828E+02  0.17197193338E+02  0.18650782422E+03  0.22560955229E+03  0.12509670217E+03 0.  0.
         23    2    1    2    0    0 -0.13022028828E+02 -0.17197193338E+02  0.28524230659E+02  0.97926565332E+02  0.91162842044E+02 0.  0.
          5    1    3    3  502    0 -0.38185502286E+02 -0.13489810669E+02  0.14059784286E+02  0.43072700298E+02  0.41800000000E+01 0. -1.
         -5    1    3    3    0  502  0.51207531114E+02  0.30687004007E+02  0.17244803993E+03  0.18253685199E+03  0.41800000000E+01 0. -1.
        -11    1    4    4    0    0 -0.26612647182E+01  0.10740128179E+02  0.56188490609E+02  0.57267610044E+02  0.00000000000E+00 0.  1.
         11    1    4    4    0    0 -0.10360764109E+02 -0.27937321517E+02 -0.27664259951E+02  0.40658955288E+02  0.00000000000E+00 0. -1.
</event>
<event>
 8    1  0.6850220E-009  0.1063769E+03  0.7561462E-02  0.1267430E+00
         -2   -1    0    0    0  501 -0.00000000000E+00  0.00000000000E+00  0.10160685200E+02  0.10160685200E+02  0.00000000000E+00 0.  1.
          2   -1    0    0  501    0  0.00000000000E+00 -0.00000000000E+00 -0.11826028987E+04  0.11826028987E+04  0.00000000000E+00 0. -1.
         25    2    1    2    0    0  0.47604611551E+01  0.68495740177E+01 -0.77111720699E+03  0.78124137532E+03  0.12508701348E+03 0.  0.
         23    2    1    2    0    0 -0.47604611551E+01 -0.68495740177E+01 -0.40132500651E+03  0.41152220858E+03  0.90659741057E+02 0.  0.
          5    1    3    3  502    0  0.10392357911E+02 -0.58162848341E+02 -0.40916056926E+03  0.41342564249E+03  0.41800000000E+01 0.  1.
         -5    1    3    3    0  502 -0.56318967555E+01  0.65012422358E+02 -0.36195663773E+03  0.36781573284E+03  0.41800000000E+01 0.  1.
        -11    1    4    4    0    0 -0.24395684936E+02 -0.41595851213E+02 -0.16700365666E+03  0.17382630877E+03  0.00000000000E+00 0.  1.
         11    1    4    4    0    0  0.19635223781E+02  0.34746277195E+02 -0.23432134985E+03  0.23769589981E+03  0.00000000000E+00 0. -1.
</event>
<event>
 8    1  0.6850220E-009  0.1382841E+03  0.7561462E-02  0.1215657E+00
          2   -1    0    0  501    0  0.00000000000E+00  0.00000000000E+00  0.46877181249E+03  0.46877181249E+03  0.00000000000E+00 0. -1.
         -2   -1    0    0    0  501 -0.00000000000E+00 -0.00000000000E+00 -0.61550727913E+02  0.61550727913E+02  0.00000000000E+00 0.  1.
         25    2    1    2    0    0  0.37873147689E+01 -0.12751751516E+03  0.18071359072E+03  0.25412603694E+03  0.12509028880E+03 0.  0.
         23    2    1    2    0    0 -0.37873147689E+01  0.12751751516E+03  0.22650749386E+03  0.27619650346E+03  0.93294176271E+02 0.  0.
          5    1    3    3  502    0  0.15086385056E+02 -0.55797380148E+02 -0.14625488147E+01  0.57970320807E+02  0.41800000000E+01 0.  1.
         -5    1    3    3    0  502 -0.11299070287E+02 -0.71720135013E+02  0.18217613953E+03  0.19615571613E+03  0.41800000000E+01 0.  1.
        -11    1    4    4    0    0  0.30465535555E+02  0.30948486918E+02  0.24936699742E+02  0.50077906238E+02  0.00000000000E+00 0.  1.
         11    1    4    4    0    0 -0.34252850324E+02  0.96569028243E+02  0.20157079412E+03  0.22611859723E+03  0.00000000000E+00 0. -1.
</event>
<event>
 8    1  0.6850220E-009  0.1824550E+03  0.7561462E-02  0.1165448E+00
          2   -1    0    0  501    0  0.00000000000E+00  0.00000000000E+00  0.14593618314E+04  0.14593618314E+04  0.00000000000E+00 0. -1.
         -2   -1    0    0    0  501 -0.00000000000E+00 -0.00000000000E+00 -0.30283869034E+02  0.30283869034E+02  0.00000000000E+00 0.  1.
         25    2    1    2    0    0 -0.13530066175E+03  0.96742361920E+02  0.10037457170E+04  0.10250933471E+04  0.12508218135E+03 0.  0.
         23    2    1    2    0    0  0.13530066175E+03 -0.96742361920E+02  0.42533224528E+03  0.46455235331E+03  0.85064777830E+02 0.  0.
          5    1    3    3  502    0 -0.15340015219E+03  0.80610840047E+02  0.73234635045E+03  0.75258113426E+03  0.41800000000E+01 0.  1.
         -5    1    3    3    0  502  0.18099490432E+02  0.16131521874E+02  0.27139936660E+03  0.27251221283E+03  0.41800000000E+01 0.  1.
        -11    1    4    4    0    0  0.59365471433E+02 -0.51387728780E+02  0.30661423675E+03  0.31650789571E+03  0.00000000000E+00 0. -1.
         11    1    4    4    0    0  0.75935190321E+02 -0.45354633141E+02  0.11871800853E+03  0.14804445760E+03  0.00000000000E+00 0.  1.
</event>
<event>
 8    1  0.6850220E-009  0.1449761E+03  0.7561462E-02  0.1206786E+00
          2   -1    0    0  501    0  0.00000000000E+00  0.00000000000E+00  0.21837823905E+03  0.21837823905E+03  0.00000000000E+00 0.  1.
         -2   -1    0    0    0  501 -0.00000000000E+00 -0.00000000000E+00 -0.10692678364E+03  0.10692678364E+03  0.00000000000E+00 0. -1.
         25    2    1    2    0    0  0.83721505984E+02  0.64727254773E+02  0.78144828210E+02  0.18150423574E+03  0.12505305010E+03 0.  0.
         23    2    1    2    0    0 -0.83721505984E+02 -0.64727254773E+02  0.33306627206E+02  0.14380078696E+03  0.91490036828E+02 0.  0.
          5    1    3    3  502    0  0.10902636851E+03  0.18097599788E+02  0.52058009919E+02  0.12223657778E+03  0.41800000000E+01 0. -1.
         -5    1    3    3    0  502 -0.25304862530E+02  0.46629654985E+02  0.26086818291E+02  0.59267657961E+02  0.41800000000E+01 0. -1.
        -11    1    4    4    0    0 -0.35240906344E+02  0.10383938872E+02  0.39803102702E+02  0.54166730113E+02  0.00000000000E+00 0.  1.
         11    1    4    4    0    0 -0.48480599640E+02 -0.75111193645E+02 -0.64964754966E+01  0.89634056843E+02  0.00000000000E+00 0. -1.
</event>
<event>
 8    1  0.6850220E-009  0.8509712E+02  0.7561462E-02  0.1315179E+00
         -3   -1    0    0    0  501 -0.00000000000E+00  0.00000000000E+00  0.41782258609E+02  0.41782258609E+02  0.00000000000E+00 0.  1.
          3   -1    0    0  501    0  0.00000000000E+00 -0.00000000000E+00 -0.27558216882E+03  0.27558216882E+03  0.00000000000E+00 0. -1.
         25    2    1    2    0    0  0.12011724863E+02  0.57827272582E+00 -0.15567566177E+03  0.20006880604E+03  0.12509196437E+03 0.  0.
         23    2    1    2    0    0 -0.12011724863E+02 -0.57827272582E+00 -0.78124248447E+02  0.11729562139E+03  0.86661690894E+02 0.  0.
          5    1    3    3  502    0 -0.27985587321E+02  0.30144293273E+02 -0.14259714545E+03  0.14846982793E+03  0.41800000000E+01 0. -1.
         -5    1    3    3    0  502  0.39997312184E+02 -0.29566020548E+02 -0.13078516314E+02  0.51598978109E+02  0.41800000000E+01 0. -1.
        -11    1    4    4    0    0 -0.45393488369E+02  0.21390550088E+01 -0.68934089176E+02  0.82565446727E+02  0.00000000000E+00 0. -1.
         11    1    4    4    0    0  0.33381763506E+02 -0.27173277346E+01 -0.91901592706E+01  0.34730174664E+02  0.00000000000E+00 0.  1.
</event>
<event>
 8    1  0.6850220E-009  0.1187319E+03  0.7561462E-02  0.1245204E+00
          2   -1    0    0  501    0  0.00000000000E+00  0.00000000000E+00  0.13966239621E+04  0.13966239621E+04  0.00000000000E+00 0.  1.
         -2   -1    0    0    0  501 -0.00000000000E+00 -0.00000000000E+00 -0.16544979291E+02  0.16544979291E+02  0.00000000000E+00 0. -1.
         25    2    1    2    0    0 -0.96533407895E+02  0.41820204997E+02  0.82645922963E+03  0.84246650731E+03  0.12508928540E+03 0.  0.
         23    2    1    2    0    0  0.96533407895E+02 -0.41820204997E+02  0.55361975321E+03  0.57070243411E+03  0.90215346613E+02 0.  0.
          5    1    3    3  502    0 -0.38904436573E+02  0.25928235675E+02  0.70948037571E+03  0.71103143707E+03  0.41800000000E+01 0. -1.
         -5    1    3    3    0  502 -0.57628971323E+02  0.15891969322E+02  0.11697885392E+03  0.13143507024E+03  0.41800000000E+01 0. -1.
        -11    1    4    4    0    0  0.75396374490E+02 -0.64770757777E+02  0.48829340909E+03  0.49830745300E+03  0.00000000000E+00 0.  1.
         11    1    4    4    0    0  0.21137033406E+02  0.22950552780E+02  0.65326344123E+02  0.72394981114E+02  0.00000000000E+00 0. -1.
</event>
<event>
 8    1  0.6850220E-009  0.9812140E+02  0.7561462E-02  0.1284297E+00
          1   -1    0    0  501    0  0.00000000000E+00  0.00000000000E+00  0.10767120148E+04  0.10767120148E+04  0.00000000000E+00 0. -1.
         -1   -1    0    0    0  501 -0.00000000000E+00 -0.00000000000E+00 -0.16916332953E+02  0.16916332953E+02  0.00000000000E+00 0.  1.
         25    2    1    2    0    0 -0.70770663973E+02 -0.35435798404E+02  0.67125621770E+03  0.68738115489E+03  0.12507501595E+03 0.  0.
         23    2    1    2    0    0  0.70770663973E+02  0.35435798404E+02  0.38853946413E+03  0.40624719284E+03  0.88372415485E+02 0.  0.
          5    1    3    3  502    0 -0.55656437979E+01 -0.31850075892E+02  0.53738147795E+03  0.53836950969E+03  0.41800000000E+01 0.  1.
         -5    1    3    3    0  502 -0.65205020175E+02 -0.35857225122E+01  0.13387473975E+03  0.14901164520E+03  0.41800000000E+01 0.  1.
        -11    1    4    4    0    0  0.62514278925E+00 -0.12965231259E+02  0.59470506488E+01  0.14277795226E+02  0.00000000000E+00 0.  1.
         11    1    4    4    0    0  0.70145521183E+02  0.48401029663E+02  0.38259241348E+03  0.39196939762E+03  0.00000000000E+00 0. -1.
</event>
<event>
 8    1  0.6850220E-009  0.1045862E+03  0.7561462E-02  0.1270937E+00
          2   -1    0    0  501    0  0.00000000000E+00  0.00000000000E+00  0.18422135397E+03  0.18422135397E+03  0.00000000000E+00 0. -1.
         -2   -1    0    0    0  501 -0.00000000000E+00 -0.00000000000E+00 -0.75172210122E+02  0.75172210122E+02  0.00000000000E+00 0.  1.
         25    2    1    2    0    0  0.22095814875E+02 -0.35516192193E+02  0.74928189607E+02  0.15169559784E+03  0.12509075051E+03 0.  0.
         23    2    1    2    0    0 -0.22095814875E+02  0.35516192193E+02  0.34120954236E+02  0.10769796625E+03  0.93193280192E+02 0.  0.
          5    1    3    3  502    0 -0.38440633246E+02 -0.55789584165E+02  0.36666353368E+02  0.77149555118E+02  0.41800000000E+01 0. -1.
         -5    1    3    3    0  502  0.60536448121E+02  0.20273391972E+02  0.38261836239E+02  0.74546042722E+02  0.41800000000E+01 0. -1.
        -11    1    4    4    0    0 -0.20687913224E+02  0.54492087921E+02 -0.10467192161E+02  0.59219418364E+02  0.00000000000E+00 0.  1.
         11    1    4    4    0    0 -0.14079016511E+01 -0.18975895728E+02  0.44588146398E+02  0.48478547884E+02  0.00000000000E+00 0. -1.
</event>
<event>
 8    1  0.6850220E-009  0.1319108E+03  0.7561462E-02  0.1224648E+00
         -4   -1    0    0    0  501 -0.00000000000E+00  0.00000000000E+00  0.12388245258E+04  0.12388245258E+04  0.00000000000E+00 0.  1.
          4   -1    0    0  501    0  0.00000000000E+00 -0.00000000000E+00 -0.35512503541E+02  0.35512503541E+02  0.00000000000E+00 0. -1.
         25    2    1    2    0    0  0.21656230660E+02 -0.10162955102E+03  0.10675354795E+04  0.10798450841E+04  0.12504338298E+03 0.  0.
         23    2    1    2    0    0 -0.21656230660E+02  0.10162955102E+03  0.13577654270E+03  0.19449194522E+03  0.92705389482E+02 0.  0.
          5    1    3    3  502    0  0.60993046028E+02 -0.99495533675E+02  0.64755879857E+03  0.65800409033E+03  0.41800000000E+01 0.  1.
         -5    1    3    3    0  502 -0.39336815369E+02 -0.21340173451E+01  0.41997668094E+03  0.42184099375E+03  0.41800000000E+01 0.  1.
        -11    1    4    4    0    0  0.70064079079E+00  0.61398956416E+02  0.12173730154E+02  0.62598102626E+02  0.00000000000E+00 0. -1.
         11    1    4    4    0    0 -0.22356871450E+02  0.40230594604E+02  0.12360281255E+03  0.13189384259E+03  0.00000000000E+00 0.  1.
</event>
<event>
 8    1  0.6850220E-009  0.8842473E+02  0.7561462E-02  0.1306712E+00
         -2   -1    0    0    0  501 -0.00000000000E+00  0.00000000000E+00  0.20404575229E+02  0.20404575229E+02  0.00000000000E+00 0. -1.
          2   -1    0    0  501    0  0.00000000000E+00 -0.00000000000E+00 -0.79273936269E+03  0.79273936269E+03  0.00000000000E+00 0.  1.
         25    2    1    2    0    0  0.42614568093E+02 -0.95419317049E+01 -0.59009482608E+03  0.60478598311E+03  0.12508849556E+03 0.  0.
         23    2    1    2    0    0 -0.42614568093E+02  0.95419317049E+01 -0.18223996139E+03  0.20835795482E+03  0.91074606422E+02 0.  0.
          5    1    3    3  502    0  0.56835023541E+02  0.44067912704E+02 -0.24998170589E+03  0.26015481259E+03  0.41800000000E+01 0.  1.
         -5    1    3    3    0  502 -0.14220455448E+02 -0.53609844409E+02 -0.34011312019E+03  0.34463117052E+03  0.41800000000E+01 0.  1.
        -11    1    4    4    0    0 -0.33595471100E+02  0.16846660976E+02 -0.19046197750E+03  0.19413456812E+03  0.00000000000E+00 0.  1.
         11    1    4    4    0    0 -0.90190969928E+01 -0.73047292706E+01  0.82220161131E+01  0.14223386701E+02  0.00000000000E+00 0. -1.
</event>
<event>
 8    1  0.6850220E-009  0.1241581E+03  0.7561462E-02  0.1236391E+00
          1   -1    0    0  501    0  0.00000000000E+00  0.00000000000E+00  0.18291367028E+03  0.18291367028E+03  0.00000000000E+00 0. -1.
         -1   -1    0    0    0  501 -0.00000000000E+00 -0.00000000000E+00 -0.10180228459E+03  0.10180228459E+03  0.00000000000E+00 0.  1.
         25    2    1    2    0    0  0.55806815983E+02  0.54982189305E+02  0.75519573912E+02  0.16579365400E+03  0.12508752061E+03 0.  0.
         23    2    1    2    0    0 -0.55806815983E+02 -0.54982189305E+02  0.55918117790E+01  0.11892230087E+03  0.89296155765E+02 0.  0.
          5    1    3    3  502    0  0.71530202553E+02  0.78038466559E+02  0.85208703880E+02  0.13595796320E+03  0.41800000000E+01 0.  1.
         -5    1    3    3    0  502 -0.15723386570E+02 -0.23056277253E+02 -0.96891299686E+01  0.29835690801E+02  0.41800000000E+01 0.  1.
        -11    1    4    4    0    0  0.18949424768E+02 -0.29715403241E+02 -0.13490667144E+02  0.37737037362E+02  0.00000000000E+00 0.  1.
         11    1    4    4    0    0 -0.74756240751E+02 -0.25266786064E+02  0.19082478924E+02  0.81185263509E+02  0.00000000000E+00 0. -1.
</event>
<event>
 8    1  0.6850220E-009  0.1068607E+03  0.7561462E-02  0.1266496E+00
         -1   -1    0    0    0  501 -0.00000000000E+00  0.00000000000E+00  0.79092913206E+02  0.79092913206E+02  0.00000000000E+00 0.  1.
          1   -1    0    0  501    0  0.00000000000E+00 -0.00000000000E+00 -0.34045579151E+03  0.34045579151E+03  0.00000000000E+00 0. -1.
         25    2    1    2    0    0 -0.36056606259E+02  0.35233554530E+02 -0.28100874374E+03  0.31169580758E+03  0.12508749012E+03 0.  0.
         23    2    1    2    0    0  0.36056606259E+02 -0.35233554530E+02  0.19645865442E+02  0.10785289713E+03  0.93299545395E+02 0.  0.
          5    1    3    3  502    0  0.45473137773E+02  0.18173747947E+01 -0.78985891075E+02  0.91254328658E+02  0.41800000000E+01 0. -1.
         -5    1    3    3    0  502 -0.81529744031E+02  0.33416179735E+02 -0.20202285267E+03  0.22044147892E+03  0.41800000000E+01 0. -1.
        -11    1    4    4    0    0 -0.16301289776E+02 -0.18908736591E+02  0.41812619990E+02  0.48698742881E+02  0.00000000000E+00 0.  1.
         11    1    4    4    0    0  0.52357896034E+02 -0.16324817939E+02 -0.22166754547E+02  0.59154154250E+02  0.00000000000E+00 0. -1.
</event>
<event>
 8    1  0.6850220E-009  0.9250717E+02  0.7561462E-02  0.1296891E+00
          3   -1    0    0  501    0  0.00000000000E+00  0.00000000000E+00  0.19325442502E+03  0.19325442502E+03  0.00000000000E+00 0. -1.
         -3   -1    0    0    0  501 -0.00000000000E+00 -0.00000000000E+00 -0.69025270316E+02  0.69025270316E+02  0.00000000000E+00 0.  1.
         25    2    1    2    0    0 -0.40089199278E+02  0.12172831459E+02  0.76503946938E+02  0.15249968848E+03  0.12509188369E+03 0.  0.
         23    2    1    2    0    0  0.40089199278E+02 -0.12172831459E+02  0.47725207762E+02  0.10978000685E+03  0.89546818609E+02 0.  0.
          5    1    3    3  502    0  0.38893667575E+02 -0.18030788741E+02  0.84947609210E+01  0.43902848235E+02  0.41800000000E+01 0.  1.
         -5    1    3    3    0  502 -0.78982866853E+02  0.30203620199E+02  0.68009186017E+02  0.10859684025E+03  0.41800000000E+01 0.  1.
        -11    1    4    4    0    0  0.13486041430E+02  0.14363001130E+02  0.65365563235E+02  0.68270242214E+02  0.00000000000E+00 0. -1.
         11    1    4    4    0    0  0.26603157848E+02 -0.26535832589E+02 -0.17640355473E+02  0.41509764633E+02  0.00000000000E+00 0.  1.
</event>
<event>
 8    1  0.6850220E-009  0.1096683E+03  0.7561462E-02  0.1261185E+00
          1   -1    0    0  501    0  0.00000000000E+00  0.00000000000E+00  0.52282826802E+03  0.52282826802E+03  0.00000000000E+00 0. -1.
         -1   -1    0    0    0  501 -0.00000000000E+00 -0.00000000000E+00 -0.27239641236E+02  0.27239641236E+02  0.00000000000E+00 0.  1.
         25    2    1    2    0    0 -0.47935067039E+02  0.13792954505E+02  0.26114383952E+03  0.29382234353E+03  0.12508976133E+03 0.  0.
         23    2    1    2    0    0  0.47935067039E+02 -0.13792954505E+02  0.23444478726E+03  0.25624556572E+03  0.90605824506E+02 0.  0.
          5    1    3    3  502    0 -0.82745275535E+02 -0.23844235034E+01  0.22914261739E+03  0.24367248019E+03  0.41800000000E+01 0. -1.
         -5    1    3    3    0  502  0.34810208496E+02  0.16177378008E+02  0.32001222135E+02  0.50149863339E+02  0.41800000000E+01 0. -1.
        -11    1    4    4    0    0  0.12519540341E+02  0.35214716460E+02  0.51966132901E+02  0.64010109470E+02  0.00000000000E+00 0.  1.
         11    1    4    4    0    0  0.35415526698E+02 -0.49007670965E+02  0.18247865436E+03  0.19223545625E+03  0.00000000000E+00 0. -1.
</event>
<event>
 8    1  0.6850220E-009  0.1000931E+03  0.7561462E-02  0.1280100E+00
          1   -1    0    0  501    0  0.00000000000E+00  0.00000000000E+00  0.54904889502E+03  0.54904889502E+03  0.00000000000E+00 0. -1.
         -1   -1    0    0    0  501 -0.00000000000E+00 -0.00000000000E+00 -0.28370130124E+02  0.28370130124E+02  0.00000000000E+00 0.  1.
         25    2    1    2    0    0  0.16842863181E+02  0.55585024092E+02  0.39996113527E+03  0.42307274387E+03  0.12509300514E+03 0.  0.
         23    2    1    2    0    0 -0.16842863181E+02 -0.55585024092E+02  0.12071762963E+03  0.15434628128E+03  0.76659321005E+02 0.  0.
          5    1    3    3  502    0 -0.35278291552E+02 -0.50479832937E+00  0.26882101451E+03  0.27115866742E+03  0.41800000000E+01 0.  1.
         -5    1    3    3    0  502  0.52121154733E+02  0.56089822421E+02  0.13114012076E+03  0.15191407644E+03  0.41800000000E+01 0.  1.
        -11    1    4    4    0    0  0.16689114861E+02 -0.51570699343E+02  0.41615843232E+02  0.68336973839E+02  0.00000000000E+00 0.  1.
         11    1    4    4    0    0 -0.33531978042E+02 -0.40143247494E+01  0.79101786396E+02  0.86009307436E+02  0.00000000000E+00 0. -1.
</event>
<event>
 8    1  0.6850220E-009  0.7309650E+02  0.7561462E-02  0.1349869E+00
         -2   -1    0    0    0  501 -0.00000000000E+00  0.00000000000E+00  0.85132166315E+02  0.85132166315E+02  0.00000000000E+00 0.  1.
          2   -1    0    0  501    0  0.00000000000E+00 -0.00000000000E+00 -0.20007550873E+03  0.20007550873E+03  0.00000000000E+00 0. -1.
         25    2    1    2    0    0 -0.41860525106E+02 -0.31445736048E+02 -0.12322454250E+03  0.18322766476E+03  0.12508777471E+03 0.  0.
         23    2    1    2    0    0  0.41860525106E+02  0.31445736048E+02  0.82812000910E+01  0.10198001028E+03  0.87121790292E+02 0.  0.
          5    1    3    3  502    0 -0.17463009410E+01 -0.35378081861E+02 -0.13611004812E+03  0.14070563543E+03  0.41800000000E+01 0.  1.
         -5    1    3    3    0  502 -0.40114224165E+02  0.39323458121E+01  0.12885505613E+02  0.42522029336E+02  0.41800000000E+01 0.  1.
        -11    1    4    4    0    0  0.15298850425E+02  0.39408429762E+02  0.41137526218E+02  0.58986229104E+02  0.00000000000E+00 0.  1.
         11    1    4    4    0    0  0.26561674681E+02 -0.79626937135E+01 -0.32856326127E+02  0.42993781174E+02  0.00000000000E+00 0. -1.
</event>
<event>
 8    1  0.6850220E-009  0.9221191E+02  0.7561462E-02  0.1297582E+00
         -2   -1    0    0    0  501 -0.00000000000E+00  0.00000000000E+00  0.10504209855E+03  0.10504209855E+03  0.00000000000E+00 0. -1.
          2   -1    0    0  501    0  0.00000000000E+00 -0.00000000000E+00 -0.18882210744E+03  0.18882210744E+03  0.00000000000E+00 0.  1.
         25    2    1    2    0    0  0.31388042126E+01  0.63647521669E+02  0.19571466934E+02  0.14174132312E+03  0.12508677490E+03 0.  0.
         23    2    1    2    0    0 -0.31388042126E+01 -0.63647521669E+02 -0.10335147582E+03  0.15212288287E+03  0.91645975535E+02 0.  0.
          5    1    3    3  502    0  0.11870478930E+02  0.51457739085E+01  0.65400107525E+02  0.66798455995E+02  0.41800000000E+01 0. -1.
         -5    1    3    3    0  502 -0.87316747169E+01  0.58501747760E+02 -0.45828640591E+02  0.74942867124E+02  0.41800000000E+01 0. -1.
        -11    1    4    4    0    0 -0.47352141536E+02 -0.31736763581E+02 -0.49710646084E+02  0.75634620411E+02  0.00000000000E+00 0.  1.
         11    1    4    4    0    0  0.44213337323E+02 -0.31910758088E+02 -0.53640829739E+02  0.76488262459E+02  0.00000000000E+00 0. -1.
</event>
<event>
 8    1  0.6850220E-009  0.9399343E+02  0.7561462E-02  0.1293459E+00
         -2   -1    0    0    0  501 -0.00000000000E+00  0.00000000000E+00  0.91385694404E+02  0.91385694404E+02  0.00000000000E+00 0.  1.
          2   -1    0    0  501    0  0.00000000000E+00 -0.00000000000E+00 -0.16920196240E+03  0.16920196240E+03  0.00000000000E+00 0. -1.
         25    2    1    2    0    0 -0.33360927633E+02 -0.48005806382E+02 -0.22251933127E+02  0.13985759084E+03  0.12508992065E+03 0.  0.
         23    2    1    2    0    0  0.33360927633E+02  0.48005806382E+02 -0.55564334871E+02  0.12073006596E+03  0.89837879421E+02 0.  0.
          5    1    3    3  502    0 -0.62091852848E+02  0.10698076009E+02  0.14458481956E+02  0.64779372650E+02  0.41800000000E+01 0.  1.
         -5    1    3    3    0  502  0.28730925215E+02 -0.58703882391E+02 -0.36710415082E+02  0.75078218193E+02  0.41800000000E+01 0.  1.
        -11    1    4    4    0    0  0.18702687501E+02  0.35315576850E+02  0.18596067252E+02  0.44077139259E+02  0.00000000000E+00 0.  1.
         11    1    4    4    0    0  0.14658240132E+02  0.12690229532E+02 -0.74160402122E+02  0.76652926704E+02  0.00000000000E+00 0. -1.
</event>
<event>
 8    1  0.6850220E-009  0.1318278E+03  0.7561462E-02  0.1224769E+00
         -1   -1    0    0    0  501 -0.00000000000E+00  0.00000000000E+00  0.28805972818E+02  0.28805972818E+02  0.00000000000E+00 0.  1.
          1   -1    0    0  501    0  0.00000000000E+00 -0.00000000000E+00 -0.73614249145E+03  0.73614249145E+03  0.00000000000E+00 0. -1.
         25    2    1    2    0    0 -0.90254326916E+02  0.25783009129E+02 -0.33719200926E+03  0.37169422626E+03  0.12509012607E+03 0.  0.
         23    2    1    2    0    0  0.90254326916E+02 -0.25783009129E+02 -0.37014450937E+03  0.39325423801E+03  0.93975160573E+02 0.  0.
          5    1    3    3  502    0  0.60210373114E+01  0.55121664755E+02 -0.12450585123E+03  0.13635919553E+03  0.41800000000E+01 0.  1.
         -5    1    3    3    0  502 -0.96275364228E+02 -0.29338655626E+02 -0.21268615803E+03  0.23533503073E+03  0.41800000000E+01 0.  1.
        -11    1    4    4    0    0  0.17635690312E+02  0.15761871597E+02 -0.14152649257E+02  0.27563592836E+02  0.00000000000E+00 0.  1.
         11    1    4    4    0    0  0.72618636604E+02 -0.41544880727E+02 -0.35599186012E+03  0.36569064517E+03  0.00000000000E+00 0. -1.
</event>
<event>
 8    1  0.6850220E-009  0.9851283E+02  0.7561462E-02  0.1283455E+00
         -1   -1    0    0    0  501 -0.00000000000E+00  0.00000000000E+00  0.13706437135E+03  0.13706437135E+03  0.00000000000E+00 0.  1.
          1   -1    0    0  501    0  0.00000000000E+00 -0.00000000000E+00 -0.11125947600E+03  0.11125947600E+03  0.00000000000E+00 0. -1.
         25    2    1    2    0    0 -0.54665249297E+02  0.18069850862E+02  0.25039135006E+02  0.13996058912E+03  0.12508876542E+03 0.  0.
         23    2    1    2    0    0  0.54665249297E+02 -0.18069850862E+02  0.76576034641E+00  0.10836325823E+03  0.91799784067E+02 0.  0.
          5    1    3    3  502    0 -0.58424963712E+02  0.39628900625E+02  0.63804158463E+02  0.95248985226E+02  0.41800000000E+01 0. -1.
         -5    1    3    3    0  502  0.37597144141E+01 -0.21559049763E+02 -0.38765023457E+02  0.44711603894E+02  0.41800000000E+01 0. -1.
        -11    1    4    4    0    0  0.38115581600E+01 -0.45897463217E+02  0.15423184072E+02  0.48569328925E+02  0.00000000000E+00 0.  1.
         11    1    4    4    0    0  0.50853691137E+02  0.27827612355E+02 -0.14657423725E+02  0.59793929307E+02  0.00000000000E+00 0. -1.
</event>
<event>
 8    1  0.6850220E-009  0.1148951E+03  0.7561462E-02  0.1251764E+00
         -2   -1    0    0    0  501 -0.00000000000E+00  0.00000000000E+00  0.48075214841E+02  0.48075214841E+02  0.00000000000E+00 0.  1.
          2   -1    0    0  501    0  0.00000000000E+00 -0.00000000000E+00 -0.67529904759E+03  0.67529904759E+03  0.00000000000E+00 0. -1.
         25    2    1    2    0    0  0.86565002849E+02  0.51375166764E+02 -0.12521211617E+03  0.20360984815E+03  0.12508392683E+03 0.  0.
         23    2    1    2    0    0 -0.86565002849E+02 -0.51375166764E+02 -0.50201171657E+03  0.51976441427E+03  0.89478350964E+02 0.  0.
          5    1    3    3  502    0 -0.83059394339E+01  0.28941141264E+02 -0.97566348285E+02  0.10219218662E+03  0.41800000000E+01 0. -1.
         -5    1    3    3    0  502  0.94870942283E+02  0.22434025500E+02 -0.27645767890E+02  0.10141766154E+03  0.41800000000E+01 0. -1.
        -11    1    4    4    0    0 -0.11021708432E+02 -0.13128654692E+02 -0.86709479496E+01  0.19210022622E+02  0.00000000000E+00 0.  1.
         11    1    4    4    0    0 -0.75543294417E+02 -0.38246512072E+02 -0.49334076862E+03  0.50055439165E+03  0.00000000000E+00 0. -1.
</event>
<event>
 8    1  0.6850220E-009  0.8555518E+02  0.7561462E-02  0.1313987E+00
         -4   -1    0    0    0  501 -0.00000000000E+00  0.00000000000E+00  0.77454394690E+02  0.77454394690E+02  0.00000000000E+00 0.  1.
          4   -1    0    0  501    0  0.00000000000E+00 -0.00000000000E+00 -0.20240271360E+03  0.20240271360E+03  0.00000000000E+00 0. -1.
         25    2    1    2    0    0 -0.22661379239E+02  0.69138306928E+02 -0.10497977665E+03  0.17877299984E+03  0.12508152690E+03 0.  0.
         23    2    1    2    0    0  0.22661379239E+02 -0.69138306928E+02 -0.19968542255E+02  0.10108410845E+03  0.67272659431E+02 0.  0.
          5    1    3    3  502    0 -0.27900940036E+02  0.61514434254E+02  0.54343163344E+01  0.67893241714E+02  0.41800000000E+01 0. -1.
         -5    1    3    3    0  502  0.52395607965E+01  0.76238726740E+01 -0.11041409299E+03  0.11087975812E+03  0.41800000000E+01 0. -1.
        -11    1    4    4    0    0  0.18861093004E+02  0.46271455272E+01 -0.19066258275E+02  0.27215317556E+02  0.00000000000E+00 0.  1.
         11    1    4    4    0    0  0.38002862345E+01 -0.73765452455E+02 -0.90228398048E+00  0.73868790891E+02  0.00000000000E+00 0. -1.
</event>
<event>
 8    1  0.6850220E-009  0.9906157E+02  0.7561462E-02  0.1282282E+00
          2   -1    0    0  501    0  0.00000000000E+00  0.00000000000E+00  0.79830796259E+02  0.79830796259E+02  0.00000000000E+00 0.  1.
         -2   -1    0    0    0  501 -0.00000000000E+00 -0.00000000000E+00 -0.19939989498E+03  0.19939989498E+03  0.00000000000E+00 0. -1.
         25    2    1    2    0    0 -0.50901550904E+02 -0.24235177162E+02 -0.10459573062E+03  0.17252829452E+03  0.12508970321E+03 0.  0.
         23    2    1    2    0    0  0.50901550904E+02  0.24235177162E+02 -0.14973368093E+02  0.10670239671E+03  0.89347008989E+02 0.  0.
          5    1    3    3  502    0 -0.50858516384E+02 -0.50850927224E+02 -0.12111802167E+03  0.14092357170E+03  0.41800000000E+01 0.  1.
         -5    1    3    3    0  502 -0.43034520315E-01  0.26615750062E+02  0.16522291044E+02  0.31604722823E+02  0.41800000000E+01 0.  1.
        -11    1    4    4    0    0 -0.22566024777E+02  0.76149556408E+01  0.12032783238E+02  0.26683344920E+02  0.00000000000E+00 0.  1.
         11    1    4    4    0    0  0.73467575681E+02  0.16620221522E+02 -0.27006151332E+02  0.80019051791E+02  0.00000000000E+00 0. -1.
</event>
<event>
 8    1  0.6850220E-009  0.1384552E+03  0.7561462E-02  0.1215423E+00
         -2   -1    0    0    0  501 -0.00000000000E+00  0.00000000000E+00  0.22527228020E+02  0.22527228020E+02  0.00000000000E+00 0. -1.
          2   -1    0    0  501    0  0.00000000000E+00 -0.00000000000E+00 -0.15305775513E+04  0.15305775513E+04  0.00000000000E+00 0.  1.
         25    2    1    2    0    0 -0.88141267914E+02 -0.37027855923E+02 -0.12878962166E+04  0.12974840446E+04  0.12509290997E+03 0.  0.
         23    2    1    2    0    0  0.88141267914E+02  0.37027855923E+02 -0.22015410669E+03  0.25562073470E+03  0.87944210102E+02 0.  0.
          5    1    3    3  502    0 -0.12039533022E+03 -0.30519278480E+02 -0.10154326190E+04  0.10230089628E+04  0.41800000000E+01 0. -1.
         -5    1    3    3    0  502  0.32254062303E+02 -0.65085774435E+01 -0.27246359757E+03  0.27447508178E+03  0.41800000000E+01 0. -1.
        -11    1    4    4    0    0 -0.77301221778E+01  0.20855937996E+02 -0.10660309665E+02  0.24665099650E+02  0.00000000000E+00 0.  1.
         11    1    4    4    0    0  0.95871390092E+02  0.16171917927E+02 -0.20949379703E+03  0.23095563505E+03  0.00000000000E+00 0. -1.
</event>
<event>
 8    1  0.6850220E-009  0.1071572E+03  0.7561462E-02  0.1265927E+00
         -1   -1    0    0    0  501 -0.00000000000E+00  0.00000000000E+00  0.56742463902E+02  0.56742463902E+02  0.00000000000E+00 0.  1.
          1   -1    0    0  501    0  0.00000000000E+00 -0.00000000000E+00 -0.33860976826E+03  0.33860976826E+03  0.00000000000E+00 0. -1.
         25    2    1    2    0    0  0.71539968981E+02 -0.21347131888E+02 -0.18068726799E+03  0.23209889893E+03  0.12509333663E+03 0.  0.
         23    2    1    2    0    0 -0.71539968981E+02  0.21347131888E+02 -0.10118003637E+03  0.16325333324E+03  0.10411812451E+03 0.  0.
          5    1    3    3  502    0 -0.13468520899E+02 -0.34830090754E-01  0.13179489398E+02  0.19302165918E+02  0.41800000000E+01 0. -1.
         -5    1    3    3    0  502  0.85008489879E+02 -0.21312301797E+02 -0.19386675739E+03  0.21279673301E+03  0.41800000000E+01 0. -1.
        -11    1    4    4    0    0 -0.12417852142E+02 -0.31070603194E+02 -0.71333415002E+02  0.78791125963E+02  0.00000000000E+00 0.  1.
         11    1    4    4    0    0 -0.59122116839E+02  0.52417735082E+02 -0.29846621371E+02  0.84462207276E+02  0.00000000000E+00 0. -1.
</event>
<event>
 8    1  0.6850220E-009  0.1624577E+03  0.7561462E-02  0.1185950E+00
          1   -1    0    0  501    0  0.00000000000E+00  0.00000000000E+00  0.42116668671E+02  0.42116668671E+02  0.00000000000E+00 0. -1.
         -1   -1    0    0    0  501 -0.00000000000E+00 -0.00000000000E+00 -0.85694306315E+03  0.85694306315E+03  0.00000000000E+00 0.  1.
         25    2    1    2    0    0  0.12724133147E+03  0.81318719097E+02 -0.51758345629E+03  0.55348768150E+03  0.12511150564E+03 0.  0.
         23    2    1    2    0    0 -0.12724133147E+03 -0.81318719097E+02 -0.29724293818E+03  0.34557205031E+03  0.90904274638E+02 0.  0.
          5    1    3    3  502    0  0.12972377481E+03  0.73456041713E+02 -0.29353046129E+03  0.32924406133E+03  0.41800000000E+01 0. -1.
         -5    1    3    3    0  502 -0.24824433430E+01  0.78626773837E+01 -0.22405299500E+03  0.22424362018E+03  0.41800000000E+01 0. -1.
        -11    1    4    4    0    0 -0.84830092831E+02 -0.89530395654E+02 -0.26287169925E+03  0.29036764052E+03  0.00000000000E+00 0.  1.
         11    1    4    4    0    0 -0.42411238637E+02  0.82116765566E+01 -0.34371238938E+02  0.55204409794E+02  0.00000000000E+00 0. -1.
</event>
<event>
 8    1  0.6850220E-009  0.9024309E+02  0.7561462E-02  0.1302264E+00
         -1   -1    0    0    0  501 -0.00000000000E+00  0.00000000000E+00  0.14661608364E+03  0.14661608364E+03  0.00000000000E+00 0. -1.
          1   -1    0    0  501    0  0.00000000000E+00 -0.00000000000E+00 -0.94454513229E+02  0.94454513229E+02  0.00000000000E+00 0.  1.
         25    2    1    2    0    0  0.17577906748E+02  0.32648824903E+02  0.56359502825E+02  0.14212059720E+03  0.12508773727E+03 0.  0.
         23    2    1    2    0    0 -0.17577906748E+02 -0.32648824903E+02 -0.41979324106E+01  0.98949999672E+02  0.91643609845E+02 0.  0.
          5    1    3    3  502    0  0.49775991688E+02  0.66180723284E+02  0.43856355394E+02  0.93799732363E+02  0.41800000000E+01 0. -1.
         -5    1    3    3    0  502 -0.32198084940E+02 -0.33531898381E+02  0.12503147431E+02  0.48320864836E+02  0.41800000000E+01 0. -1.
        -11    1    4    4    0    0 -0.28310529064E+02 -0.23745331495E+02  0.38900104399E+02  0.53652073081E+02  0.00000000000E+00 0. -1.
         11    1    4    4    0    0  0.10732622316E+02 -0.89034934081E+01 -0.43098036809E+02  0.45297926591E+02  0.00000000000E+00 0.  1.
</event>
<event>
 8    1  0.6850220E-009  0.1078291E+03  0.7561462E-02  0.1264644E+00
         -1   -1    0    0    0  501 -0.00000000000E+00  0.00000000000E+00  0.60174666709E+03  0.60174666709E+03  0.00000000000E+00 0.  1.
          1   -1    0    0  501    0  0.00000000000E+00 -0.00000000000E+00 -0.36670557298E+02  0.36670557298E+02  0.00000000000E+00 0. -1.
         25    2    1    2    0    0 -0.74841988325E+02 -0.38513071505E+02  0.44381309620E+03  0.46872372980E+03  0.12508913071E+03 0.  0.
         23    2    1    2    0    0  0.74841988325E+02  0.38513071505E+02  0.12126301359E+03  0.16969349460E+03  0.83705338830E+02 0.  0.
          5    1    3    3  502    0 -0.76564005047E+02 -0.52133621436E+02  0.16286878403E+03  0.18741311204E+03  0.41800000000E+01 0. -1.
         -5    1    3    3    0  502  0.17220167213E+01  0.13620549931E+02  0.28094431217E+03  0.28131061775E+03  0.41800000000E+01 0. -1.
        -11    1    4    4    0    0  0.12546438602E+02  0.44279609471E+02  0.18955735233E+02  0.49773656031E+02  0.00000000000E+00 0. -1.
         11    1    4    4    0    0  0.62295549724E+02 -0.57665379658E+01  0.10230727836E+03  0.11991983856E+03  0.00000000000E+00 0.  1.
</event>
<event>
 8    1  0.6850220E-009  0.8750298E+02  0.7561462E-02  0.1309014E+00
         -3   -1    0    0    0  501 -0.00000000000E+00  0.00000000000E+00  0.87358379817E+02  0.87358379817E+02  0.00000000000E+00 0.  1.
          3   -1    0    0  501    0  0.00000000000E+00 -0.00000000000E+00 -0.14983931134E+03  0.14983931134E+03  0.00000000000E+00 0. -1.
         25    2    1    2    0    0 -0.36106546499E+01  0.32662616097E+02 -0.55035720939E+02  0.14056384440E+03  0.12509748381E+03 0.  0.
         23    2    1    2    0    0  0.36106546499E+01 -0.32662616097E+02 -0.74452105837E+01  0.96633846758E+02  0.90569232422E+02 0.  0.
          5    1    3    3  502    0 -0.34140065650E+02 -0.23757425867E+02 -0.63186763246E+02  0.75762779885E+02  0.41800000000E+01 0. -1.
         -5    1    3    3    0  502  0.30529411000E+02  0.56420041964E+02  0.81510423073E+01  0.64801064512E+02  0.41800000000E+01 0. -1.
        -11    1    4    4    0    0  0.31613463099E+02 -0.23714848904E+02  0.29575213201E+02  0.49360898934E+02  0.00000000000E+00 0.  1.
         11    1    4    4    0    0 -0.28002808449E+02 -0.89477671924E+01 -0.37020423785E+02  0.47272947824E+02  0.00000000000E+00 0. -1.
</event>
<event>
 8    1  0.6850220E-009  0.1073701E+03  0.7561462E-02  0.1265519E+00
          2   -1    0    0  501    0  0.00000000000E+00  0.00000000000E+00  0.35198981803E+03  0.35198981803E+03  0.00000000000E+00 0. -1.
         -2   -1    0    0    0  501 -0.00000000000E+00 -0.00000000000E+00 -0.36030992669E+02  0.36030992669E+02  0.00000000000E+00 0.  1.
         25    2    1    2    0    0  0.13418022320E+02 -0.19401025937E+02  0.22783457271E+03  0.26097865646E+03  0.12507926877E+03 0.  0.
         23    2    1    2    0    0 -0.13418022320E+02  0.19401025937E+02  0.88124252652E+02  0.12704215424E+03  0.88415959635E+02 0.  0.
          5    1    3    3  502    0 -0.44729232182E+02  0.27267559326E+02  0.97942211688E+02  0.11115022822E+03  0.41800000000E+01 0.  1.
         -5    1    3    3    0  502  0.58147254502E+02 -0.46668585264E+02  0.12989236102E+03  0.14982842823E+03  0.41800000000E+01 0.  1.
        -11    1    4    4    0    0  0.23559844052E+02  0.39073675373E+02  0.64336559880E+02  0.78873387755E+02  0.00000000000E+00 0. -1.
         11    1    4    4    0    0 -0.36977866372E+02 -0.19672649435E+02  0.23787692772E+02  0.48168766484E+02  0.00000000000E+00 0.  1.
</event>
<event>
 8    1  0.6850220E-009  0.1455760E+03  0.7561462E-02  0.1206017E+00
          2   -1    0    0  501    0  0.00000000000E+00  0.00000000000E+00  0.78533356261E+03  0.78533356261E+03  0.00000000000E+00 0. -1.
         -2   -1    0    0    0  501 -0.00000000000E+00 -0.00000000000E+00 -0.34376092750E+02  0.34376092750E+02  0.00000000000E+00 0.  1.
         25    2    1    2    0    0  0.76937514768E+02  0.66768933672E+02  0.57832209266E+03  0.60040205558E+03  0.12509481923E+03 0.  0.
         23    2    1    2    0    0 -0.76937514768E+02 -0.66768933672E+02  0.17263537719E+03  0.21930759978E+03  0.88968411133E+02 0.  0.
          5    1    3    3  502    0  0.75236572023E+01 -0.33362706831E+02  0.75148684390E+02  0.82670870265E+02  0.41800000000E+01 0.  1.
         -5    1    3    3    0  502  0.69413857566E+02  0.10013164050E+03  0.50317340827E+03  0.51773118531E+03  0.41800000000E+01 0.  1.
        -11    1    4    4    0    0 -0.25873177049E+02 -0.78276625903E+02  0.11431021922E+03  0.14093785039E+03  0.00000000000E+00 0. -1.
         11    1    4    4    0    0 -0.51064337719E+02  0.11507692231E+02  0.58325157968E+02  0.78369749388E+02  0.00000000000E+00 0.  1.
</event>
<event>
 8    1  0.6850220E-009  0.1825909E+03  0.7561462E-02  0.1165319E+00
         -2   -1    0    0    0  501 -0.00000000000E+00  0.00000000000E+00  0.65672724680E+02  0.65672724680E+02  0.00000000000E+00 0. -1.
          2   -1    0    0  501    0  0.00000000000E+00 -0.00000000000E+00 -0.73274292339E+03  0.73274292339E+03  0.00000000000E+00 0.  1.
         25    2    1    2    0    0 -0.12087711597E+03 -0.87942108266E+02 -0.13676940058E+03  0.23811679977E+03  0.12509456354E+03 0.  0.
         23    2    1    2    0    0  0.12087711597E+03  0.87942108266E+02 -0.53030079814E+03  0.56029884831E+03  0.10183698414E+03 0.  0.
          5    1    3    3  502    0  0.80992436216E+01  0.20681949829E+02 -0.29255095596E+01  0.22789730191E+02  0.41800000000E+01 0. -1.
         -5    1    3    3    0  502 -0.12897635959E+03 -0.10862405810E+03 -0.13384389102E+03  0.21532706958E+03  0.41800000000E+01 0. -1.
        -11    1    4    4    0    0  0.39041199268E+02  0.83231864056E+02 -0.20228513682E+03  0.22219593833E+03  0.00000000000E+00 0. -1.
         11    1    4    4    0    0  0.81835916698E+02  0.47102442110E+01 -0.32801566132E+03  0.33810290997E+03  0.00000000000E+00 0.  1.
</event>
<event>
 8    1  0.6850220E-009  0.1285378E+03  0.7561462E-02  0.1229642E+00
          1   -1    0    0  501    0  0.00000000000E+00  0.00000000000E+00  0.10325752978E+04  0.10325752978E+04  0.00000000000E+00 0. -1.
         -1   -1    0    0    0  501 -0.00000000000E+00 -0.00000000000E+00 -0.18032938745E+02  0.18032938745E+02  0.00000000000E+00 0.  1.
         25    2    1    2    0    0  0.66930011869E+02 -0.35384395202E+02  0.67301022132E+03  0.68871055924E+03  0.12509114476E+03 0.  0.
         23    2    1    2    0    0 -0.66930011869E+02  0.35384395202E+02  0.34153213772E+03  0.36189767729E+03  0.92704076597E+02 0.  0.
          5    1    3    3  502    0  0.92933372567E+02  0.33166068424E+00  0.55275653177E+03  0.56053008621E+03  0.41800000000E+01 0.  1.
         -5    1    3    3    0  502 -0.26003360698E+02 -0.35716055886E+02  0.12025368955E+03  0.12818047303E+03  0.41800000000E+01 0.  1.
        -11    1    4    4    0    0 -0.63604917875E+02 -0.18063201707E+02  0.18547926147E+03  0.19691221716E+03  0.00000000000E+00 0. -1.
         11    1    4    4    0    0 -0.33250939938E+01  0.53447596909E+02  0.15605287625E+03  0.16498546012E+03  0.00000000000E+00 0.  1.
</event>
<event>
 8    1  0.6850220E-009  0.2836224E+03  0.7561462E-02  0.1093727E+00
         -4   -1    0    0    0  501 -0.00000000000E+00  0.00000000000E+00  0.17993881985E+03  0.17993881985E+03  0.00000000000E+00 0. -1.
          4   -1    0    0  501    0  0.00000000000E+00 -0.00000000000E+00 -0.48924378318E+03  0.48924378318E+03  0.00000000000E+00 0.  1.
         25    2    1    2    0    0  0.26172318718E+03  0.48787586201E+02 -0.24001325249E+03  0.37964662213E+03  0.12508373615E+03 0.  0.
         23    2    1    2    0    0 -0.26172318718E+03 -0.48787586201E+02 -0.69291710842E+02  0.28953598091E+03  0.90280051914E+02 0.  0.
          5    1    3    3  502    0  0.10205950477E+03 -0.41091686176E+02 -0.10361522663E+03  0.15118947310E+03  0.41800000000E+01 0.  1.
         -5    1    3    3    0  502  0.15966368242E+03  0.89879272378E+02 -0.13639802586E+03  0.22845714903E+03  0.41800000000E+01 0.  1.
        -11    1    4    4    0    0 -0.10326535717E+03  0.12410157404E+02 -0.58493613351E+02  0.11932832355E+03  0.00000000000E+00 0.  1.
         11    1    4    4    0    0 -0.15845783001E+03 -0.61197743605E+02 -0.10798097491E+02  0.17020765736E+03  0.00000000000E+00 0. -1.
</event>
<event>
 8    1  0.6850220E-009  0.8469207E+02  0.7561462E-02  0.1316240E+00
         -2   -1    0    0    0  501 -0.00000000000E+00  0.00000000000E+00  0.30599353990E+03  0.30599353990E+03  0.00000000000E+00 0.  1.
          2   -1    0    0  501    0  0.00000000000E+00 -0.00000000000E+00 -0.47295965362E+02  0.47295965362E+02  0.00000000000E+00 0. -1.
         25    2    1    2    0    0 -0.43910992885E+02 -0.26852951457E+02  0.14083930094E+03  0.19527538426E+03  0.12509001044E+03 0.  0.
         23    2    1    2    0    0  0.43910992885E+02  0.26852951457E+02  0.11785827360E+03  0.15801412099E+03  0.91807589447E+02 0.  0.
          5    1    3    3  502    0 -0.20070454686E+02 -0.52208750395E+02  0.65316654806E+01  0.56468680019E+02  0.41800000000E+01 0.  1.
         -5    1    3    3    0  502 -0.23840538199E+02  0.25355798938E+02  0.13430763546E+03  0.13880670424E+03  0.41800000000E+01 0.  1.
        -11    1    4    4    0    0 -0.36840379626E+01 -0.14641276117E+02  0.85951475666E+02  0.87267378048E+02  0.00000000000E+00 0.  1.
         11    1    4    4    0    0  0.47595030848E+02  0.41494227574E+02  0.31906797932E+02  0.70746742947E+02  0.00000000000E+00 0. -1.
</event>
<event>
 7    1  0.6850220E-009  0.1064126E+03  0.7561462E-02  0.1267361E+00
         -1   -1    0    0    0  501 -0.00000000000E+00  0.00000000000E+00  0.80550232806E+02  0.80550232806E+02  0.00000000000E+00 0.  1.
          1   -1    0    0  501    0  0.00000000000E+00 -0.00000000000E+00 -0.19465381309E+03  0.19465381309E+03  0.00000000000E+00 0. -1.
         23    2    1    2    0    0 -0.22702623517E+02 -0.18280087536E+02 -0.11177013907E+03  0.14666508391E+03  0.90379821511E+02 0.  0.
          5    1    1    2  502    0  0.40081826058E+02 -0.41871232604E+02 -0.22959646195E+02  0.62484963418E+02  0.41800000000E+01 0.  1.
         -5    1    1    2    0  502 -0.17379202541E+02  0.60151320139E+02  0.20626204976E+02  0.66053998571E+02  0.41800000000E+01 0.  1.
        -11    1    3    3    0    0  0.26436319007E+02 -0.31451954258E+02 -0.32108270517E+02  0.52144466867E+02  0.00000000000E+00 0.  1.
         11    1    3    3    0    0 -0.49138942524E+02  0.13171866722E+02 -0.79661868549E+02  0.94520617042E+02  0.00000000000E+00 0. -1.
</event>
<event>
 8    1  0.6850220E-009  0.1493664E+03  0.7561462E-02  0.1201254E+00
         -1   -1    0    0    0  501 -0.00000000000E+00  0.00000000000E+00  0.95898239281E+02  0.95898239281E+02  0.00000000000E+00 0.  1.
          1   -1    0    0  501    0  0.00000000000E+00 -0.00000000000E+00 -0.51166519550E+03  0.51166519550E+03  0.00000000000E+00 0. -1.
         25    2    1    2    0    0 -0.13921948742E+03  0.88679336203E+01 -0.39935384704E+03  0.44112534958E+03  0.12508945986E+03 0.  0.
         23    2    1    2    0    0  0.13921948742E+03 -0.88679336203E+01 -0.16413109176E+02  0.16643808520E+03  0.89283481835E+02 0.  0.
          5    1    3    3  502    0 -0.59996894739E+02 -0.33802464558E+02 -0.64779546441E+02  0.94636652654E+02  0.41800000000E+01 0.  1.
         -5    1    3    3    0  502 -0.79222592683E+02  0.42670398178E+02 -0.33457430060E+03  0.34648869692E+03  0.41800000000E+01 0.  1.
        -11    1    4    4    0    0  0.63305459074E+02 -0.69511469664E+00 -0.52256930387E+02  0.82090505581E+02  0.00000000000E+00 0. -1.
         11    1    4    4    0    0  0.75914028348E+02 -0.81728189236E+01  0.35843821211E+02  0.84347579623E+02  0.00000000000E+00 0.  1.
</event>
<event>
 8    1  0.6850220E-009  0.1510632E+03  0.7561462E-02  0.1199173E+00
         -1   -1    0    0    0  501 -0.00000000000E+00  0.00000000000E+00  0.30663769843E+02  0.30663769843E+02  0.00000000000E+00 0.  1.
          1   -1    0    0  501    0  0.00000000000E+00 -0.00000000000E+00 -0.93284409665E+03  0.93284409665E+03  0.00000000000E+00 0. -1.
         25    2    1    2    0    0 -0.82730226094E+02  0.87050899130E+02 -0.60298261007E+03  0.62742127904E+03  0.12508910424E+03 0.  0.
         23    2    1    2    0    0  0.82730226094E+02 -0.87050899130E+02 -0.29919771673E+03  0.33608658744E+03  0.94935616155E+02 0.  0.
          5    1    3    3  502    0 -0.10465356130E+03  0.40800993963E+02 -0.30515155407E+03  0.32519537566E+03  0.41800000000E+01 0.  1.
         -5    1    3    3    0  502  0.21923335210E+02  0.46249905167E+02 -0.29783105600E+03  0.30222590338E+03  0.41800000000E+01 0.  1.
        -11    1    4    4    0    0  0.71644588746E+02 -0.25838553769E+02 -0.90335147420E+02  0.11815674681E+03  0.00000000000E+00 0.  1.
         11    1    4    4    0    0  0.11085637348E+02 -0.61212345361E+02 -0.20886256931E+03  0.21792984063E+03  0.00000000000E+00 0. -1.
</event>
<event>
 8    1  0.6850220E-009  0.1168582E+03  0.7561462E-02  0.1248372E+00
          2   -1    0    0  501    0  0.00000000000E+00  0.00000000000E+00  0.16185551083E+03  0.16185551083E+03  0.00000000000E+00 0. -1.
         -2   -1    0    0    0  501 -0.00000000000E+00 -0.00000000000E+00 -0.10115441213E+03  0.10115441213E+03  0.00000000000E+00 0.  1.
         25    2    1    2    0    0 -0.19116806682E+02 -0.60441212549E+02  0.60094602746E+02  0.15257230333E+03  0.12509338109E+03 0.  0.
         23    2    1    2    0    0  0.19116806682E+02  0.60441212549E+02  0.60649595178E+00  0.11043761963E+03  0.90429572159E+02 0.  0.
          5    1    3    3  502    0 -0.61252110167E+02  0.50409785073E+01  0.33887582757E+02  0.70306992037E+02  0.41800000000E+01 0. -1.
         -5    1    3    3    0  502  0.42135303485E+02 -0.65482191056E+02  0.26207019990E+02  0.82265311292E+02  0.41800000000E+01 0. -1.
        -11    1    4    4    0    0 -0.12204481514E+02  0.61595988493E+02  0.28054300165E+02  0.68775423846E+02  0.00000000000E+00 0. -1.
         11    1    4    4    0    0  0.31321288195E+02 -0.11547759444E+01 -0.27447804213E+02  0.41662195787E+02  0.00000000000E+00 0.  1.
</event>
<event>
 7    1  0.6850220E-009  0.1474879E+03  0.7561462E-02  0.1203594E+00
         -1   -1    0    0    0  501 -0.00000000000E+00  0.00000000000E+00  0.20127360713E+03  0.20127360713E+03  0.00000000000E+00 0.  1.
          1   -1    0    0  501    0  0.00000000000E+00 -0.00000000000E+00 -0.15627886844E+03  0.15627886844E+03  0.00000000000E+00 0. -1.
         25    2    1    2    0    0  0.29713513553E+02  0.14387582208E+03  0.63562853548E+02  0.20314997395E+03  0.12508609234E+03 0.  0.
          5    1    3    3  502    0  0.22072632151E+02  0.69775537414E+02 -0.33607429141E+02  0.80639682570E+02  0.41800000000E+01 0. -1.
         -5    1    3    3    0  502  0.76408814018E+01  0.74100284668E+02  0.97170282689E+02  0.12251029138E+03  0.41800000000E+01 0. -1.
        -11    1    1    2    0    0 -0.10903026553E+02 -0.69224967626E+02 -0.30628433788E+02  0.76479233045E+02  0.00000000000E+00 0.  1.
         11    1    1    2    0    0 -0.18810487000E+02 -0.74650854457E+02  0.12060318928E+02  0.77923268572E+02  0.00000000000E+00 0. -1.
</event>
<event>
 8    1  0.6850220E-009  0.1033875E+03  0.7561462E-02  0.1273330E+00
         -1   -1    0    0    0  501 -0.00000000000E+00  0.00000000000E+00  0.14967709271E+02  0.14967709271E+02  0.00000000000E+00 0. -1.
          1   -1    0    0  501    0  0.00000000000E+00 -0.00000000000E+00 -0.88025033174E+03  0.88025033174E+03  0.00000000000E+00 0.  1.
         25    2    1    2    0    0  0.12426251888E+02  0.25271457478E+02 -0.59636238840E+03  0.60999033547E+03  0.12508818000E+03 0.  0.
         23    2    1    2    0    0 -0.12426251888E+02 -0.25271457478E+02 -0.26892023407E+03  0.28522770554E+03  0.90794787372E+02 0.  0.
          5    1    3    3  502    0  0.46313183829E+02  0.56333711437E+02 -0.24648347376E+03  0.25707970219E+03  0.41800000000E+01 0.  1.
         -5    1    3    3    0  502 -0.33886931941E+02 -0.31062253959E+02 -0.34987891463E+03  0.35291063328E+03  0.41800000000E+01 0.  1.
        -11    1    4    4    0    0 -0.43945354114E+02  0.45469682359E+01 -0.19098614245E+03  0.19602952757E+03  0.00000000000E+00 0.  1.
         11    1    4    4    0    0  0.31519102226E+02 -0.29818425714E+02 -0.77934091621E+02  0.89198177974E+02  0.00000000000E+00 0. -1.
</event>
<event>
 8    1  0.6850220E-009  0.9592723E+02  0.7561462E-02  0.1289101E+00
          2   -1    0    0  501    0  0.00000000000E+00  0.00000000000E+00  0.14888498231E+03  0.14888498231E+03  0.00000000000E+00 0. -1.
         -2   -1    0    0    0  501 -0.00000000000E+00 -0.00000000000E+00 -0.85653795234E+02  0.85653795234E+02  0.00000000000E+00 0.  1.
         25    2    1    2    0    0  0.17143561731E+02 -0.20482814942E+02  0.16979996281E+02  0.12903200932E+03  0.12508993460E+03 0.  0.
         23    2    1    2    0    0 -0.17143561731E+02  0.20482814942E+02  0.46251190794E+02  0.10550676822E+03  0.90989329452E+02 0.  0.
          5    1    3    3  502    0  0.22211298363E+02  0.35235453256E+02 -0.33457820069E+02  0.53588964022E+02  0.41800000000E+01 0.  1.
         -5    1    3    3    0  502 -0.50677366328E+01 -0.55718268198E+02  0.50437816350E+02  0.75443045297E+02  0.41800000000E+01 0.  1.
        -11    1    4    4    0    0  0.27478555955E+02 -0.19724177963E+02  0.96713431016E+01  0.35180237508E+02  0.00000000000E+00 0.  1.
         11    1    4    4    0    0 -0.44622117686E+02  0.40206992905E+02  0.36579847693E+02  0.70326530715E+02  0.00000000000E+00 0. -1.
</event>
<event>
 8    1  0.6850220E-009  0.8568340E+02  0.7561462E-02  0.1313655E+00
          2   -1    0    0  501    0  0.00000000000E+00  0.00000000000E+00  0.66510706000E+03  0.66510706000E+03  0.00000000000E+00 0.  1.
         -2   -1    0    0    0  501 -0.00000000000E+00 -0.00000000000E+00 -0.38442973543E+02  0.38442973543E+02  0.00000000000E+00 0. -1.
         25    2    1    2    0    0 -0.78148374161E+01  0.31328072815E+02  0.58428172289E+03  0.59839295053E+03  0.12508585736E+03 0.  0.
         23    2    1    2    0    0  0.78148374161E+01 -0.31328072815E+02  0.42382363572E+02  0.10515708302E+03  0.90659955530E+02 0.  0.
          5    1    3    3  502    0  0.31576559199E+02  0.38913488735E+02  0.95328455797E+02  0.10777905910E+03  0.41800000000E+01 0.  1.
         -5    1    3    3    0  502 -0.39391396615E+02 -0.75854159197E+01  0.48895326709E+03  0.49061389143E+03  0.41800000000E+01 0.  1.
        -11    1    4    4    0    0 -0.32579982852E+02 -0.21931255968E+02 -0.78143388917E+01  0.40043715653E+02  0.00000000000E+00 0. -1.
         11    1    4    4    0    0  0.40394820268E+02 -0.93968168474E+01  0.50196702464E+02  0.65113367365E+02  0.00000000000E+00 0.  1.
</event>
<event>
 8    1  0.6850220E-009  0.1296370E+03  0.7561462E-02  0.1227995E+00
         -1   -1    0    0    0  501 -0.00000000000E+00  0.00000000000E+00  0.39667970611E+03  0.39667970611E+03  0.00000000000E+00 0.  1.
          1   -1    0    0  501    0  0.00000000000E+00 -0.00000000000E+00 -0.70406364817E+02  0.70406364817E+02  0.00000000000E+00 0. -1.
         25    2    1    2    0    0  0.10604316927E+03  0.16394823970E+02  0.26815184746E+03  0.31474227444E+03  0.12507334655E+03 0.  0.
         23    2    1    2    0    0 -0.10604316927E+03 -0.16394823970E+02  0.58121493829E+02  0.15234379649E+03  0.91195286510E+02 0.  0.
          5    1    3    3  502    0  0.79549207691E+02 -0.11827860416E+02  0.53722451659E+02  0.96806760810E+02  0.41800000000E+01 0. -1.
         -5    1    3    3    0  502  0.26493961584E+02  0.28222684386E+02  0.21442939580E+03  0.21793551363E+03  0.41800000000E+01 0. -1.
        -11    1    4    4    0    0 -0.10697761010E+03  0.15328096043E+02  0.52367933693E+02  0.12008980002E+03  0.00000000000E+00 0.  1.
         11    1    4    4    0    0  0.93444082424E+00 -0.31722920013E+02  0.57535601356E+01  0.32253996466E+02  0.00000000000E+00 0. -1.
</event>
<event>
 8    1  0.6850220E-009  0.1126913E+03  0.7561462E-02  0.1255666E+00
         -2   -1    0    0    0  501 -0.00000000000E+00  0.00000000000E+00  0.10401429914E+03  0.10401429914E+03  0.00000000000E+00 0.  1.
          2   -1    0    0  501    0  0.00000000000E+00 -0.00000000000E+00 -0.21559930180E+03  0.21559930180E+03  0.00000000000E+00 0. -1.
         25    2    1    2    0    0  0.83317313966E+02 -0.14097581079E+02 -0.12478652271E+03  0.19587092456E+03  0.12511285402E+03 0.  0.
         23    2    1    2    0    0 -0.83317313966E+02  0.14097581079E+02  0.13201520051E+02  0.12374267637E+03  0.89428481058E+02 0.  0.
          5    1    3    3  502    0  0.32997452501E+02  0.43231513719E+02 -0.63238316293E+01  0.54911373107E+02  0.41800000000E+01 0. -1.
         -5    1    3    3    0  502  0.50319861466E+02 -0.57329094798E+02 -0.11846269108E+03  0.14095955146E+03  0.41800000000E+01 0. -1.
        -11    1    4    4    0    0 -0.28625711459E+02  0.25772005049E+02  0.45141001308E+02  0.59340859447E+02  0.00000000000E+00 0.  1.
         11    1    4    4    0    0 -0.54691602507E+02 -0.11674423970E+02 -0.31939481257E+02  0.64401816922E+02  0.00000000000E+00 0. -1.
</event>
<event>
 7    1  0.6850220E-009  0.9589480E+02  0.7561462E-02  0.1289173E+00
         -1   -1    0    0    0  501 -0.00000000000E+00  0.00000000000E+00  0.11392141973E+03  0.11392141973E+03  0.00000000000E+00 0.  1.
          1   -1    0    0  501    0  0.00000000000E+00 -0.00000000000E+00 -0.11005962561E+03  0.11005962561E+03  0.00000000000E+00 0. -1.
         23    2    1    2    0    0  0.21579671787E+01 -0.27610048115E+02 -0.26467004111E+02  0.92423426545E+02  0.84110735869E+02 0.  0.
          5    1    1    2  502    0  0.11519114283E+02 -0.48777835429E+02  0.11333221916E+02  0.51554646173E+02  0.41800000000E+01 0.  1.
         -5    1    1    2    0  502 -0.13677081461E+02  0.76387883544E+02  0.18995576312E+02  0.80002972627E+02  0.41800000000E+01 0.  1.
        -11    1    3    3    0    0 -0.19122318719E+02 -0.36114128718E+02 -0.46557307212E+02  0.61947366539E+02  0.00000000000E+00 0. -1.
         11    1    3    3    0    0  0.21280285897E+02  0.85040806030E+01  0.20090303101E+02  0.30476060006E+02  0.00000000000E+00 0.  1.
</event>
<event>
 8    1  0.6850220E-009  0.9082807E+02  0.7561462E-02  0.1300859E+00
         -2   -1    0    0    0  501 -0.00000000000E+00  0.00000000000E+00  0.66950806728E+02  0.66950806728E+02  0.00000000000E+00 0.  1.
          2   -1    0    0  501    0  0.00000000000E+00 -0.00000000000E+00 -0.18414985696E+03  0.18414985696E+03  0.00000000000E+00 0. -1.
         25    2    1    2    0    0 -0.22786572772E+02 -0.15416908725E+02 -0.71700273474E+02  0.14678623009E+03  0.12509340173E+03 0.  0.
         23    2    1    2    0    0  0.22786572772E+02  0.15416908725E+02 -0.45498776762E+02  0.10431443360E+03  0.89746606601E+02 0.  0.
          5    1    3    3  502    0 -0.33640854826E+02  0.47539682859E+02 -0.12763957583E+02  0.59767211521E+02  0.41800000000E+01 0. -1.
         -5    1    3    3    0  502  0.10854282054E+02 -0.62956591585E+02 -0.58936315891E+02  0.87019018574E+02  0.41800000000E+01 0. -1.
        -11    1    4    4    0    0  0.36285747189E+02  0.23763464448E+02  0.11724229223E+02  0.44931227921E+02  0.00000000000E+00 0.  1.
         11    1    4    4    0    0 -0.13499174418E+02 -0.83465557222E+01 -0.57223005984E+02  0.59383205675E+02  0.00000000000E+00 0. -1.
</event>
<event>
 8    1  0.6850220E-009  0.1108765E+03  0.7561462E-02  0.1258955E+00
         -2   -1    0    0    0  501 -0.00000000000E+00  0.00000000000E+00  0.53093000747E+02  0.53093000747E+02  0.00000000000E+00 0. -1.
          2   -1    0    0  501    0  0.00000000000E+00 -0.00000000000E+00 -0.34593981478E+03  0.34593981478E+03  0.00000000000E+00 0.  1.
         25    2    1    2    0    0  0.22872129536E+02 -0.53949135440E+02 -0.24300256441E+03  0.27951859588E+03  0.12508699216E+03 0.  0.
         23    2    1    2    0    0 -0.22872129536E+02  0.53949135440E+02 -0.49844249621E+02  0.11951421965E+03  0.91463413195E+02 0.  0.
          5    1    3    3  502    0  0.39355030141E+02  0.30765377456E+02 -0.69498166573E+02  0.85690106806E+02  0.41800000000E+01 0. -1.
         -5    1    3    3    0  502 -0.16482900606E+02 -0.84714512897E+02 -0.17350439784E+03  0.19382848908E+03  0.41800000000E+01 0. -1.
        -11    1    4    4    0    0 -0.44135081904E+02  0.41498429706E+02  0.35749586193E+01  0.60686122399E+02  0.00000000000E+00 0. -1.
         11    1    4    4    0    0  0.21262952369E+02  0.12450705734E+02 -0.53419208240E+02  0.58828097247E+02  0.00000000000E+00 0.  1.
</event>
<event>
 8    1  0.6850220E-009  0.1393431E+03  0.7561462E-02  0.1214216E+00
         -2   -1    0    0    0  501 -0.00000000000E+00  0.00000000000E+00  0.17886643321E+03  0.17886643321E+03  0.00000000000E+00 0. -1.
          2   -1    0    0  501    0  0.00000000000E+00 -0.00000000000E+00 -0.14443007214E+03  0.14443007214E+03  0.00000000000E+00 0.  1.
         25    2    1    2    0    0  0.12918669543E+02 -0.88621280598E+02 -0.59036676023E+02  0.16478322506E+03  0.12509020244E+03 0.  0.
         23    2    1    2    0    0 -0.12918669543E+02  0.88621280598E+02  0.93473037088E+02  0.15851328029E+03  0.91480205335E+02 0.  0.
          5    1    3    3  502    0  0.66532534192E+02 -0.34337229534E+02 -0.43882846372E+02  0.86883830739E+02  0.41800000000E+01 0.  1.
         -5    1    3    3    0  502 -0.53613864649E+02 -0.54284051063E+02 -0.15153829652E+02  0.77899394321E+02  0.41800000000E+01 0.  1.
        -11    1    4    4    0    0 -0.51598807923E+02  0.40794336015E+02  0.39821939329E+02  0.76892143174E+02  0.00000000000E+00 0.  1.
         11    1    4    4    0    0  0.38680138380E+02  0.47826944583E+02  0.53651097759E+02  0.81621137115E+02  0.00000000000E+00 0. -1.
</event>
<event>
 8    1  0.6850220E-009  0.9992029E+02  0.7561462E-02  0.1280464E+00
         -1   -1    0    0    0  501 -0.00000000000E+00  0.00000000000E+00  0.12105790193E+03  0.12105790193E+03  0.00000000000E+00 0.  1.
          1   -1    0    0  501    0  0.00000000000E+00 -0.00000000000E+00 -0.16327620910E+03  0.16327620910E+03  0.00000000000E+00 0. -1.
         25    2    1    2    0    0 -0.31278727038E+02  0.40412732267E+02 -0.99757974371E+02  0.16796008727E+03  0.12508952702E+03 0.  0.
         23    2    1    2    0    0  0.31278727038E+02 -0.40412732267E+02  0.57539667198E+02  0.11637402377E+03  0.87295775453E+02 0.  0.
          5    1    3    3  502    0 -0.37469354828E+02  0.82807740085E+02 -0.77389454444E+02  0.11944737096E+03  0.41800000000E+01 0.  1.
         -5    1    3    3    0  502  0.61906277892E+01 -0.42395007818E+02 -0.22368519927E+02  0.48512716312E+02  0.41800000000E+01 0.  1.
        -11    1    4    4    0    0 -0.99828401293E+01 -0.39293611301E+01 -0.19153032928E+02  0.21953032736E+02  0.00000000000E+00 0. -1.
         11    1    4    4    0    0  0.41261567168E+02 -0.36483371137E+02  0.76692700126E+02  0.94420991031E+02  0.00000000000E+00 0.  1.
</event>
<event>
 8    1  0.6850220E-009  0.1085427E+03  0.7561462E-02  0.1263293E+00
          1   -1    0    0  501    0  0.00000000000E+00  0.00000000000E+00  0.21547946063E+03  0.21547946063E+03  0.00000000000E+00 0. -1.
         -1   -1    0    0    0  501 -0.00000000000E+00 -0.00000000000E+00 -0.86375320992E+02  0.86375320992E+02  0.00000000000E+00 0.  1.
         25    2    1    2    0    0  0.81525885330E+02 -0.36134217742E+00  0.54052155766E+02  0.15879701983E+03  0.12509299507E+03 0.  0.
         23    2    1    2    0    0 -0.81525885330E+02  0.36134217742E+00  0.75051983866E+02  0.14305776179E+03  0.90477192592E+02 0.  0.
          5    1    3    3  502    0 -0.47802155159E+00  0.42422106662E+02 -0.12898535448E+02  0.44538839847E+02  0.41800000000E+01 0.  1.
         -5    1    3    3    0  502  0.82003906881E+02 -0.42783448839E+02  0.66950691214E+02  0.11425817998E+03  0.41800000000E+01 0.  1.
        -11    1    4    4    0    0 -0.40456863324E+02  0.39087067988E+01  0.90363672296E+02  0.99083949506E+02  0.00000000000E+00 0. -1.
         11    1    4    4    0    0 -0.41069022006E+02 -0.35473646214E+01 -0.15311688430E+02  0.43973812284E+02  0.00000000000E+00 0.  1.
</event>
<event>
 8    1  0.6850220E-009  0.8159764E+02  0.7561462E-02  0.1324578E+00
         -2   -1    0    0    0  501 -0.00000000000E+00  0.00000000000E+00  0.14027590626E+03  0.14027590626E+03  0.00000000000E+00 0.  1.
          2   -1    0    0  501    0  0.00000000000E+00 -0.00000000000E+00 -0.11238464850E+03  0.11238464850E+03  0.00000000000E+00 0. -1.
         25    2    1    2    0    0 -0.25756016260E+02  0.41374605523E+02 -0.25193698165E+02  0.13659172136E+03  0.12508935031E+03 0.  0.
         23    2    1    2    0    0  0.25756016260E+02 -0.41374605523E+02  0.53084955933E+02  0.11606883340E+03  0.90987533127E+02 0.  0.
          5    1    3    3  502    0 -0.65460981591E+02  0.17323872780E+02 -0.49541476067E+02  0.84006469571E+02  0.41800000000E+01 0.  1.
         -5    1    3    3    0  502  0.39704965330E+02  0.24050732743E+02  0.24347777901E+02  0.52585251792E+02  0.41800000000E+01 0.  1.
        -11    1    4    4    0    0  0.16078312886E+02 -0.26557383476E+02  0.78889636921E+02  0.84778426359E+02  0.00000000000E+00 0.  1.
         11    1    4    4    0    0  0.96777033743E+01 -0.14817222046E+02 -0.25804680989E+02  0.31290407040E+02  0.00000000000E+00 0. -1.
</event>
<event>
 8    1  0.6850220E-009  0.1366933E+03  0.7561462E-02  0.1217849E+00
          4   -1    0    0  501    0  0.00000000000E+00  0.00000000000E+00  0.93743143138E+02  0.93743143138E+02  0.00000000000E+00 0. -1.
         -4   -1    0    0    0  501 -0.00000000000E+00 -0.00000000000E+00 -0.30390262066E+03  0.30390262066E+03  0.00000000000E+00 0.  1.
         25    2    1    2    0    0 -0.72834501998E+02  0.70792482079E+02 -0.17356500885E+02  0.16205680483E+03  0.12507885380E+03 0.  0.
         23    2    1    2    0    0  0.72834501998E+02 -0.70792482079E+02 -0.19280297664E+03  0.23558895897E+03  0.89513851372E+02 0.  0.
          5    1    3    3  502    0 -0.19359398317E+02  0.86999490873E+02  0.24020420918E+02  0.92402114351E+02  0.41800000000E+01 0.  1.
         -5    1    3    3    0  502 -0.53475103681E+02 -0.16207008795E+02 -0.41376921803E+02  0.69654690479E+02  0.41800000000E+01 0.  1.
        -11    1    4    4    0    0  0.67345165936E+02 -0.87572332683E+02 -0.18664945971E+03  0.21689238262E+03  0.00000000000E+00 0.  1.
         11    1    4    4    0    0  0.54893360624E+01  0.16779850605E+02 -0.61535169261E+01  0.18696576352E+02  0.00000000000E+00 0. -1.
</event>
<event>
 8    1  0.6850220E-009  0.1068546E+03  0.7561462E-02  0.1266508E+00
          1   -1    0    0  501    0  0.00000000000E+00  0.00000000000E+00  0.42665612408E+03  0.42665612408E+03  0.00000000000E+00 0. -1.
         -1   -1    0    0    0  501 -0.00000000000E+00 -0.00000000000E+00 -0.39900350541E+02  0.39900350541E+02  0.00000000000E+00 0.  1.
         25    2    1    2    0    0 -0.31408936621E+02 -0.12969666997E+02  0.33209046072E+03  0.35649081545E+03  0.12508754470E+03 0.  0.
         23    2    1    2    0    0  0.31408936621E+02  0.12969666997E+02  0.54665312822E+02  0.11006565917E+03  0.89282805408E+02 0.  0.
          5    1    3    3  502    0 -0.16182527175E+02  0.56123656508E+02  0.14076296311E+03  0.15245793908E+03  0.41800000000E+01 0. -1.
         -5    1    3    3    0  502 -0.15226409446E+02 -0.69093323506E+02  0.19132749761E+03  0.20403287637E+03  0.41800000000E+01 0. -1.
        -11    1    4    4    0    0  0.57240499860E+02  0.62279647609E+01  0.10602682947E+02  0.58546385498E+02  0.00000000000E+00 0.  1.
         11    1    4    4    0    0 -0.25831563239E+02  0.67417022364E+01  0.44062629875E+02  0.51519273675E+02  0.00000000000E+00 0. -1.
</event>
<event>
 8    1  0.6850220E-009  0.1281736E+03  0.7561462E-02  0.1230191E+00
          2   -1    0    0  501    0  0.00000000000E+00  0.00000000000E+00  0.18101489921E+03  0.18101489921E+03  0.00000000000E+00 0. -1.
         -2   -1    0    0    0  501 -0.00000000000E+00 -0.00000000000E+00 -0.94139953274E+02  0.94139953274E+02  0.00000000000E+00 0.  1.
         25    2    1    2    0    0 -0.57400180914E+02 -0.34872352570E+02  0.44719730548E+02  0.14884044145E+03  0.12507102369E+03 0.  0.
         23    2    1    2    0    0  0.57400180914E+02  0.34872352570E+02  0.42155215386E+02  0.12631441104E+03  0.98322970401E+02 0.  0.
          5    1    3    3  502    0 -0.57125329428E+02  0.37834009880E+02  0.27885899561E+02  0.74093261233E+02  0.41800000000E+01 0. -1.
         -5    1    3    3    0  502 -0.27485148584E+00 -0.72706362450E+02  0.16833830987E+02  0.74747180213E+02  0.41800000000E+01 0. -1.
        -11    1    4    4    0    0  0.10468139487E+01  0.55018594440E+02  0.36863054061E+02  0.66234630733E+02  0.00000000000E+00 0. -1.
         11    1    4    4    0    0  0.56353366965E+02 -0.20146241870E+02  0.52921613253E+01  0.60079780303E+02  0.00000000000E+00 0.  1.
</event>
<event>
 8    1  0.6850220E-009  0.1260634E+03  0.7561462E-02  0.1233417E+00
          2   -1    0    0  501    0  0.00000000000E+00  0.00000000000E+00  0.84352900772E+03  0.84352900772E+03  0.00000000000E+00 0. -1.
         -2   -1    0    0    0  501 -0.00000000000E+00 -0.00000000000E+00 -0.23099495429E+02  0.23099495429E+02  0.00000000000E+00 0.  1.
         25    2    1    2    0    0  0.67359063614E+02  0.90905377430E+01  0.27638429463E+03  0.31089647145E+03  0.12509379006E+03 0.  0.
         23    2    1    2    0    0 -0.67359063614E+02 -0.90905377430E+01  0.54404521766E+03  0.55573203170E+03  0.90735940357E+02 0.  0.
          5    1    3    3  502    0  0.93129881913E+02 -0.24505174465E+02  0.22059015522E+03  0.24073048719E+03  0.41800000000E+01 0. -1.
         -5    1    3    3    0  502 -0.25770818299E+02  0.33595712209E+02  0.55794139405E+02  0.70165984256E+02  0.41800000000E+01 0. -1.
        -11    1    4    4    0    0 -0.15600679058E+02  0.39330694730E+02  0.18836799055E+03  0.19306160830E+03  0.00000000000E+00 0.  1.
         11    1    4    4    0    0 -0.51758384557E+02 -0.48421232474E+02  0.35567722711E+03  0.36267042340E+03  0.00000000000E+00 0. -1.
</event>
<event>
 8    1  0.6850220E-009  0.1759761E+03  0.7561462E-02  0.1171755E+00
         -1   -1    0    0    0  501 -0.00000000000E+00  0.00000000000E+00  0.82381946033E+02  0.82381946033E+02  0.00000000000E+00 0.  1.
          1   -1    0    0  501    0  0.00000000000E+00 -0.00000000000E+00 -0.54720628653E+03  0.54720628653E+03  0.00000000000E+00 0. -1.
         25    2    1    2    0    0 -0.76163399822E+02 -0.12917045111E+03 -0.90446439116E+02  0.21520735472E+03  0.12509107987E+03 0.  0.
         23    2    1    2    0    0  0.76163399822E+02  0.12917045111E+03 -0.37437790139E+03  0.41438087785E+03  0.95219903224E+02 0.  0.
          5    1    3    3  502    0  0.13137028559E+02 -0.10028858551E+03 -0.43488510483E+02  0.11017760593E+03  0.41800000000E+01 0. -1.
         -5    1    3    3    0  502 -0.89300428380E+02 -0.28881865597E+02 -0.46957928633E+02  0.10502974879E+03  0.41800000000E+01 0. -1.
        -11    1    4    4    0    0  0.68036183240E+02  0.72124531124E+02 -0.13109856562E+03  0.16437063037E+03  0.00000000000E+00 0.  1.
         11    1    4    4    0    0  0.81272165818E+01  0.57045919987E+02 -0.24327933576E+03  0.25001024748E+03  0.00000000000E+00 0. -1.
</event>
<event>
 8    1  0.6850220E-009  0.8992221E+02  0.7561462E-02  0.1303040E+00
          3   -1    0    0  501    0  0.00000000000E+00  0.00000000000E+00  0.10804907090E+03  0.10804907090E+03  0.00000000000E+00 0. -1.
         -3   -1    0    0    0  501 -0.00000000000E+00 -0.00000000000E+00 -0.30318276630E+03  0.30318276630E+03  0.00000000000E+00 0.  1.
         25    2    1    2    0    0 -0.13773194728E+02  0.55219391711E+02  0.47764785152E+02  0.14549178996E+03  0.12508998414E+03 0.  0.
         23    2    1    2    0    0  0.13773194728E+02 -0.55219391711E+02 -0.24289848055E+03  0.26574004723E+03  0.91538072591E+02 0.  0.
          5    1    3    3  502    0  0.31626237594E+01  0.60543559964E+02 -0.28468042288E+02  0.67107575384E+02  0.41800000000E+01 0. -1.
         -5    1    3    3    0  502 -0.16935818488E+02 -0.53241682533E+01  0.76232827440E+02  0.78384214578E+02  0.41800000000E+01 0. -1.
        -11    1    4    4    0    0  0.16138089946E+02  0.19932702267E+02 -0.27536226539E+02  0.37629700222E+02  0.00000000000E+00 0.  1.
         11    1    4    4    0    0 -0.23648952178E+01 -0.75152093979E+02 -0.21536225402E+03  0.22811034701E+03  0.00000000000E+00 0. -1.
</event>
<event>
 7    1  0.6850220E-009  0.3652224E+03  0.7561462E-02  0.1056535E+00
         -1   -1    0    0    0  501 -0.00000000000E+00  0.00000000000E+00  0.99498829281E+02  0.99498829281E+02  0.00000000000E+00 0.  1.
          1   -1    0    0  501    0  0.00000000000E+00 -0.00000000000E+00 -0.15214713672E+04  0.15214713672E+04  0.00000000000E+00 0. -1.
         25    2    1    2    0    0  0.18782703506E+03 -0.22141256030E+03 -0.57830712437E+03  0.65908232501E+03  0.12509142295E+03 0.  0.
          5    1    3    3  502    0  0.68057155825E+01  0.10073433131E+02 -0.32214130149E+01  0.13252989151E+02  0.41800000000E+01 0.  1.
         -5    1    3    3    0  502  0.18102131948E+03 -0.23148599343E+03 -0.57508571135E+03  0.64582933586E+03  0.41800000000E+01 0.  1.
        -11    1    1    2    0    0  0.72696691222E+02 -0.12271930587E+02 -0.34423981226E+03  0.35204610144E+03  0.00000000000E+00 0. -1.
         11    1    1    2    0    0 -0.26052372628E+03  0.23368449089E+03 -0.49942560127E+03  0.60984177001E+03  0.00000000000E+00 0.  1.
</event>
<event>
 8    1  0.6850220E-009  0.1013358E+03  0.7561462E-02  0.1277512E+00
         -1   -1    0    0    0  501 -0.00000000000E+00  0.00000000000E+00  0.24807520091E+03  0.24807520091E+03  0.00000000000E+00 0.  1.
          1   -1    0    0  501    0  0.00000000000E+00 -0.00000000000E+00 -0.56979415932E+02  0.56979415932E+02  0.00000000000E+00 0. -1.
         25    2    1    2    0    0 -0.75393713131E+01 -0.16947603019E+02  0.16597763083E+03  0.20867033190E+03  0.12510263830E+03 0.  0.
         23    2    1    2    0    0  0.75393713131E+01  0.16947603019E+02  0.25118154149E+02  0.96384284945E+02  0.91186322158E+02 0.  0.
          5    1    3    3  502    0 -0.10883206245E+02  0.52664629678E+02  0.94117813845E+02  0.10847876603E+03  0.41800000000E+01 0. -1.
         -5    1    3    3    0  502  0.33438349320E+01 -0.69612232697E+02  0.71859816982E+02  0.10019156586E+03  0.41800000000E+01 0. -1.
        -11    1    4    4    0    0 -0.15109414454E+02 -0.26165136051E+02 -0.14585580582E+02  0.33550676753E+02  0.00000000000E+00 0. -1.
         11    1    4    4    0    0  0.22648785767E+02  0.43112739070E+02  0.39703734730E+02  0.62833608191E+02  0.00000000000E+00 0.  1.
</event>
<event>
 8    1  0.6850220E-009  0.2004289E+03  0.7561462E-02  0.1149378E+00
         -4   -1    0    0    0  501 -0.00000000000E+00  0.00000000000E+00  0.92961570919E+02  0.92961570919E+02  0.00000000000E+00 0.  1.
          4   -1    0    0  501    0  0.00000000000E+00 -0.00000000000E+00 -0.84098783045E+03  0.84098783045E+03  0.00000000000E+00 0. -1.
         25    2    1    2    0    0 -0.48400418166E+02 -0.18045104317E+03 -0.87410788634E+02  0.24123241042E+03  0.12508896996E+03 0.  0.
         23    2    1    2    0    0  0.48400418166E+02  0.18045104317E+03 -0.66061547090E+03  0.69271699096E+03  0.92405896504E+02 0.  0.
          5    1    3    3  502    0 -0.47256493425E+02 -0.45436216097E+02 -0.83300926621E+02  0.10608554416E+03  0.41800000000E+01 0.  1.
         -5    1    3    3    0  502 -0.11439247411E+01 -0.13501482707E+03 -0.41098620131E+01  0.13514686625E+03  0.41800000000E+01 0. -1.
        -11    1    4    4    0    0 -0.13798222367E+02  0.85289983137E+02 -0.38500662718E+03  0.39458189915E+03  0.00000000000E+00 0.  1.
         11    1    4    4    0    0  0.62198640532E+02  0.95161060030E+02 -0.27560884372E+03  0.29813509181E+03  0.00000000000E+00 0. -1.
</event>
<event>
 8    1  0.6850220E-009  0.2275655E+03  0.7561462E-02  0.1128365E+00
          2   -1    0    0  501    0  0.00000000000E+00  0.00000000000E+00  0.17760001290E+04  0.17760001290E+04  0.00000000000E+00 0. -1.
         -2   -1    0    0    0  501 -0.00000000000E+00 -0.00000000000E+00 -0.33389561654E+02  0.33389561654E+02  0.00000000000E+00 0.  1.
         25    2    1    2    0    0  0.82636448110E+01  0.21749890529E+03  0.91362303496E+03  0.94748526979E+03  0.12508886776E+03 0.  0.
         23    2    1    2    0    0 -0.82636448110E+01 -0.21749890529E+03  0.82898753239E+03  0.86190442087E+03  0.91021097682E+02 0.  0.
          5    1    3    3  502    0  0.49492804621E+02  0.15210761847E+03  0.74427007755E+03  0.76127635327E+03  0.41800000000E+01 0.  1.
         -5    1    3    3    0  502 -0.41229159810E+02  0.65391286817E+02  0.16935295741E+03  0.18620891652E+03  0.41800000000E+01 0.  1.
        -11    1    4    4    0    0 -0.65981427076E+01 -0.11430365260E+03  0.59866136553E+03  0.60951151840E+03  0.00000000000E+00 0. -1.
         11    1    4    4    0    0 -0.16655021034E+01 -0.10319525269E+03  0.23032616687E+03  0.25239290247E+03  0.00000000000E+00 0.  1.
</event>
<event>
 8    1  0.6850220E-009  0.1355284E+03  0.7561462E-02  0.1219476E+00
         -2   -1    0    0    0  501 -0.00000000000E+00  0.00000000000E+00  0.31501810989E+02  0.31501810989E+02  0.00000000000E+00 0.  1.
          2   -1    0    0  501    0  0.00000000000E+00 -0.00000000000E+00 -0.77337734240E+03  0.77337734240E+03  0.00000000000E+00 0. -1.
         25    2    1    2    0    0  0.35888757183E+02 -0.87574076815E+02 -0.52255017201E+03  0.54558430585E+03  0.12508529371E+03 0.  0.
         23    2    1    2    0    0 -0.35888757183E+02  0.87574076815E+02 -0.21932535941E+03  0.25929484754E+03  0.10086120593E+03 0.  0.
          5    1    3    3  502    0 -0.31639477147E+02 -0.68154845274E+02 -0.37002502998E+03  0.37760049611E+03  0.41800000000E+01 0.  1.
         -5    1    3    3    0  502  0.67528234330E+02 -0.19419231541E+02 -0.15252514203E+03  0.16798380975E+03  0.41800000000E+01 0.  1.
        -11    1    4    4    0    0 -0.55349540637E+02  0.26606267535E+02 -0.53137262671E+02  0.81209813478E+02  0.00000000000E+00 0.  1.
         11    1    4    4    0    0  0.19460783454E+02  0.60967809279E+02 -0.16618809673E+03  0.17808503406E+03  0.00000000000E+00 0. -1.
</event>
<event>
 8    1  0.6850220E-009  0.9710614E+02  0.7561462E-02  0.1286502E+00
         -2   -1    0    0    0  501 -0.00000000000E+00  0.00000000000E+00  0.35770402075E+02  0.35770402075E+02  0.00000000000E+00 0.  1.
          2   -1    0    0  501    0  0.00000000000E+00 -0.00000000000E+00 -0.40303720801E+03  0.40303720801E+03  0.00000000000E+00 0. -1.
         25    2    1    2    0    0  0.40434079875E+02  0.94851585868E+01 -0.26859847486E+03  0.29919451082E+03  0.12508929434E+03 0.  0.
         23    2    1    2    0    0 -0.40434079875E+02 -0.94851585868E+01 -0.98668331071E+02  0.13961309926E+03  0.89618607894E+02 0.  0.
          5    1    3    3  502    0  0.80998535603E+02 -0.16386812508E+02 -0.18472964210E+03  0.20241492896E+03  0.41800000000E+01 0.  1.
         -5    1    3    3    0  502 -0.40564455727E+02  0.25871971095E+02 -0.83868832758E+02  0.96779581859E+02  0.41800000000E+01 0.  1.
        -11    1    4    4    0    0 -0.78587903044E+01 -0.25636235080E+02  0.71265104544E+01  0.27744626243E+02  0.00000000000E+00 0.  1.
         11    1    4    4    0    0 -0.32575289571E+02  0.16151076493E+02 -0.10579484153E+03  0.11186847302E+03  0.00000000000E+00 0. -1.
</event>
<event>
 8    1  0.6850220E-009  0.1620705E+03  0.7561462E-02  0.1186379E+00
          1   -1    0    0  501    0  0.00000000000E+00  0.00000000000E+00  0.41924072106E+03  0.41924072106E+03  0.00000000000E+00 0. -1.
         -1   -1    0    0    0  501 -0.00000000000E+00 -0.00000000000E+00 -0.10191888195E+03  0.10191888195E+03  0.00000000000E+00 0.  1.
         25    2    1    2    0    0 -0.37411064738E+02  0.14441405464E+03  0.48308648569E+02  0.20057390623E+03  0.12506462086E+03 0.  0.
         23    2    1    2    0    0  0.37411064738E+02 -0.14441405464E+03  0.26901319054E+03  0.32058569677E+03  0.90288899348E+02 0.  0.
          5    1    3    3  502    0 -0.52229887930E+02  0.39705941159E+02 -0.26592460364E+02  0.70916530546E+02  0.41800000000E+01 0. -1.
         -5    1    3    3    0  502  0.14818823191E+02  0.10470811348E+03  0.74901108933E+02  0.12965737569E+03  0.41800000000E+01 0. -1.
        -11    1    4    4    0    0 -0.42201809569E+01 -0.39006025355E+02  0.14231648631E+02  0.41735114281E+02  0.00000000000E+00 0.  1.
         11    1    4    4    0    0  0.41631245695E+02 -0.10540802929E+03  0.25478154191E+03  0.27885058249E+03  0.00000000000E+00 0. -1.
</event>
<event>
 8    1  0.6850220E-009  0.1752882E+03  0.7561462E-02  0.1172443E+00
          1   -1    0    0  501    0  0.00000000000E+00  0.00000000000E+00  0.16503755368E+03  0.16503755368E+03  0.00000000000E+00 0. -1.
         -1   -1    0    0    0  501 -0.00000000000E+00 -0.00000000000E+00 -0.25436198627E+03  0.25436198627E+03  0.00000000000E+00 0.  1.
         25    2    1    2    0    0 -0.15276864845E+03  0.62456477368E+02  0.88781518138E+01  0.20728150638E+03  0.12509088613E+03 0.  0.
         23    2    1    2    0    0  0.15276864845E+03 -0.62456477368E+02 -0.98202584407E+02  0.21211803357E+03  0.90062428717E+02 0.  0.
          5    1    3    3  502    0 -0.12506317613E+03  0.44086802791E+02  0.60439948953E+02  0.14579061710E+03  0.41800000000E+01 0.  1.
         -5    1    3    3    0  502 -0.27705472322E+02  0.18369674577E+02 -0.51561797139E+02  0.61490889283E+02  0.41800000000E+01 0.  1.
        -11    1    4    4    0    0  0.15366709032E+03 -0.35869185150E+02 -0.97533214655E+02  0.18550714555E+03  0.00000000000E+00 0.  1.
         11    1    4    4    0    0 -0.89844186428E+00 -0.26587292219E+02 -0.66936975165E+00  0.26610888019E+02  0.00000000000E+00 0. -1.
</event>
<event>
 8    1  0.6850220E-009  0.1098584E+03  0.7561462E-02  0.1260832E+00
          4   -1    0    0  501    0  0.00000000000E+00  0.00000000000E+00  0.40772056782E+03  0.40772056782E+03  0.00000000000E+00 0. -1.
         -4   -1    0    0    0  501 -0.00000000000E+00 -0.00000000000E+00 -0.36900328910E+02  0.36900328910E+02  0.00000000000E+00 0.  1.
         25    2    1    2    0    0 -0.50401973831E+02 -0.23410286440E+02  0.22850145488E+03  0.26636192299E+03  0.12508940268E+03 0.  0.
         23    2    1    2    0    0  0.50401973831E+02  0.23410286440E+02  0.14231878404E+03  0.17825897374E+03  0.91832591995E+02 0.  0.
          5    1    3    3  502    0  0.37064461844E+02 -0.28700545732E+02  0.10296238927E+03  0.11320875258E+03  0.41800000000E+01 0. -1.
         -5    1    3    3    0  502 -0.87466435675E+02  0.52902592918E+01  0.12553906561E+03  0.15315317041E+03  0.41800000000E+01 0. -1.
        -11    1    4    4    0    0  0.55020615730E+02  0.39795294095E+02  0.14584155950E+03  0.16087477759E+03  0.00000000000E+00 0. -1.
         11    1    4    4    0    0 -0.46186418996E+01 -0.16385007655E+02 -0.35227754640E+01  0.17384196151E+02  0.00000000000E+00 0.  1.
</event>
<event>
 8    1  0.6850220E-009  0.1459384E+03  0.7561462E-02  0.1205555E+00
          2   -1    0    0  501    0  0.00000000000E+00  0.00000000000E+00  0.56302638915E+02  0.56302638915E+02  0.00000000000E+00 0. -1.
         -2   -1    0    0    0  501 -0.00000000000E+00 -0.00000000000E+00 -0.47794003174E+03  0.47794003174E+03  0.00000000000E+00 0.  1.
         25    2    1    2    0    0 -0.11053858351E+02 -0.10899871706E+03 -0.29840063832E+03  0.34160351830E+03  0.12508842738E+03 0.  0.
         23    2    1    2    0    0  0.11053858351E+02  0.10899871706E+03 -0.12323675451E+03  0.19263915236E+03  0.99597375734E+02 0.  0.
          5    1    3    3  502    0  0.12933674219E+02 -0.12555691490E+03 -0.18192365748E+03  0.22146220526E+03  0.41800000000E+01 0. -1.
         -5    1    3    3    0  502 -0.23987532569E+02  0.16558197841E+02 -0.11647698084E+03  0.12014131305E+03  0.41800000000E+01 0. -1.
        -11    1    4    4    0    0 -0.30669287153E+02  0.16866169800E+02 -0.24312755938E+01  0.35085380990E+02  0.00000000000E+00 0. -1.
         11    1    4    4    0    0  0.41723145504E+02  0.92132547258E+02 -0.12080547892E+03  0.15755377137E+03  0.00000000000E+00 0.  1.
</event>
<event>
 8    1  0.6850220E-009  0.9562226E+02  0.7561462E-02  0.1289781E+00
         -1   -1    0    0    0  501 -0.00000000000E+00  0.00000000000E+00  0.74519846874E+02  0.74519846874E+02  0.00000000000E+00 0.  1.
          1   -1    0    0  501    0  0.00000000000E+00 -0.00000000000E+00 -0.20943244164E+03  0.20943244164E+03  0.00000000000E+00 0. -1.
         25    2    1    2    0    0 -0.68351143012E+01  0.38368017738E+02 -0.30063436052E+02  0.13442416345E+03  0.12508885626E+03 0.  0.
         23    2    1    2    0    0  0.68351143012E+01 -0.38368017738E+02 -0.10484915872E+03  0.14952812506E+03  0.99229484172E+02 0.  0.
          5    1    3    3  502    0 -0.46242844391E+02  0.33992126297E+02 -0.61075068332E+02  0.83913656095E+02  0.41800000000E+01 0. -1.
         -5    1    3    3    0  502  0.39407730089E+02  0.43758914408E+01  0.31011632280E+02  0.50510507356E+02  0.41800000000E+01 0. -1.
        -11    1    4    4    0    0  0.34125661761E+02 -0.52869473763E+02 -0.32432149792E+02  0.70792558837E+02  0.00000000000E+00 0.  1.
         11    1    4    4    0    0 -0.27290547460E+02  0.14501456025E+02 -0.72417008924E+02  0.78735566226E+02  0.00000000000E+00 0. -1.
</event>
<event>
 7    1  0.6850220E-009  0.1036284E+03  0.7561462E-02  0.1272846E+00
         -2   -1    0    0    0  501 -0.00000000000E+00  0.00000000000E+00  0.30968490298E+03  0.30968490298E+03  0.00000000000E+00 0.  1.
          2   -1    0    0  501    0  0.00000000000E+00 -0.00000000000E+00 -0.69952278037E+02  0.69952278037E+02  0.00000000000E+00 0. -1.
         23    2    1    2    0    0 -0.65955227616E+02  0.17962698297E+02  0.15761087246E+02  0.11404977157E+03  0.89923233613E+02 0.  0.
          5    1    1    2  502    0  0.16215986847E+02 -0.56231013391E+02  0.17872026908E+03  0.18810447117E+03  0.41800000000E+01 0. -1.
         -5    1    1    2    0  502  0.49739240770E+02  0.38268315094E+02  0.45251268626E+02  0.77482938282E+02  0.41800000000E+01 0. -1.
        -11    1    3    3    0    0 -0.19455126768E+02  0.31707280200E+02  0.44251388744E+02  0.57810370878E+02  0.00000000000E+00 0.  1.
         11    1    3    3    0    0 -0.46500100848E+02 -0.13744581904E+02 -0.28490301497E+02  0.56239400690E+02  0.00000000000E+00 0. -1.
</event>
<event>
 8    1  0.6850220E-009  0.1130606E+03  0.7561462E-02  0.1255005E+00
          1   -1    0    0  501    0  0.00000000000E+00  0.00000000000E+00  0.12574283884E+04  0.12574283884E+04  0.00000000000E+00 0. -1.
         -1   -1    0    0    0  501 -0.00000000000E+00 -0.00000000000E+00 -0.14817971411E+02  0.14817971411E+02  0.00000000000E+00 0.  1.
         25    2    1    2    0    0 -0.55823622716E+02  0.15672357580E+02  0.98300605442E+03  0.99263425399E+03  0.12513975993E+03 0.  0.
         23    2    1    2    0    0  0.55823622716E+02 -0.15672357580E+02  0.25960436261E+03  0.27961210587E+03  0.86177752436E+02 0.  0.
          5    1    3    3  502    0  0.29859305077E+02 -0.27885535307E+02  0.33972267271E+03  0.34219606651E+03  0.41800000000E+01 0. -1.
         -5    1    3    3    0  502 -0.85682927794E+02  0.43557892887E+02  0.64328338171E+03  0.65043818748E+03  0.41800000000E+01 0. -1.
        -11    1    4    4    0    0  0.26780474858E+02 -0.41888180615E+02  0.69073496377E+02  0.85105589773E+02  0.00000000000E+00 0.  1.
         11    1    4    4    0    0  0.29043147859E+02  0.26215823035E+02  0.19053086623E+03  0.19450651609E+03  0.00000000000E+00 0. -1.
</event>
<event>
 8    1  0.6850220E-009  0.1079746E+03  0.7561462E-02  0.1264367E+00
          2   -1    0    0  501    0  0.00000000000E+00  0.00000000000E+00  0.70212260758E+03  0.70212260758E+03  0.00000000000E+00 0.  1.
         -2   -1    0    0    0  501 -0.00000000000E+00 -0.00000000000E+00 -0.26961193717E+02  0.26961193717E+02  0.00000000000E+00 0. -1.
         25    2    1    2    0    0 -0.69117653915E+02  0.40187161564E+02  0.30413541902E+03  0.33843944697E+03  0.12510255045E+03 0.  0.
         23    2    1    2    0    0  0.69117653915E+02 -0.40187161564E+02  0.37102599484E+03  0.39064435432E+03  0.92468722702E+02 0.  0.
          5    1    3    3  502    0 -0.15907775775E+02  0.36729000467E+02  0.12792873003E+02  0.42228033403E+02  0.41800000000E+01 0.  1.
         -5    1    3    3    0  502 -0.53209878141E+02  0.34581610974E+01  0.29134254602E+03  0.29621141357E+03  0.41800000000E+01 0.  1.
        -11    1    4    4    0    0  0.16150316764E+02  0.30129966929E+02  0.10702798189E+03  0.11235495782E+03  0.00000000000E+00 0. -1.
         11    1    4    4    0    0  0.52967337152E+02 -0.70317128493E+02  0.26399801294E+03  0.27828939650E+03  0.00000000000E+00 0.  1.
</event>
<event>
 8    1  0.6850220E-009  0.9810751E+02  0.7561462E-02  0.1284327E+00
         -1   -1    0    0    0  501 -0.00000000000E+00  0.00000000000E+00  0.54651486924E+02  0.54651486924E+02  0.00000000000E+00 0.  1.
          1   -1    0    0  501    0  0.00000000000E+00 -0.00000000000E+00 -0.28160280811E+03  0.28160280811E+03  0.00000000000E+00 0. -1.
         25    2    1    2    0    0 -0.56931680391E+01  0.56520658319E+02 -0.14549827550E+03  0.20011238658E+03  0.12509285395E+03 0.  0.
         23    2    1    2    0    0  0.56931680391E+01 -0.56520658319E+02 -0.81453045687E+02  0.13614190845E+03  0.93129069612E+02 0.  0.
          5    1    3    3  502    0 -0.34117413973E+02  0.85654541820E+02 -0.12183341214E+03  0.15284485985E+03  0.41800000000E+01 0. -1.
         -5    1    3    3    0  502  0.28424245934E+02 -0.29133883501E+02 -0.23664863357E+02  0.47267526722E+02  0.41800000000E+01 0. -1.
        -11    1    4    4    0    0 -0.11067043924E+02 -0.21636468985E+02  0.17461751940E+02  0.29925391094E+02  0.00000000000E+00 0.  1.
         11    1    4    4    0    0  0.16760211963E+02 -0.34884189334E+02 -0.98914797627E+02  0.10621651736E+03  0.00000000000E+00 0. -1.
</event>
<event>
 8    1  0.6850220E-009  0.7873133E+02  0.7561462E-02  0.1332691E+00
          1   -1    0    0  501    0  0.00000000000E+00  0.00000000000E+00  0.99933327980E+03  0.99933327980E+03  0.00000000000E+00 0. -1.
         -1   -1    0    0    0  501 -0.00000000000E+00 -0.00000000000E+00 -0.19754174435E+02  0.19754174435E+02  0.00000000000E+00 0.  1.
         25    2    1    2    0    0 -0.14286211029E+02  0.99962058776E+01  0.84968434742E+03  0.85901965135E+03  0.12508897313E+03 0.  0.
         23    2    1    2    0    0  0.14286211029E+02 -0.99962058776E+01  0.12989475794E+03  0.16006780288E+03  0.91896862956E+02 0.  0.
          5    1    3    3  502    0  0.28211760042E+02  0.10967649276E+02  0.74933592646E+03  0.74995866274E+03  0.41800000000E+01 0. -1.
         -5    1    3    3    0  502 -0.42497971071E+02 -0.97144339871E+00  0.10034842096E+03  0.10906098861E+03  0.41800000000E+01 0. -1.
        -11    1    4    4    0    0 -0.34374093026E+02  0.65462978557E+00  0.89693174145E+02  0.96056609871E+02  0.00000000000E+00 0. -1.
         11    1    4    4    0    0  0.48660304055E+02 -0.10650835663E+02  0.40201583797E+02  0.64011193012E+02  0.00000000000E+00 0.  1.
</event>
<event>
 8    1  0.6850220E-009  0.1080050E+03  0.7561462E-02  0.1264310E+00
         -1   -1    0    0    0  501 -0.00000000000E+00  0.00000000000E+00  0.12953085103E+03  0.12953085103E+03  0.00000000000E+00 0.  1.
          1   -1    0    0  501    0  0.00000000000E+00 -0.00000000000E+00 -0.96424806750E+02  0.96424806750E+02  0.00000000000E+00 0. -1.
         25    2    1    2    0    0  0.43368872569E+01 -0.15936147463E+02  0.41193709266E+02  0.13273283231E+03  0.12509322005E+03 0.  0.
         23    2    1    2    0    0 -0.43368872569E+01  0.15936147463E+02 -0.80876649818E+01  0.93222825478E+02  0.91391003267E+02 0.  0.
          5    1    3    3  502    0 -0.43896976671E+02  0.32475881468E+02  0.32589900396E+02  0.63727556409E+02  0.41800000000E+01 0. -1.
         -5    1    3    3    0  502  0.48233863928E+02 -0.48412028932E+02  0.86038088699E+01  0.69005275898E+02  0.41800000000E+01 0. -1.
        -11    1    4    4    0    0  0.34176712902E+02 -0.20423279084E+02 -0.55268532717E+01  0.40195822425E+02  0.00000000000E+00 0.  1.
         11    1    4    4    0    0 -0.38513600159E+02  0.36359426548E+02 -0.25608117101E+01  0.53027003052E+02  0.00000000000E+00 0. -1.
</event>
<event>
 8    1  0.6850220E-009  0.1059387E+03  0.7561462E-02  0.1268281E+00
         -1   -1    0    0    0  501 -0.00000000000E+00  0.00000000000E+00  0.83989310625E+02  0.83989310625E+02  0.00000000000E+00 0.  1.
          1   -1    0    0  501    0  0.00000000000E+00 -0.00000000000E+00 -0.22188334438E+03  0.22188334438E+03  0.00000000000E+00 0. -1.
         25    2    1    2    0    0 -0.14549154506E+02  0.52719513213E+02 -0.14372217161E+03  0.19822793181E+03  0.12508886987E+03 0.  0.
         23    2    1    2    0    0  0.14549154506E+02 -0.52719513213E+02  0.58281378613E+01  0.10764472319E+03  0.92533206309E+02 0.  0.
          5    1    3    3  502    0 -0.56191731662E+02  0.61984659139E+02 -0.56498063411E+02  0.10104015165E+03  0.41800000000E+01 0.  1.
         -5    1    3    3    0  502  0.41642577156E+02 -0.92651459252E+01 -0.87224108203E+02  0.97187780163E+02  0.41800000000E+01 0.  1.
        -11    1    4    4    0    0 -0.26173051023E+02 -0.18468023723E+02  0.34601072995E+02  0.47152208352E+02  0.00000000000E+00 0.  1.
         11    1    4    4    0    0  0.40722205529E+02 -0.34251489490E+02 -0.28772935134E+02  0.60492514840E+02  0.00000000000E+00 0. -1.
</event>
<event>
 8    1  0.6850220E-009  0.8836804E+02  0.7561462E-02  0.1306853E+00
         -2   -1    0    0    0  501 -0.00000000000E+00  0.00000000000E+00  0.47427340485E+02  0.47427340485E+02  0.00000000000E+00 0.  1.
          2   -1    0    0  501    0  0.00000000000E+00 -0.00000000000E+00 -0.32393032295E+03  0.32393032295E+03  0.00000000000E+00 0. -1.
         25    2    1    2    0    0 -0.34458668132E+01 -0.21653080324E+02 -0.11157474742E+03  0.16904773503E+03  0.12508989796E+03 0.  0.
         23    2    1    2    0    0  0.34458668132E+01  0.21653080324E+02 -0.16492823505E+03  0.20230992841E+03  0.11509671816E+03 0.  0.
          5    1    3    3  502    0 -0.27929197712E+02 -0.18324246438E+01  0.19375607457E+02  0.34297003211E+02  0.41800000000E+01 0.  1.
         -5    1    3    3    0  502  0.24483330899E+02 -0.19820655680E+02 -0.13095035487E+03  0.13475073182E+03  0.41800000000E+01 0.  1.
        -11    1    4    4    0    0 -0.53416053837E+02  0.26430522449E+02 -0.74844198946E+02  0.95673932919E+02  0.00000000000E+00 0.  1.
         11    1    4    4    0    0  0.56861920650E+02 -0.47774421250E+01 -0.90084036105E+02  0.10663599549E+03  0.00000000000E+00 0. -1.
</event>
<event>
 8    1  0.6850220E-009  0.1107544E+03  0.7561462E-02  0.1259179E+00
         -1   -1    0    0    0  501 -0.00000000000E+00  0.00000000000E+00  0.74675901896E+02  0.74675901896E+02  0.00000000000E+00 0.  1.
          1   -1    0    0  501    0  0.00000000000E+00 -0.00000000000E+00 -0.24155270018E+03  0.24155270018E+03  0.00000000000E+00 0. -1.
         25    2    1    2    0    0  0.72502628305E+02  0.26803110979E+02 -0.11859691372E+03  0.18891143972E+03  0.12508903327E+03 0.  0.
         23    2    1    2    0    0 -0.72502628305E+02 -0.26803110979E+02 -0.48279884571E+02  0.12731716236E+03  0.88902613614E+02 0.  0.
          5    1    3    3  502    0  0.81593693055E+02  0.64809440787E+02 -0.10315836102E+03  0.14668644863E+03  0.41800000000E+01 0. -1.
         -5    1    3    3    0  502 -0.90910647505E+01 -0.38006329807E+02 -0.15438552695E+02  0.42224991096E+02  0.41800000000E+01 0. -1.
        -11    1    4    4    0    0 -0.14478232516E+02 -0.97110931355E+01 -0.62745307163E+02  0.65122178385E+02  0.00000000000E+00 0. -1.
         11    1    4    4    0    0 -0.58024395789E+02 -0.17092017844E+02  0.14465422592E+02  0.62194983973E+02  0.00000000000E+00 0.  1.
</event>
<event>
 8    1  0.6850220E-009  0.1617285E+03  0.7561462E-02  0.1186759E+00
          2   -1    0    0  501    0  0.00000000000E+00  0.00000000000E+00  0.30531865080E+03  0.30531865080E+03  0.00000000000E+00 0. -1.
         -2   -1    0    0    0  501 -0.00000000000E+00 -0.00000000000E+00 -0.11447622068E+03  0.11447622068E+03  0.00000000000E+00 0.  1.
         25    2    1    2    0    0 -0.12745233151E+03  0.25438544984E+02  0.18880116379E+03  0.26112146492E+03  0.12508926259E+03 0.  0.
         23    2    1    2    0    0  0.12745233151E+03 -0.25438544984E+02  0.20412663344E+01  0.15867340657E+03  0.91004762549E+02 0.  0.
          5    1    3    3  502    0 -0.24463420439E+02 -0.36878590352E+02  0.10045287883E+02  0.45572684523E+02  0.41800000000E+01 0. -1.
         -5    1    3    3    0  502 -0.10298891107E+03  0.62317135336E+02  0.17875587590E+03  0.21554878039E+03  0.41800000000E+01 0. -1.
        -11    1    4    4    0    0 -0.14397577896E+02  0.25365161605E+00  0.18281731518E+01  0.14515398909E+02  0.00000000000E+00 0.  1.
         11    1    4    4    0    0  0.14184990940E+03 -0.25692196600E+02  0.21309318260E+00  0.14415800766E+03  0.00000000000E+00 0. -1.
</event>
<event>
 8    1  0.6850220E-009  0.9882190E+02  0.7561462E-02  0.1282793E+00
         -1   -1    0    0    0  501 -0.00000000000E+00  0.00000000000E+00  0.94190418428E+02  0.94190418428E+02  0.00000000000E+00 0. -1.
          1   -1    0    0  501    0  0.00000000000E+00 -0.00000000000E+00 -0.15624861776E+03  0.15624861776E+03  0.00000000000E+00 0.  1.
         25    2    1    2    0    0 -0.17964862345E+02  0.24431041906E+02 -0.45205013371E+02  0.13641059567E+03  0.12507895622E+03 0.  0.
         23    2    1    2    0    0  0.17964862345E+02 -0.24431041906E+02 -0.16853185961E+02  0.11402844052E+03  0.10862248056E+03 0.  0.
          5    1    3    3  502    0  0.26328897392E+02  0.30863212690E+02 -0.72956384104E+02  0.83581428062E+02  0.41800000000E+01 0.  1.
         -5    1    3    3    0  502 -0.44293759737E+02 -0.64321707843E+01  0.27751370732E+02  0.52829167608E+02  0.41800000000E+01 0.  1.
        -11    1    4    4    0    0  0.13259893548E+02 -0.67395111655E+02 -0.34368169641E+01  0.68773087489E+02  0.00000000000E+00 0.  1.
         11    1    4    4    0    0  0.47049687969E+01  0.42964069749E+02 -0.13416368997E+02  0.45255353030E+02  0.00000000000E+00 0. -1.
</event>
<event>
 8    1  0.6850220E-009  0.1353983E+03  0.7561462E-02  0.1219658E+00
         -1   -1    0    0    0  501 -0.00000000000E+00  0.00000000000E+00  0.63375042293E+02  0.63375042293E+02  0.00000000000E+00 0.  1.
          1   -1    0    0  501    0  0.00000000000E+00 -0.00000000000E+00 -0.33005572897E+03  0.33005572897E+03  0.00000000000E+00 0. -1.
         25    2    1    2    0    0 -0.40429322853E+02  0.71015116454E+02 -0.13568690577E+03  0.20183754661E+03  0.12509908837E+03 0.  0.
         23    2    1    2    0    0  0.40429322853E+02 -0.71015116454E+02 -0.13099378090E+03  0.19159322465E+03  0.11345006032E+03 0.  0.
          5    1    3    3  502    0 -0.76496876166E+02  0.27745742755E+02 -0.11653220223E+03  0.14219291424E+03  0.41800000000E+01 0. -1.
         -5    1    3    3    0  502  0.36067553313E+02  0.43269373699E+02 -0.19154703547E+02  0.59644632368E+02  0.41800000000E+01 0. -1.
        -11    1    4    4    0    0 -0.20097624384E+02  0.16788220616E+02 -0.52356703239E+01  0.26705263546E+02  0.00000000000E+00 0.  1.
         11    1    4    4    0    0  0.60526947237E+02 -0.87803337070E+02 -0.12575811057E+03  0.16488796111E+03  0.00000000000E+00 0. -1.
</event>
<event>
 8    1  0.6850220E-009  0.9912745E+02  0.7561462E-02  0.1282142E+00
         -1   -1    0    0    0  501 -0.00000000000E+00  0.00000000000E+00  0.28945935531E+02  0.28945935531E+02  0.00000000000E+00 0.  1.
          1   -1    0    0  501    0  0.00000000000E+00 -0.00000000000E+00 -0.80403038272E+03  0.80403038272E+03  0.00000000000E+00 0. -1.
         25    2    1    2    0    0  0.69285270221E+02 -0.35442338979E+02 -0.21808489600E+03  0.26318359615E+03  0.12509186768E+03 0.  0.
         23    2    1    2    0    0 -0.69285270221E+02  0.35442338979E+02 -0.55699955119E+03  0.56979272210E+03  0.91425587591E+02 0.  0.
          5    1    3    3  502    0  0.28252345566E+02 -0.14448788441E+02 -0.21437859065E+03  0.21675473477E+03  0.41800000000E+01 0. -1.
         -5    1    3    3    0  502  0.41032924655E+02 -0.20993550538E+02 -0.37063053497E+01  0.46428861383E+02  0.41800000000E+01 0. -1.
        -11    1    4    4    0    0 -0.91908356851E+02  0.26629860782E+02 -0.43484774647E+03  0.44525145498E+03  0.00000000000E+00 0.  1.
         11    1    4    4    0    0  0.22623086631E+02  0.88124781970E+01 -0.12215180471E+03  0.12454126712E+03  0.00000000000E+00 0. -1.
</event>
<event>
 7    1  0.6850220E-009  0.1146426E+03  0.7561462E-02  0.1252206E+00
          1   -1    0    0  501    0  0.00000000000E+00  0.00000000000E+00  0.34767577578E+02  0.34767577578E+02  0.00000000000E+00 0. -1.
         -1   -1    0    0    0  501 -0.00000000000E+00 -0.00000000000E+00 -0.51723390564E+03  0.51723390564E+03  0.00000000000E+00 0.  1.
         25    2    1    2    0    0  0.14546398238E+02  0.39668287260E+02 -0.22888030026E+03  0.26423154227E+03  0.12508775065E+03 0.  0.
          5    1    3    3  502    0 -0.33801293846E+02  0.45972532814E+01 -0.18944496953E+03  0.19253709015E+03  0.41800000000E+01 0. -1.
         -5    1    3    3    0  502  0.48347692083E+02  0.35071033979E+02 -0.39435330737E+02  0.71694452117E+02  0.41800000000E+01 0. -1.
        -11    1    1    2    0    0 -0.47859396991E+02 -0.73406246471E+02 -0.14743036591E+03  0.17150717680E+03  0.00000000000E+00 0.  1.
         11    1    1    2    0    0  0.33312998754E+02  0.33737959211E+02 -0.10615566189E+03  0.11626276415E+03  0.00000000000E+00 0. -1.
</event>
<event>
 8    1  0.6850220E-009  0.1300311E+03  0.7561462E-02  0.1227410E+00
          2   -1    0    0  501    0  0.00000000000E+00  0.00000000000E+00  0.81982221751E+03  0.81982221751E+03  0.00000000000E+00 0. -1.
         -2   -1    0    0    0  501 -0.00000000000E+00 -0.00000000000E+00 -0.26340480393E+02  0.26340480393E+02  0.00000000000E+00 0.  1.
         25    2    1    2    0    0 -0.13261330341E+02 -0.77648321790E+02  0.25905050286E+03  0.29826084218E+03  0.12508893711E+03 0.  0.
         23    2    1    2    0    0  0.13261330341E+02  0.77648321790E+02  0.53443123426E+03  0.54790185572E+03  0.91512701816E+02 0.  0.
          5    1    3    3  502    0  0.26803999334E+02 -0.96921003840E+02  0.15235198353E+03  0.18259445405E+03  0.41800000000E+01 0.  1.
         -5    1    3    3    0  502 -0.40065329675E+02  0.19272682050E+02  0.10669851933E+03  0.11566638813E+03  0.41800000000E+01 0.  1.
        -11    1    4    4    0    0 -0.35605558865E+02  0.34249312334E+02  0.14922403517E+03  0.15718964307E+03  0.00000000000E+00 0.  1.
         11    1    4    4    0    0  0.48866889206E+02  0.43399009456E+02  0.38520719909E+03  0.39071221265E+03  0.00000000000E+00 0. -1.
</event>
<event>
 8    1  0.6850220E-009  0.1052356E+03  0.7561462E-02  0.1269656E+00
         -4   -1    0    0    0  501 -0.00000000000E+00  0.00000000000E+00  0.27438565153E+03  0.27438565153E+03  0.00000000000E+00 0.  1.
          4   -1    0    0  501    0  0.00000000000E+00 -0.00000000000E+00 -0.43218049553E+02  0.43218049553E+02  0.00000000000E+00 0. -1.
         25    2    1    2    0    0  0.12194476334E+02  0.12817000856E+01  0.11890242788E+03  0.17301907594E+03  0.12508982883E+03 0.  0.
         23    2    1    2    0    0 -0.12194476334E+02 -0.12817000856E+01  0.11226517410E+03  0.14458462514E+03  0.90282315565E+02 0.  0.
          5    1    3    3  502    0 -0.45447421682E+02  0.35477725043E+02  0.64343479575E+02  0.86496779568E+02  0.41800000000E+01 0. -1.
         -5    1    3    3    0  502  0.57641898016E+02 -0.34196024957E+02  0.54558948302E+02  0.86522296373E+02  0.41800000000E+01 0. -1.
        -11    1    4    4    0    0 -0.18890927680E+02  0.39711439206E+02  0.82485635104E+02  0.93475908934E+02  0.00000000000E+00 0.  1.
         11    1    4    4    0    0  0.66964513463E+01 -0.40993139292E+02  0.29779538993E+02  0.51108716207E+02  0.00000000000E+00 0. -1.
</event>
<event>
 8    1  0.6850220E-009  0.9069833E+02  0.7561462E-02  0.1301169E+00
          3   -1    0    0  501    0  0.00000000000E+00  0.00000000000E+00  0.30986802135E+02  0.30986802135E+02  0.00000000000E+00 0. -1.
         -3   -1    0    0    0  501 -0.00000000000E+00 -0.00000000000E+00 -0.57723001665E+03  0.57723001665E+03  0.00000000000E+00 0.  1.
         25    2    1    2    0    0 -0.95234886717E+01  0.22152659569E+02 -0.47096811156E+03  0.48789389825E+03  0.12509219271E+03 0.  0.
         23    2    1    2    0    0  0.95234886717E+01 -0.22152659569E+02 -0.75275102952E+02  0.12032292054E+03  0.90718393503E+02 0.  0.
          5    1    3    3  502    0 -0.20148650936E+02  0.66703304731E+02 -0.37540628730E+03  0.38184113442E+03  0.41800000000E+01 0. -1.
         -5    1    3    3    0  502  0.10625162265E+02 -0.44550645162E+02 -0.95561824263E+02  0.10605276382E+03  0.41800000000E+01 0. -1.
        -11    1    4    4    0    0 -0.25445094592E+02 -0.27055505646E+01  0.89241304784E+01  0.27100054381E+02  0.00000000000E+00 0. -1.
         11    1    4    4    0    0  0.34968583264E+02 -0.19447109005E+02 -0.84199233431E+02  0.93222866157E+02  0.00000000000E+00 0.  1.
</event>
<event>
 8    1  0.6850220E-009  0.1499703E+03  0.7561462E-02  0.1200510E+00
          1   -1    0    0  501    0  0.00000000000E+00  0.00000000000E+00  0.43031902964E+03  0.43031902964E+03  0.00000000000E+00 0. -1.
         -1   -1    0    0    0  501 -0.00000000000E+00 -0.00000000000E+00 -0.62011748861E+02  0.62011748861E+02  0.00000000000E+00 0.  1.
         25    2    1    2    0    0 -0.10220367797E+03  0.10821133313E+02  0.10001753817E+03  0.19030009297E+03  0.12509168128E+03 0.  0.
         23    2    1    2    0    0  0.10220367797E+03 -0.10821133313E+02  0.26828974262E+03  0.30203068554E+03  0.93168987843E+02 0.  0.
          5    1    3    3  502    0 -0.10427496364E+03 -0.39310652500E+02  0.67163464556E+02  0.13018063916E+03  0.41800000000E+01 0. -1.
         -5    1    3    3    0  502  0.20712856637E+01  0.50131785812E+02  0.32854073610E+02  0.60119453805E+02  0.41800000000E+01 0. -1.
        -11    1    4    4    0    0  0.27555589354E+02 -0.47491094248E+02  0.92705059432E+02  0.10774480304E+03  0.00000000000E+00 0. -1.
         11    1    4    4    0    0  0.74648088619E+02  0.36669960936E+02  0.17558468318E+03  0.19428588250E+03  0.00000000000E+00 0.  1.
</event>
<event>
 8    1  0.6850220E-009  0.1288240E+03  0.7561462E-02  0.1229211E+00
          3   -1    0    0  501    0  0.00000000000E+00  0.00000000000E+00  0.47478677035E+02  0.47478677035E+02  0.00000000000E+00 0. -1.
         -3   -1    0    0    0  501 -0.00000000000E+00 -0.00000000000E+00 -0.48409476424E+03  0.48409476424E+03  0.00000000000E+00 0.  1.
         25    2    1    2    0    0 -0.72073011807E+02 -0.16558879068E+02 -0.36889172337E+03  0.39648181611E+03  0.12509201185E+03 0.  0.
         23    2    1    2    0    0  0.72073011807E+02  0.16558879068E+02 -0.67724363827E+02  0.13509162516E+03  0.90523158502E+02 0.  0.
          5    1    3    3  502    0  0.31894307171E+02  0.10575545596E+02 -0.54022040229E+02  0.63756899431E+02  0.41800000000E+01 0.  1.
         -5    1    3    3    0  502 -0.10396731898E+03 -0.27134424664E+02 -0.31486968314E+03  0.33272491668E+03  0.41800000000E+01 0.  1.
        -11    1    4    4    0    0  0.80888168609E+02  0.40703721831E+02 -0.46702815587E+02  0.10188641605E+03  0.00000000000E+00 0. -1.
         11    1    4    4    0    0 -0.88151568024E+01 -0.24144842763E+02 -0.21021548240E+02  0.33205209108E+02  0.00000000000E+00 0.  1.
</event>
<event>
 8    1  0.6850220E-009  0.1223479E+03  0.7561462E-02  0.1239273E+00
          2   -1    0    0  501    0  0.00000000000E+00  0.00000000000E+00  0.55865732029E+03  0.55865732029E+03  0.00000000000E+00 0. -1.
         -2   -1    0    0    0  501 -0.00000000000E+00 -0.00000000000E+00 -0.32048560320E+02  0.32048560320E+02  0.00000000000E+00 0.  1.
         25    2    1    2    0    0  0.10264932419E+02  0.63525267416E+02  0.19479385592E+03  0.24027776981E+03  0.12509169407E+03 0.  0.
         23    2    1    2    0    0 -0.10264932419E+02 -0.63525267416E+02  0.33181490405E+03  0.35042811080E+03  0.92508928476E+02 0.  0.
          5    1    3    3  502    0 -0.48531646146E+02  0.86294118319E+00  0.10591378956E+03  0.11658159616E+03  0.41800000000E+01 0. -1.
         -5    1    3    3    0  502  0.58796578565E+02  0.62662326233E+02  0.88880066359E+02  0.12369617365E+03  0.41800000000E+01 0. -1.
        -11    1    4    4    0    0 -0.49803511222E+02 -0.30253823331E+02  0.13703861941E+03  0.14891362183E+03  0.00000000000E+00 0.  1.
         11    1    4    4    0    0  0.39538578803E+02 -0.33271444085E+02  0.19477628465E+03  0.20151448897E+03  0.00000000000E+00 0. -1.
</event>
<event>
 8    1  0.6850220E-009  0.1120956E+03  0.7561462E-02  0.1256738E+00
         -1   -1    0    0    0  501 -0.00000000000E+00  0.00000000000E+00  0.20473369675E+03  0.20473369675E+03  0.00000000000E+00 0.  1.
          1   -1    0    0  501    0  0.00000000000E+00 -0.00000000000E+00 -0.62573283333E+02  0.62573283333E+02  0.00000000000E+00 0. -1.
         25    2    1    2    0    0 -0.27570057517E+02  0.14271693374E+01  0.94427345078E+02  0.15914114409E+03  0.12508890982E+03 0.  0.
         23    2    1    2    0    0  0.27570057517E+02 -0.14271693374E+01  0.47733068340E+02  0.10816583600E+03  0.93055130863E+02 0.  0.
          5    1    3    3  502    0 -0.69171452412E+01  0.62548785189E+02  0.52743282654E+02  0.82216322540E+02  0.41800000000E+01 0.  1.
         -5    1    3    3    0  502 -0.20652912276E+02 -0.61121615851E+02  0.41684062424E+02  0.76924821546E+02  0.41800000000E+01 0.  1.
        -11    1    4    4    0    0  0.62242615157E+01  0.44969987498E+02  0.16519629265E+02  0.48310861698E+02  0.00000000000E+00 0.  1.
         11    1    4    4    0    0  0.21345796002E+02 -0.46397156836E+02  0.31213439075E+02  0.59854974298E+02  0.00000000000E+00 0. -1.
</event>
<event>
 8    1  0.6850220E-009  0.1035704E+03  0.7561462E-02  0.1272962E+00
          1   -1    0    0  501    0  0.00000000000E+00  0.00000000000E+00  0.12823891563E+03  0.12823891563E+03  0.00000000000E+00 0. -1.
         -1   -1    0    0    0  501 -0.00000000000E+00 -0.00000000000E+00 -0.13886797052E+03  0.13886797052E+03  0.00000000000E+00 0.  1.
         25    2    1    2    0    0  0.15416610395E+02 -0.71854747119E+02 -0.35031862399E+02  0.14924826120E+03  0.12508811105E+03 0.  0.
         23    2    1    2    0    0 -0.15416610395E+02  0.71854747119E+02  0.24402807509E+02  0.11785862496E+03  0.88850334285E+02 0.  0.
          5    1    3    3  502    0 -0.31459710944E+02 -0.71109755051E+02 -0.57785478756E+02  0.96968781735E+02  0.41800000000E+01 0.  1.
         -5    1    3    3    0  502  0.46876321339E+02 -0.74499206740E+00  0.22753616356E+02  0.52279479461E+02  0.41800000000E+01 0.  1.
        -11    1    4    4    0    0 -0.23364057636E+02  0.23282242084E+02  0.51889266386E+02  0.61485266136E+02  0.00000000000E+00 0. -1.
         11    1    4    4    0    0  0.79474472410E+01  0.48572505034E+02 -0.27486458878E+02  0.56373358820E+02  0.00000000000E+00 0.  1.
</event>
<event>
 8    1  0.6850220E-009  0.9312164E+02  0.7561462E-02  0.1295464E+00
         -1   -1    0    0    0  501 -0.00000000000E+00  0.00000000000E+00  0.23603505642E+02  0.23603505642E+02  0.00000000000E+00 0. -1.
          1   -1    0    0  501    0  0.00000000000E+00 -0.00000000000E+00 -0.53253672234E+03  0.53253672234E+03  0.00000000000E+00 0.  1.
         25    2    1    2    0    0 -0.11569515581E+02  0.18625111289E+02 -0.34036346469E+03  0.36328401221E+03  0.12508891626E+03 0.  0.
         23    2    1    2    0    0  0.11569515581E+02 -0.18625111289E+02 -0.16856975201E+03  0.19285621578E+03  0.91087925703E+02 0.  0.
          5    1    3    3  502    0 -0.12262467576E+02 -0.46043253439E+02 -0.66861310002E+02  0.82208615567E+02  0.41800000000E+01 0. -1.
         -5    1    3    3    0  502  0.69295199496E+00  0.64668364728E+02 -0.27350215468E+03  0.28107539664E+03  0.41800000000E+01 0. -1.
        -11    1    4    4    0    0 -0.24363329415E+02 -0.27350371095E+02 -0.14369805173E+03  0.14829276682E+03  0.00000000000E+00 0.  1.
         11    1    4    4    0    0  0.35932844996E+02  0.87252598062E+01 -0.24871700280E+02  0.44563448957E+02  0.00000000000E+00 0. -1.
</event>
<event>
 8    1  0.6850220E-009  0.1018256E+03  0.7561462E-02  0.1276503E+00
          2   -1    0    0  501    0  0.00000000000E+00  0.00000000000E+00  0.24310376183E+02  0.24310376183E+02  0.00000000000E+00 0. -1.
         -2   -1    0    0    0  501 -0.00000000000E+00 -0.00000000000E+00 -0.11186836459E+04  0.11186836459E+04  0.00000000000E+00 0.  1.
         25    2    1    2    0    0  0.59613179944E+02  0.52819861189E+02 -0.92446063404E+03  0.93628012924E+03  0.12509735238E+03 0.  0.
         23    2    1    2    0    0 -0.59613179944E+02 -0.52819861189E+02 -0.16991263572E+03  0.20671389288E+03  0.86698678036E+02 0.  0.
          5    1    3    3  502    0 -0.72470699119E+01  0.12919996057E+01 -0.51911991388E+00  0.84812246034E+01  0.41800000000E+01 0. -1.
         -5    1    3    3    0  502  0.66860249856E+02  0.51527861583E+02 -0.92394151412E+03  0.92779890464E+03  0.41800000000E+01 0. -1.
        -11    1    4    4    0    0  0.15311265872E+02 -0.27694497781E+02 -0.20544395402E+02  0.37729196286E+02  0.00000000000E+00 0. -1.
         11    1    4    4    0    0 -0.74924445817E+02 -0.25125363408E+02 -0.14936824032E+03  0.16898469659E+03  0.00000000000E+00 0.  1.
</event>
<event>
 8    1  0.6850220E-009  0.1130084E+03  0.7561462E-02  0.1255098E+00
         -1   -1    0    0    0  501 -0.00000000000E+00  0.00000000000E+00  0.47510730568E+02  0.47510730568E+02  0.00000000000E+00 0.  1.
          1   -1    0    0  501    0  0.00000000000E+00 -0.00000000000E+00 -0.34536882990E+03  0.34536882990E+03  0.00000000000E+00 0. -1.
         25    2    1    2    0    0 -0.51767308527E+02 -0.11298802587E+02 -0.22273076604E+03  0.26088911279E+03  0.12508644155E+03 0.  0.
         23    2    1    2    0    0  0.51767308527E+02  0.11298802587E+02 -0.75127333289E+02  0.13199044768E+03  0.94709265115E+02 0.  0.
          5    1    3    3  502    0 -0.75967694157E+02  0.23171506098E+02 -0.19417706935E+03  0.20983378163E+03  0.41800000000E+01 0. -1.
         -5    1    3    3    0  502  0.24200385630E+02 -0.34470308685E+02 -0.28553696688E+02  0.51055331161E+02  0.41800000000E+01 0. -1.
        -11    1    4    4    0    0 -0.24159603922E+02 -0.86407647889E+01 -0.38268087779E+01  0.25942122952E+02  0.00000000000E+00 0.  1.
         11    1    4    4    0    0  0.75926912449E+02  0.19939567376E+02 -0.71300524511E+02  0.10604832472E+03  0.00000000000E+00 0. -1.
</event>
<event>
 8    1  0.6850220E-009  0.1196134E+03  0.7561462E-02  0.1243736E+00
          2   -1    0    0  501    0  0.00000000000E+00  0.00000000000E+00  0.96773937381E+02  0.96773937381E+02  0.00000000000E+00 0. -1.
         -2   -1    0    0    0  501 -0.00000000000E+00 -0.00000000000E+00 -0.35855372870E+03  0.35855372870E+03  0.00000000000E+00 0.  1.
         25    2    1    2    0    0 -0.85002544937E+01 -0.89749665995E+02 -0.28653182134E+03  0.32538630657E+03  0.12509399262E+03 0.  0.
         23    2    1    2    0    0  0.85002544937E+01  0.89749665995E+02  0.24752030019E+02  0.12994135951E+03  0.90248750957E+02 0.  0.
          5    1    3    3  502    0 -0.34943502032E+02 -0.10436883101E+03 -0.15365631669E+03  0.18905458810E+03  0.41800000000E+01 0.  1.
         -5    1    3    3    0  502  0.26443247539E+02  0.14619165017E+02 -0.13287550465E+03  0.13633171847E+03  0.41800000000E+01 0.  1.
        -11    1    4    4    0    0  0.23384555973E+02  0.36987743704E+02  0.52624290824E+02  0.68441556288E+02  0.00000000000E+00 0. -1.
         11    1    4    4    0    0 -0.14884301480E+02  0.52761922291E+02 -0.27872260805E+02  0.61499803225E+02  0.00000000000E+00 0.  1.
</event>
<event>
 8    1  0.6850220E-009  0.3512798E+03  0.7561462E-02  0.1062091E+00
         -1   -1    0    0    0  501 -0.00000000000E+00  0.00000000000E+00  0.20184213017E+03  0.20184213017E+03  0.00000000000E+00 0.  1.
          1   -1    0    0  501    0  0.00000000000E+00 -0.00000000000E+00 -0.72474662392E+03  0.72474662392E+03  0.00000000000E+00 0. -1.
         25    2    1    2    0    0 -0.21014444363E+03  0.26726356059E+03 -0.98986817319E+02  0.37554981898E+03  0.12509507795E+03 0.  0.
         23    2    1    2    0    0  0.21014444363E+03 -0.26726356059E+03 -0.42391767644E+03  0.55103893511E+03  0.91363086653E+02 0.  0.
          5    1    3    3  502    0 -0.19432949201E+03  0.27555629283E+03 -0.75169780293E+02  0.34548978313E+03  0.41800000000E+01 0. -1.
         -5    1    3    3    0  502 -0.15814951625E+02 -0.82927322343E+01 -0.23817037026E+02  0.30060035853E+02  0.41800000000E+01 0. -1.
        -11    1    4    4    0    0  0.13056610721E+03 -0.10988416213E+03 -0.25502841916E+03  0.30685751094E+03  0.00000000000E+00 0. -1.
         11    1    4    4    0    0  0.79578336416E+02 -0.15737939846E+03 -0.16888925727E+03  0.24418142417E+03  0.00000000000E+00 0.  1.
</event>
<event>
 8    1  0.6850220E-009  0.4089386E+03  0.7561462E-02  0.1040728E+00
          1   -1    0    0  501    0  0.00000000000E+00  0.00000000000E+00  0.10381104512E+04  0.10381104512E+04  0.00000000000E+00 0. -1.
         -1   -1    0    0    0  501 -0.00000000000E+00 -0.00000000000E+00 -0.18020243564E+03  0.18020243564E+03  0.00000000000E+00 0.  1.
         25    2    1    2    0    0  0.32432954144E+03 -0.24343603450E+03  0.57783304377E+03  0.71693029655E+03  0.12508904547E+03 0.  0.
         23    2    1    2    0    0 -0.32432954144E+03  0.24343603450E+03  0.28007497182E+03  0.50138259032E+03  0.92150733558E+02 0.  0.
          5    1    3    3  502    0  0.18091899815E+02 -0.36910104537E+02  0.15514107086E+02  0.44134256248E+02  0.41800000000E+01 0.  1.
         -5    1    3    3    0  502  0.30623764162E+03 -0.20652592997E+03  0.56231893669E+03  0.67279604030E+03  0.41800000000E+01 0.  1.
        -11    1    4    4    0    0 -0.19487084665E+03  0.12364659299E+03  0.20854183474E+03  0.31105115924E+03  0.00000000000E+00 0.  1.
         11    1    4    4    0    0 -0.12945869479E+03  0.11978944152E+03  0.71533137077E+02  0.19033143108E+03  0.00000000000E+00 0. -1.
</event>
<event>
 8    1  0.6850220E-009  0.1053679E+03  0.7561462E-02  0.1269396E+00
          3   -1    0    0  501    0  0.00000000000E+00  0.00000000000E+00  0.21991336585E+03  0.21991336585E+03  0.00000000000E+00 0. -1.
         -3   -1    0    0    0  501 -0.00000000000E+00 -0.00000000000E+00 -0.13395868235E+03  0.13395868235E+03  0.00000000000E+00 0.  1.
         25    2    1    2    0    0 -0.64230431655E+02  0.47537519356E+02 -0.63951494451E+02  0.16162794410E+03  0.12509370317E+03 0.  0.
         23    2    1    2    0    0  0.64230431655E+02 -0.47537519356E+02  0.14990617795E+03  0.19224410410E+03  0.90003162579E+02 0.  0.
          5    1    3    3  502    0 -0.97979254805E+01  0.65827249960E+02  0.10506657509E+02  0.67506210329E+02  0.41800000000E+01 0.  1.
         -5    1    3    3    0  502 -0.54432506175E+02 -0.18289730603E+02 -0.74458151959E+02  0.94121733767E+02  0.41800000000E+01 0.  1.
        -11    1    4    4    0    0  0.23205550938E+02  0.62076581622E+00  0.12007817735E+03  0.12230147840E+03  0.00000000000E+00 0. -1.
         11    1    4    4    0    0  0.41024880717E+02 -0.48158285173E+02  0.29828000604E+02  0.69942625692E+02  0.00000000000E+00 0.  1.
</event>
<event>
 7    1  0.6850220E-009  0.6638213E+02  0.7561462E-02  0.1372847E+00
          2   -1    0    0  501    0  0.00000000000E+00  0.00000000000E+00  0.36972866073E+03  0.36972866073E+03  0.00000000000E+00 0. -1.
         -2   -1    0    0    0  501 -0.00000000000E+00 -0.00000000000E+00 -0.31095725701E+02  0.31095725701E+02  0.00000000000E+00 0.  1.
         25    2    1    2    0    0  0.36066384814E+02 -0.49103952377E+02  0.25244886816E+03  0.28824958720E+03  0.12508161828E+03 0.  0.
          5    1    3    3  502    0  0.18674928868E+02 -0.31782201901E+02  0.25968377881E+03  0.26232041229E+03  0.41800000000E+01 0.  1.
         -5    1    3    3    0  502  0.17391455947E+02 -0.17321750475E+02 -0.72349106466E+01  0.25929174911E+02  0.41800000000E+01 0.  1.
        -11    1    1    2    0    0 -0.29083563817E+02  0.95664245888E+01  0.25675131223E+02  0.39957258753E+02  0.00000000000E+00 0.  1.
         11    1    1    2    0    0 -0.69828209976E+01  0.39537527788E+02  0.60508935641E+02  0.72617540478E+02  0.00000000000E+00 0. -1.
</event>
<event>
 8    1  0.6850220E-009  0.1273936E+03  0.7561462E-02  0.1231375E+00
         -1   -1    0    0    0  501 -0.00000000000E+00  0.00000000000E+00  0.79587605955E+02  0.79587605955E+02  0.00000000000E+00 0.  1.
          1   -1    0    0  501    0  0.00000000000E+00 -0.00000000000E+00 -0.36203280725E+03  0.36203280725E+03  0.00000000000E+00 0. -1.
         25    2    1    2    0    0  0.11093772975E+03  0.53837032629E+02 -0.95227014537E+02  0.19980544741E+03  0.12509367112E+03 0.  0.
         23    2    1    2    0    0 -0.11093772975E+03 -0.53837032629E+02 -0.18721818676E+03  0.24181496579E+03  0.90654411159E+02 0.  0.
          5    1    3    3  502    0  0.54198830356E+02  0.22203770445E+02  0.24421244329E+02  0.63595520349E+02  0.41800000000E+01 0.  1.
         -5    1    3    3    0  502  0.56738899397E+02  0.31633262184E+02 -0.11964825887E+03  0.13620992706E+03  0.41800000000E+01 0.  1.
        -11    1    4    4    0    0 -0.46350589241E+02 -0.47022400879E+02 -0.31621124968E+02  0.73207778628E+02  0.00000000000E+00 0.  1.
         11    1    4    4    0    0 -0.64587140513E+02 -0.68146317499E+01 -0.15559706179E+03  0.16860718716E+03  0.00000000000E+00 0. -1.
</event>
<event>
 8    1  0.6850220E-009  0.1180626E+03  0.7561462E-02  0.1246328E+00
         -1   -1    0    0    0  501 -0.00000000000E+00  0.00000000000E+00  0.19501823061E+03  0.19501823061E+03  0.00000000000E+00 0.  1.
          1   -1    0    0  501    0  0.00000000000E+00 -0.00000000000E+00 -0.11626756131E+03  0.11626756131E+03  0.00000000000E+00 0. -1.
         25    2    1    2    0    0 -0.70215908341E+02  0.75504621968E+02  0.31080813192E+02  0.16505805704E+03  0.12508766335E+03 0.  0.
         23    2    1    2    0    0  0.70215908341E+02 -0.75504621968E+02  0.47669856109E+02  0.14622773487E+03  0.92081016185E+02 0.  0.
          5    1    3    3  502    0 -0.17975894619E+02  0.12829015082E+02 -0.46968512029E+02  0.52069472223E+02  0.41800000000E+01 0. -1.
         -5    1    3    3    0  502 -0.52240013722E+02  0.62675606886E+02  0.78049325221E+02  0.11298858482E+03  0.41800000000E+01 0. -1.
        -11    1    4    4    0    0  0.29203492709E+02 -0.84979177851E+02  0.11235485074E+02  0.90556837287E+02  0.00000000000E+00 0.  1.
         11    1    4    4    0    0  0.41012415631E+02  0.94745558834E+01  0.36434371035E+02  0.55670897584E+02  0.00000000000E+00 0. -1.
</event>
<event>
 8    1  0.6850220E-009  0.1594530E+03  0.7561462E-02  0.1189316E+00
         -2   -1    0    0    0  501 -0.00000000000E+00  0.00000000000E+00  0.25158361809E+02  0.25158361809E+02  0.00000000000E+00 0. -1.
          2   -1    0    0  501    0  0.00000000000E+00 -0.00000000000E+00 -0.13998156782E+04  0.13998156782E+04  0.00000000000E+00 0.  1.
         25    2    1    2    0    0  0.46426949706E+02 -0.13914861611E+03 -0.86695627783E+03  0.88813158839E+03  0.12508689618E+03 0.  0.
         23    2    1    2    0    0 -0.46426949706E+02  0.13914861611E+03 -0.50770103860E+03  0.53684245166E+03  0.94454614947E+02 0.  0.
          5    1    3    3  502    0  0.16435047421E+02  0.37730941690E+01 -0.36328398189E+03  0.36369914892E+03  0.41800000000E+01 0.  1.
         -5    1    3    3    0  502  0.29991902285E+02 -0.14292171028E+03 -0.50367229594E+03  0.52443243947E+03  0.41800000000E+01 0.  1.
        -11    1    4    4    0    0  0.28158710263E+01  0.72588399009E+02 -0.11899197033E+03  0.13941339177E+03  0.00000000000E+00 0. -1.
         11    1    4    4    0    0 -0.49242820733E+02  0.66560217104E+02 -0.38870906827E+03  0.39742905990E+03  0.00000000000E+00 0.  1.
</event>
<event>
 8    1  0.6850220E-009  0.9338284E+02  0.7561462E-02  0.1294860E+00
         -2   -1    0    0    0  501 -0.00000000000E+00  0.00000000000E+00  0.71463540623E+02  0.71463540623E+02  0.00000000000E+00 0.  1.
          2   -1    0    0  501    0  0.00000000000E+00 -0.00000000000E+00 -0.21667686841E+03  0.21667686841E+03  0.00000000000E+00 0. -1.
         25    2    1    2    0    0  0.14871092185E+02 -0.53710415802E+02 -0.56300715125E+02  0.14806477207E+03  0.12508976000E+03 0.  0.
         23    2    1    2    0    0 -0.14871092185E+02  0.53710415802E+02 -0.88912612664E+02  0.14007563696E+03  0.92788863724E+02 0.  0.
          5    1    3    3  502    0 -0.24437549434E+02 -0.16274406176E+02  0.32440684155E+02  0.43953617680E+02  0.41800000000E+01 0.  1.
         -5    1    3    3    0  502  0.39308641619E+02 -0.37436009626E+02 -0.88741399280E+02  0.10411115439E+03  0.41800000000E+01 0.  1.
        -11    1    4    4    0    0  0.35255464974E+02  0.33451045388E+02 -0.64483897353E+02  0.80747094473E+02  0.00000000000E+00 0.  1.
         11    1    4    4    0    0 -0.50126557158E+02  0.20259370414E+02 -0.24428715312E+02  0.59328542489E+02  0.00000000000E+00 0. -1.
</event>
<event>
 8    1  0.6850220E-009  0.1078377E+03  0.7561462E-02  0.1264627E+00
          2   -1    0    0  501    0  0.00000000000E+00  0.00000000000E+00  0.11760741027E+03  0.11760741027E+03  0.00000000000E+00 0.  1.
         -2   -1    0    0    0  501 -0.00000000000E+00 -0.00000000000E+00 -0.12889898919E+03  0.12889898919E+03  0.00000000000E+00 0. -1.
         25    2    1    2    0    0 -0.53865747751E+02  0.18130731424E+02 -0.11622345967E+02  0.13789235141E+03  0.12509588103E+03 0.  0.
         23    2    1    2    0    0  0.53865747751E+02 -0.18130731424E+02  0.33076705322E+00  0.10861404805E+03  0.92556252214E+02 0.  0.
          5    1    3    3  502    0 -0.81556000014E+02  0.21074360310E+02 -0.43882410396E+02  0.95071805194E+02  0.41800000000E+01 0.  1.
         -5    1    3    3    0  502  0.27690252263E+02 -0.29436288861E+01  0.32260064429E+02  0.42820546218E+02  0.41800000000E+01 0.  1.
        -11    1    4    4    0    0  0.56385118761E+02  0.23778318599E+02  0.16889639520E+02  0.63481886993E+02  0.00000000000E+00 0.  1.
         11    1    4    4    0    0 -0.25193710105E+01 -0.41909050023E+02 -0.16558872467E+02  0.45132161055E+02  0.00000000000E+00 0. -1.
</event>
<event>
 8    1  0.6850220E-009  0.9024889E+02  0.7561462E-02  0.1302250E+00
         -2   -1    0    0    0  501 -0.00000000000E+00  0.00000000000E+00  0.10435530877E+02  0.10435530877E+02  0.00000000000E+00 0.  1.
          2   -1    0    0  501    0  0.00000000000E+00 -0.00000000000E+00 -0.18387646616E+04  0.18387646616E+04  0.00000000000E+00 0. -1.
         25    2    1    2    0    0  0.39709536985E+01 -0.39894603809E+02 -0.15132550514E+04  0.15189460161E+04  0.12509516829E+03 0.  0.
         23    2    1    2    0    0 -0.39709536985E+01  0.39894603809E+02 -0.31507407925E+03  0.33025417638E+03  0.90491975962E+02 0.  0.
          5    1    3    3  502    0  0.36725639357E+02 -0.12153165752E+02 -0.13343170313E+04  0.13348842214E+04  0.41800000000E+01 0.  1.
         -5    1    3    3    0  502 -0.32754685658E+02 -0.27741438057E+02 -0.17893802013E+03  0.18406179470E+03  0.41800000000E+01 0.  1.
        -11    1    4    4    0    0 -0.21327066778E+02  0.64735379380E+02 -0.23300590173E+03  0.24276998036E+03  0.00000000000E+00 0. -1.
         11    1    4    4    0    0  0.17356113079E+02 -0.24840775572E+02 -0.82068177520E+02  0.87484196022E+02  0.00000000000E+00 0.  1.
</event>
<event>
 7    1  0.6850220E-009  0.1251102E+03  0.7561462E-02  0.1234897E+00
          2   -1    0    0  501    0  0.00000000000E+00  0.00000000000E+00  0.52332571726E+03  0.52332571726E+03  0.00000000000E+00 0. -1.
         -2   -1    0    0    0  501 -0.00000000000E+00 -0.00000000000E+00 -0.30208996898E+02  0.30208996898E+02  0.00000000000E+00 0.  1.
         23    2    1    2    0    0 -0.45843480887E+01  0.63221064831E+02  0.20906924568E+03  0.23672155217E+03  0.91154947681E+02 0.  0.
          5    1    1    2  502    0 -0.57081054094E+02 -0.10045081134E+02  0.13366987663E+03  0.14575410358E+03  0.41800000000E+01 0.  1.
         -5    1    1    2    0  502  0.61665402183E+02 -0.53175983697E+02  0.15037759805E+03  0.17105905841E+03  0.41800000000E+01 0.  1.
        -11    1    3    3    0    0  0.29373072520E+02 -0.90424857768E+01  0.68029021176E+02  0.74649123641E+02  0.00000000000E+00 0.  1.
         11    1    3    3    0    0 -0.33957420609E+02  0.72263550608E+02  0.14104022451E+03  0.16207242853E+03  0.00000000000E+00 0. -1.
</event>
<event>
 8    1  0.6850220E-009  0.1642252E+03  0.7561462E-02  0.1184007E+00
         -2   -1    0    0    0  501 -0.00000000000E+00  0.00000000000E+00  0.53364470598E+03  0.53364470598E+03  0.00000000000E+00 0.  1.
          2   -1    0    0  501    0  0.00000000000E+00 -0.00000000000E+00 -0.10071495467E+03  0.10071495467E+03  0.00000000000E+00 0. -1.
         25    2    1    2    0    0 -0.12837149692E+03  0.17537312899E+02  0.44121700460E+03  0.47655748146E+03  0.12509112445E+03 0.  0.
         23    2    1    2    0    0  0.12837149692E+03 -0.17537312899E+02 -0.82872532917E+01  0.15780217920E+03  0.89699780532E+02 0.  0.
          5    1    3    3  502    0 -0.14620820538E+02 -0.46207488484E+02  0.14316151246E+03  0.15120050077E+03  0.41800000000E+01 0. -1.
         -5    1    3    3    0  502 -0.11375067638E+03  0.63744801384E+02  0.29805549215E+03  0.32535698068E+03  0.41800000000E+01 0. -1.
        -11    1    4    4    0    0  0.97400312470E+02  0.21267167515E+02 -0.29267750101E+02  0.10390242769E+03  0.00000000000E+00 0.  1.
         11    1    4    4    0    0  0.30971184448E+02 -0.38804480415E+02  0.20980496810E+02  0.53899751509E+02  0.00000000000E+00 0. -1.
</event>
<event>
 8    1  0.6850220E-009  0.1129423E+03  0.7561462E-02  0.1255216E+00
          1   -1    0    0  501    0  0.00000000000E+00  0.00000000000E+00  0.76241971901E+02  0.76241971901E+02  0.00000000000E+00 0. -1.
         -1   -1    0    0    0  501 -0.00000000000E+00 -0.00000000000E+00 -0.42503648798E+03  0.42503648798E+03  0.00000000000E+00 0.  1.
         25    2    1    2    0    0 -0.18905178849E+02 -0.83090413147E+02 -0.34517447334E+03  0.37690118939E+03  0.12509063504E+03 0.  0.
         23    2    1    2    0    0  0.18905178849E+02  0.83090413147E+02 -0.36200427373E+01  0.12437727049E+03  0.90527223311E+02 0.  0.
          5    1    3    3  502    0 -0.33483392345E+02 -0.84620378235E+02 -0.11731720602E+03  0.14853465994E+03  0.41800000000E+01 0. -1.
         -5    1    3    3    0  502  0.14578213496E+02  0.15299650884E+01 -0.22785726733E+03  0.22836652946E+03  0.41800000000E+01 0. -1.
        -11    1    4    4    0    0  0.26182849653E+02  0.98809621412E+02  0.94812875675E+01  0.10265854915E+03  0.00000000000E+00 0.  1.
         11    1    4    4    0    0 -0.72776708037E+01 -0.15719208266E+02 -0.13101330305E+02  0.21718721338E+02  0.00000000000E+00 0. -1.
</event>
<event>
 8    1  0.6850220E-009  0.1017759E+03  0.7561462E-02  0.1276605E+00
          1   -1    0    0  501    0  0.00000000000E+00  0.00000000000E+00  0.61570866495E+02  0.61570866495E+02  0.00000000000E+00 0. -1.
         -1   -1    0    0    0  501 -0.00000000000E+00 -0.00000000000E+00 -0.21240175767E+03  0.21240175767E+03  0.00000000000E+00 0.  1.
         25    2    1    2    0    0 -0.26558453423E+02 -0.27201554556E+02 -0.10459696550E+03  0.16743509695E+03  0.12509480597E+03 0.  0.
         23    2    1    2    0    0  0.26558453423E+02  0.27201554556E+02 -0.46233925675E+02  0.10653752721E+03  0.88132813430E+02 0.  0.
          5    1    3    3  502    0 -0.27724957520E+00 -0.68585577083E+02 -0.23577265410E+02  0.72645840180E+02  0.41800000000E+01 0.  1.
         -5    1    3    3    0  502 -0.26281203848E+02  0.41384022527E+02 -0.81019700089E+02  0.94789256768E+02  0.41800000000E+01 0.  1.
        -11    1    4    4    0    0 -0.19166486826E+02  0.34370216971E+02 -0.45622342199E+02  0.60250013607E+02  0.00000000000E+00 0.  1.
         11    1    4    4    0    0  0.45724940249E+02 -0.71686624149E+01 -0.61158347595E+00  0.46287513608E+02  0.00000000000E+00 0. -1.
</event>
<event>
 8    1  0.6850220E-009  0.8714927E+02  0.7561462E-02  0.1309906E+00
          1   -1    0    0  501    0  0.00000000000E+00  0.00000000000E+00  0.39336616010E+03  0.39336616010E+03  0.00000000000E+00 0. -1.
         -1   -1    0    0    0  501 -0.00000000000E+00 -0.00000000000E+00 -0.38354916811E+02  0.38354916811E+02  0.00000000000E+00 0.  1.
         25    2    1    2    0    0 -0.36896461704E+02  0.94285531969E+01  0.27125168761E+03  0.30112299551E+03  0.12508930367E+03 0.  0.
         23    2    1    2    0    0  0.36896461704E+02 -0.94285531969E+01  0.83759555676E+02  0.13059808140E+03  0.92681978811E+02 0.  0.
          5    1    3    3  502    0  0.29267621143E+02  0.49687548116E+01  0.10075454999E+02  0.31627035352E+02  0.41800000000E+01 0.  1.
         -5    1    3    3    0  502 -0.66164082847E+02  0.44597983854E+01  0.26117623261E+03  0.26949596016E+03  0.41800000000E+01 0.  1.
        -11    1    4    4    0    0 -0.80375480698E+01  0.21746234397E+02  0.70653675704E+02  0.74360223103E+02  0.00000000000E+00 0. -1.
         11    1    4    4    0    0  0.44934009774E+02 -0.31174787594E+02  0.13105879972E+02  0.56237858296E+02  0.00000000000E+00 0.  1.
</event>
<event>
 8    1  0.6850220E-009  0.1361910E+03  0.7561462E-02  0.1218548E+00
          1   -1    0    0  501    0  0.00000000000E+00  0.00000000000E+00  0.11017388148E+04  0.11017388148E+04  0.00000000000E+00 0. -1.
         -1   -1    0    0    0  501 -0.00000000000E+00 -0.00000000000E+00 -0.24029589560E+02  0.24029589560E+02  0.00000000000E+00 0.  1.
         25    2    1    2    0    0  0.82293433189E+02  0.74539794185E+02  0.73323998281E+03  0.75207507440E+03  0.12509058751E+03 0.  0.
         23    2    1    2    0    0 -0.82293433189E+02 -0.74539794185E+02  0.34446924246E+03  0.37369332998E+03  0.93055122440E+02 0.  0.
          5    1    3    3  502    0 -0.29834851398E+01  0.63138907676E+02  0.15485170971E+03  0.16730794137E+03  0.41800000000E+01 0.  1.
         -5    1    3    3    0  502  0.85276918329E+02  0.11400886508E+02  0.57838827310E+03  0.58476713303E+03  0.41800000000E+01 0.  1.
        -11    1    4    4    0    0 -0.63544355632E+02 -0.22216148419E+02  0.28267618028E+03  0.29058091004E+03  0.00000000000E+00 0. -1.
         11    1    4    4    0    0 -0.18749077558E+02 -0.52323645766E+02  0.61793062180E+02  0.83112419944E+02  0.00000000000E+00 0.  1.
</event>
<event>
 7    1  0.6850220E-009  0.1003436E+03  0.7561462E-02  0.1279575E+00
          1   -1    0    0  501    0  0.00000000000E+00  0.00000000000E+00  0.38738099714E+03  0.38738099714E+03  0.00000000000E+00 0. -1.
         -1   -1    0    0    0  501 -0.00000000000E+00 -0.00000000000E+00 -0.37834029830E+02  0.37834029830E+02  0.00000000000E+00 0.  1.
         23    2    1    2    0    0 -0.17343497348E+02  0.46385547595E+02  0.19031337100E+03  0.21680855460E+03  0.91292684500E+02 0.  0.
          5    1    1    2  502    0  0.18527188142E+02 -0.75650653874E+02  0.16086341694E+03  0.17877580777E+03  0.41800000000E+01 0. -1.
         -5    1    1    2    0  502 -0.11836907945E+01  0.29265106280E+02 -0.16298206288E+01  0.29630664602E+02  0.41800000000E+01 0. -1.
        -11    1    3    3    0    0 -0.27380953820E+02  0.65787652667E+02  0.93484105307E+02  0.11754577755E+03  0.00000000000E+00 0.  1.
         11    1    3    3    0    0  0.10037456472E+02 -0.19402105072E+02  0.96829265692E+02  0.99262777052E+02  0.00000000000E+00 0. -1.
</event>
<event>
 8    1  0.6850220E-009  0.9946821E+02  0.7561462E-02  0.1281418E+00
          1   -1    0    0  501    0  0.00000000000E+00  0.00000000000E+00  0.69838179749E+02  0.69838179749E+02  0.00000000000E+00 0. -1.
         -1   -1    0    0    0  501 -0.00000000000E+00 -0.00000000000E+00 -0.37784520393E+03  0.37784520393E+03  0.00000000000E+00 0.  1.
         25    2    1    2    0    0  0.65924594783E+02  0.32537853448E+02 -0.32371022043E+02  0.14866955092E+03  0.12509991286E+03 0.  0.
         23    2    1    2    0    0 -0.65924594783E+02 -0.32537853448E+02 -0.27563600213E+03  0.29901383276E+03  0.89606374793E+02 0.  0.
          5    1    3    3  502    0  0.77273475047E+02  0.47536202305E+02  0.19887504044E+02  0.92972392099E+02  0.41800000000E+01 0.  1.
         -5    1    3    3    0  502 -0.11348880264E+02 -0.14998348858E+02 -0.52258526086E+02  0.55697158818E+02  0.41800000000E+01 0.  1.
        -11    1    4    4    0    0 -0.94615854955E+01 -0.30949612406E+02 -0.21924925412E+02  0.39090951158E+02  0.00000000000E+00 0. -1.
         11    1    4    4    0    0 -0.56463009287E+02 -0.15882410421E+01 -0.25371107672E+03  0.25992288160E+03  0.00000000000E+00 0.  1.
</event>
<event>
 8    1  0.6850220E-009  0.9835111E+02  0.7561462E-02  0.1283802E+00
         -2   -1    0    0    0  501 -0.00000000000E+00  0.00000000000E+00  0.25501693331E+02  0.25501693331E+02  0.00000000000E+00 0.  1.
          2   -1    0    0  501    0  0.00000000000E+00 -0.00000000000E+00 -0.64710216350E+03  0.64710216350E+03  0.00000000000E+00 0. -1.
         25    2    1    2    0    0  0.23649458241E+02 -0.61378115928E+02 -0.39501465959E+03  0.41953895866E+03  0.12509910694E+03 0.  0.
         23    2    1    2    0    0 -0.23649458241E+02  0.61378115928E+02 -0.22658581058E+03  0.25306489816E+03  0.91510344427E+02 0.  0.
          5    1    3    3  502    0 -0.43833454869E+02 -0.30193630276E+02 -0.25931645090E+03  0.26475558763E+03  0.41800000000E+01 0.  1.
         -5    1    3    3    0  502  0.67482913111E+02 -0.31184485652E+02 -0.13569820869E+03  0.15478337104E+03  0.41800000000E+01 0.  1.
        -11    1    4    4    0    0 -0.26147534365E+02  0.43133255690E+02 -0.22900277354E+03  0.23449187958E+03  0.00000000000E+00 0. -1.
         11    1    4    4    0    0  0.24980761230E+01  0.18244860238E+02  0.24169629603E+01  0.18573018586E+02  0.00000000000E+00 0.  1.
</event>
<event>
 8    1  0.6850220E-009  0.3411966E+03  0.7561462E-02  0.1066287E+00
          1   -1    0    0  501    0  0.00000000000E+00  0.00000000000E+00  0.94418967330E+03  0.94418967330E+03  0.00000000000E+00 0. -1.
         -1   -1    0    0    0  501 -0.00000000000E+00 -0.00000000000E+00 -0.13803953948E+03  0.13803953948E+03  0.00000000000E+00 0.  1.
         25    2    1    2    0    0 -0.66923579706E+02  0.32979674099E+03  0.51752861072E+03  0.62986541175E+03  0.12509963276E+03 0.  0.
         23    2    1    2    0    0  0.66923579706E+02 -0.32979674099E+03  0.28862152310E+03  0.45236380103E+03  0.89922016202E+02 0.  0.
          5    1    3    3  502    0  0.13068595229E+02  0.11545461903E+03  0.98289181974E+02  0.15224583059E+03  0.41800000000E+01 0. -1.
         -5    1    3    3    0  502 -0.79992174935E+02  0.21434212196E+03  0.41923942875E+03  0.47761958117E+03  0.41800000000E+01 0. -1.
        -11    1    4    4    0    0  0.67420769281E+02 -0.29908343234E+03  0.22052834183E+03  0.37766282473E+03  0.00000000000E+00 0.  1.
         11    1    4    4    0    0 -0.49718957477E+00 -0.30713308658E+02  0.68093181267E+02  0.74700976307E+02  0.00000000000E+00 0. -1.
</event>
<event>
 7    1  0.6850220E-009  0.1601730E+03  0.7561462E-02  0.1188502E+00
         -3   -1    0    0    0  501 -0.00000000000E+00  0.00000000000E+00  0.10456338134E+03  0.10456338134E+03  0.00000000000E+00 0.  1.
          3   -1    0    0  501    0  0.00000000000E+00 -0.00000000000E+00 -0.32325720900E+03  0.32325720900E+03  0.00000000000E+00 0. -1.
         23    2    1    2    0    0 -0.13846682593E+03 -0.50828058433E+02 -0.12511624498E+03  0.21292814306E+03  0.89038002780E+02 0.  0.
          5    1    1    2  502    0  0.24561997836E+02  0.12370179391E+02 -0.90370813111E+02  0.94555112703E+02  0.41800000000E+01 0. -1.
         -5    1    1    2    0  502  0.11390482809E+03  0.38457879042E+02 -0.32067695611E+01  0.12033733458E+03  0.41800000000E+01 0. -1.
        -11    1    3    3    0    0 -0.10703123557E+03 -0.76572941217E+02 -0.93254683903E+02  0.16129332530E+03  0.00000000000E+00 0. -1.
         11    1    3    3    0    0 -0.31435590355E+02  0.25744882784E+02 -0.31861561082E+02  0.51634817760E+02  0.00000000000E+00 0.  1.
</event>
<event>
 8    1  0.6850220E-009  0.1750151E+03  0.7561462E-02  0.1172717E+00
         -2   -1    0    0    0  501 -0.00000000000E+00  0.00000000000E+00  0.53586350852E+02  0.53586350852E+02  0.00000000000E+00 0. -1.
          2   -1    0    0  501    0  0.00000000000E+00 -0.00000000000E+00 -0.62121380123E+03  0.62121380123E+03  0.00000000000E+00 0.  1.
         25    2    1    2    0    0  0.12392748129E+03 -0.61447342727E+02 -0.22327820074E+03  0.29093086881E+03  0.12511522271E+03 0.  0.
         23    2    1    2    0    0 -0.12392748129E+03  0.61447342727E+02 -0.34434924964E+03  0.38386928327E+03  0.98211121383E+02 0.  0.
          5    1    3    3  502    0  0.10668078811E+03  0.12394997446E+02 -0.10421328490E+03  0.14970740684E+03  0.41800000000E+01 0.  1.
         -5    1    3    3    0  502  0.17246693188E+02 -0.73842340173E+02 -0.11906491584E+03  0.14122346198E+03  0.41800000000E+01 0.  1.
        -11    1    4    4    0    0 -0.64233643143E+02 -0.18487501054E+02 -0.10388100140E+03  0.12352736967E+03  0.00000000000E+00 0.  1.
         11    1    4    4    0    0 -0.59693838150E+02  0.79934843782E+02 -0.24046824825E+03  0.26034191360E+03  0.00000000000E+00 0. -1.
</event>
<event>
 8    1  0.6850220E-009  0.1181671E+03  0.7561462E-02  0.1246152E+00
          1   -1    0    0  501    0  0.00000000000E+00  0.00000000000E+00  0.36664765281E+03  0.36664765281E+03  0.00000000000E+00 0. -1.
         -1   -1    0    0    0  501 -0.00000000000E+00 -0.00000000000E+00 -0.46993356448E+02  0.46993356448E+02  0.00000000000E+00 0.  1.
         25    2    1    2    0    0  0.31841192872E+02 -0.64898738628E+02  0.21668090145E+03  0.26042870376E+03  0.12508712505E+03 0.  0.
         23    2    1    2    0    0 -0.31841192872E+02  0.64898738628E+02  0.10297339491E+03  0.15321230550E+03  0.87434447765E+02 0.  0.
          5    1    3    3  502    0  0.37051891779E+02  0.18834518163E+02  0.19499223064E+02  0.46100692608E+02  0.41800000000E+01 0.  1.
         -5    1    3    3    0  502 -0.52106989071E+01 -0.83733256791E+02  0.19718167838E+03  0.21432801116E+03  0.41800000000E+01 0.  1.
        -11    1    4    4    0    0  0.20199264819E+02 -0.73728332834E+01  0.78121165362E+01  0.22877896202E+02  0.00000000000E+00 0.  1.
         11    1    4    4    0    0 -0.52040457691E+02  0.72271571912E+02  0.95161278379E+02  0.13033440929E+03  0.00000000000E+00 0. -1.
</event>
<event>
 8    1  0.6850220E-009  0.1561405E+03  0.7561462E-02  0.1193124E+00
         -1   -1    0    0    0  501 -0.00000000000E+00  0.00000000000E+00  0.42137814982E+02  0.42137814982E+02  0.00000000000E+00 0.  1.
          1   -1    0    0  501    0  0.00000000000E+00 -0.00000000000E+00 -0.73884358158E+03  0.73884358158E+03  0.00000000000E+00 0. -1.
         25    2    1    2    0    0 -0.11499795461E+03 -0.55293269936E+02 -0.43791706454E+03  0.47297136724E+03  0.12509469831E+03 0.  0.
         23    2    1    2    0    0  0.11499795461E+03  0.55293269936E+02 -0.25878870206E+03  0.30801002932E+03  0.10778084518E+03 0.  0.
          5    1    3    3  502    0 -0.13785873862E+03 -0.43313659065E+02 -0.40992018613E+03  0.43466439499E+03  0.41800000000E+01 0. -1.
         -5    1    3    3    0  502  0.22860784006E+02 -0.11979610871E+02 -0.27996878407E+02  0.38306972245E+02  0.41800000000E+01 0. -1.
        -11    1    4    4    0    0  0.93424084156E+02  0.68884512796E+02 -0.12020409432E+03  0.16709925163E+03  0.00000000000E+00 0.  1.
         11    1    4    4    0    0  0.21573870456E+02 -0.13591242860E+02 -0.13858460774E+03  0.14091077770E+03  0.00000000000E+00 0. -1.
</event>
<event>
 8    1  0.6850220E-009  0.1490167E+03  0.7561462E-02  0.1201686E+00
         -2   -1    0    0    0  501 -0.00000000000E+00  0.00000000000E+00  0.67410155141E+03  0.67410155141E+03  0.00000000000E+00 0.  1.
          2   -1    0    0  501    0  0.00000000000E+00 -0.00000000000E+00 -0.43456192651E+02  0.43456192651E+02  0.00000000000E+00 0. -1.
         25    2    1    2    0    0 -0.42786053836E+02 -0.96078214048E+02  0.16922796536E+03  0.23526165093E+03  0.12509304745E+03 0.  0.
         23    2    1    2    0    0  0.42786053836E+02  0.96078214048E+02  0.46141739340E+03  0.48229609314E+03  0.92961502259E+02 0.  0.
          5    1    3    3  502    0 -0.85196246593E+02 -0.58404472276E+02  0.86104866935E+02  0.13453996925E+03  0.41800000000E+01 0.  1.
         -5    1    3    3    0  502  0.42410192756E+02 -0.37673741772E+02  0.83123098421E+02  0.10072168168E+03  0.41800000000E+01 0.  1.
        -11    1    4    4    0    0  0.67517565595E+02  0.45334848285E+02  0.31625536656E+03  0.32654452531E+03  0.00000000000E+00 0.  1.
         11    1    4    4    0    0 -0.24731511758E+02  0.50743365763E+02  0.14516202684E+03  0.15575156783E+03  0.00000000000E+00 0. -1.
</event>
<event>
 8    1  0.6850220E-009  0.1554822E+03  0.7561462E-02  0.1193894E+00
          2   -1    0    0  501    0  0.00000000000E+00  0.00000000000E+00  0.68846633275E+03  0.68846633275E+03  0.00000000000E+00 0. -1.
         -2   -1    0    0    0  501 -0.00000000000E+00 -0.00000000000E+00 -0.50343252279E+02  0.50343252279E+02  0.00000000000E+00 0.  1.
         25    2    1    2    0    0  0.26680175036E+02  0.12993476618E+03  0.47760526935E+03  0.51123242612E+03  0.12512763486E+03 0.  0.
         23    2    1    2    0    0 -0.26680175036E+02 -0.12993476618E+03  0.16051781112E+03  0.22757715890E+03  0.91817865188E+02 0.  0.
          5    1    3    3  502    0 -0.17825232944E+02  0.13104793975E+03  0.29645384753E+03  0.32464389345E+03  0.41800000000E+01 0.  1.
         -5    1    3    3    0  502  0.44505407980E+02 -0.11131735760E+01  0.18115142183E+03  0.18658853267E+03  0.41800000000E+01 0.  1.
        -11    1    4    4    0    0 -0.98536540650E+01 -0.90754515357E+02  0.39868082515E+02  0.99613957655E+02  0.00000000000E+00 0.  1.
         11    1    4    4    0    0 -0.16826520971E+02 -0.39180250819E+02  0.12064972860E+03  0.12796320125E+03  0.00000000000E+00 0. -1.
</event>
<event>
 8    1  0.6850220E-009  0.9429157E+02  0.7561462E-02  0.1292780E+00
          1   -1    0    0  501    0  0.00000000000E+00  0.00000000000E+00  0.77497678519E+03  0.77497678519E+03  0.00000000000E+00 0. -1.
         -1   -1    0    0    0  501 -0.00000000000E+00 -0.00000000000E+00 -0.18183714993E+02  0.18183714993E+02  0.00000000000E+00 0.  1.
         25    2    1    2    0    0  0.68002873854E+01 -0.90474271475E+01  0.58782964365E+03  0.60109857861E+03  0.12509081263E+03 0.  0.
         23    2    1    2    0    0 -0.68002873854E+01  0.90474271475E+01  0.16896342655E+03  0.19206192158E+03  0.90614802112E+02 0.  0.
          5    1    3    3  502    0  0.14677241961E-01 -0.66649470016E+02  0.28305813723E+03  0.29082904518E+03  0.41800000000E+01 0. -1.
         -5    1    3    3    0  502  0.67856101435E+01  0.57602042869E+02  0.30477150642E+03  0.31026953343E+03  0.41800000000E+01 0. -1.
        -11    1    4    4    0    0 -0.21750587677E+02 -0.20909861641E+02  0.15116083762E+03  0.15414249643E+03  0.00000000000E+00 0. -1.
         11    1    4    4    0    0  0.14950300291E+02  0.29957288788E+02  0.17802588932E+02  0.37919425141E+02  0.00000000000E+00 0.  1.
</event>
<event>
 8    1  0.6850220E-009  0.7740518E+02  0.7561462E-02  0.1336581E+00
         -1   -1    0    0    0  501 -0.00000000000E+00  0.00000000000E+00  0.94117314655E+02  0.94117314655E+02  0.00000000000E+00 0.  1.
          1   -1    0    0  501    0  0.00000000000E+00 -0.00000000000E+00 -0.20354804828E+03  0.20354804828E+03  0.00000000000E+00 0. -1.
         25    2    1    2    0    0 -0.49534972537E+02 -0.42307105534E+02 -0.30131309356E+00  0.14104675138E+03  0.12510192086E+03 0.  0.
         23    2    1    2    0    0  0.49534972537E+02  0.42307105534E+02 -0.10912942053E+03  0.15661861155E+03  0.91523518156E+02 0.  0.
          5    1    3    3  502    0 -0.25907547479E+01 -0.24351720138E+02 -0.58785592123E+02  0.63819562244E+02  0.41800000000E+01 0. -1.
         -5    1    3    3    0  502 -0.46944217789E+02 -0.17955385396E+02  0.58484279029E+02  0.77227189138E+02  0.41800000000E+01 0. -1.
        -11    1    4    4    0    0  0.53550401358E+01  0.34197941512E+02  0.40507621317E+01  0.34850887110E+02  0.00000000000E+00 0.  1.
         11    1    4    4    0    0  0.44179932401E+02  0.81091640217E+01 -0.11318018266E+03  0.12176772444E+03  0.00000000000E+00 0. -1.
</event>
<event>
 8    1  0.6850220E-009  0.7913710E+02  0.7561462E-02  0.1331518E+00
          1   -1    0    0  501    0  0.00000000000E+00  0.00000000000E+00  0.82397456559E+02  0.82397456559E+02  0.00000000000E+00 0. -1.
         -1   -1    0    0    0  501 -0.00000000000E+00 -0.00000000000E+00 -0.18701126530E+03  0.18701126530E+03  0.00000000000E+00 0.  1.
         25    2    1    2    0    0  0.10979062932E+02  0.19041421919E+02  0.34620196297E+01  0.12705133911E+03  0.12508773568E+03 0.  0.
         23    2    1    2    0    0 -0.10979062932E+02 -0.19041421919E+02 -0.10807582837E+03  0.14235738275E+03  0.90011800193E+02 0.  0.
          5    1    3    3  502    0 -0.45741326701E+01 -0.34580634080E+02 -0.42124423070E+02  0.54851457246E+02  0.41800000000E+01 0.  1.
         -5    1    3    3    0  502  0.15553195602E+02  0.53622055999E+02  0.45586442700E+02  0.72199881863E+02  0.41800000000E+01 0.  1.
        -11    1    4    4    0    0  0.15547089115E+02 -0.33508549819E+02 -0.79680497026E+01  0.37789214162E+02  0.00000000000E+00 0. -1.
         11    1    4    4    0    0 -0.26526152047E+02  0.14467127901E+02 -0.10010777867E+03  0.10456816859E+03  0.00000000000E+00 0.  1.
</event>
<event>
 8    1  0.6850220E-009  0.1242861E+03  0.7561462E-02  0.1236189E+00
          2   -1    0    0  501    0  0.00000000000E+00  0.00000000000E+00  0.62023362846E+03  0.62023362846E+03  0.00000000000E+00 0. -1.
         -2   -1    0    0    0  501 -0.00000000000E+00 -0.00000000000E+00 -0.37891996432E+02  0.37891996432E+02  0.00000000000E+00 0.  1.
         25    2    1    2    0    0  0.25872212927E+02 -0.10105183638E+03  0.25586471606E+03  0.30330655656E+03  0.12508904544E+03 0.  0.
         23    2    1    2    0    0 -0.25872212927E+02  0.10105183638E+03  0.32647691596E+03  0.35481906833E+03  0.91807132378E+02 0.  0.
          5    1    3    3  502    0  0.31421379298E+02 -0.58456284799E+02  0.25125146188E+03  0.25990230820E+03  0.41800000000E+01 0.  1.
         -5    1    3    3    0  502 -0.55491663708E+01 -0.42595551583E+02  0.46132541868E+01  0.43404248367E+02  0.41800000000E+01 0.  1.
        -11    1    4    4    0    0  0.33209990459E+02  0.20527614088E+02  0.95716883901E+02  0.10337315062E+03  0.00000000000E+00 0.  1.
         11    1    4    4    0    0 -0.59082203385E+02  0.80524222294E+02  0.23076003206E+03  0.25144591770E+03  0.00000000000E+00 0. -1.
</event>
<event>
 8    1  0.6850220E-009  0.2102528E+03  0.7561462E-02  0.1141366E+00
         -2   -1    0    0    0  501 -0.00000000000E+00  0.00000000000E+00  0.11813397014E+03  0.11813397014E+03  0.00000000000E+00 0.  1.
          2   -1    0    0  501    0  0.00000000000E+00 -0.00000000000E+00 -0.47832204045E+03  0.47832204045E+03  0.00000000000E+00 0. -1.
         25    2    1    2    0    0  0.12088866658E+03 -0.16155510389E+03 -0.10905884129E+03  0.26125649070E+03  0.12508797611E+03 0.  0.
         23    2    1    2    0    0 -0.12088866658E+03  0.16155510389E+03 -0.25112922902E+03  0.33519951989E+03  0.92621310543E+02 0.  0.
          5    1    3    3  502    0  0.12020715135E+03 -0.17037814188E+03 -0.12456164376E+03  0.24292292185E+03  0.41800000000E+01 0. -1.
         -5    1    3    3    0  502  0.68151522906E+00  0.88230379887E+01  0.15502802466E+02  0.18333568847E+02  0.41800000000E+01 0. -1.
        -11    1    4    4    0    0 -0.10114570929E+03  0.14229611605E+03 -0.14934464089E+03  0.22974433815E+03  0.00000000000E+00 0.  1.
         11    1    4    4    0    0 -0.19742957293E+02  0.19258987842E+02 -0.10178458813E+03  0.10545518174E+03  0.00000000000E+00 0. -1.
</event>
<event>
 8    1  0.6850220E-009  0.1219048E+03  0.7561462E-02  0.1239987E+00
         -1   -1    0    0    0  501 -0.00000000000E+00  0.00000000000E+00  0.47014633545E+03  0.47014633545E+03  0.00000000000E+00 0.  1.
          1   -1    0    0  501    0  0.00000000000E+00 -0.00000000000E+00 -0.44383022336E+02  0.44383022336E+02  0.00000000000E+00 0. -1.
         25    2    1    2    0    0  0.57497032981E+02 -0.58580595735E+02  0.31836722663E+03  0.35177062236E+03  0.12508910731E+03 0.  0.
         23    2    1    2    0    0 -0.57497032981E+02  0.58580595735E+02  0.10739608648E+03  0.16275873542E+03  0.90658102596E+02 0.  0.
          5    1    3    3  502    0 -0.35136698854E+02 -0.40789975468E+02  0.13790697343E+03  0.14810204396E+03  0.41800000000E+01 0. -1.
         -5    1    3    3    0  502  0.92633731835E+02 -0.17790620267E+02  0.18046025320E+03  0.20366857840E+03  0.41800000000E+01 0. -1.
        -11    1    4    4    0    0 -0.10803727471E+02  0.45692150109E+02  0.10411041025E+03  0.11420801475E+03  0.00000000000E+00 0.  1.
         11    1    4    4    0    0 -0.46693305510E+02  0.12888445625E+02  0.32856762313E+01  0.48550720679E+02  0.00000000000E+00 0. -1.
</event>
<event>
 8    1  0.6850220E-009  0.1520415E+03  0.7561462E-02  0.1197987E+00
         -1   -1    0    0    0  501 -0.00000000000E+00  0.00000000000E+00  0.49259646890E+02  0.49259646890E+02  0.00000000000E+00 0.  1.
          1   -1    0    0  501    0  0.00000000000E+00 -0.00000000000E+00 -0.64647952335E+03  0.64647952335E+03  0.00000000000E+00 0. -1.
         25    2    1    2    0    0 -0.11223941541E+03 -0.22075670116E+02 -0.15353260778E+03  0.22870279161E+03  0.12509070170E+03 0.  0.
         23    2    1    2    0    0  0.11223941541E+03  0.22075670116E+02 -0.44368726868E+03  0.46703637864E+03  0.90440947579E+02 0.  0.
          5    1    3    3  502    0  0.22481932889E+02 -0.23553032610E+02 -0.17515059226E+02  0.37207960858E+02  0.41800000000E+01 0.  1.
         -5    1    3    3    0  502 -0.13472134830E+03  0.14773624936E+01 -0.13601754856E+03  0.19149483075E+03  0.41800000000E+01 0.  1.
        -11    1    4    4    0    0  0.77944004554E-01  0.24277899406E+02 -0.31012626762E+02  0.39385346177E+02  0.00000000000E+00 0.  1.
         11    1    4    4    0    0  0.11216147140E+03 -0.22022292894E+01 -0.41267464192E+03  0.42765103246E+03  0.00000000000E+00 0. -1.
</event>
<event>
 8    1  0.6850220E-009  0.1315274E+03  0.7561462E-02  0.1225207E+00
          4   -1    0    0  501    0  0.00000000000E+00  0.00000000000E+00  0.49384750513E+03  0.49384750513E+03  0.00000000000E+00 0.  1.
         -4   -1    0    0    0  501 -0.00000000000E+00 -0.00000000000E+00 -0.38877012396E+02  0.38877012396E+02  0.00000000000E+00 0. -1.
         25    2    1    2    0    0 -0.76171167460E+02 -0.13395976683E+02  0.24990457116E+03  0.28996832445E+03  0.12509130887E+03 0.  0.
         23    2    1    2    0    0  0.76171167460E+02  0.13395976683E+02  0.20506592158E+03  0.24275619308E+03  0.10438887940E+03 0.  0.
          5    1    3    3  502    0 -0.50834411645E+02 -0.67628746584E+02  0.17108907772E+03  0.19091026606E+03  0.41800000000E+01 0.  1.
         -5    1    3    3    0  502 -0.25336755815E+02  0.54232769900E+02  0.78815493440E+02  0.99058058393E+02  0.41800000000E+01 0.  1.
        -11    1    4    4    0    0 -0.31012662692E+01 -0.28508169206E+02  0.10290699608E+03  0.10682782131E+03  0.00000000000E+00 0.  1.
         11    1    4    4    0    0  0.79272433729E+02  0.41904145890E+02  0.10215892550E+03  0.13592837176E+03  0.00000000000E+00 0. -1.
</event>
<event>
 8    1  0.6850220E-009  0.1061207E+03  0.7561462E-02  0.1267927E+00
          1   -1    0    0  501    0  0.00000000000E+00  0.00000000000E+00  0.10382497035E+04  0.10382497035E+04  0.00000000000E+00 0. -1.
         -1   -1    0    0    0  501 -0.00000000000E+00 -0.00000000000E+00 -0.11793164813E+02  0.11793164813E+02  0.00000000000E+00 0.  1.
         25    2    1    2    0    0  0.57554858939E+01 -0.29849406304E+01  0.68235436149E+03  0.69375578990E+03  0.12509031089E+03 0.  0.
         23    2    1    2    0    0 -0.57554858939E+01  0.29849406304E+01  0.34410217721E+03  0.35628707843E+03  0.92152799248E+02 0.  0.
          5    1    3    3  502    0 -0.41230421673E+02 -0.43907246351E+02  0.26760273933E+03  0.27432916807E+03  0.41800000000E+01 0. -1.
         -5    1    3    3    0  502  0.46985907567E+02  0.40922305720E+02  0.41475162216E+03  0.41942662183E+03  0.41800000000E+01 0. -1.
        -11    1    4    4    0    0 -0.29244854915E+02 -0.34470980185E+02  0.12908501559E+03  0.13677152943E+03  0.00000000000E+00 0.  1.
         11    1    4    4    0    0  0.23489369021E+02  0.37455920815E+02  0.21501716162E+03  0.21951554900E+03  0.00000000000E+00 0. -1.
</event>
<event>
 8    1  0.6850220E-009  0.8949125E+02  0.7561462E-02  0.1304088E+00
          2   -1    0    0  501    0  0.00000000000E+00  0.00000000000E+00  0.20783189544E+03  0.20783189544E+03  0.00000000000E+00 0. -1.
         -2   -1    0    0    0  501 -0.00000000000E+00 -0.00000000000E+00 -0.72322295876E+02  0.72322295876E+02  0.00000000000E+00 0.  1.
         25    2    1    2    0    0  0.42703353620E+02  0.35016268566E+02  0.88778231668E+02  0.16302494009E+03  0.12508333702E+03 0.  0.
         23    2    1    2    0    0 -0.42703353620E+02 -0.35016268566E+02  0.46731367894E+02  0.11712925122E+03  0.92117996461E+02 0.  0.
          5    1    3    3  502    0  0.74315582610E+02  0.21506911697E+02  0.11480306006E+02  0.78323833508E+02  0.41800000000E+01 0. -1.
         -5    1    3    3    0  502 -0.31612228990E+02  0.13509356870E+02  0.77297925662E+02  0.84701106583E+02  0.41800000000E+01 0. -1.
        -11    1    4    4    0    0  0.24485562333E+01 -0.18706758524E+02  0.63526602983E+02  0.66268903180E+02  0.00000000000E+00 0. -1.
         11    1    4    4    0    0 -0.45151909853E+02 -0.16309510043E+02 -0.16795235090E+02  0.50860348042E+02  0.00000000000E+00 0.  1.
</event>
<event>
 8    1  0.6850220E-009  0.9270453E+02  0.7561462E-02  0.1296431E+00
          2   -1    0    0  501    0  0.00000000000E+00  0.00000000000E+00  0.15612247126E+03  0.15612247126E+03  0.00000000000E+00 0. -1.
         -2   -1    0    0    0  501 -0.00000000000E+00 -0.00000000000E+00 -0.92192066173E+02  0.92192066173E+02  0.00000000000E+00 0.  1.
         25    2    1    2    0    0  0.29641575219E+02  0.36880192291E+02  0.64767061223E+02  0.14859549210E+03  0.12508827479E+03 0.  0.
         23    2    1    2    0    0 -0.29641575219E+02 -0.36880192291E+02 -0.83665613303E+00  0.99719045333E+02  0.87774805290E+02 0.  0.
          5    1    3    3  502    0 -0.16667367722E+02  0.71963725528E+02  0.25121240399E+02  0.78135318889E+02  0.41800000000E+01 0.  1.
         -5    1    3    3    0  502  0.46308942941E+02 -0.35083533237E+02  0.39645820824E+02  0.70460173215E+02  0.41800000000E+01 0.  1.
        -11    1    4    4    0    0 -0.31721787512E+02 -0.23108888415E+02 -0.41271452274E+02  0.56952833990E+02  0.00000000000E+00 0.  1.
         11    1    4    4    0    0  0.20802122934E+01 -0.13771303876E+02  0.40434796141E+02  0.42766211343E+02  0.00000000000E+00 0. -1.
</event>
<event>
 8    1  0.6850220E-009  0.1170841E+03  0.7561462E-02  0.1247986E+00
          2   -1    0    0  501    0  0.00000000000E+00  0.00000000000E+00  0.62099535164E+03  0.62099535164E+03  0.00000000000E+00 0. -1.
         -2   -1    0    0    0  501 -0.00000000000E+00 -0.00000000000E+00 -0.36290973781E+02  0.36290973781E+02  0.00000000000E+00 0.  1.
         25    2    1    2    0    0 -0.59126749149E+02  0.29180394103E+02  0.13734269505E+03  0.19712297762E+03  0.12508790732E+03 0.  0.
         23    2    1    2    0    0  0.59126749149E+02 -0.29180394103E+02  0.44736168281E+03  0.46016334780E+03  0.85266426835E+02 0.  0.
          5    1    3    3  502    0 -0.73335425014E+02  0.62780467520E+02  0.66407147913E+02  0.11724697590E+03  0.41800000000E+01 0.  1.
         -5    1    3    3    0  502  0.14208675865E+02 -0.33600073417E+02  0.70935547138E+02  0.79876001723E+02  0.41800000000E+01 0.  1.
        -11    1    4    4    0    0 -0.18044654014E+02  0.72090063646E+00  0.33008220503E+02  0.37625415041E+02  0.00000000000E+00 0.  1.
         11    1    4    4    0    0  0.77171403163E+02 -0.29901294739E+02  0.41435346231E+03  0.42253793276E+03  0.00000000000E+00 0. -1.
</event>
<event>
 8    1  0.6850220E-009  0.8603285E+02  0.7561462E-02  0.1312753E+00
         -2   -1    0    0    0  501 -0.00000000000E+00  0.00000000000E+00  0.31243457581E+02  0.31243457581E+02  0.00000000000E+00 0. -1.
          2   -1    0    0  501    0  0.00000000000E+00 -0.00000000000E+00 -0.50856294599E+03  0.50856294599E+03  0.00000000000E+00 0.  1.
         25    2    1    2    0    0 -0.17508057926E+02 -0.47756087584E+02 -0.34996972046E+03  0.37511707250E+03  0.12508731690E+03 0.  0.
         23    2    1    2    0    0  0.17508057926E+02  0.47756087584E+02 -0.12734976795E+03  0.16468933107E+03  0.91199980144E+02 0.  0.
          5    1    3    3  502    0 -0.46422174296E+02 -0.13981293294E+02 -0.31407534265E+03  0.31782273061E+03  0.41800000000E+01 0.  1.
         -5    1    3    3    0  502  0.28914116369E+02 -0.33774794290E+02 -0.35894377806E+02  0.57294341892E+02  0.41800000000E+01 0.  1.
        -11    1    4    4    0    0  0.27065059561E+02  0.58445684008E+02 -0.13415669133E+03  0.14881677747E+03  0.00000000000E+00 0.  1.
         11    1    4    4    0    0 -0.95570016350E+01 -0.10689596424E+02  0.68069233785E+01  0.15872553602E+02  0.00000000000E+00 0. -1.
</event>
<event>
 8    1  0.6850220E-009  0.7455028E+02  0.7561462E-02  0.1345269E+00
         -1   -1    0    0    0  501 -0.00000000000E+00  0.00000000000E+00  0.16728756213E+03  0.16728756213E+03  0.00000000000E+00 0. -1.
          1   -1    0    0  501    0  0.00000000000E+00 -0.00000000000E+00 -0.75141777132E+02  0.75141777132E+02  0.00000000000E+00 0.  1.
         25    2    1    2    0    0 -0.13476960794E+02 -0.13935267790E+02  0.74673922878E+02  0.14693818967E+03  0.12505525445E+03 0.  0.
         23    2    1    2    0    0  0.13476960794E+02  0.13935267790E+02  0.17471862115E+02  0.95491149583E+02  0.91855721228E+02 0.  0.
          5    1    3    3  502    0 -0.53053788072E+02  0.33245334127E+02  0.50888316721E+02  0.80790159356E+02  0.41800000000E+01 0.  1.
         -5    1    3    3    0  502  0.39576827279E+02 -0.47180601917E+02  0.23785606157E+02  0.66148030318E+02  0.41800000000E+01 0.  1.
        -11    1    4    4    0    0  0.61751100671E+00  0.11528787842E+02  0.54765568599E+02  0.55969293125E+02  0.00000000000E+00 0. -1.
         11    1    4    4    0    0  0.12859449787E+02  0.24064799485E+01 -0.37293706484E+02  0.39521856458E+02  0.00000000000E+00 0.  1.
</event>
<event>
 8    1  0.6850220E-009  0.1593722E+03  0.7561462E-02  0.1189407E+00
          1   -1    0    0  501    0  0.00000000000E+00  0.00000000000E+00  0.37197704372E+03  0.37197704372E+03  0.00000000000E+00 0. -1.
         -1   -1    0    0    0  501 -0.00000000000E+00 -0.00000000000E+00 -0.98330888095E+02  0.98330888095E+02  0.00000000000E+00 0.  1.
         25    2    1    2    0    0 -0.64080610619E+02  0.11889614058E+03  0.43783017484E+02  0.18922679154E+03  0.12508880492E+03 0.  0.
         23    2    1    2    0    0  0.64080610619E+02 -0.11889614058E+03  0.22986313814E+03  0.28108114027E+03  0.89033298483E+02 0.  0.
          5    1    3    3  502    0  0.33251733535E+02  0.60684936861E+01  0.15844827700E+02  0.37563750659E+02  0.41800000000E+01 0.  1.
         -5    1    3    3    0  502 -0.97332344154E+02  0.11282764689E+03  0.27938189784E+02  0.15166304088E+03  0.41800000000E+01 0.  1.
        -11    1    4    4    0    0  0.11648024338E+02 -0.32869821473E+02  0.57212949997E+01  0.35338857525E+02  0.00000000000E+00 0.  1.
         11    1    4    4    0    0  0.52432586280E+02 -0.86026319105E+02  0.22414184314E+03  0.24574228275E+03  0.00000000000E+00 0. -1.
</event>
<event>
 8    1  0.6850220E-009  0.8957183E+02  0.7561462E-02  0.1303892E+00
         -3   -1    0    0    0  501 -0.00000000000E+00  0.00000000000E+00  0.21480242670E+03  0.21480242670E+03  0.00000000000E+00 0.  1.
          3   -1    0    0  501    0  0.00000000000E+00 -0.00000000000E+00 -0.88713227366E+02  0.88713227366E+02  0.00000000000E+00 0. -1.
         25    2    1    2    0    0 -0.46708728467E+02  0.51919576533E+02  0.82753836458E+01  0.14350225465E+03  0.12508823835E+03 0.  0.
         23    2    1    2    0    0  0.46708728467E+02 -0.51919576533E+02  0.11781381569E+03  0.16001339942E+03  0.82745665044E+02 0.  0.
          5    1    3    3  502    0 -0.62029330878E+02  0.19914882384E+02 -0.45047957937E+02  0.79316021987E+02  0.41800000000E+01 0.  1.
         -5    1    3    3    0  502  0.15320602411E+02  0.32004694149E+02  0.53323341583E+02  0.64186232662E+02  0.41800000000E+01 0.  1.
        -11    1    4    4    0    0  0.19096887924E+02  0.26025053091E+00 -0.82553043179E+01  0.20806463133E+02  0.00000000000E+00 0. -1.
         11    1    4    4    0    0  0.27611840543E+02 -0.52179827064E+02  0.12606912000E+03  0.13920693628E+03  0.00000000000E+00 0.  1.
</event>
<event>
 8    1  0.6850220E-009  0.1044245E+03  0.7561462E-02  0.1271258E+00
          2   -1    0    0  501    0  0.00000000000E+00  0.00000000000E+00  0.21192214300E+03  0.21192214300E+03  0.00000000000E+00 0. -1.
         -2   -1    0    0    0  501 -0.00000000000E+00 -0.00000000000E+00 -0.58782911275E+02  0.58782911275E+02  0.00000000000E+00 0.  1.
         25    2    1    2    0    0  0.85482320550E+01  0.39864546683E+00  0.11872105034E+03  0.17267111446E+03  0.12508954707E+03 0.  0.
         23    2    1    2    0    0 -0.85482320550E+01 -0.39864546683E+00  0.34418181385E+02  0.98033939813E+02  0.91393713985E+02 0.  0.
          5    1    3    3  502    0  0.57943737996E+00  0.59554817490E+02  0.33256155416E+02  0.68341468429E+02  0.41800000000E+01 0.  1.
         -5    1    3    3    0  502  0.79687946750E+01 -0.59156172023E+02  0.85464894926E+02  0.10432964603E+03  0.41800000000E+01 0.  1.
        -11    1    4    4    0    0 -0.48329819698E+02  0.70314896632E+01  0.74539377672E+01  0.49404195239E+02  0.00000000000E+00 0.  1.
         11    1    4    4    0    0  0.39781587644E+02 -0.74301351301E+01  0.26964243618E+02  0.48629744574E+02  0.00000000000E+00 0. -1.
</event>
<event>
 8    1  0.6850220E-009  0.1328611E+03  0.7561462E-02  0.1223271E+00
         -1   -1    0    0    0  501 -0.00000000000E+00  0.00000000000E+00  0.31979157616E+03  0.31979157616E+03  0.00000000000E+00 0.  1.
          1   -1    0    0  501    0  0.00000000000E+00 -0.00000000000E+00 -0.12949745036E+03  0.12949745036E+03  0.00000000000E+00 0. -1.
         25    2    1    2    0    0 -0.74246085038E+01 -0.11731643009E+03 -0.38908783540E+02  0.17601341189E+03  0.12509419709E+03 0.  0.
         23    2    1    2    0    0  0.74246085038E+01  0.11731643009E+03  0.22920290934E+03  0.27327561463E+03  0.91254141394E+02 0.  0.
          5    1    3    3  502    0 -0.93407475126E+01 -0.12117252876E+03 -0.72709990130E+02  0.14168361357E+03  0.41800000000E+01 0. -1.
         -5    1    3    3    0  502  0.19161390088E+01  0.38560986633E+01  0.33801206590E+02  0.34329798318E+02  0.41800000000E+01 0. -1.
        -11    1    4    4    0    0 -0.18948556036E+02  0.10874868258E+03  0.13138064943E+03  0.17159894750E+03  0.00000000000E+00 0. -1.
         11    1    4    4    0    0  0.26373164540E+02  0.85677475151E+01  0.97822259910E+02  0.10167666713E+03  0.00000000000E+00 0.  1.
</event>
<event>
 8    1  0.6850220E-009  0.3330407E+03  0.7561462E-02  0.1069799E+00
         -2   -1    0    0    0  501 -0.00000000000E+00  0.00000000000E+00  0.10648352144E+03  0.10648352144E+03  0.00000000000E+00 0.  1.
          2   -1    0    0  501    0  0.00000000000E+00 -0.00000000000E+00 -0.14334835923E+04  0.14334835923E+04  0.00000000000E+00 0. -1.
         25    2    1    2    0    0 -0.27391566902E+03 -0.18321750190E+03 -0.10259394317E+04  0.10848029170E+04  0.12508878559E+03 0.  0.
         23    2    1    2    0    0  0.27391566902E+03  0.18321750190E+03 -0.30106063908E+03  0.45516419677E+03  0.89098209165E+02 0.  0.
          5    1    3    3  502    0 -0.25809703742E+03 -0.16891717617E+03 -0.10142539908E+04  0.10601300503E+04  0.41800000000E+01 0. -1.
         -5    1    3    3    0  502 -0.15818631600E+02 -0.14300325728E+02 -0.11685440906E+02  0.24672866692E+02  0.41800000000E+01 0. -1.
        -11    1    4    4    0    0  0.13835173786E+03  0.13118050517E+03 -0.12988032002E+03  0.23069119150E+03  0.00000000000E+00 0. -1.
         11    1    4    4    0    0  0.13556393116E+03  0.52036996723E+02 -0.17118031906E+03  0.22447300526E+03  0.00000000000E+00 0.  1.
</event>
<event>
 8    1  0.6850220E-009  0.2449654E+03  0.7561462E-02  0.1116529E+00
          1   -1    0    0  501    0  0.00000000000E+00  0.00000000000E+00  0.71784441761E+03  0.71784441761E+03  0.00000000000E+00 0. -1.
         -1   -1    0    0    0  501 -0.00000000000E+00 -0.00000000000E+00 -0.11643757924E+03  0.11643757924E+03  0.00000000000E+00 0.  1.
         25    2    1    2    0    0 -0.59107164316E+01 -0.24350431728E+03  0.14726790550E+03  0.31090884229E+03  0.12508870103E+03 0.  0.
         23    2    1    2    0    0  0.59107164316E+01  0.24350431728E+03  0.45413893287E+03  0.52337315456E+03  0.91367387336E+02 0.  0.
          5    1    3    3  502    0 -0.63680040122E+01 -0.13324403902E+02 -0.20814412246E+02  0.25861232987E+02  0.41800000000E+01 0.  1.
         -5    1    3    3    0  502  0.45728758053E+00 -0.23017991338E+03  0.16808231774E+03  0.28504760931E+03  0.41800000000E+01 0.  1.
        -11    1    4    4    0    0  0.11812405619E+02  0.21087492485E+03  0.43849562758E+03  0.48670954610E+03  0.00000000000E+00 0. -1.
         11    1    4    4    0    0 -0.59016891875E+01  0.32629392425E+02  0.15643305292E+02  0.36663608466E+02  0.00000000000E+00 0.  1.
</event>
<event>
 8    1  0.6850220E-009  0.1041793E+03  0.7561462E-02  0.1271745E+00
          2   -1    0    0  501    0  0.00000000000E+00  0.00000000000E+00  0.15390192308E+02  0.15390192308E+02  0.00000000000E+00 0. -1.
         -2   -1    0    0    0  501 -0.00000000000E+00 -0.00000000000E+00 -0.10993718175E+04  0.10993718175E+04  0.00000000000E+00 0.  1.
         25    2    1    2    0    0 -0.22635069920E+02 -0.13315950478E+02 -0.88840836303E+03  0.89755591065E+03  0.12509009681E+03 0.  0.
         23    2    1    2    0    0  0.22635069920E+02  0.13315950478E+02 -0.19557326221E+03  0.21720609920E+03  0.90774047569E+02 0.  0.
          5    1    3    3  502    0  0.34639925638E+02 -0.37809612431E+02 -0.20717514167E+03  0.21346780312E+03  0.41800000000E+01 0.  1.
         -5    1    3    3    0  502 -0.57274995558E+02  0.24493661952E+02 -0.68123322136E+03  0.68408810754E+03  0.41800000000E+01 0.  1.
        -11    1    4    4    0    0  0.32741933424E+02 -0.33346123764E+02 -0.98926853317E+02  0.10940987378E+03  0.00000000000E+00 0.  1.
         11    1    4    4    0    0 -0.10106863504E+02  0.46662074242E+02 -0.96646408891E+02  0.10779622542E+03  0.00000000000E+00 0. -1.
</event>
<event>
 8    1  0.6850220E-009  0.1484776E+03  0.7561462E-02  0.1202356E+00
         -2   -1    0    0    0  501 -0.00000000000E+00  0.00000000000E+00  0.31984518313E+02  0.31984518313E+02  0.00000000000E+00 0.  1.
          2   -1    0    0  501    0  0.00000000000E+00 -0.00000000000E+00 -0.71079927375E+03  0.71079927375E+03  0.00000000000E+00 0. -1.
         25    2    1    2    0    0  0.75560221802E+02  0.68306690783E+02 -0.42159690669E+03  0.45140586392E+03  0.12509257023E+03 0.  0.
         23    2    1    2    0    0 -0.75560221802E+02 -0.68306690783E+02 -0.25721784874E+03  0.29137792814E+03  0.91459959379E+02 0.  0.
          5    1    3    3  502    0 -0.29589832144E+02  0.43930704193E+02 -0.12950381045E+03  0.13997919223E+03  0.41800000000E+01 0. -1.
         -5    1    3    3    0  502  0.10515005395E+03  0.24375986590E+02 -0.29209309624E+03  0.31142667169E+03  0.41800000000E+01 0. -1.
        -11    1    4    4    0    0 -0.58953408621E+02 -0.90547391133E+02 -0.18858001141E+03  0.21734018296E+03  0.00000000000E+00 0. -1.
         11    1    4    4    0    0 -0.16606813181E+02  0.22240700350E+02 -0.68637837337E+02  0.74037745174E+02  0.00000000000E+00 0.  1.
</event>
<event>
 8    1  0.6850220E-009  0.9697152E+02  0.7561462E-02  0.1286796E+00
         -2   -1    0    0    0  501 -0.00000000000E+00  0.00000000000E+00  0.22182546881E+03  0.22182546881E+03  0.00000000000E+00 0.  1.
          2   -1    0    0  501    0  0.00000000000E+00 -0.00000000000E+00 -0.81867138269E+02  0.81867138269E+02  0.00000000000E+00 0. -1.
         25    2    1    2    0    0  0.10269994443E+02  0.74993752857E+02  0.10432562688E+03  0.17960925215E+03  0.12508441662E+03 0.  0.
         23    2    1    2    0    0 -0.10269994443E+02 -0.74993752857E+02  0.35632703667E+02  0.12408335494E+03  0.91637621357E+02 0.  0.
          5    1    3    3  502    0  0.44995044840E+02  0.15517271063E+02 -0.73469718549E+01  0.48340357434E+02  0.41800000000E+01 0. -1.
         -5    1    3    3    0  502 -0.34725050397E+02  0.59476481794E+02  0.11167259873E+03  0.13126889471E+03  0.41800000000E+01 0. -1.
        -11    1    4    4    0    0  0.48610414478E+00 -0.49419977097E+02  0.66322727082E+02  0.82711997685E+02  0.00000000000E+00 0.  1.
         11    1    4    4    0    0 -0.10756098588E+02 -0.25573775760E+02 -0.30690023415E+02  0.41371357250E+02  0.00000000000E+00 0. -1.
</event>
<event>
 8    1  0.6850220E-009  0.1330193E+03  0.7561462E-02  0.1223043E+00
         -1   -1    0    0    0  501 -0.00000000000E+00  0.00000000000E+00  0.43925207767E+02  0.43925207767E+02  0.00000000000E+00 0.  1.
          1   -1    0    0  501    0  0.00000000000E+00 -0.00000000000E+00 -0.63895864702E+03  0.63895864702E+03  0.00000000000E+00 0. -1.
         25    2    1    2    0    0 -0.10642218445E+02  0.98688973118E+02 -0.48427835420E+03  0.50992778580E+03  0.12509217465E+03 0.  0.
         23    2    1    2    0    0  0.10642218445E+02 -0.98688973118E+02 -0.11075508505E+03  0.17295606898E+03  0.88285574726E+02 0.  0.
          5    1    3    3  502    0 -0.38196952634E+02  0.10390213886E+03 -0.24385548103E+03  0.26783881287E+03  0.41800000000E+01 0. -1.
         -5    1    3    3    0  502  0.27554734189E+02 -0.52131657391E+01 -0.24042287317E+03  0.24208897294E+03  0.41800000000E+01 0. -1.
        -11    1    4    4    0    0 -0.20482853772E+02  0.28710038524E+01 -0.17538827257E+01  0.20757313564E+02  0.00000000000E+00 0.  1.
         11    1    4    4    0    0  0.31125072217E+02 -0.10155997697E+03 -0.10900120233E+03  0.15219875542E+03  0.00000000000E+00 0. -1.
</event>
<event>
 8    1  0.6850220E-009  0.1576890E+03  0.7561462E-02  0.1191331E+00
         -2   -1    0    0    0  501 -0.00000000000E+00  0.00000000000E+00  0.89377744798E+02  0.89377744798E+02  0.00000000000E+00 0.  1.
          2   -1    0    0  501    0  0.00000000000E+00 -0.00000000000E+00 -0.31781490418E+03  0.31781490418E+03  0.00000000000E+00 0. -1.
         25    2    1    2    0    0 -0.80016784962E+02  0.86755243836E+02 -0.18204069867E+03  0.25042839104E+03  0.12508559014E+03 0.  0.
         23    2    1    2    0    0  0.80016784962E+02 -0.86755243836E+02 -0.46396460719E+02  0.15676425794E+03  0.92158791181E+02 0.  0.
          5    1    3    3  502    0  0.21331374312E+02 -0.15721473867E+02 -0.19593741258E+02  0.33220165067E+02  0.41800000000E+01 0. -1.
         -5    1    3    3    0  502 -0.10134815927E+03  0.10247671770E+03 -0.16244695741E+03  0.21720822597E+03  0.41800000000E+01 0. -1.
        -11    1    4    4    0    0  0.82529630161E+02 -0.30398804554E+02 -0.48260570466E+02  0.10032103386E+03  0.00000000000E+00 0.  1.
         11    1    4    4    0    0 -0.25128451997E+01 -0.56356439282E+02  0.18641097474E+01  0.56443224082E+02  0.00000000000E+00 0. -1.
</event>
<event>
 8    1  0.6850220E-009  0.1154040E+03  0.7561462E-02  0.1250878E+00
         -2   -1    0    0    0  501 -0.00000000000E+00  0.00000000000E+00  0.42706372850E+02  0.42706372850E+02  0.00000000000E+00 0.  1.
          2   -1    0    0  501    0  0.00000000000E+00 -0.00000000000E+00 -0.49648758905E+03  0.49648758905E+03  0.00000000000E+00 0. -1.
         25    2    1    2    0    0  0.47892291995E+02  0.45510946574E+02 -0.37712658250E+03  0.40278698296E+03  0.12509187233E+03 0.  0.
         23    2    1    2    0    0 -0.47892291995E+02 -0.45510946574E+02 -0.76654633694E+02  0.13640697894E+03  0.91465912476E+02 0.  0.
          5    1    3    3  502    0  0.70686167105E+02 -0.93642325539E+00 -0.30970693797E+03  0.31769997000E+03  0.41800000000E+01 0.  1.
         -5    1    3    3    0  502 -0.22793875109E+02  0.46447369830E+02 -0.67419644534E+02  0.85087012967E+02  0.41800000000E+01 0.  1.
        -11    1    4    4    0    0 -0.62589708240E+02 -0.60529806406E+02 -0.75691220150E+02  0.11537109625E+03  0.00000000000E+00 0.  1.
         11    1    4    4    0    0  0.14697416244E+02  0.15018859832E+02 -0.96341354390E+00  0.21035882690E+02  0.00000000000E+00 0. -1.
</event>
<event>
 8    1  0.6850220E-009  0.9920558E+02  0.7561462E-02  0.1281975E+00
         -1   -1    0    0    0  501 -0.00000000000E+00  0.00000000000E+00  0.17256865871E+03  0.17256865871E+03  0.00000000000E+00 0.  1.
          1   -1    0    0  501    0  0.00000000000E+00 -0.00000000000E+00 -0.80335344621E+02  0.80335344621E+02  0.00000000000E+00 0. -1.
         25    2    1    2    0    0  0.17825765527E+02 -0.18901932382E+02  0.97221819174E+02  0.16054639387E+03  0.12509205209E+03 0.  0.
         23    2    1    2    0    0 -0.17825765527E+02  0.18901932382E+02 -0.49885050824E+01  0.92357609463E+02  0.88487297836E+02 0.  0.
          5    1    3    3  502    0 -0.16388059489E+02 -0.65582401314E+02  0.38113368426E+02  0.77715642625E+02  0.41800000000E+01 0. -1.
         -5    1    3    3    0  502  0.34213825016E+02  0.46680468932E+02  0.59108450749E+02  0.82830751245E+02  0.41800000000E+01 0. -1.
        -11    1    4    4    0    0  0.23578990254E+02 -0.60124508491E+01  0.25478858391E+02  0.35231953842E+02  0.00000000000E+00 0.  1.
         11    1    4    4    0    0 -0.41404755782E+02  0.24914383231E+02 -0.30467363473E+02  0.57125655621E+02  0.00000000000E+00 0. -1.
</event>
<event>
 8    1  0.6850220E-009  0.2881945E+03  0.7561462E-02  0.1091296E+00
          1   -1    0    0  501    0  0.00000000000E+00  0.00000000000E+00  0.12398808797E+04  0.12398808797E+04  0.00000000000E+00 0. -1.
         -1   -1    0    0    0  501 -0.00000000000E+00 -0.00000000000E+00 -0.91320246519E+02  0.91320246519E+02  0.00000000000E+00 0.  1.
         25    2    1    2    0    0  0.21180096531E+03  0.17150676215E+03  0.25823795007E+03  0.39573831404E+03  0.12509099076E+03 0.  0.
         23    2    1    2    0    0 -0.21180096531E+03 -0.17150676215E+03  0.89032268314E+03  0.93546281222E+03  0.90232890623E+02 0.  0.
          5    1    3    3  502    0  0.17117654215E+03  0.18784794837E+03  0.23414216507E+03  0.34558397844E+03  0.41800000000E+01 0.  1.
         -5    1    3    3    0  502  0.40624423160E+02 -0.16341186221E+02  0.24095784999E+02  0.50154335595E+02  0.41800000000E+01 0.  1.
        -11    1    4    4    0    0 -0.18936455957E+03 -0.17195020067E+03  0.86298701118E+03  0.90009576679E+03  0.00000000000E+00 0. -1.
         11    1    4    4    0    0 -0.22436405745E+02  0.44343851457E+00  0.27335671962E+02  0.35367045425E+02  0.00000000000E+00 0.  1.
</event>
<event>
 8    1  0.6850220E-009  0.1646094E+03  0.7561462E-02  0.1183589E+00
         -1   -1    0    0    0  501 -0.00000000000E+00  0.00000000000E+00  0.34276803357E+02  0.34276803357E+02  0.00000000000E+00 0.  1.
          1   -1    0    0  501    0  0.00000000000E+00 -0.00000000000E+00 -0.95998966384E+03  0.95998966384E+03  0.00000000000E+00 0. -1.
         25    2    1    2    0    0 -0.88480204936E+02 -0.10745761298E+03 -0.37657370809E+03  0.42051253405E+03  0.12508856226E+03 0.  0.
         23    2    1    2    0    0  0.88480204936E+02  0.10745761298E+03 -0.54913915239E+03  0.57375393315E+03  0.90905895652E+02 0.  0.
          5    1    3    3  502    0 -0.73946268459E+02 -0.12946837466E+03 -0.35843113286E+03  0.38822733039E+03  0.41800000000E+01 0. -1.
         -5    1    3    3    0  502 -0.14533936477E+02  0.22010761678E+02 -0.18142575233E+02  0.32285203658E+02  0.41800000000E+01 0. -1.
        -11    1    4    4    0    0  0.40760824527E+02  0.59506379624E+01 -0.66273938714E+02  0.78032620493E+02  0.00000000000E+00 0.  1.
         11    1    4    4    0    0  0.47719380408E+02  0.10150697502E+03 -0.48286521368E+03  0.49572131266E+03  0.00000000000E+00 0. -1.
</event>
<event>
 8    1  0.6850220E-009  0.1696153E+03  0.7561462E-02  0.1178250E+00
          2   -1    0    0  501    0  0.00000000000E+00  0.00000000000E+00  0.13987470988E+04  0.13987470988E+04  0.00000000000E+00 0. -1.
         -2   -1    0    0    0  501 -0.00000000000E+00 -0.00000000000E+00 -0.26494336578E+02  0.26494336578E+02  0.00000000000E+00 0.  1.
         25    2    1    2    0    0 -0.68813857269E+02  0.12436231837E+03  0.98061559492E+03  0.99872701591E+03  0.12508946449E+03 0.  0.
         23    2    1    2    0    0  0.68813857269E+02 -0.12436231837E+03  0.39163716733E+03  0.42651441949E+03  0.91288257841E+02 0.  0.
          5    1    3    3  502    0 -0.10203045544E+03  0.11637543708E+03  0.78981883186E+03  0.80485074129E+03  0.41800000000E+01 0.  1.
         -5    1    3    3    0  502  0.33216598173E+02  0.79868812897E+01  0.19079676306E+03  0.19387627462E+03  0.41800000000E+01 0.  1.
        -11    1    4    4    0    0  0.66095754284E+02 -0.72704901895E+02  0.14940009484E+03  0.17881565880E+03  0.00000000000E+00 0.  1.
         11    1    4    4    0    0  0.27181029856E+01 -0.51657416475E+02  0.24223707249E+03  0.24769876070E+03  0.00000000000E+00 0. -1.
</event>
<event>
 8    1  0.6850220E-009  0.1189175E+03  0.7561462E-02  0.1244894E+00
         -2   -1    0    0    0  501 -0.00000000000E+00  0.00000000000E+00  0.12560867406E+02  0.12560867406E+02  0.00000000000E+00 0.  1.
          2   -1    0    0  501    0  0.00000000000E+00 -0.00000000000E+00 -0.13332075886E+04  0.13332075886E+04  0.00000000000E+00 0. -1.
         25    2    1    2    0    0 -0.64836080759E+02  0.93121956107E+01 -0.79222601225E+03  0.80471103377E+03  0.12508940414E+03 0.  0.
         23    2    1    2    0    0  0.64836080759E+02 -0.93121956107E+01 -0.52842070892E+03  0.54105742221E+03  0.96042980807E+02 0.  0.
          5    1    3    3  502    0 -0.93188813349E+02  0.68182304185E+01 -0.37477124282E+03  0.38626622949E+03  0.41800000000E+01 0. -1.
         -5    1    3    3    0  502  0.28352732591E+02  0.24939651922E+01 -0.41745476943E+03  0.41844480428E+03  0.41800000000E+01 0. -1.
        -11    1    4    4    0    0 -0.24428167663E+02 -0.96663443338E+01 -0.14713160534E+03  0.14945863266E+03  0.00000000000E+00 0.  1.
         11    1    4    4    0    0  0.89264248422E+02  0.35414872310E+00 -0.38128910358E+03  0.39159878955E+03  0.00000000000E+00 0. -1.
</event>
<event>
 8    1  0.6850220E-009  0.8863152E+02  0.7561462E-02  0.1306200E+00
         -2   -1    0    0    0  501 -0.00000000000E+00  0.00000000000E+00  0.76009873760E+02  0.76009873760E+02  0.00000000000E+00 0.  1.
          2   -1    0    0  501    0  0.00000000000E+00 -0.00000000000E+00 -0.15248281015E+03  0.15248281015E+03  0.00000000000E+00 0. -1.
         25    2    1    2    0    0 -0.96900078856E+01  0.35944915892E+01 -0.53402815334E+02  0.13640548349E+03  0.12509108129E+03 0.  0.
         23    2    1    2    0    0  0.96900078856E+01 -0.35944915892E+01 -0.23070121060E+02  0.92087200427E+02  0.88549451574E+02 0.  0.
          5    1    3    3  502    0  0.44556661925E+02 -0.36647460987E+02 -0.24966470550E+02  0.63001028328E+02  0.41800000000E+01 0. -1.
         -5    1    3    3    0  502 -0.54246669810E+02  0.40241952576E+02 -0.28436344785E+02  0.73404455160E+02  0.41800000000E+01 0. -1.
        -11    1    4    4    0    0 -0.20474005097E+02  0.34731357325E+01 -0.48014123278E+02  0.52312556721E+02  0.00000000000E+00 0. -1.
         11    1    4    4    0    0  0.30164012983E+02 -0.70676273217E+01  0.24944002219E+02  0.39774643705E+02  0.00000000000E+00 0.  1.
</event>
<event>
 8    1  0.6850220E-009  0.2278076E+03  0.7561462E-02  0.1128192E+00
         -2   -1    0    0    0  501 -0.00000000000E+00  0.00000000000E+00  0.85251043598E+02  0.85251043598E+02  0.00000000000E+00 0.  1.
          2   -1    0    0  501    0  0.00000000000E+00 -0.00000000000E+00 -0.73028779358E+03  0.73028779358E+03  0.00000000000E+00 0. -1.
         25    2    1    2    0    0 -0.13218558978E+03 -0.18129775687E+03 -0.33299124087E+03  0.42055934559E+03  0.12508033368E+03 0.  0.
         23    2    1    2    0    0  0.13218558978E+03  0.18129775687E+03 -0.31204550912E+03  0.39497949159E+03  0.91074102951E+02 0.  0.
          5    1    3    3  502    0 -0.10838570241E+03 -0.14620292255E+03 -0.33117478715E+03  0.37791132173E+03  0.41800000000E+01 0.  1.
         -5    1    3    3    0  502 -0.23799887363E+02 -0.35094834324E+02 -0.18164537188E+01  0.42648023856E+02  0.41800000000E+01 0.  1.
        -11    1    4    4    0    0  0.91606253105E+02  0.79205403491E+02 -0.10365692860E+03  0.15940501999E+03  0.00000000000E+00 0.  1.
         11    1    4    4    0    0  0.40579336670E+02  0.10209235338E+03 -0.20838858051E+03  0.23557447160E+03  0.00000000000E+00 0. -1.
</event>
<event>
 8    1  0.6850220E-009  0.1715813E+03  0.7561462E-02  0.1176209E+00
         -1   -1    0    0    0  501 -0.00000000000E+00  0.00000000000E+00  0.70954088016E+02  0.70954088016E+02  0.00000000000E+00 0.  1.
          1   -1    0    0  501    0  0.00000000000E+00 -0.00000000000E+00 -0.65454883333E+03  0.65454883333E+03  0.00000000000E+00 0. -1.
         25    2    1    2    0    0  0.94012356157E+02  0.95955895215E+02 -0.52181417421E+03  0.55315968491E+03  0.12509895152E+03 0.  0.
         23    2    1    2    0    0 -0.94012356157E+02 -0.95955895215E+02 -0.61780571104E+02  0.17234323643E+03  0.88540924103E+02 0.  0.
          5    1    3    3  502    0 -0.19051253467E+02 -0.14778412039E+02 -0.88910425422E+02  0.92216527097E+02  0.41800000000E+01 0. -1.
         -5    1    3    3    0  502  0.11306360962E+03  0.11073430725E+03 -0.43290374879E+03  0.46094315782E+03  0.41800000000E+01 0. -1.
        -11    1    4    4    0    0 -0.21809375891E+01 -0.62659658722E+02 -0.17501176229E+02  0.65094396758E+02  0.00000000000E+00 0. -1.
         11    1    4    4    0    0 -0.91831418568E+02 -0.33296236493E+02 -0.44279394875E+02  0.10724883967E+03  0.00000000000E+00 0.  1.
</event>
<event>
 8    1  0.6850220E-009  0.9967292E+02  0.7561462E-02  0.1280985E+00
          2   -1    0    0  501    0  0.00000000000E+00  0.00000000000E+00  0.20251555970E+04  0.20251555970E+04  0.00000000000E+00 0.  1.
         -2   -1    0    0    0  501 -0.00000000000E+00 -0.00000000000E+00 -0.67559710090E+01  0.67559710090E+01  0.00000000000E+00 0. -1.
         25    2    1    2    0    0 -0.51766555669E+01 -0.35242170463E+01  0.15423346820E+04  0.15474115497E+04  0.12508802944E+03 0.  0.
         23    2    1    2    0    0  0.51766555669E+01  0.35242170463E+01  0.47606494400E+03  0.48450001827E+03  0.89795428247E+02 0.  0.
          5    1    3    3  502    0  0.48397007457E+02  0.17781943431E+02  0.36372190682E+03  0.36738204330E+03  0.41800000000E+01 0.  1.
         -5    1    3    3    0  502 -0.53573663024E+02 -0.21306160477E+02  0.11786127752E+04  0.11800295064E+04  0.41800000000E+01 0.  1.
        -11    1    4    4    0    0 -0.42282129155E+02  0.16287017616E+01  0.20810676941E+03  0.21236491845E+03  0.00000000000E+00 0. -1.
         11    1    4    4    0    0  0.47458784722E+02  0.18955152848E+01  0.26795817459E+03  0.27213509982E+03  0.00000000000E+00 0.  1.
</event>
<event>
 8    1  0.6850220E-009  0.1497789E+03  0.7561462E-02  0.1200745E+00
          1   -1    0    0  501    0  0.00000000000E+00  0.00000000000E+00  0.93380870764E+03  0.93380870764E+03  0.00000000000E+00 0. -1.
         -1   -1    0    0    0  501 -0.00000000000E+00 -0.00000000000E+00 -0.39809612561E+02  0.39809612561E+02  0.00000000000E+00 0.  1.
         25    2    1    2    0    0 -0.13591947765E+03  0.43937529322E+02  0.64604554927E+03  0.67336973721E+03  0.12508932959E+03 0.  0.
         23    2    1    2    0    0  0.13591947765E+03 -0.43937529322E+02  0.24795354581E+03  0.30024858298E+03  0.90904564337E+02 0.  0.
          5    1    3    3  502    0 -0.95777224624E+02  0.14451477355E+02  0.17824128107E+03  0.20290280588E+03  0.41800000000E+01 0. -1.
         -5    1    3    3    0  502 -0.40142253028E+02  0.29486051968E+02  0.46780426819E+03  0.47046693133E+03  0.41800000000E+01 0. -1.
        -11    1    4    4    0    0  0.28413405397E+02 -0.34514004157E+02  0.21954238422E+02  0.49804886044E+02  0.00000000000E+00 0.  1.
         11    1    4    4    0    0  0.10750607226E+03 -0.94235251656E+01  0.22599930739E+03  0.25044369694E+03  0.00000000000E+00 0. -1.
</event>
<event>
 8    1  0.6850220E-009  0.9463471E+02  0.7561462E-02  0.1292001E+00
          2   -1    0    0  501    0  0.00000000000E+00  0.00000000000E+00  0.24697803453E+03  0.24697803453E+03  0.00000000000E+00 0. -1.
         -2   -1    0    0    0  501 -0.00000000000E+00 -0.00000000000E+00 -0.59763981248E+02  0.59763981248E+02  0.00000000000E+00 0.  1.
         25    2    1    2    0    0  0.96482874327E+01  0.44594318468E+02  0.50402588045E+02  0.14237243173E+03  0.12509094990E+03 0.  0.
         23    2    1    2    0    0 -0.96482874327E+01 -0.44594318468E+02  0.13681146524E+03  0.16436958405E+03  0.78855820640E+02 0.  0.
          5    1    3    3  502    0 -0.10353687723E+02  0.67215241490E+02 -0.15397193141E+02  0.69854373482E+02  0.41800000000E+01 0. -1.
         -5    1    3    3    0  502  0.20001975156E+02 -0.22620923022E+02  0.65799781185E+02  0.72518058251E+02  0.41800000000E+01 0. -1.
        -11    1    4    4    0    0 -0.41700033878E+02 -0.40858319931E+02  0.95772342861E+02  0.11216343785E+03  0.00000000000E+00 0.  1.
         11    1    4    4    0    0  0.32051746445E+02 -0.37359985369E+01  0.41039122380E+02  0.52206146200E+02  0.00000000000E+00 0. -1.
</event>
<event>
 8    1  0.6850220E-009  0.7506742E+02  0.7561462E-02  0.1343662E+00
          1   -1    0    0  501    0  0.00000000000E+00  0.00000000000E+00  0.51248590613E+03  0.51248590613E+03  0.00000000000E+00 0. -1.
         -1   -1    0    0    0  501 -0.00000000000E+00 -0.00000000000E+00 -0.22735133860E+02  0.22735133860E+02  0.00000000000E+00 0.  1.
         25    2    1    2    0    0  0.35675737638E+01 -0.13573485953E+01  0.28125023703E+03  0.30783790216E+03  0.12509159925E+03 0.  0.
         23    2    1    2    0    0 -0.35675737638E+01  0.13573485953E+01  0.20850053524E+03  0.22738313783E+03  0.90642419392E+02 0.  0.
          5    1    3    3  502    0  0.43033288027E+02 -0.58096476762E+01  0.25792789465E+03  0.26159106850E+03  0.41800000000E+01 0.  1.
         -5    1    3    3    0  502 -0.39465714263E+02  0.44522990809E+01  0.23322342380E+02  0.46246833659E+02  0.41800000000E+01 0.  1.
        -11    1    4    4    0    0 -0.35063431785E+02  0.46406974836E+00  0.30075426807E+02  0.46197304108E+02  0.00000000000E+00 0.  1.
         11    1    4    4    0    0  0.31495858021E+02  0.89327884690E+00  0.17842510844E+03  0.18118583372E+03  0.00000000000E+00 0. -1.
</event>
<event>
 8    1  0.6850220E-009  0.1452377E+03  0.7561462E-02  0.1206450E+00
         -1   -1    0    0    0  501 -0.00000000000E+00  0.00000000000E+00  0.36785209269E+03  0.36785209269E+03  0.00000000000E+00 0.  1.
          1   -1    0    0  501    0  0.00000000000E+00 -0.00000000000E+00 -0.84009495065E+02  0.84009495065E+02  0.00000000000E+00 0. -1.
         25    2    1    2    0    0 -0.91546414050E+02  0.95953781018E+02  0.10465468010E+03  0.21017615309E+03  0.12503415230E+03 0.  0.
         23    2    1    2    0    0  0.91546414050E+02 -0.95953781018E+02  0.17918791753E+03  0.24168543467E+03  0.93357728799E+02 0.  0.
          5    1    3    3  502    0 -0.36936229872E+02  0.89017814613E+02  0.54212597912E+01  0.96619453803E+02  0.41800000000E+01 0. -1.
         -5    1    3    3    0  502 -0.54610184178E+02  0.69359664060E+01  0.99233420309E+02  0.11355669928E+03  0.41800000000E+01 0. -1.
        -11    1    4    4    0    0  0.61424594594E+01 -0.30733679347E+02 -0.15886129539E+01  0.31381723113E+02  0.00000000000E+00 0. -1.
         11    1    4    4    0    0  0.85403954591E+02 -0.65220101672E+02  0.18077653048E+03  0.21030371156E+03  0.00000000000E+00 0.  1.
</event>
<event>
 8    1  0.6850220E-009  0.1208119E+03  0.7561462E-02  0.1241764E+00
          2   -1    0    0  501    0  0.00000000000E+00  0.00000000000E+00  0.24199527976E+02  0.24199527976E+02  0.00000000000E+00 0. -1.
         -2   -1    0    0    0  501 -0.00000000000E+00 -0.00000000000E+00 -0.72699473870E+03  0.72699473870E+03  0.00000000000E+00 0.  1.
         25    2    1    2    0    0  0.52839726859E+02 -0.41531923028E+02 -0.51457074258E+03  0.53380322687E+03  0.12508356620E+03 0.  0.
         23    2    1    2    0    0 -0.52839726859E+02  0.41531923028E+02 -0.18822446814E+03  0.21739103981E+03  0.85518865843E+02 0.  0.
          5    1    3    3  502    0 -0.30456079423E+02  0.21320737514E+02 -0.12509277170E+03  0.13056730277E+03  0.41800000000E+01 0. -1.
         -5    1    3    3    0  502  0.83295806282E+02 -0.62852660541E+02 -0.38947797088E+03  0.40323592409E+03  0.41800000000E+01 0. -1.
        -11    1    4    4    0    0  0.10922883405E+02  0.33834972044E+02 -0.29618986185E+02  0.46275253190E+02  0.00000000000E+00 0.  1.
         11    1    4    4    0    0 -0.63762610264E+02  0.76969509835E+01 -0.15860548196E+03  0.17111578662E+03  0.00000000000E+00 0. -1.
</event>
<event>
 8    1  0.6850220E-009  0.1341491E+03  0.7561462E-02  0.1221426E+00
          1   -1    0    0  501    0  0.00000000000E+00  0.00000000000E+00  0.78672112578E+02  0.78672112578E+02  0.00000000000E+00 0. -1.
         -1   -1    0    0    0  501 -0.00000000000E+00 -0.00000000000E+00 -0.34541335938E+03  0.34541335938E+03  0.00000000000E+00 0.  1.
         25    2    1    2    0    0 -0.65455727259E+02  0.99590568772E+02 -0.17463629372E+03  0.24565735880E+03  0.12508784606E+03 0.  0.
         23    2    1    2    0    0  0.65455727259E+02 -0.99590568772E+02 -0.92104953084E+02  0.17842811316E+03  0.95658431739E+02 0.  0.
          5    1    3    3  502    0 -0.99360783423E+01  0.92042305621E+02 -0.16414785119E+03  0.18850066611E+03  0.41800000000E+01 0.  1.
         -5    1    3    3    0  502 -0.55519648916E+02  0.75482631509E+01 -0.10488442534E+02  0.57156692689E+02  0.41800000000E+01 0.  1.
        -11    1    4    4    0    0  0.27508746580E+02 -0.49086603542E+02 -0.10002120130E+03  0.11476265288E+03  0.00000000000E+00 0. -1.
         11    1    4    4    0    0  0.37946980679E+02 -0.50503965230E+02  0.79162482185E+01  0.63665460278E+02  0.00000000000E+00 0.  1.
</event>
<event>
 8    1  0.6850220E-009  0.1612999E+03  0.7561462E-02  0.1187237E+00
         -1   -1    0    0    0  501 -0.00000000000E+00  0.00000000000E+00  0.23762582409E+02  0.23762582409E+02  0.00000000000E+00 0. -1.
          1   -1    0    0  501    0  0.00000000000E+00 -0.00000000000E+00 -0.11723561988E+04  0.11723561988E+04  0.00000000000E+00 0.  1.
         25    2    1    2    0    0 -0.10315326119E+03 -0.76306979313E+02 -0.58798461308E+03  0.61468541122E+03  0.12509556012E+03 0.  0.
         23    2    1    2    0    0  0.10315326119E+03  0.76306979313E+02 -0.56060900328E+03  0.58143336996E+03  0.85550913244E+02 0.  0.
          5    1    3    3  502    0 -0.84458862603E+02 -0.10484570001E+03 -0.53368993218E+03  0.55042559569E+03  0.41800000000E+01 0. -1.
         -5    1    3    3    0  502 -0.18694398590E+02  0.28538720697E+02 -0.54294680903E+02  0.64259815531E+02  0.41800000000E+01 0. -1.
        -11    1    4    4    0    0  0.26547759532E+02 -0.17967202872E+02 -0.14078952922E+03  0.14439285111E+03  0.00000000000E+00 0. -1.
         11    1    4    4    0    0  0.76605501661E+02  0.94274182185E+02 -0.41981947406E+03  0.43704051884E+03  0.00000000000E+00 0.  1.
</event>
<event>
 8    1  0.6850220E-009  0.9319733E+02  0.7561462E-02  0.1295289E+00
         -1   -1    0    0    0  501 -0.00000000000E+00  0.00000000000E+00  0.34030761582E+03  0.34030761582E+03  0.00000000000E+00 0.  1.
          1   -1    0    0  501    0  0.00000000000E+00 -0.00000000000E+00 -0.54027339637E+02  0.54027339637E+02  0.00000000000E+00 0. -1.
         25    2    1    2    0    0 -0.21712450671E+01  0.80903051419E+02  0.14596781185E+03  0.20857559007E+03  0.12508859517E+03 0.  0.
         23    2    1    2    0    0  0.21712450671E+01 -0.80903051419E+02  0.14031246433E+03  0.18575936539E+03  0.90933690949E+02 0.  0.
          5    1    3    3  502    0 -0.14211115865E+02  0.28901393361E+02  0.15132208209E+03  0.15476786256E+03  0.41800000000E+01 0.  1.
         -5    1    3    3    0  502  0.12039870798E+02  0.52001658058E+02 -0.53542702410E+01  0.53807727507E+02  0.41800000000E+01 0.  1.
        -11    1    4    4    0    0  0.25974504085E+02 -0.69075598719E+02  0.14102824236E+03  0.15916996684E+03  0.00000000000E+00 0.  1.
         11    1    4    4    0    0 -0.23803259018E+02 -0.11827452700E+02 -0.71577802536E+00  0.26589398554E+02  0.00000000000E+00 0. -1.
</event>
<event>
 8    1  0.6850220E-009  0.9862663E+02  0.7561462E-02  0.1283211E+00
         -1   -1    0    0    0  501 -0.00000000000E+00  0.00000000000E+00  0.12231182380E+03  0.12231182380E+03  0.00000000000E+00 0.  1.
          1   -1    0    0  501    0  0.00000000000E+00 -0.00000000000E+00 -0.96983191243E+02  0.96983191243E+02  0.00000000000E+00 0. -1.
         25    2    1    2    0    0  0.56455170081E+01  0.67429440102E+01  0.75618709447E+01  0.12562902105E+03  0.12509248531E+03 0.  0.
         23    2    1    2    0    0 -0.56455170081E+01 -0.67429440102E+01  0.17766761614E+02  0.93665993997E+02  0.91544095697E+02 0.  0.
          5    1    3    3  502    0 -0.17499948287E+02  0.60964119637E+02 -0.91263281512E+01  0.64215530355E+02  0.41800000000E+01 0. -1.
         -5    1    3    3    0  502  0.23145465295E+02 -0.54221175627E+02  0.16688199096E+02  0.61413490694E+02  0.41800000000E+01 0. -1.
        -11    1    4    4    0    0 -0.34616329276E+02  0.15631434272E+02  0.36385628625E+02  0.52597965364E+02  0.00000000000E+00 0.  1.
         11    1    4    4    0    0  0.28970812268E+02 -0.22374378282E+02 -0.18618867011E+02  0.41068028633E+02  0.00000000000E+00 0. -1.
</event>
<event>
 8    1  0.6850220E-009  0.8256960E+02  0.7561462E-02  0.1321913E+00
          1   -1    0    0  501    0  0.00000000000E+00  0.00000000000E+00  0.18022789969E+03  0.18022789969E+03  0.00000000000E+00 0. -1.
         -1   -1    0    0    0  501 -0.00000000000E+00 -0.00000000000E+00 -0.95957863998E+02  0.95957863998E+02  0.00000000000E+00 0.  1.
         25    2    1    2    0    0 -0.40167410316E+02 -0.63898498738E+02  0.46731040382E+02  0.15338729721E+03  0.12508970309E+03 0.  0.
         23    2    1    2    0    0  0.40167410316E+02  0.63898498738E+02  0.37538995307E+02  0.12279846647E+03  0.89296406463E+02 0.  0.
          5    1    3    3  502    0  0.71393605098E+01  0.18317946238E+01 -0.36330193130E+02  0.37305244576E+02  0.41800000000E+01 0. -1.
         -5    1    3    3    0  502 -0.47306770826E+02 -0.65730293362E+02  0.83061233513E+02  0.11608205264E+03  0.41800000000E+01 0. -1.
        -11    1    4    4    0    0  0.16398373517E+02  0.29706005952E+02 -0.28777508851E+02  0.44491554921E+02  0.00000000000E+00 0.  1.
         11    1    4    4    0    0  0.23769036800E+02  0.34192492787E+02  0.66316504158E+02  0.78306911554E+02  0.00000000000E+00 0. -1.
</event>
<event>
 8    1  0.6850220E-009  0.2792215E+03  0.7561462E-02  0.1096115E+00
          2   -1    0    0  501    0  0.00000000000E+00  0.00000000000E+00  0.61684203080E+03  0.61684203080E+03  0.00000000000E+00 0. -1.
         -2   -1    0    0    0  501 -0.00000000000E+00 -0.00000000000E+00 -0.13434188242E+03  0.13434188242E+03  0.00000000000E+00 0.  1.
         25    2    1    2    0    0  0.25985135771E+03  0.19033220095E+02  0.31825575517E+03  0.42990613388E+03  0.12509023414E+03 0.  0.
         23    2    1    2    0    0 -0.25985135771E+03 -0.19033220095E+02  0.16424439321E+03  0.32127777935E+03  0.91423187595E+02 0.  0.
          5    1    3    3  502    0  0.11336341331E+03  0.66417747185E+02  0.18033489343E+03  0.22316076449E+03  0.41800000000E+01 0. -1.
         -5    1    3    3    0  502  0.14648794439E+03 -0.47384527090E+02  0.13792086174E+03  0.20674536939E+03  0.41800000000E+01 0. -1.
        -11    1    4    4    0    0 -0.16435111810E+03  0.27668451623E+02  0.12347850923E+03  0.20742173338E+03  0.00000000000E+00 0. -1.
         11    1    4    4    0    0 -0.95500239606E+02 -0.46701671719E+02  0.40765883981E+02  0.11385604597E+03  0.00000000000E+00 0.  1.
</event>
<event>
 8    1  0.6850220E-009  0.1201557E+03  0.7561462E-02  0.1242840E+00
          3   -1    0    0  501    0  0.00000000000E+00  0.00000000000E+00  0.30952748119E+02  0.30952748119E+02  0.00000000000E+00 0. -1.
         -3   -1    0    0    0  501 -0.00000000000E+00 -0.00000000000E+00 -0.55334886959E+03  0.55334886959E+03  0.00000000000E+00 0.  1.
         25    2    1    2    0    0  0.10751094170E+02 -0.75421225073E+02 -0.29519635447E+03  0.32953218096E+03  0.12508646363E+03 0.  0.
         23    2    1    2    0    0 -0.10751094170E+02  0.75421225073E+02 -0.22719976701E+03  0.25476943675E+03  0.86508869809E+02 0.  0.
          5    1    3    3  502    0 -0.18197944956E+02 -0.10257312968E+03 -0.23751637524E+03  0.25939142823E+03  0.41800000000E+01 0. -1.
         -5    1    3    3    0  502  0.28949039126E+02  0.27151904609E+02 -0.57679979227E+02  0.70140752732E+02  0.41800000000E+01 0. -1.
        -11    1    4    4    0    0  0.24336210799E+02  0.27046198734E+02 -0.16320114112E+03  0.16720753716E+03  0.00000000000E+00 0.  1.
         11    1    4    4    0    0 -0.35087304970E+02  0.48375026339E+02 -0.63998625893E+02  0.87561899588E+02  0.00000000000E+00 0. -1.
</event>
<event>
 8    1  0.6850220E-009  0.1175420E+03  0.7561462E-02  0.1247208E+00
          3   -1    0    0  501    0  0.00000000000E+00  0.00000000000E+00  0.45971422894E+03  0.45971422894E+03  0.00000000000E+00 0. -1.
         -3   -1    0    0    0  501 -0.00000000000E+00 -0.00000000000E+00 -0.37519242146E+02  0.37519242146E+02  0.00000000000E+00 0.  1.
         25    2    1    2    0    0 -0.39447078393E+02  0.38113578046E+02  0.32486025177E+03  0.35240469256E+03  0.12508464069E+03 0.  0.
         23    2    1    2    0    0  0.39447078393E+02 -0.38113578046E+02  0.97334735029E+02  0.14482877853E+03  0.92155345048E+02 0.  0.
          5    1    3    3  502    0 -0.70066574443E+02  0.62972829996E+02  0.19466799643E+03  0.21630534761E+03  0.41800000000E+01 0. -1.
         -5    1    3    3    0  502  0.30619496050E+02 -0.24859251950E+02  0.13019225534E+03  0.13609934495E+03  0.41800000000E+01 0. -1.
        -11    1    4    4    0    0  0.11648149165E+02 -0.62845187574E+02  0.36741371228E+02  0.73723302557E+02  0.00000000000E+00 0.  1.
         11    1    4    4    0    0  0.27798929228E+02  0.24731609528E+02  0.60593363801E+02  0.71105475969E+02  0.00000000000E+00 0. -1.
</event>
<event>
 8    1  0.6850220E-009  0.1042955E+03  0.7561462E-02  0.1271514E+00
         -1   -1    0    0    0  501 -0.00000000000E+00  0.00000000000E+00  0.33495867673E+02  0.33495867673E+02  0.00000000000E+00 0.  1.
          1   -1    0    0  501    0  0.00000000000E+00 -0.00000000000E+00 -0.10878105430E+04  0.10878105430E+04  0.00000000000E+00 0. -1.
         25    2    1    2    0    0 -0.12193043591E+02 -0.11121940432E+02 -0.10114993343E+04  0.10193383210E+04  0.12508933399E+03 0.  0.
         23    2    1    2    0    0  0.12193043591E+02  0.11121940432E+02 -0.42815341021E+02  0.10196808968E+03  0.91060254857E+02 0.  0.
          5    1    3    3  502    0  0.51527337478E+02 -0.11844333444E+02 -0.65664695964E+03  0.65878528881E+03  0.41800000000E+01 0.  1.
         -5    1    3    3    0  502 -0.63720381069E+02  0.72239301231E+00 -0.35485237467E+03  0.36055303219E+03  0.41800000000E+01 0.  1.
        -11    1    4    4    0    0 -0.13245399285E+02 -0.35881271953E+02 -0.24726231016E+02  0.45544404480E+02  0.00000000000E+00 0. -1.
         11    1    4    4    0    0  0.25438442875E+02  0.47003212385E+02 -0.18089110004E+02  0.56423685197E+02  0.00000000000E+00 0.  1.
</event>
<event>
 8    1  0.6850220E-009  0.2734640E+03  0.7561462E-02  0.1099313E+00
          1   -1    0    0  501    0  0.00000000000E+00  0.00000000000E+00  0.51407737491E+03  0.51407737491E+03  0.00000000000E+00 0. -1.
         -1   -1    0    0    0  501 -0.00000000000E+00 -0.00000000000E+00 -0.15959697085E+03  0.15959697085E+03  0.00000000000E+00 0.  1.
         25    2    1    2    0    0 -0.38323568388E+01  0.25983531676E+03  0.24464930097E+03  0.37819238074E+03  0.12508843906E+03 0.  0.
         23    2    1    2    0    0  0.38323568388E+01 -0.25983531676E+03  0.10983110308E+03  0.29548196502E+03  0.87850109010E+02 0.  0.
          5    1    3    3  502    0 -0.99779410688E+01  0.27230679672E+03  0.23944426457E+03  0.36276931938E+03  0.41800000000E+01 0.  1.
         -5    1    3    3    0  502  0.61455842300E+01 -0.12471479954E+02  0.52050363966E+01  0.15423061358E+02  0.41800000000E+01 0.  1.
        -11    1    4    4    0    0  0.27835419950E+01 -0.77793490811E+02 -0.85803751320E+01  0.78314737796E+02  0.00000000000E+00 0.  1.
         11    1    4    4    0    0  0.10488148438E+01 -0.18204182595E+03  0.11841147821E+03  0.21716722723E+03  0.00000000000E+00 0. -1.
</event>
<event>
 8    1  0.6850220E-009  0.7879444E+02  0.7561462E-02  0.1332508E+00
         -1   -1    0    0    0  501 -0.00000000000E+00  0.00000000000E+00  0.61569001219E+02  0.61569001219E+02  0.00000000000E+00 0.  1.
          1   -1    0    0  501    0  0.00000000000E+00 -0.00000000000E+00 -0.24377493467E+03  0.24377493467E+03  0.00000000000E+00 0. -1.
         25    2    1    2    0    0  0.35440622490E+02  0.37049097845E+02 -0.70583416803E+02  0.15250999000E+03  0.12509438416E+03 0.  0.
         23    2    1    2    0    0 -0.35440622490E+02 -0.37049097845E+02 -0.11162251665E+03  0.15283394589E+03  0.90939295244E+02 0.  0.
          5    1    3    3  502    0  0.15401550925E+02 -0.10688672243E+02 -0.93705909962E+02  0.95654197226E+02  0.41800000000E+01 0.  1.
         -5    1    3    3    0  502  0.20039071566E+02  0.47737770089E+02  0.23122493158E+02  0.56855792775E+02  0.41800000000E+01 0.  1.
        -11    1    4    4    0    0 -0.41122690201E+02  0.72678864104E+01 -0.11685855785E+02  0.43364236967E+02  0.00000000000E+00 0.  1.
         11    1    4    4    0    0  0.56820677113E+01 -0.44316984256E+02 -0.99936660864E+02  0.10946970892E+03  0.00000000000E+00 0. -1.
</event>
<event>
 8    1  0.6850220E-009  0.1152235E+03  0.7561462E-02  0.1251191E+00
          1   -1    0    0  501    0  0.00000000000E+00  0.00000000000E+00  0.10493530300E+03  0.10493530300E+03  0.00000000000E+00 0.  1.
         -1   -1    0    0    0  501 -0.00000000000E+00 -0.00000000000E+00 -0.25329836594E+03  0.25329836594E+03  0.00000000000E+00 0. -1.
         25    2    1    2    0    0  0.95043170437E+02  0.49781411844E+02 -0.17370834760E+02  0.16571164242E+03  0.12508880573E+03 0.  0.
         23    2    1    2    0    0 -0.95043170437E+02 -0.49781411844E+02 -0.13099222819E+03  0.19252202653E+03  0.91620814447E+02 0.  0.
          5    1    3    3  502    0  0.36097012530E+02  0.22576710705E+02  0.54162673743E+02  0.69020068146E+02  0.41800000000E+01 0.  1.
         -5    1    3    3    0  502  0.58946157907E+02  0.27204701139E+02 -0.71533508503E+02  0.96691574270E+02  0.41800000000E+01 0.  1.
        -11    1    4    4    0    0 -0.30643459478E+02  0.12431471933E+02 -0.86356106700E+02  0.92471294289E+02  0.00000000000E+00 0. -1.
         11    1    4    4    0    0 -0.64399710959E+02 -0.62212883777E+02 -0.44636121488E+02  0.10005073224E+03  0.00000000000E+00 0.  1.
</event>
<event>
 8    1  0.6850220E-009  0.9550751E+02  0.7561462E-02  0.1290037E+00
         -1   -1    0    0    0  501 -0.00000000000E+00  0.00000000000E+00  0.24852435885E+02  0.24852435885E+02  0.00000000000E+00 0.  1.
          1   -1    0    0  501    0  0.00000000000E+00 -0.00000000000E+00 -0.65756122994E+03  0.65756122994E+03  0.00000000000E+00 0. -1.
         25    2    1    2    0    0  0.27637252906E+02  0.26766308878E+02 -0.49896553805E+03  0.51584463859E+03  0.12509528353E+03 0.  0.
         23    2    1    2    0    0 -0.27637252906E+02 -0.26766308878E+02 -0.13374325600E+03  0.16656902723E+03  0.91529936456E+02 0.  0.
          5    1    3    3  502    0 -0.41165466247E+02  0.18755509177E+02 -0.87723453152E+02  0.98788872697E+02  0.41800000000E+01 0. -1.
         -5    1    3    3    0  502  0.68802719152E+02  0.80107997009E+01 -0.41124208490E+03  0.41705576589E+03  0.41800000000E+01 0. -1.
        -11    1    4    4    0    0  0.19414702641E+02  0.42008332759E+01 -0.97694051400E+02  0.99693055715E+02  0.00000000000E+00 0. -1.
         11    1    4    4    0    0 -0.47051955546E+02 -0.30967142154E+02 -0.36049204605E+02  0.66875971518E+02  0.00000000000E+00 0.  1.
</event>
<event>
 8    1  0.6850220E-009  0.1234576E+03  0.7561462E-02  0.1237500E+00
          1   -1    0    0  501    0  0.00000000000E+00  0.00000000000E+00  0.22722342253E+03  0.22722342253E+03  0.00000000000E+00 0. -1.
         -1   -1    0    0    0  501 -0.00000000000E+00 -0.00000000000E+00 -0.12484830154E+03  0.12484830154E+03  0.00000000000E+00 0.  1.
         25    2    1    2    0    0 -0.24406766787E+01  0.12266723703E+03  0.13693911192E+02  0.17574842977E+03  0.12508708733E+03 0.  0.
         23    2    1    2    0    0  0.24406766787E+01 -0.12266723703E+03  0.88681209797E+02  0.17632329430E+03  0.90400991136E+02 0.  0.
          5    1    3    3  502    0  0.70593046882E+01  0.41065622851E+02  0.66074772515E+02  0.78227662152E+02  0.41800000000E+01 0. -1.
         -5    1    3    3    0  502 -0.94999813669E+01  0.81601614182E+02 -0.52380861323E+02  0.97520767614E+02  0.41800000000E+01 0. -1.
        -11    1    4    4    0    0 -0.56639119667E+00 -0.81584588537E+02  0.10416836498E+03  0.13231558543E+03  0.00000000000E+00 0. -1.
         11    1    4    4    0    0  0.30070678754E+01 -0.41082648496E+02 -0.15487155179E+02  0.44007708873E+02  0.00000000000E+00 0.  1.
</event>
<event>
 8    1  0.6850220E-009  0.2716767E+03  0.7561462E-02  0.1100324E+00
         -2   -1    0    0    0  501 -0.00000000000E+00  0.00000000000E+00  0.51614615500E+02  0.51614615500E+02  0.00000000000E+00 0. -1.
          2   -1    0    0  501    0  0.00000000000E+00 -0.00000000000E+00 -0.15949348160E+04  0.15949348160E+04  0.00000000000E+00 0.  1.
         25    2    1    2    0    0  0.46009194950E+02  0.25232856913E+03 -0.97929176066E+03  0.10200230258E+04  0.12509223755E+03 0.  0.
         23    2    1    2    0    0 -0.46009194950E+02 -0.25232856913E+03 -0.56402843988E+03  0.62652640572E+03  0.92847742279E+02 0.  0.
          5    1    3    3  502    0 -0.24263042292E+02  0.16056038598E+03 -0.45501540454E+03  0.48314058362E+03  0.41800000000E+01 0. -1.
         -5    1    3    3    0  502  0.70272237241E+02  0.91768183150E+02 -0.52427635611E+03  0.53688244220E+03  0.41800000000E+01 0. -1.
        -11    1    4    4    0    0 -0.28037021209E+02 -0.26066398621E+02 -0.39558539596E+02  0.55049157580E+02  0.00000000000E+00 0. -1.
         11    1    4    4    0    0 -0.17972173741E+02 -0.22626217051E+03 -0.52446990029E+03  0.57147724814E+03  0.00000000000E+00 0.  1.
</event>
<event>
 8    1  0.6850220E-009  0.1439597E+03  0.7561462E-02  0.1208098E+00
          1   -1    0    0  501    0  0.00000000000E+00  0.00000000000E+00  0.12759310327E+03  0.12759310327E+03  0.00000000000E+00 0. -1.
         -1   -1    0    0    0  501 -0.00000000000E+00 -0.00000000000E+00 -0.19913470293E+03  0.19913470293E+03  0.00000000000E+00 0.  1.
         25    2    1    2    0    0 -0.53635375575E+02 -0.92283245132E+02 -0.86088784596E+02  0.18560771128E+03  0.12508394305E+03 0.  0.
         23    2    1    2    0    0  0.53635375575E+02  0.92283245132E+02  0.14547184935E+02  0.14112009492E+03  0.91160900374E+02 0.  0.
          5    1    3    3  502    0  0.15047995995E+01  0.25364959458E+02  0.58226611653E+01  0.26401162345E+02  0.41800000000E+01 0. -1.
         -5    1    3    3    0  502 -0.55140175174E+02 -0.11764820459E+03 -0.91911445761E+02  0.15920654893E+03  0.41800000000E+01 0. -1.
        -11    1    4    4    0    0  0.96265718022E+01 -0.14084310027E+02  0.19490067367E+02  0.25901764410E+02  0.00000000000E+00 0.  1.
         11    1    4    4    0    0  0.44008803773E+02  0.10636755516E+03 -0.49428824314E+01  0.11521833051E+03  0.00000000000E+00 0. -1.
</event>
<event>
 8    1  0.6850220E-009  0.1559682E+03  0.7561462E-02  0.1193325E+00
         -2   -1    0    0    0  501 -0.00000000000E+00  0.00000000000E+00  0.63018176298E+02  0.63018176298E+02  0.00000000000E+00 0.  1.
          2   -1    0    0  501    0  0.00000000000E+00 -0.00000000000E+00 -0.52643885653E+03  0.52643885653E+03  0.00000000000E+00 0. -1.
         25    2    1    2    0    0 -0.12388475724E+03 -0.74305132633E+02 -0.21519803172E+03  0.28779624809E+03  0.12509117375E+03 0.  0.
         23    2    1    2    0    0  0.12388475724E+03  0.74305132633E+02 -0.24822264851E+03  0.30166078473E+03  0.92282501049E+02 0.  0.
          5    1    3    3  502    0 -0.68199669510E+02 -0.85276307466E+02 -0.64920177432E+02  0.12710367962E+03  0.41800000000E+01 0. -1.
         -5    1    3    3    0  502 -0.55685087728E+02  0.10971174833E+02 -0.15027785429E+03  0.16069256847E+03  0.41800000000E+01 0. -1.
        -11    1    4    4    0    0  0.84974878288E+02  0.61111128197E+02 -0.23697854401E+03  0.25906395012E+03  0.00000000000E+00 0. -1.
         11    1    4    4    0    0  0.38909878949E+02  0.13194004436E+02 -0.11244104498E+02  0.42596834611E+02  0.00000000000E+00 0.  1.
</event>
<event>
 8    1  0.6850220E-009  0.1973167E+03  0.7561462E-02  0.1152023E+00
         -2   -1    0    0    0  501 -0.00000000000E+00  0.00000000000E+00  0.67231949351E+02  0.67231949351E+02  0.00000000000E+00 0.  1.
          2   -1    0    0  501    0  0.00000000000E+00 -0.00000000000E+00 -0.82638137744E+03  0.82638137744E+03  0.00000000000E+00 0. -1.
         25    2    1    2    0    0  0.86083314967E+02 -0.16014365851E+03 -0.19555260214E+03  0.29484595652E+03  0.12504794839E+03 0.  0.
         23    2    1    2    0    0 -0.86083314967E+02  0.16014365851E+03 -0.56359682594E+03  0.59876737027E+03  0.88457068722E+02 0.  0.
          5    1    3    3  502    0  0.77668446239E+02 -0.44034597946E+02 -0.33897887882E+02  0.95592743241E+02  0.41800000000E+01 0. -1.
         -5    1    3    3    0  502  0.84148687272E+01 -0.11610906056E+03 -0.16165471426E+03  0.19925321328E+03  0.41800000000E+01 0. -1.
        -11    1    4    4    0    0 -0.76701928975E+02  0.91116973369E+02 -0.24210978905E+03  0.26981964106E+03  0.00000000000E+00 0. -1.
         11    1    4    4    0    0 -0.93813859918E+01  0.69026685138E+02 -0.32148703689E+03  0.32894772921E+03  0.00000000000E+00 0.  1.
</event>
<event>
 8    1  0.6850220E-009  0.9722271E+02  0.7561462E-02  0.1286247E+00
         -1   -1    0    0    0  501 -0.00000000000E+00  0.00000000000E+00  0.26332276954E+03  0.26332276954E+03  0.00000000000E+00 0.  1.
          1   -1    0    0  501    0  0.00000000000E+00 -0.00000000000E+00 -0.48620835028E+02  0.48620835028E+02  0.00000000000E+00 0. -1.
         25    2    1    2    0    0  0.21590400988E+02  0.13486044634E+02  0.98821649087E+02  0.16143612732E+03  0.12509151075E+03 0.  0.
         23    2    1    2    0    0 -0.21590400988E+02 -0.13486044634E+02  0.11588028542E+03  0.15050747724E+03  0.92607998265E+02 0.  0.
          5    1    3    3  502    0  0.55459517180E+02 -0.22875222595E+02  0.93657321690E+02  0.11130229180E+03  0.41800000000E+01 0. -1.
         -5    1    3    3    0  502 -0.33869116192E+02  0.36361267229E+02  0.51643273966E+01  0.50133835516E+02  0.41800000000E+01 0. -1.
        -11    1    4    4    0    0 -0.35003800318E+02  0.25437834494E+02  0.94900682737E+02  0.10429999542E+03  0.00000000000E+00 0.  1.
         11    1    4    4    0    0  0.13413399330E+02 -0.38923879127E+02  0.20979602684E+02  0.46207481826E+02  0.00000000000E+00 0. -1.
</event>
<event>
 8    1  0.6850220E-009  0.9485405E+02  0.7561462E-02  0.1291505E+00
         -3   -1    0    0    0  501 -0.00000000000E+00  0.00000000000E+00  0.46270859404E+03  0.46270859404E+03  0.00000000000E+00 0.  1.
          3   -1    0    0  501    0  0.00000000000E+00 -0.00000000000E+00 -0.25459455265E+02  0.25459455265E+02  0.00000000000E+00 0. -1.
         25    2    1    2    0    0 -0.69327074062E+01 -0.18444460493E+02  0.22974539030E+03  0.26233236540E+03  0.12508822892E+03 0.  0.
         23    2    1    2    0    0  0.69327074062E+01  0.18444460493E+02  0.20750374847E+03  0.22583568391E+03  0.86923471759E+02 0.  0.
          5    1    3    3  502    0 -0.48248598672E+02  0.21398105045E+02  0.47200037852E+02  0.70930403542E+02  0.41800000000E+01 0. -1.
         -5    1    3    3    0  502  0.41315891266E+02 -0.39842565538E+02  0.18254535245E+03  0.19140196185E+03  0.41800000000E+01 0. -1.
        -11    1    4    4    0    0  0.29222728683E+02 -0.19552461429E+02  0.43049602298E+02  0.55583584605E+02  0.00000000000E+00 0. -1.
         11    1    4    4    0    0 -0.22290021276E+02  0.37996921922E+02  0.16445414617E+03  0.17025209930E+03  0.00000000000E+00 0.  1.
</event>
<event>
 8    1  0.6850220E-009  0.1677830E+03  0.7561462E-02  0.1180180E+00
          2   -1    0    0  501    0  0.00000000000E+00  0.00000000000E+00  0.16359311823E+04  0.16359311823E+04  0.00000000000E+00 0. -1.
         -2   -1    0    0    0  501 -0.00000000000E+00 -0.00000000000E+00 -0.22365540524E+02  0.22365540524E+02  0.00000000000E+00 0.  1.
         25    2    1    2    0    0 -0.10365907938E+03  0.11996518534E+03  0.76912286065E+03  0.79519507212E+03  0.12509347514E+03 0.  0.
         23    2    1    2    0    0  0.10365907938E+03 -0.11996518534E+03  0.84444278116E+03  0.86310165073E+03  0.81999990363E+02 0.  0.
          5    1    3    3  502    0 -0.54530203974E+02  0.75076378738E+02  0.66564525502E+03  0.67209454969E+03  0.41800000000E+01 0.  1.
         -5    1    3    3    0  502 -0.49128875406E+02  0.44888806599E+02  0.10347760563E+03  0.12310052243E+03  0.41800000000E+01 0.  1.
        -11    1    4    4    0    0  0.95346358727E+01 -0.67645644041E+02  0.40049794423E+03  0.40628247042E+03  0.00000000000E+00 0. -1.
         11    1    4    4    0    0  0.94124443507E+02 -0.52319541295E+02  0.44394483693E+03  0.45681918031E+03  0.00000000000E+00 0.  1.
</event>
<event>
 8    1  0.6850220E-009  0.1550510E+03  0.7561462E-02  0.1194400E+00
         -2   -1    0    0    0  501 -0.00000000000E+00  0.00000000000E+00  0.40522924545E+03  0.40522924545E+03  0.00000000000E+00 0.  1.
          2   -1    0    0  501    0  0.00000000000E+00 -0.00000000000E+00 -0.74918831169E+02  0.74918831169E+02  0.00000000000E+00 0. -1.
         25    2    1    2    0    0 -0.11460149572E+02  0.13316101968E+03  0.21128503305E+03  0.27955790937E+03  0.12509223522E+03 0.  0.
         23    2    1    2    0    0  0.11460149572E+02 -0.13316101968E+03  0.11902538123E+03  0.20059016724E+03  0.90587977289E+02 0.  0.
          5    1    3    3  502    0  0.15958837270E+02 -0.11203811441E+02 -0.25099379346E+01  0.20099305118E+02  0.41800000000E+01 0.  1.
         -5    1    3    3    0  502 -0.27418986842E+02  0.14436483112E+03  0.21379497099E+03  0.25945860426E+03  0.41800000000E+01 0.  1.
        -11    1    4    4    0    0  0.22453452770E+02 -0.21943107033E+02 -0.69815386962E+01  0.32162079692E+02  0.00000000000E+00 0.  1.
         11    1    4    4    0    0 -0.10993303198E+02 -0.11121791264E+03  0.12600691992E+03  0.16842808755E+03  0.00000000000E+00 0. -1.
</event>
<event>
 8    1  0.6850220E-009  0.1368777E+03  0.7561462E-02  0.1217593E+00
          1   -1    0    0  501    0  0.00000000000E+00  0.00000000000E+00  0.31790663925E+02  0.31790663925E+02  0.00000000000E+00 0. -1.
         -1   -1    0    0    0  501 -0.00000000000E+00 -0.00000000000E+00 -0.11772751129E+04  0.11772751129E+04  0.00000000000E+00 0.  1.
         25    2    1    2    0    0 -0.81712197118E+02 -0.30632863085E+02 -0.10197412731E+04  0.10310840315E+04  0.12508701158E+03 0.  0.
         23    2    1    2    0    0  0.81712197118E+02  0.30632863085E+02 -0.12574317590E+03  0.17798174537E+03  0.90834464488E+02 0.  0.
          5    1    3    3  502    0 -0.11279255236E+03 -0.37013504527E+02 -0.73297110695E+03  0.74253368638E+03  0.41800000000E+01 0. -1.
         -5    1    3    3    0  502  0.31080355247E+02  0.63806414422E+01 -0.28677016616E+03  0.28855034511E+03  0.41800000000E+01 0. -1.
        -11    1    4    4    0    0  0.20219325016E+01  0.42370541838E+02 -0.62667635251E+02  0.75674193320E+02  0.00000000000E+00 0. -1.
         11    1    4    4    0    0  0.79690264616E+02 -0.11737678753E+02 -0.63075540653E+02  0.10230755205E+03  0.00000000000E+00 0.  1.
</event>
<event>
 7    1  0.6850220E-009  0.1267717E+03  0.7561462E-02  0.1232326E+00
         -3   -1    0    0    0  501 -0.00000000000E+00  0.00000000000E+00  0.92545573330E+02  0.92545573330E+02  0.00000000000E+00 0.  1.
          3   -1    0    0  501    0  0.00000000000E+00 -0.00000000000E+00 -0.18205075832E+03  0.18205075832E+03  0.00000000000E+00 0. -1.
         23    2    1    2    0    0 -0.64443983927E+02  0.26685211637E+02 -0.44978005657E+02  0.12470792359E+03  0.93080167759E+02 0.  0.
          5    1    1    2  502    0  0.10878088934E+02 -0.71790013574E+02 -0.27008192074E+02  0.77582560585E+02  0.41800000000E+01 0. -1.
         -5    1    1    2    0  502  0.53565894993E+02  0.45104801937E+02 -0.17518987264E+02  0.72305847474E+02  0.41800000000E+01 0. -1.
        -11    1    3    3    0    0 -0.15537233565E+02  0.52926654210E+02 -0.41627309101E+02  0.69104769848E+02  0.00000000000E+00 0. -1.
         11    1    3    3    0    0 -0.48906750362E+02 -0.26241442573E+02 -0.33506965560E+01  0.55603153747E+02  0.00000000000E+00 0.  1.
</event>
<event>
 8    1  0.6850220E-009  0.1340815E+03  0.7561462E-02  0.1221522E+00
         -1   -1    0    0    0  501 -0.00000000000E+00  0.00000000000E+00  0.12709453699E+03  0.12709453699E+03  0.00000000000E+00 0.  1.
          1   -1    0    0  501    0  0.00000000000E+00 -0.00000000000E+00 -0.39557745426E+03  0.39557745426E+03  0.00000000000E+00 0. -1.
         25    2    1    2    0    0  0.10738859990E+03 -0.19616987672E+02 -0.32775131400E+03  0.36740396041E+03  0.12509040214E+03 0.  0.
         23    2    1    2    0    0 -0.10738859990E+03  0.19616987672E+02  0.59268396735E+02  0.15526803083E+03  0.93157291471E+02 0.  0.
          5    1    3    3  502    0  0.50132879913E+02 -0.50797864000E+02 -0.64903422097E+02  0.96559076400E+02  0.41800000000E+01 0. -1.
         -5    1    3    3    0  502  0.57255719983E+02  0.31180876328E+02 -0.26284789190E+03  0.27084488401E+03  0.41800000000E+01 0. -1.
        -11    1    4    4    0    0 -0.51930571509E+01  0.28304354268E+02  0.42524349322E+02  0.51346125446E+02  0.00000000000E+00 0.  1.
         11    1    4    4    0    0 -0.10219554275E+03 -0.86873665963E+01  0.16744047413E+02  0.10392190539E+03  0.00000000000E+00 0. -1.
</event>
<event>
 8    1  0.6850220E-009  0.9483624E+02  0.7561462E-02  0.1291545E+00
         -2   -1    0    0    0  501 -0.00000000000E+00  0.00000000000E+00  0.18723702257E+03  0.18723702257E+03  0.00000000000E+00 0.  1.
          2   -1    0    0  501    0  0.00000000000E+00 -0.00000000000E+00 -0.83377113518E+02  0.83377113518E+02  0.00000000000E+00 0. -1.
         25    2    1    2    0    0  0.41795921061E+02  0.35375574719E+02  0.91394890208E+02  0.16431417379E+03  0.12509113257E+03 0.  0.
         23    2    1    2    0    0 -0.41795921061E+02 -0.35375574719E+02  0.12465018839E+02  0.10629996230E+03  0.90255055181E+02 0.  0.
          5    1    3    3  502    0  0.17202472185E+02  0.64924676809E+02  0.24650670483E+01  0.67340089572E+02  0.41800000000E+01 0. -1.
         -5    1    3    3    0  502  0.24593448876E+02 -0.29549102090E+02  0.88929823160E+02  0.96974084214E+02  0.41800000000E+01 0. -1.
        -11    1    4    4    0    0  0.17030777325E+02 -0.83961255659E+01  0.33280697803E+02  0.38316408327E+02  0.00000000000E+00 0.  1.
         11    1    4    4    0    0 -0.58826698386E+02 -0.26979449153E+02 -0.20815678964E+02  0.67983553970E+02  0.00000000000E+00 0. -1.
</event>
<event>
 8    1  0.6850220E-009  0.3206985E+03  0.7561462E-02  0.1075328E+00
          2   -1    0    0  501    0  0.00000000000E+00  0.00000000000E+00  0.12626567567E+04  0.12626567567E+04  0.00000000000E+00 0. -1.
         -2   -1    0    0    0  501 -0.00000000000E+00 -0.00000000000E+00 -0.85262661003E+02  0.85262661003E+02  0.00000000000E+00 0.  1.
         25    2    1    2    0    0  0.52340983555E+02 -0.30571474879E+03  0.60312470495E+03  0.68964722680E+03  0.12511115664E+03 0.  0.
         23    2    1    2    0    0 -0.52340983555E+02  0.30571474879E+03  0.57426939071E+03  0.65827219088E+03  0.85649623399E+02 0.  0.
          5    1    3    3  502    0 -0.20470693707E+02 -0.20616846017E+03  0.42657225028E+03  0.47424238568E+03  0.41800000000E+01 0. -1.
         -5    1    3    3    0  502  0.72811677262E+02 -0.99546288619E+02  0.17655245468E+03  0.21540484111E+03  0.41800000000E+01 0. -1.
        -11    1    4    4    0    0 -0.12614873830E+02  0.13043535063E+03  0.32953125773E+03  0.35463130933E+03  0.00000000000E+00 0.  1.
         11    1    4    4    0    0 -0.39726109725E+02  0.17527939815E+03  0.24473813298E+03  0.30364088154E+03  0.00000000000E+00 0. -1.
</event>
<event>
 8    1  0.6850220E-009  0.2859236E+03  0.7561462E-02  0.1092497E+00
          2   -1    0    0  501    0  0.00000000000E+00  0.00000000000E+00  0.11434615341E+03  0.11434615341E+03  0.00000000000E+00 0. -1.
         -2   -1    0    0    0  501 -0.00000000000E+00 -0.00000000000E+00 -0.72517051349E+03  0.72517051349E+03  0.00000000000E+00 0.  1.
         25    2    1    2    0    0  0.42614967572E+02 -0.26172132162E+03 -0.34321500120E+03  0.45139611163E+03  0.12509127427E+03 0.  0.
         23    2    1    2    0    0 -0.42614967572E+02  0.26172132162E+03 -0.26760935889E+03  0.38812055527E+03  0.93320473684E+02 0.  0.
          5    1    3    3  502    0  0.52461053980E+02 -0.33730530113E+02 -0.51431890691E+02  0.80948271300E+02  0.41800000000E+01 0. -1.
         -5    1    3    3    0  502 -0.98460864085E+01 -0.22799079151E+03 -0.29178311051E+03  0.37044784033E+03  0.41800000000E+01 0. -1.
        -11    1    4    4    0    0 -0.30437225664E+00  0.22521064248E+03 -0.21590686390E+03  0.31198669844E+03  0.00000000000E+00 0. -1.
         11    1    4    4    0    0 -0.42310595315E+02  0.36510679142E+02 -0.51702494986E+02  0.76133856826E+02  0.00000000000E+00 0.  1.
</event>
<event>
 8    1  0.6850220E-009  0.1026079E+03  0.7561462E-02  0.1274906E+00
         -3   -1    0    0    0  501 -0.00000000000E+00  0.00000000000E+00  0.60782739146E+02  0.60782739146E+02  0.00000000000E+00 0.  1.
          3   -1    0    0  501    0  0.00000000000E+00 -0.00000000000E+00 -0.26793479901E+03  0.26793479901E+03  0.00000000000E+00 0. -1.
         25    2    1    2    0    0  0.58662659439E+02  0.20579394315E+02 -0.83517979170E+02  0.16275753731E+03  0.12509973631E+03 0.  0.
         23    2    1    2    0    0 -0.58662659439E+02 -0.20579394315E+02 -0.12363408070E+03  0.16596000085E+03  0.91610681083E+02 0.  0.
          5    1    3    3  502    0  0.96548153077E+01 -0.50372670243E+02 -0.44436699759E+02  0.67990543839E+02  0.41800000000E+01 0. -1.
         -5    1    3    3    0  502  0.49007844132E+02  0.70952064558E+02 -0.39081279411E+02  0.94766993473E+02  0.41800000000E+01 0. -1.
        -11    1    4    4    0    0 -0.32536051837E+02  0.24053603842E+01 -0.12688345239E+03  0.13101065193E+03  0.00000000000E+00 0. -1.
         11    1    4    4    0    0 -0.26126607602E+02 -0.22984754699E+02  0.32493716953E+01  0.34949348918E+02  0.00000000000E+00 0.  1.
</event>
<event>
 8    1  0.6850220E-009  0.1434804E+03  0.7561462E-02  0.1208721E+00
         -1   -1    0    0    0  501 -0.00000000000E+00  0.00000000000E+00  0.41450072686E+02  0.41450072686E+02  0.00000000000E+00 0.  1.
          1   -1    0    0  501    0  0.00000000000E+00 -0.00000000000E+00 -0.62231687942E+03  0.62231687942E+03  0.00000000000E+00 0. -1.
         25    2    1    2    0    0  0.92111077143E+02  0.74245364123E+02 -0.30764919357E+03  0.35255214877E+03  0.12509263235E+03 0.  0.
         23    2    1    2    0    0 -0.92111077143E+02 -0.74245364123E+02 -0.27321761316E+03  0.31121480334E+03  0.90608857463E+02 0.  0.
          5    1    3    3  502    0  0.11711207022E+03  0.58580506057E+02 -0.18732775397E+03  0.22859587155E+03  0.41800000000E+01 0.  1.
         -5    1    3    3    0  502 -0.25000993082E+02  0.15664858065E+02 -0.12032143960E+03  0.12395627721E+03  0.41800000000E+01 0.  1.
        -11    1    4    4    0    0 -0.79452265899E+02 -0.38617589754E+02 -0.97894242282E+02  0.13186077304E+03  0.00000000000E+00 0.  1.
         11    1    4    4    0    0 -0.12658811244E+02 -0.35627774369E+02 -0.17532337088E+03  0.17935403030E+03  0.00000000000E+00 0. -1.
</event>
<event>
 8    1  0.6850220E-009  0.8400929E+02  0.7561462E-02  0.1318044E+00
         -2   -1    0    0    0  501 -0.00000000000E+00  0.00000000000E+00  0.53192944764E+02  0.53192944764E+02  0.00000000000E+00 0.  1.
          2   -1    0    0  501    0  0.00000000000E+00 -0.00000000000E+00 -0.31376893326E+03  0.31376893326E+03  0.00000000000E+00 0. -1.
         25    2    1    2    0    0 -0.32839561384E+02  0.10694354654E+02 -0.24000233465E+03  0.27283883664E+03  0.12508838527E+03 0.  0.
         23    2    1    2    0    0  0.32839561384E+02 -0.10694354654E+02 -0.20573653846E+02  0.94123041381E+02  0.85106202318E+02 0.  0.
          5    1    3    3  502    0 -0.36152712173E+02 -0.30438261025E+02 -0.24529773170E+02  0.53410565467E+02  0.41800000000E+01 0. -1.
         -5    1    3    3    0  502  0.33131507894E+01  0.41132615680E+02 -0.21547256148E+03  0.21942827118E+03  0.41800000000E+01 0. -1.
        -11    1    4    4    0    0  0.40434176577E+02 -0.35095875630E+02 -0.35769730254E+02  0.64390346514E+02  0.00000000000E+00 0. -1.
         11    1    4    4    0    0 -0.75946151939E+01  0.24401520976E+02  0.15196076408E+02  0.29732694867E+02  0.00000000000E+00 0.  1.
</event>
<event>
 8    1  0.6850220E-009  0.4139620E+03  0.7561462E-02  0.1039050E+00
          2   -1    0    0  501    0  0.00000000000E+00  0.00000000000E+00  0.13710412857E+04  0.13710412857E+04  0.00000000000E+00 0.  1.
         -2   -1    0    0    0  501 -0.00000000000E+00 -0.00000000000E+00 -0.13119515002E+03  0.13119515002E+03  0.00000000000E+00 0. -1.
         25    2    1    2    0    0  0.32786228705E+03 -0.23256731063E+03  0.76997947031E+03  0.87755155779E+03  0.12508844321E+03 0.  0.
         23    2    1    2    0    0 -0.32786228705E+03  0.23256731063E+03  0.46986666535E+03  0.62468487792E+03  0.88742775766E+02 0.  0.
          5    1    3    3  502    0  0.22955157635E+02 -0.69746568707E+02  0.10660975528E+03  0.12951693106E+03  0.41800000000E+01 0. -1.
         -5    1    3    3    0  502  0.30490712942E+03 -0.16282074193E+03  0.66336971503E+03  0.74803462673E+03  0.41800000000E+01 0. -1.
        -11    1    4    4    0    0 -0.28283882205E+03  0.16483932773E+03  0.34439090711E+03  0.47515776341E+03  0.00000000000E+00 0.  1.
         11    1    4    4    0    0 -0.45023464997E+02  0.67727982899E+02  0.12547575825E+03  0.14952711452E+03  0.00000000000E+00 0. -1.
</event>
<event>
 8    1  0.6850220E-009  0.1045355E+03  0.7561462E-02  0.1271037E+00
         -3   -1    0    0    0  501 -0.00000000000E+00  0.00000000000E+00  0.42256443035E+03  0.42256443035E+03  0.00000000000E+00 0.  1.
          3   -1    0    0  501    0  0.00000000000E+00 -0.00000000000E+00 -0.46521109241E+02  0.46521109241E+02  0.00000000000E+00 0. -1.
         25    2    1    2    0    0 -0.25753485196E+02 -0.77245578574E+02  0.14529844683E+03  0.20830908230E+03  0.12510361190E+03 0.  0.
         23    2    1    2    0    0  0.25753485196E+02  0.77245578574E+02  0.23074487428E+03  0.26077645728E+03  0.90172292086E+02 0.  0.
          5    1    3    3  502    0  0.29056864324E+02 -0.58275383703E+02  0.16973433299E+02  0.67423227066E+02  0.41800000000E+01 0.  1.
         -5    1    3    3    0  502 -0.54810349520E+02 -0.18970194871E+02  0.12832501353E+03  0.14088585524E+03  0.41800000000E+01 0.  1.
        -11    1    4    4    0    0 -0.14031822898E+01  0.37528844887E+02  0.20041013762E+03  0.20389851981E+03  0.00000000000E+00 0.  1.
         11    1    4    4    0    0  0.27156667486E+02  0.39716733687E+02  0.30334736659E+02  0.56877937479E+02  0.00000000000E+00 0. -1.
</event>
<event>
 8    1  0.6850220E-009  0.1059139E+03  0.7561462E-02  0.1268329E+00
          3   -1    0    0  501    0  0.00000000000E+00  0.00000000000E+00  0.14344078363E+02  0.14344078363E+02  0.00000000000E+00 0. -1.
         -3   -1    0    0    0  501 -0.00000000000E+00 -0.00000000000E+00 -0.91224065088E+03  0.91224065088E+03  0.00000000000E+00 0.  1.
         25    2    1    2    0    0 -0.49633613599E+01  0.12585723026E+02 -0.64833202060E+03  0.66042987777E+03  0.12510067599E+03 0.  0.
         23    2    1    2    0    0  0.49633613599E+01 -0.12585723026E+02 -0.24956455192E+03  0.26615485148E+03  0.91503573759E+02 0.  0.
          5    1    3    3  502    0  0.56838545143E+02 -0.92669502388E+01 -0.36821318618E+03  0.37271291828E+03  0.41800000000E+01 0.  1.
         -5    1    3    3    0  502 -0.61801906503E+02  0.21852673264E+02 -0.28011883443E+03  0.28771695949E+03  0.41800000000E+01 0.  1.
        -11    1    4    4    0    0  0.15635676809E+01 -0.50405730140E+02 -0.17964848838E+03  0.18659250187E+03  0.00000000000E+00 0.  1.
         11    1    4    4    0    0  0.33997936789E+01  0.37820007114E+02 -0.69916063534E+02  0.79562349608E+02  0.00000000000E+00 0. -1.
</event>
<event>
 8    1  0.6850220E-009  0.1034622E+03  0.7561462E-02  0.1273179E+00
          1   -1    0    0  501    0  0.00000000000E+00  0.00000000000E+00  0.70917839068E+02  0.70917839068E+02  0.00000000000E+00 0. -1.
         -1   -1    0    0    0  501 -0.00000000000E+00 -0.00000000000E+00 -0.18853980653E+03  0.18853980653E+03  0.00000000000E+00 0.  1.
         25    2    1    2    0    0 -0.11334069005E+02 -0.38086981008E+02 -0.59211859330E+02  0.14398623834E+03  0.12508762250E+03 0.  0.
         23    2    1    2    0    0  0.11334069005E+02  0.38086981008E+02 -0.58410108135E+02  0.11547140726E+03  0.91339071160E+02 0.  0.
          5    1    3    3  502    0 -0.16921689722E+02 -0.80097069738E+02 -0.59684023905E+02  0.10139792539E+03  0.41800000000E+01 0. -1.
         -5    1    3    3    0  502  0.55876207174E+01  0.42010088730E+02  0.47216457512E+00  0.42588312949E+02  0.41800000000E+01 0. -1.
        -11    1    4    4    0    0 -0.14492473663E+02 -0.16510801821E+02  0.10065511109E+02  0.24165117081E+02  0.00000000000E+00 0. -1.
         11    1    4    4    0    0  0.25826542668E+02  0.54597782828E+02 -0.68475619244E+02  0.91306290182E+02  0.00000000000E+00 0.  1.
</event>
<event>
 8    1  0.6850220E-009  0.1052801E+03  0.7561462E-02  0.1269569E+00
         -1   -1    0    0    0  501 -0.00000000000E+00  0.00000000000E+00  0.31941527621E+03  0.31941527621E+03  0.00000000000E+00 0.  1.
          1   -1    0    0  501    0  0.00000000000E+00 -0.00000000000E+00 -0.35113575678E+03  0.35113575678E+03  0.00000000000E+00 0. -1.
         25    2    1    2    0    0  0.49820428630E+01  0.54263956405E+02  0.29602722636E+03  0.32595979880E+03  0.12509306124E+03 0.  0.
         23    2    1    2    0    0 -0.49820428630E+01 -0.54263956405E+02 -0.32774770693E+03  0.34459123418E+03  0.91406572853E+02 0.  0.
          5    1    3    3  502    0  0.14980326294E+01 -0.28522676292E+02  0.18563944911E+03  0.18787033994E+03  0.41800000000E+01 0.  1.
         -5    1    3    3    0  502  0.34840102336E+01  0.82786632697E+02  0.11038777725E+03  0.13808945886E+03  0.41800000000E+01 0.  1.
        -11    1    4    4    0    0 -0.39417113691E+02 -0.66600521680E+01 -0.20033804157E+03  0.20428753277E+03  0.00000000000E+00 0. -1.
         11    1    4    4    0    0  0.34435070828E+02 -0.47603904237E+02 -0.12740966536E+03  0.14030370141E+03  0.00000000000E+00 0.  1.
</event>
<event>
 8    1  0.6850220E-009  0.6943863E+02  0.7561462E-02  0.1362012E+00
          2   -1    0    0  501    0  0.00000000000E+00  0.00000000000E+00  0.68083330122E+02  0.68083330122E+02  0.00000000000E+00 0. -1.
         -2   -1    0    0    0  501 -0.00000000000E+00 -0.00000000000E+00 -0.22963324415E+03  0.22963324415E+03  0.00000000000E+00 0.  1.
         25    2    1    2    0    0 -0.69376923406E+01 -0.19736053245E+02 -0.22664173001E+02  0.12880600173E+03  0.12505869810E+03 0.  0.
         23    2    1    2    0    0  0.69376923406E+01  0.19736053245E+02 -0.13888574103E+03  0.16891057255E+03  0.93829041790E+02 0.  0.
          5    1    3    3  502    0 -0.39581290950E+02 -0.25724739547E+02 -0.61441202618E+02  0.77594681500E+02  0.41800000000E+01 0.  1.
         -5    1    3    3    0  502  0.32643598609E+02  0.59886863018E+01  0.38777029617E+02  0.51211320230E+02  0.41800000000E+01 0.  1.
        -11    1    4    4    0    0 -0.23815160272E+02  0.80989210729E+01 -0.13318423904E+03  0.13553890921E+03  0.00000000000E+00 0.  1.
         11    1    4    4    0    0  0.30752852613E+02  0.11637132172E+02 -0.57015019950E+01  0.33371663339E+02  0.00000000000E+00 0. -1.
</event>
<event>
 8    1  0.6850220E-009  0.8926048E+02  0.7561462E-02  0.1304652E+00
          2   -1    0    0  501    0  0.00000000000E+00  0.00000000000E+00  0.26918049321E+03  0.26918049321E+03  0.00000000000E+00 0. -1.
         -2   -1    0    0    0  501 -0.00000000000E+00 -0.00000000000E+00 -0.53608084762E+02  0.53608084762E+02  0.00000000000E+00 0.  1.
         25    2    1    2    0    0 -0.38140807688E+02 -0.27153659996E+02  0.91469275048E+02  0.16188286133E+03  0.12508952815E+03 0.  0.
         23    2    1    2    0    0  0.38140807688E+02  0.27153659996E+02  0.12410313340E+03  0.16090571664E+03  0.91087976513E+02 0.  0.
          5    1    3    3  502    0 -0.86140793184E+00 -0.49641880587E+02 -0.10508891774E+02  0.50921189481E+02  0.41800000000E+01 0. -1.
         -5    1    3    3    0  502 -0.37279399756E+02  0.22488220591E+02  0.10197816682E+03  0.11096167185E+03  0.41800000000E+01 0. -1.
        -11    1    4    4    0    0 -0.19615083535E+02 -0.29378913473E+01  0.79584505556E+02  0.82018755369E+02  0.00000000000E+00 0. -1.
         11    1    4    4    0    0  0.57755891224E+02  0.30091551344E+02  0.44518627841E+02  0.78886961268E+02  0.00000000000E+00 0.  1.
</event>
<event>
 8    1  0.6850220E-009  0.1605858E+03  0.7561462E-02  0.1188037E+00
         -2   -1    0    0    0  501 -0.00000000000E+00  0.00000000000E+00  0.24305759975E+03  0.24305759975E+03  0.00000000000E+00 0.  1.
          2   -1    0    0  501    0  0.00000000000E+00 -0.00000000000E+00 -0.12045609177E+03  0.12045609177E+03  0.00000000000E+00 0. -1.
         25    2    1    2    0    0 -0.49984662547E+02  0.11234725588E+03  0.11617957039E+03  0.21039210233E+03  0.12508705671E+03 0.  0.
         23    2    1    2    0    0  0.49984662547E+02 -0.11234725588E+03  0.64219375889E+01  0.15312158919E+03  0.91019818725E+02 0.  0.
          5    1    3    3  502    0 -0.91529055998E+02  0.88139039699E+02  0.84949055214E+02  0.15290478342E+03  0.41800000000E+01 0. -1.
         -5    1    3    3    0  502  0.41544393451E+02  0.24208216178E+02  0.31230515177E+02  0.57487318915E+02  0.41800000000E+01 0. -1.
        -11    1    4    4    0    0  0.10645075757E+02 -0.10526185626E+03 -0.16446996254E+02  0.10706950876E+03  0.00000000000E+00 0. -1.
         11    1    4    4    0    0  0.39339586790E+02 -0.70853996179E+01  0.22868933843E+02  0.46052080427E+02  0.00000000000E+00 0.  1.
</event>
<event>
 8    1  0.6850220E-009  0.1693061E+03  0.7561462E-02  0.1178573E+00
          1   -1    0    0  501    0  0.00000000000E+00  0.00000000000E+00  0.23285806070E+02  0.23285806070E+02  0.00000000000E+00 0. -1.
         -1   -1    0    0    0  501 -0.00000000000E+00 -0.00000000000E+00 -0.15939095708E+04  0.15939095708E+04  0.00000000000E+00 0.  1.
         25    2    1    2    0    0 -0.85900759649E+02  0.12524791584E+03 -0.10250133528E+04  0.10437282658E+04  0.12510131284E+03 0.  0.
         23    2    1    2    0    0  0.85900759649E+02 -0.12524791584E+03 -0.54561041193E+03  0.57346711107E+03  0.90043461440E+02 0.  0.
          5    1    3    3  502    0  0.83010465668E+01  0.93821685298E+01 -0.43154586809E+03  0.43174789070E+03  0.41800000000E+01 0.  1.
         -5    1    3    3    0  502 -0.94201806215E+02  0.11586574731E+03 -0.59346748474E+03  0.61198037512E+03  0.41800000000E+01 0.  1.
        -11    1    4    4    0    0 -0.14332261621E+02 -0.46183791727E+02 -0.17069655617E+03  0.17741384002E+03  0.00000000000E+00 0.  1.
         11    1    4    4    0    0  0.10023302127E+03 -0.79064124108E+02 -0.37491385576E+03  0.39605327105E+03  0.00000000000E+00 0. -1.
</event>
<event>
 8    1  0.6850220E-009  0.9102593E+02  0.7561462E-02  0.1300386E+00
         -3   -1    0    0    0  501 -0.00000000000E+00  0.00000000000E+00  0.23421732632E+02  0.23421732632E+02  0.00000000000E+00 0.  1.
          3   -1    0    0  501    0  0.00000000000E+00 -0.00000000000E+00 -0.72639314338E+03  0.72639314338E+03  0.00000000000E+00 0. -1.
         25    2    1    2    0    0 -0.50657161594E+02 -0.19354664311E+01 -0.24360793373E+03  0.27849895339E+03  0.12508775963E+03 0.  0.
         23    2    1    2    0    0  0.50657161594E+02  0.19354664311E+01 -0.45936347701E+03  0.47131592262E+03  0.92487841651E+02 0.  0.
          5    1    3    3  502    0 -0.12265715901E+02 -0.27493649136E+02 -0.22741891240E+03  0.22944102215E+03  0.41800000000E+01 0. -1.
         -5    1    3    3    0  502 -0.38391445693E+02  0.25558182705E+02 -0.16189021338E+02  0.49057931239E+02  0.41800000000E+01 0. -1.
        -11    1    4    4    0    0  0.74607016147E+02  0.17696429488E+02 -0.34420296589E+03  0.35264011712E+03  0.00000000000E+00 0. -1.
         11    1    4    4    0    0 -0.23949854553E+02 -0.15760963057E+02 -0.11516051112E+03  0.11867580550E+03  0.00000000000E+00 0.  1.
</event>
<event>
 8    1  0.6850220E-009  0.1978560E+03  0.7561462E-02  0.1151561E+00
         -2   -1    0    0    0  501 -0.00000000000E+00  0.00000000000E+00  0.35247837556E+02  0.35247837556E+02  0.00000000000E+00 0. -1.
          2   -1    0    0  501    0  0.00000000000E+00 -0.00000000000E+00 -0.12434439955E+04  0.12434439955E+04  0.00000000000E+00 0.  1.
         25    2    1    2    0    0 -0.15915817323E+03  0.66286319001E+02 -0.49307089074E+03  0.53711398412E+03  0.12508928192E+03 0.  0.
         23    2    1    2    0    0  0.15915817323E+03 -0.66286319001E+02 -0.71512526725E+03  0.74157784898E+03  0.93852853157E+02 0.  0.
          5    1    3    3  502    0 -0.23687086596E+02 -0.33283696557E+02 -0.61680246623E+02  0.74099984827E+02  0.41800000000E+01 0.  1.
         -5    1    3    3    0  502 -0.13547108663E+03  0.99570015558E+02 -0.43139064411E+03  0.46301399929E+03  0.41800000000E+01 0.  1.
        -11    1    4    4    0    0  0.67010530899E+02  0.88210793631E+01 -0.38066419562E+03  0.38661796715E+03  0.00000000000E+00 0.  1.
         11    1    4    4    0    0  0.92147642328E+02 -0.75107398364E+02 -0.33446107162E+03  0.35495988183E+03  0.00000000000E+00 0. -1.
</event>
<event>
 8    1  0.6850220E-009  0.1163012E+03  0.7561462E-02  0.1249327E+00
         -2   -1    0    0    0  501 -0.00000000000E+00  0.00000000000E+00  0.19323342759E+02  0.19323342759E+02  0.00000000000E+00 0.  1.
          2   -1    0    0  501    0  0.00000000000E+00 -0.00000000000E+00 -0.84274977191E+03  0.84274977191E+03  0.00000000000E+00 0. -1.
         25    2    1    2    0    0 -0.64459618608E+01 -0.55548283983E+02 -0.59303115009E+03  0.60865514033E+03  0.12509185662E+03 0.  0.
         23    2    1    2    0    0  0.64459618608E+01  0.55548283983E+02 -0.23039527906E+03  0.25341797434E+03  0.89507110485E+02 0.  0.
          5    1    3    3  502    0  0.88837856640E+01  0.34373208016E+02 -0.28913034668E+03  0.29133188780E+03  0.41800000000E+01 0.  1.
         -5    1    3    3    0  502 -0.15329747525E+02 -0.89921491999E+02 -0.30390080341E+03  0.31732325253E+03  0.41800000000E+01 0.  1.
        -11    1    4    4    0    0 -0.37908151146E+02  0.46978383371E+02 -0.13177310310E+03  0.14494187500E+03  0.00000000000E+00 0. -1.
         11    1    4    4    0    0  0.44354113007E+02  0.85699006123E+01 -0.98622175959E+02  0.10847609934E+03  0.00000000000E+00 0.  1.
</event>
<event>
 8    1  0.6850220E-009  0.5925059E+02  0.7561462E-02  0.1401004E+00
          4   -1    0    0  501    0  0.00000000000E+00  0.00000000000E+00  0.10786160204E+04  0.10786160204E+04  0.00000000000E+00 0. -1.
         -4   -1    0    0    0  501 -0.00000000000E+00 -0.00000000000E+00 -0.11861042853E+02  0.11861042853E+02  0.00000000000E+00 0.  1.
         25    2    1    2    0    0 -0.12630306211E+02 -0.13675730171E+02  0.76639136886E+03  0.77675615283E+03  0.12509132851E+03 0.  0.
         23    2    1    2    0    0  0.12630306211E+02  0.13675730171E+02  0.30036360871E+03  0.31372091045E+03  0.88633864758E+02 0.  0.
          5    1    3    3  502    0 -0.19268275581E+02  0.38739065166E+01  0.75314064200E+03  0.75340863588E+03  0.41800000000E+01 0. -1.
         -5    1    3    3    0  502  0.66379693694E+01 -0.17549636687E+02  0.13250726860E+02  0.23347516945E+02  0.41800000000E+01 0. -1.
        -11    1    4    4    0    0  0.25033197107E+02 -0.26905726801E+02  0.65957167362E+02  0.75504483433E+02  0.00000000000E+00 0.  1.
         11    1    4    4    0    0 -0.12402890896E+02  0.40581456971E+02  0.23440644135E+03  0.23821642701E+03  0.00000000000E+00 0. -1.
</event>
<event>
 8    1  0.6850220E-009  0.1496683E+03  0.7561462E-02  0.1200881E+00
         -2   -1    0    0    0  501 -0.00000000000E+00  0.00000000000E+00  0.34349337075E+02  0.34349337075E+02  0.00000000000E+00 0.  1.
          2   -1    0    0  501    0  0.00000000000E+00 -0.00000000000E+00 -0.92457541998E+03  0.92457541998E+03  0.00000000000E+00 0. -1.
         25    2    1    2    0    0  0.12392005999E+03 -0.34414101167E+02 -0.62354727873E+03  0.64884461386E+03  0.12509041727E+03 0.  0.
         23    2    1    2    0    0 -0.12392005999E+03  0.34414101167E+02 -0.26667880417E+03  0.31008014320E+03  0.92149872387E+02 0.  0.
          5    1    3    3  502    0  0.66734230526E+02 -0.56782724057E+02 -0.17156232496E+03  0.19268845067E+03  0.41800000000E+01 0.  1.
         -5    1    3    3    0  502  0.57185829467E+02  0.22368622890E+02 -0.45198495377E+03  0.45615616319E+03  0.41800000000E+01 0.  1.
        -11    1    4    4    0    0 -0.76484235377E+02 -0.18819085109E+02 -0.18836466539E+03  0.20416964366E+03  0.00000000000E+00 0. -1.
         11    1    4    4    0    0 -0.47435824615E+02  0.53233186276E+02 -0.78314138786E+02  0.10591049954E+03  0.00000000000E+00 0.  1.
</event>
<event>
 8    1  0.6850220E-009  0.1050358E+03  0.7561462E-02  0.1270049E+00
          1   -1    0    0  501    0  0.00000000000E+00  0.00000000000E+00  0.10333131450E+03  0.10333131450E+03  0.00000000000E+00 0. -1.
         -1   -1    0    0    0  501 -0.00000000000E+00 -0.00000000000E+00 -0.16053633645E+03  0.16053633645E+03  0.00000000000E+00 0.  1.
         25    2    1    2    0    0 -0.46841286730E+02  0.12513515327E+02  0.31579100524E+02  0.13782528176E+03  0.12509146451E+03 0.  0.
         23    2    1    2    0    0  0.46841286730E+02 -0.12513515327E+02 -0.88784122478E+02  0.12604236919E+03  0.75188857011E+02 0.  0.
          5    1    3    3  502    0  0.20681748178E+02 -0.42153984978E+02  0.95000208480E+01  0.48087586270E+02  0.41800000000E+01 0. -1.
         -5    1    3    3    0  502 -0.67523034908E+02  0.54667500305E+02  0.22079079676E+02  0.89737695491E+02  0.41800000000E+01 0. -1.
        -11    1    4    4    0    0  0.11439275097E+02 -0.33085648719E+02 -0.75121176314E+02  0.82877670676E+02  0.00000000000E+00 0.  1.
         11    1    4    4    0    0  0.35402011633E+02  0.20572133392E+02 -0.13662946164E+02  0.43164698515E+02  0.00000000000E+00 0. -1.
</event>
<event>
 8    1  0.6850220E-009  0.2903914E+03  0.7561462E-02  0.1090145E+00
          3   -1    0    0  501    0  0.00000000000E+00  0.00000000000E+00  0.24346508012E+03  0.24346508012E+03  0.00000000000E+00 0. -1.
         -3   -1    0    0    0  501 -0.00000000000E+00 -0.00000000000E+00 -0.36246424107E+03  0.36246424107E+03  0.00000000000E+00 0.  1.
         25    2    1    2    0    0 -0.18824403828E+03 -0.20230487407E+03 -0.65027214484E+02  0.31022477251E+03  0.12509113014E+03 0.  0.
         23    2    1    2    0    0  0.18824403828E+03  0.20230487407E+03 -0.53971946471E+02  0.29570454868E+03  0.90361103824E+02 0.  0.
          5    1    3    3  502    0 -0.12396969506E+03 -0.18777340389E+03 -0.86043045357E+02  0.24093197080E+03  0.41800000000E+01 0.  1.
         -5    1    3    3    0  502 -0.64274343222E+02 -0.14531470181E+02  0.21015830872E+02  0.69292801714E+02  0.41800000000E+01 0.  1.
        -11    1    4    4    0    0  0.11807807491E+02  0.65212653984E+02 -0.22898061940E+02  0.70117300276E+02  0.00000000000E+00 0. -1.
         11    1    4    4    0    0  0.17643623079E+03  0.13709222008E+03 -0.31073884531E+02  0.22558724840E+03  0.00000000000E+00 0.  1.
</event>
<event>
 8    1  0.6850220E-009  0.8081888E+02  0.7561462E-02  0.1326744E+00
          2   -1    0    0  501    0  0.00000000000E+00  0.00000000000E+00  0.30476018287E+03  0.30476018287E+03  0.00000000000E+00 0. -1.
         -2   -1    0    0    0  501 -0.00000000000E+00 -0.00000000000E+00 -0.44229141776E+02  0.44229141776E+02  0.00000000000E+00 0.  1.
         25    2    1    2    0    0 -0.40366163742E+02 -0.20688275297E+02  0.13377009806E+03  0.18867778691E+03  0.12508971272E+03 0.  0.
         23    2    1    2    0    0  0.40366163742E+02  0.20688275297E+02  0.12676094303E+03  0.16031153774E+03  0.87028848910E+02 0.  0.
          5    1    3    3  502    0  0.99656216479E+01 -0.45698183654E+02  0.39167997700E+01  0.47121665130E+02  0.41800000000E+01 0.  1.
         -5    1    3    3    0  502 -0.50331785390E+02  0.25009908357E+02  0.12985329829E+03  0.14155612178E+03  0.41800000000E+01 0.  1.
        -11    1    4    4    0    0  0.27654238056E+02 -0.64115181506E+01 -0.16716130650E+01  0.28436925602E+02  0.00000000000E+00 0.  1.
         11    1    4    4    0    0  0.12711925686E+02  0.27099793448E+02  0.12843255610E+03  0.13187461213E+03  0.00000000000E+00 0. -1.
</event>
<event>
 8    1  0.6850220E-009  0.1190329E+03  0.7561462E-02  0.1244701E+00
         -1   -1    0    0    0  501 -0.00000000000E+00  0.00000000000E+00  0.19897958951E+02  0.19897958951E+02  0.00000000000E+00 0.  1.
          1   -1    0    0  501    0  0.00000000000E+00 -0.00000000000E+00 -0.72841042197E+03  0.72841042197E+03  0.00000000000E+00 0. -1.
         25    2    1    2    0    0  0.56664954098E+01 -0.50514388691E+02 -0.42645392835E+03  0.44731894428E+03  0.12508985676E+03 0.  0.
         23    2    1    2    0    0 -0.56664954098E+01  0.50514388691E+02 -0.28205853466E+03  0.30098943664E+03  0.91944610274E+02 0.  0.
          5    1    3    3  502    0 -0.50676853493E+02 -0.58893795174E+02 -0.25434199835E+03  0.26597734324E+03  0.41800000000E+01 0. -1.
         -5    1    3    3    0  502  0.56343348902E+02  0.83794064827E+01 -0.17211193000E+03  0.18134160104E+03  0.41800000000E+01 0. -1.
        -11    1    4    4    0    0  0.42127680342E+02  0.23252934165E+02 -0.16049961570E+03  0.16755765288E+03  0.00000000000E+00 0.  1.
         11    1    4    4    0    0 -0.47794175752E+02  0.27261454526E+02 -0.12155891896E+03  0.13343178376E+03  0.00000000000E+00 0. -1.
</event>
<event>
 8    1  0.6850220E-009  0.1052142E+03  0.7561462E-02  0.1269698E+00
          1   -1    0    0  501    0  0.00000000000E+00  0.00000000000E+00  0.55685841028E+02  0.55685841028E+02  0.00000000000E+00 0. -1.
         -1   -1    0    0    0  501 -0.00000000000E+00 -0.00000000000E+00 -0.30961181179E+03  0.30961181179E+03  0.00000000000E+00 0.  1.
         25    2    1    2    0    0  0.41515732083E+02  0.52105283897E+02 -0.18596634664E+03  0.23381493627E+03  0.12508967072E+03 0.  0.
         23    2    1    2    0    0 -0.41515732083E+02 -0.52105283897E+02 -0.67959624123E+02  0.13148271655E+03  0.90723082066E+02 0.  0.
          5    1    3    3  502    0  0.81767277986E+02  0.86573994689E+01 -0.10995512413E+03  0.13736244042E+03  0.41800000000E+01 0. -1.
         -5    1    3    3    0  502 -0.40251545903E+02  0.43447884428E+02 -0.76011222504E+02  0.96452495848E+02  0.41800000000E+01 0. -1.
        -11    1    4    4    0    0 -0.31580885400E+02 -0.26390714901E+02 -0.88168921384E+02  0.97301494611E+02  0.00000000000E+00 0.  1.
         11    1    4    4    0    0 -0.99348466827E+01 -0.25714568996E+02  0.20209297261E+02  0.34181221936E+02  0.00000000000E+00 0. -1.
</event>
<event>
 8    1  0.6850220E-009  0.4917235E+02  0.7561462E-02  0.1449857E+00
         -1   -1    0    0    0  501 -0.00000000000E+00  0.00000000000E+00  0.14792571173E+03  0.14792571173E+03  0.00000000000E+00 0.  1.
          1   -1    0    0  501    0  0.00000000000E+00 -0.00000000000E+00 -0.94955713428E+02  0.94955713428E+02  0.00000000000E+00 0. -1.
         25    2    1    2    0    0 -0.25822536814E+02  0.70645615521E+01  0.67623921278E+02  0.14469754012E+03  0.12509065492E+03 0.  0.
         23    2    1    2    0    0  0.25822536814E+02 -0.70645615521E+01 -0.14653922979E+02  0.98183885038E+02  0.93320021351E+02 0.  0.
          5    1    3    3  502    0  0.54201734165E+01  0.25681513006E+02  0.95215778926E+02  0.98855628806E+02  0.41800000000E+01 0.  1.
         -5    1    3    3    0  502 -0.31242710230E+02 -0.18616951454E+02 -0.27591857649E+02  0.45841911309E+02  0.41800000000E+01 0.  1.
        -11    1    4    4    0    0  0.16669093430E+02 -0.15462260029E+02  0.37891867128E+02  0.44189747175E+02  0.00000000000E+00 0.  1.
         11    1    4    4    0    0  0.91534433841E+01  0.83976984771E+01 -0.52545790107E+02  0.53994137862E+02  0.00000000000E+00 0. -1.
</event>
<event>
 8    1  0.6850220E-009  0.4791530E+02  0.7561462E-02  0.1456921E+00
         -1   -1    0    0    0  501 -0.00000000000E+00  0.00000000000E+00  0.15067563031E+03  0.15067563031E+03  0.00000000000E+00 0.  1.
          1   -1    0    0  501    0  0.00000000000E+00 -0.00000000000E+00 -0.10872317732E+03  0.10872317732E+03  0.00000000000E+00 0. -1.
         25    2    1    2    0    0  0.10161658785E+02  0.23832157086E+02  0.87049570125E+02  0.15459284134E+03  0.12510031141E+03 0.  0.
         23    2    1    2    0    0 -0.10161658785E+02 -0.23832157086E+02 -0.45097117135E+02  0.10480596628E+03  0.90990711464E+02 0.  0.
          5    1    3    3  502    0 -0.22246020270E+02  0.13167642204E+01 -0.26166803428E+02  0.34623594376E+02  0.41800000000E+01 0. -1.
         -5    1    3    3    0  502  0.32407679056E+02  0.22515392865E+02  0.11321637355E+03  0.11996924697E+03  0.41800000000E+01 0. -1.
        -11    1    4    4    0    0 -0.13834782363E+02 -0.56809714242E+01 -0.71226307320E+02  0.72779540352E+02  0.00000000000E+00 0. -1.
         11    1    4    4    0    0  0.36731235781E+01 -0.18151185661E+02  0.26129190186E+02  0.32026425924E+02  0.00000000000E+00 0.  1.
</event>
<event>
 8    1  0.6850220E-009  0.1258557E+03  0.7561462E-02  0.1233738E+00
         -2   -1    0    0    0  501 -0.00000000000E+00  0.00000000000E+00  0.42717354342E+02  0.42717354342E+02  0.00000000000E+00 0.  1.
          2   -1    0    0  501    0  0.00000000000E+00 -0.00000000000E+00 -0.65797870851E+03  0.65797870851E+03  0.00000000000E+00 0. -1.
         25    2    1    2    0    0  0.32546402767E+02 -0.53913499350E+01 -0.54024561599E+03  0.55551991007E+03  0.12509480365E+03 0.  0.
         23    2    1    2    0    0 -0.32546402767E+02  0.53913499350E+01 -0.75015738180E+02  0.14517615278E+03  0.11983496725E+03 0.  0.
          5    1    3    3  502    0 -0.10069133529E+02 -0.58793319898E+02 -0.28870718875E+03  0.29483445381E+03  0.41800000000E+01 0. -1.
         -5    1    3    3    0  502  0.42615536296E+02  0.53401969963E+02 -0.25153842724E+03  0.26068545626E+03  0.41800000000E+01 0. -1.
        -11    1    4    4    0    0 -0.19085306368E+02 -0.56755393087E+02 -0.28041383359E+02  0.66119155653E+02  0.00000000000E+00 0.  1.
         11    1    4    4    0    0 -0.13461096399E+02  0.62146743022E+02 -0.46974354821E+02  0.79056997131E+02  0.00000000000E+00 0. -1.
</event>
<event>
 8    1  0.6850220E-009  0.1239502E+03  0.7561462E-02  0.1236719E+00
          2   -1    0    0  501    0  0.00000000000E+00  0.00000000000E+00  0.12385827297E+04  0.12385827297E+04  0.00000000000E+00 0. -1.
         -2   -1    0    0    0  501 -0.00000000000E+00 -0.00000000000E+00 -0.21513114267E+02  0.21513114267E+02  0.00000000000E+00 0.  1.
         25    2    1    2    0    0 -0.99529922053E+02 -0.38550478765E+02  0.85913448942E+03  0.87472922496E+03  0.12508717475E+03 0.  0.
         23    2    1    2    0    0  0.99529922053E+02  0.38550478765E+02  0.35793512606E+03  0.38536661905E+03  0.94855320455E+02 0.  0.
          5    1    3    3  502    0 -0.91104806687E+02 -0.13744077756E+01  0.79341055257E+03  0.79863618258E+03  0.41800000000E+01 0.  1.
         -5    1    3    3    0  502 -0.84251153658E+01 -0.37176070989E+02  0.65723936855E+02  0.76093042381E+02  0.41800000000E+01 0.  1.
        -11    1    4    4    0    0  0.20740184235E+02  0.33487328212E+02  0.34269573882E+02  0.52210727700E+02  0.00000000000E+00 0.  1.
         11    1    4    4    0    0  0.78789737818E+02  0.50631505525E+01  0.32366555218E+03  0.33315589136E+03  0.00000000000E+00 0. -1.
</event>
<event>
 8    1  0.6850220E-009  0.1613189E+03  0.7561462E-02  0.1187216E+00
         -1   -1    0    0    0  501 -0.00000000000E+00  0.00000000000E+00  0.30821675636E+02  0.30821675636E+02  0.00000000000E+00 0.  1.
          1   -1    0    0  501    0  0.00000000000E+00 -0.00000000000E+00 -0.99727827806E+03  0.99727827806E+03  0.00000000000E+00 0. -1.
         25    2    1    2    0    0 -0.13314703467E+03 -0.22166932280E+01 -0.40497422841E+03  0.44427932958E+03  0.12508777098E+03 0.  0.
         23    2    1    2    0    0  0.13314703467E+03  0.22166932280E+01 -0.56148237402E+03  0.58382062411E+03  0.88605971814E+02 0.  0.
          5    1    3    3  502    0 -0.94824595815E+02 -0.46445239960E+02 -0.34313051971E+03  0.35903327177E+03  0.41800000000E+01 0.  1.
         -5    1    3    3    0  502 -0.38322438853E+02  0.44228546732E+02 -0.61843708699E+02  0.85246057805E+02  0.41800000000E+01 0.  1.
        -11    1    4    4    0    0  0.32223061890E+02  0.39258479181E+02 -0.22137063224E+03  0.22712223740E+03  0.00000000000E+00 0. -1.
         11    1    4    4    0    0  0.10092397278E+03 -0.37041785953E+02 -0.34011174178E+03  0.35669838671E+03  0.00000000000E+00 0.  1.
</event>
<event>
 7    1  0.6850220E-009  0.1570491E+03  0.7561462E-02  0.1192069E+00
          1   -1    0    0  501    0  0.00000000000E+00  0.00000000000E+00  0.40227200712E+03  0.40227200712E+03  0.00000000000E+00 0. -1.
         -1   -1    0    0    0  501 -0.00000000000E+00 -0.00000000000E+00 -0.94465918205E+02  0.94465918205E+02  0.00000000000E+00 0.  1.
         23    2    1    2    0    0 -0.13625078989E+03  0.16367876793E+02  0.37846995429E+02  0.16913721790E+03  0.91339029325E+02 0.  0.
          5    1    1    2  502    0 -0.39353665047E+01 -0.70452011169E+01  0.12626594667E+03  0.12659258926E+03  0.41800000000E+01 0. -1.
         -5    1    1    2    0  502  0.14018615640E+03 -0.93226756756E+01  0.14369314682E+03  0.20100811817E+03  0.41800000000E+01 0. -1.
        -11    1    3    3    0    0 -0.53953809216E+01  0.32194140323E+02  0.12248964380E+02  0.34865598156E+02  0.00000000000E+00 0.  1.
         11    1    3    3    0    0 -0.13085540897E+03 -0.15826263530E+02  0.25598031049E+02  0.13427161974E+03  0.00000000000E+00 0. -1.
</event>
<event>
 8    1  0.6850220E-009  0.1121560E+03  0.7561462E-02  0.1256629E+00
         -2   -1    0    0    0  501 -0.00000000000E+00  0.00000000000E+00  0.11903329788E+03  0.11903329788E+03  0.00000000000E+00 0.  1.
          2   -1    0    0  501    0  0.00000000000E+00 -0.00000000000E+00 -0.11980040714E+03  0.11980040714E+03  0.00000000000E+00 0. -1.
         25    2    1    2    0    0  0.22974006117E+02  0.35765175427E+02  0.26571672910E+02  0.13476468185E+03  0.12509401642E+03 0.  0.
         23    2    1    2    0    0 -0.22974006117E+02 -0.35765175427E+02 -0.27338782166E+02  0.10406902316E+03  0.90972522454E+02 0.  0.
          5    1    3    3  502    0  0.27061713614E+02  0.81387745684E+02  0.13315931979E+02  0.86896996126E+02  0.41800000000E+01 0.  1.
         -5    1    3    3    0  502 -0.40877074971E+01 -0.45622570256E+02  0.13255740931E+02  0.47867685729E+02  0.41800000000E+01 0.  1.
        -11    1    4    4    0    0  0.54271009691E+00 -0.59225370116E+02  0.26917764135E+01  0.59288992738E+02  0.00000000000E+00 0.  1.
         11    1    4    4    0    0 -0.23516716214E+02  0.23460194689E+02 -0.30030558580E+02  0.44780030426E+02  0.00000000000E+00 0. -1.
</event>
<event>
 8    1  0.6850220E-009  0.1366523E+03  0.7561462E-02  0.1217906E+00
         -4   -1    0    0    0  501 -0.00000000000E+00  0.00000000000E+00  0.33983533176E+02  0.33983533176E+02  0.00000000000E+00 0.  1.
          4   -1    0    0  501    0  0.00000000000E+00 -0.00000000000E+00 -0.69945901638E+03  0.69945901638E+03  0.00000000000E+00 0. -1.
         25    2    1    2    0    0 -0.10091026622E+03  0.32235493564E+02 -0.42907532928E+03  0.45932340330E+03  0.12510132593E+03 0.  0.
         23    2    1    2    0    0  0.10091026622E+03 -0.32235493564E+02 -0.23640015393E+03  0.27411914626E+03  0.89634059908E+02 0.  0.
          5    1    3    3  502    0  0.23603078462E-01 -0.27329796967E+02 -0.20071645177E+03  0.20261166001E+03  0.41800000000E+01 0.  1.
         -5    1    3    3    0  502 -0.10093386930E+03  0.59565290531E+02 -0.22835887751E+03  0.25671174329E+03  0.41800000000E+01 0.  1.
        -11    1    4    4    0    0  0.98195433725E+02 -0.21946641334E+01 -0.21716717061E+03  0.23834584063E+03  0.00000000000E+00 0. -1.
         11    1    4    4    0    0  0.27148324940E+01 -0.30040829430E+02 -0.19232983317E+02  0.35773305629E+02  0.00000000000E+00 0.  1.
</event>
<event>
 8    1  0.6850220E-009  0.1599127E+03  0.7561462E-02  0.1188795E+00
          1   -1    0    0  501    0  0.00000000000E+00  0.00000000000E+00  0.20909869736E+03  0.20909869736E+03  0.00000000000E+00 0. -1.
         -1   -1    0    0    0  501 -0.00000000000E+00 -0.00000000000E+00 -0.17043144957E+03  0.17043144957E+03  0.00000000000E+00 0.  1.
         25    2    1    2    0    0  0.22184769819E+02  0.11520064028E+03  0.12014033882E+03  0.20939000628E+03  0.12508845745E+03 0.  0.
         23    2    1    2    0    0 -0.22184769819E+02 -0.11520064028E+03 -0.81473091034E+02  0.17014014064E+03  0.92447019221E+02 0.  0.
          5    1    3    3  502    0  0.23921411155E+02  0.14199453638E+03  0.96688746837E+02  0.17349601851E+03  0.41800000000E+01 0.  1.
         -5    1    3    3    0  502 -0.17366413357E+01 -0.26793896104E+02  0.23451591985E+02  0.35893987772E+02  0.41800000000E+01 0.  1.
        -11    1    4    4    0    0 -0.46407899720E+02 -0.20301936684E+02 -0.19728953284E+02  0.54360770665E+02  0.00000000000E+00 0.  1.
         11    1    4    4    0    0  0.24223129901E+02 -0.94898703592E+02 -0.61744137751E+02  0.11577936998E+03  0.00000000000E+00 0. -1.
</event>
<event>
 8    1  0.6850220E-009  0.1125964E+03  0.7561462E-02  0.1255836E+00
          2   -1    0    0  501    0  0.00000000000E+00  0.00000000000E+00  0.32061818011E+03  0.32061818011E+03  0.00000000000E+00 0. -1.
         -2   -1    0    0    0  501 -0.00000000000E+00 -0.00000000000E+00 -0.47388317877E+02  0.47388317877E+02  0.00000000000E+00 0.  1.
         25    2    1    2    0    0 -0.76555423819E+01 -0.48339077142E+02  0.10984806546E+03  0.17352106957E+03  0.12509072864E+03 0.  0.
         23    2    1    2    0    0  0.76555423819E+01  0.48339077142E+02  0.16338179678E+03  0.19448542842E+03  0.93464948740E+02 0.  0.
          5    1    3    3  502    0 -0.25253274422E+02  0.38037074606E+02  0.32834480583E+02  0.56392574234E+02  0.41800000000E+01 0.  1.
         -5    1    3    3    0  502  0.17597732040E+02 -0.86376151747E+02  0.77013584878E+02  0.11712849533E+03  0.41800000000E+01 0.  1.
        -11    1    4    4    0    0  0.32192733894E+02 -0.48153820644E+01  0.16769985342E+02  0.36616832582E+02  0.00000000000E+00 0.  1.
         11    1    4    4    0    0 -0.24537191512E+02  0.53154459206E+02  0.14661181143E+03  0.15786859584E+03  0.00000000000E+00 0. -1.
</event>
<event>
 8    1  0.6850220E-009  0.9934704E+02  0.7561462E-02  0.1281675E+00
         -1   -1    0    0    0  501 -0.00000000000E+00  0.00000000000E+00  0.47569038074E+02  0.47569038074E+02  0.00000000000E+00 0.  1.
          1   -1    0    0  501    0  0.00000000000E+00 -0.00000000000E+00 -0.36234829469E+03  0.36234829469E+03  0.00000000000E+00 0. -1.
         25    2    1    2    0    0  0.72817800217E+02  0.20102537262E+01 -0.14657038214E+03  0.20601890273E+03  0.12511769744E+03 0.  0.
         23    2    1    2    0    0 -0.72817800217E+02 -0.20102537262E+01 -0.16820887447E+03  0.20389843003E+03  0.89296535031E+02 0.  0.
          5    1    3    3  502    0  0.52582416615E+02  0.21508907948E+02 -0.24967445752E+00  0.56965589575E+02  0.41800000000E+01 0.  1.
         -5    1    3    3    0  502  0.20235383602E+02 -0.19498654222E+02 -0.14632070768E+03  0.14905331316E+03  0.41800000000E+01 0.  1.
        -11    1    4    4    0    0 -0.61041625303E+02  0.37803743743E+02 -0.12372370244E+03  0.14304809543E+03  0.00000000000E+00 0. -1.
         11    1    4    4    0    0 -0.11776174915E+02 -0.39813997469E+02 -0.44485172031E+02  0.60850334598E+02  0.00000000000E+00 0.  1.
</event>
<event>
 8    1  0.6850220E-009  0.1201841E+03  0.7561462E-02  0.1242794E+00
          2   -1    0    0  501    0  0.00000000000E+00  0.00000000000E+00  0.40705840428E+03  0.40705840428E+03  0.00000000000E+00 0. -1.
         -2   -1    0    0    0  501 -0.00000000000E+00 -0.00000000000E+00 -0.82028066534E+02  0.82028066534E+02  0.00000000000E+00 0.  1.
         25    2    1    2    0    0  0.10879210785E+03 -0.40262763970E+02  0.29187441192E+03  0.33807735120E+03  0.12509520441E+03 0.  0.
         23    2    1    2    0    0 -0.10879210785E+03  0.40262763970E+02  0.33155925828E+02  0.15100911962E+03  0.90816440676E+02 0.  0.
          5    1    3    3  502    0  0.94256900258E+02 -0.35631184047E+02  0.88764175524E+02  0.13435213351E+03  0.41800000000E+01 0. -1.
         -5    1    3    3    0  502  0.14535207592E+02 -0.46315799238E+01  0.20311023639E+03  0.20372521768E+03  0.41800000000E+01 0. -1.
        -11    1    4    4    0    0 -0.26133166630E+02  0.30962138551E+02  0.51801246783E+02  0.65764470575E+02  0.00000000000E+00 0. -1.
         11    1    4    4    0    0 -0.82658941220E+02  0.93006254195E+01 -0.18645320955E+02  0.85244649042E+02  0.00000000000E+00 0.  1.
</event>
<event>
 7    1  0.6850220E-009  0.1073905E+03  0.7561462E-02  0.1265480E+00
         -1   -1    0    0    0  501 -0.00000000000E+00  0.00000000000E+00  0.64987348960E+02  0.64987348960E+02  0.00000000000E+00 0.  1.
          1   -1    0    0  501    0  0.00000000000E+00 -0.00000000000E+00 -0.23845012541E+03  0.23845012541E+03  0.00000000000E+00 0. -1.
         23    2    1    2    0    0 -0.12982209153E+02 -0.44212536404E+02 -0.39501157844E+02  0.11439891437E+03  0.96971562886E+02 0.  0.
          5    1    1    2  502    0 -0.41432247977E+02  0.30179215944E+02 -0.12062633888E+03  0.13113200326E+03  0.41800000000E+01 0. -1.
         -5    1    1    2    0  502  0.54414457130E+02  0.14033320459E+02 -0.13335279725E+02  0.57906556738E+02  0.41800000000E+01 0. -1.
        -11    1    3    3    0    0  0.41803428704E+02 -0.26183361423E+02 -0.22888481223E+02  0.54378098896E+02  0.00000000000E+00 0. -1.
         11    1    3    3    0    0 -0.54785637857E+02 -0.18029174981E+02 -0.16612676621E+02  0.60020815476E+02  0.00000000000E+00 0.  1.
</event>
<event>
 8    1  0.6850220E-009  0.1275714E+03  0.7561462E-02  0.1231105E+00
         -1   -1    0    0    0  501 -0.00000000000E+00  0.00000000000E+00  0.14578484618E+03  0.14578484618E+03  0.00000000000E+00 0.  1.
          1   -1    0    0  501    0  0.00000000000E+00 -0.00000000000E+00 -0.12938879286E+03  0.12938879286E+03  0.00000000000E+00 0. -1.
         25    2    1    2    0    0 -0.58554956311E+02 -0.37443683986E+02 -0.35486590950E+02  0.14743382626E+03  0.12508686026E+03 0.  0.
         23    2    1    2    0    0  0.58554956311E+02  0.37443683986E+02  0.51882644276E+02  0.12773981278E+03  0.93781334029E+02 0.  0.
          5    1    3    3  502    0  0.39479738428E+02 -0.12874870608E+02 -0.14024222963E+02  0.44029118424E+02  0.41800000000E+01 0. -1.
         -5    1    3    3    0  502 -0.98034694738E+02 -0.24568813378E+02 -0.21462367988E+02  0.10340470784E+03  0.41800000000E+01 0. -1.
        -11    1    4    4    0    0 -0.79455053722E+00  0.51301865147E+02  0.64261917037E+01  0.51708883356E+02  0.00000000000E+00 0. -1.
         11    1    4    4    0    0  0.59349506848E+02 -0.13858181161E+02  0.45456452572E+02  0.76030929421E+02  0.00000000000E+00 0.  1.
</event>
<event>
 8    1  0.6850220E-009  0.1970293E+03  0.7561462E-02  0.1152270E+00
         -2   -1    0    0    0  501 -0.00000000000E+00  0.00000000000E+00  0.93616361080E+02  0.93616361080E+02  0.00000000000E+00 0.  1.
          2   -1    0    0  501    0  0.00000000000E+00 -0.00000000000E+00 -0.76035947635E+03  0.76035947635E+03  0.00000000000E+00 0. -1.
         25    2    1    2    0    0  0.10794380812E+03 -0.15374077466E+03 -0.94183583019E+02  0.24455523936E+03  0.12509446943E+03 0.  0.
         23    2    1    2    0    0 -0.10794380812E+03  0.15374077466E+03 -0.57255953225E+03  0.60942059807E+03  0.90999757591E+02 0.  0.
          5    1    3    3  502    0  0.64569564190E+02 -0.67417582834E+02 -0.11238603713E+03  0.14615899848E+03  0.41800000000E+01 0.  1.
         -5    1    3    3    0  502  0.43374243930E+02 -0.86323191824E+02  0.18202454110E+02  0.98396240877E+02  0.41800000000E+01 0.  1.
        -11    1    4    4    0    0 -0.97139927837E+02  0.16295855140E+03 -0.55666782629E+03  0.58810774853E+03  0.00000000000E+00 0. -1.
         11    1    4    4    0    0 -0.10803880282E+02 -0.92177767460E+01 -0.15891705962E+02  0.21312849544E+02  0.00000000000E+00 0.  1.
</event>
<event>
 8    1  0.6850220E-009  0.1503713E+03  0.7561462E-02  0.1200017E+00
         -1   -1    0    0    0  501 -0.00000000000E+00  0.00000000000E+00  0.99216259948E+02  0.99216259948E+02  0.00000000000E+00 0.  1.
          1   -1    0    0  501    0  0.00000000000E+00 -0.00000000000E+00 -0.31150380034E+03  0.31150380034E+03  0.00000000000E+00 0. -1.
         25    2    1    2    0    0  0.12933666038E+03  0.46251183412E+02 -0.12716342319E+03  0.22512835696E+03  0.12508036307E+03 0.  0.
         23    2    1    2    0    0 -0.12933666038E+03 -0.46251183412E+02 -0.85124117198E+02  0.18559170332E+03  0.91274428673E+02 0.  0.
          5    1    3    3  502    0  0.18989278626E+02  0.24255308783E+02 -0.10612430458E+03  0.11058369287E+03  0.41800000000E+01 0.  1.
         -5    1    3    3    0  502  0.11034738175E+03  0.21995874630E+02 -0.21039118614E+02  0.11454466409E+03  0.41800000000E+01 0.  1.
        -11    1    4    4    0    0 -0.21051557135E+02 -0.43971359445E+02 -0.54317569227E+02  0.72986620938E+02  0.00000000000E+00 0. -1.
         11    1    4    4    0    0 -0.10828510324E+03 -0.22798239673E+01 -0.30806547972E+02  0.11260508239E+03  0.00000000000E+00 0.  1.
</event>
<event>
 8    1  0.6850220E-009  0.1015019E+03  0.7561462E-02  0.1277169E+00
          1   -1    0    0  501    0  0.00000000000E+00  0.00000000000E+00  0.29834662196E+03  0.29834662196E+03  0.00000000000E+00 0. -1.
         -1   -1    0    0    0  501 -0.00000000000E+00 -0.00000000000E+00 -0.67023620154E+02  0.67023620154E+02  0.00000000000E+00 0.  1.
         25    2    1    2    0    0  0.20121519881E+02 -0.16584822217E+01  0.12884930448E+02  0.12736059391E+03  0.12508826213E+03 0.  0.
         23    2    1    2    0    0 -0.20121519881E+02  0.16584822217E+01  0.21843807136E+03  0.23800964820E+03  0.92335126005E+02 0.  0.
          5    1    3    3  502    0 -0.79320978717E+01  0.51087080813E+02 -0.23866127575E+02  0.57095292696E+02  0.41800000000E+01 0.  1.
         -5    1    3    3    0  502  0.28053617753E+02 -0.52745563035E+02  0.36751058023E+02  0.70265301214E+02  0.41800000000E+01 0.  1.
        -11    1    4    4    0    0 -0.14252685765E+02 -0.43466101493E+02  0.14051168995E+03  0.14777001064E+03  0.00000000000E+00 0.  1.
         11    1    4    4    0    0 -0.58688341168E+01  0.45124583714E+02  0.77926381400E+02  0.90239637563E+02  0.00000000000E+00 0. -1.
</event>
<event>
 8    1  0.6850220E-009  0.1072565E+03  0.7561462E-02  0.1265736E+00
         -4   -1    0    0    0  501 -0.00000000000E+00  0.00000000000E+00  0.50203648537E+02  0.50203648537E+02  0.00000000000E+00 0.  1.
          4   -1    0    0  501    0  0.00000000000E+00 -0.00000000000E+00 -0.28924142277E+03  0.28924142277E+03  0.00000000000E+00 0. -1.
         25    2    1    2    0    0 -0.61998367303E+02  0.37690927067E+02 -0.17476637981E+03  0.22684829569E+03  0.12510978464E+03 0.  0.
         23    2    1    2    0    0  0.61998367303E+02 -0.37690927067E+02 -0.64271394428E+02  0.11259677562E+03  0.57295882992E+02 0.  0.
          5    1    3    3  502    0 -0.48894881155E+02 -0.36801684201E+02 -0.43175019473E+02  0.75010853013E+02  0.41800000000E+01 0. -1.
         -5    1    3    3    0  502 -0.13103486148E+02  0.74492611268E+02 -0.13159136033E+03  0.15183744267E+03  0.41800000000E+01 0. -1.
        -11    1    4    4    0    0  0.54493435377E+02 -0.19728836520E+02 -0.15362919925E+02  0.59956490876E+02  0.00000000000E+00 0.  1.
         11    1    4    4    0    0  0.75049319258E+01 -0.17962090547E+02 -0.48908474504E+02  0.52640284748E+02  0.00000000000E+00 0. -1.
</event>
<event>
 8    1  0.6850220E-009  0.8690650E+02  0.7561462E-02  0.1310521E+00
          2   -1    0    0  501    0  0.00000000000E+00  0.00000000000E+00  0.31774344910E+03  0.31774344910E+03  0.00000000000E+00 0.  1.
         -2   -1    0    0    0  501 -0.00000000000E+00 -0.00000000000E+00 -0.47084651825E+02  0.47084651825E+02  0.00000000000E+00 0. -1.
         25    2    1    2    0    0 -0.31229346657E+02  0.37249992611E+02  0.10692634367E+03  0.17159206056E+03  0.12509099981E+03 0.  0.
         23    2    1    2    0    0  0.31229346657E+02 -0.37249992611E+02  0.16373245360E+03  0.19323604036E+03  0.90382613879E+02 0.  0.
          5    1    3    3  502    0  0.17991493886E+02  0.33625299852E+02 -0.14059900622E+02  0.40859611450E+02  0.41800000000E+01 0. -1.
         -5    1    3    3    0  502 -0.49220840543E+02  0.36246927584E+01  0.12098624429E+03  0.13073244911E+03  0.41800000000E+01 0. -1.
        -11    1    4    4    0    0  0.44395068832E+01 -0.54091872736E+02  0.14851865166E+03  0.15812472864E+03  0.00000000000E+00 0.  1.
         11    1    4    4    0    0  0.26789839774E+02  0.16841880125E+02  0.15213801939E+02  0.35111311720E+02  0.00000000000E+00 0. -1.
</event>
<event>
 8    1  0.6850220E-009  0.9750385E+02  0.7561462E-02  0.1285634E+00
          2   -1    0    0  501    0  0.00000000000E+00  0.00000000000E+00  0.36707660240E+02  0.36707660240E+02  0.00000000000E+00 0. -1.
         -2   -1    0    0    0  501 -0.00000000000E+00 -0.00000000000E+00 -0.55732432645E+03  0.55732432645E+03  0.00000000000E+00 0.  1.
         25    2    1    2    0    0  0.82272748868E+02  0.13500967745E+02 -0.23420358656E+03  0.27830616875E+03  0.12510764273E+03 0.  0.
         23    2    1    2    0    0 -0.82272748868E+02 -0.13500967745E+02 -0.28641307965E+03  0.31572581794E+03  0.10343722049E+03 0.  0.
          5    1    3    3  502    0  0.78711915491E+01 -0.11603389486E+02 -0.18493397991E+03  0.18551184229E+03  0.41800000000E+01 0. -1.
         -5    1    3    3    0  502  0.74401557319E+02  0.25104357231E+02 -0.49269606643E+02  0.92794326455E+02  0.41800000000E+01 0. -1.
        -11    1    4    4    0    0 -0.69956273845E+02 -0.34036484776E+02 -0.28046133922E+03  0.29105141358E+03  0.00000000000E+00 0.  1.
         11    1    4    4    0    0 -0.12316475024E+02  0.20535517031E+02 -0.59517404327E+01  0.24674404368E+02  0.00000000000E+00 0. -1.
</event>
<event>
 8    1  0.6850220E-009  0.1913355E+03  0.7561462E-02  0.1157262E+00
          2   -1    0    0  501    0  0.00000000000E+00  0.00000000000E+00  0.12324053068E+03  0.12324053068E+03  0.00000000000E+00 0. -1.
         -2   -1    0    0    0  501 -0.00000000000E+00 -0.00000000000E+00 -0.40600689547E+03  0.40600689547E+03  0.00000000000E+00 0.  1.
         25    2    1    2    0    0  0.86302686897E+02  0.13783087869E+03 -0.27381192301E+03  0.34214908981E+03  0.12509006991E+03 0.  0.
         23    2    1    2    0    0 -0.86302686897E+02 -0.13783087869E+03 -0.89544417846E+01  0.18709833634E+03  0.92087461392E+02 0.  0.
          5    1    3    3  502    0  0.11110267783E+03  0.67447401500E+02 -0.18381042107E+03  0.22515927759E+03  0.41800000000E+01 0. -1.
         -5    1    3    3    0  502 -0.24799990937E+02  0.70383477191E+02 -0.90001501941E+02  0.11698981222E+03  0.41800000000E+01 0. -1.
        -11    1    4    4    0    0 -0.74674950095E+02 -0.14578737121E+03 -0.25053660913E+02  0.16570453132E+03  0.00000000000E+00 0.  1.
         11    1    4    4    0    0 -0.11627736801E+02  0.79564925198E+01  0.16099219128E+02  0.21393805012E+02  0.00000000000E+00 0. -1.
</event>
<event>
 8    1  0.6850220E-009  0.1186971E+03  0.7561462E-02  0.1245262E+00
         -1   -1    0    0    0  501 -0.00000000000E+00  0.00000000000E+00  0.51760193416E+02  0.51760193416E+02  0.00000000000E+00 0.  1.
          1   -1    0    0  501    0  0.00000000000E+00 -0.00000000000E+00 -0.33906280599E+03  0.33906280599E+03  0.00000000000E+00 0. -1.
         25    2    1    2    0    0 -0.56842267882E+01 -0.75334033635E+02 -0.14364295522E+03  0.20491041263E+03  0.12508977401E+03 0.  0.
         23    2    1    2    0    0  0.56842267882E+01  0.75334033635E+02 -0.14365965735E+03  0.18591258677E+03  0.90652444603E+02 0.  0.
          5    1    3    3  502    0  0.25033784301E+02 -0.84769915582E+02 -0.14777500578E+03  0.17224271735E+03  0.41800000000E+01 0. -1.
         -5    1    3    3    0  502 -0.30718011089E+02  0.94358819467E+01  0.41320505629E+01  0.32667695285E+02  0.41800000000E+01 0. -1.
        -11    1    4    4    0    0  0.38723753767E+02  0.73899235261E+02 -0.11547550549E+03  0.14246128753E+03  0.00000000000E+00 0. -1.
         11    1    4    4    0    0 -0.33039526979E+02  0.14347983742E+01 -0.28184151860E+02  0.43451299237E+02  0.00000000000E+00 0.  1.
</event>
<event>
 8    1  0.6850220E-009  0.1683451E+03  0.7561462E-02  0.1179585E+00
          1   -1    0    0  501    0  0.00000000000E+00  0.00000000000E+00  0.94531081378E+03  0.94531081378E+03  0.00000000000E+00 0. -1.
         -1   -1    0    0    0  501 -0.00000000000E+00 -0.00000000000E+00 -0.39975285813E+02  0.39975285813E+02  0.00000000000E+00 0.  1.
         25    2    1    2    0    0  0.11845619433E+03 -0.68202948303E+02  0.68540046943E+03  0.71000288116E+03  0.12508707218E+03 0.  0.
         23    2    1    2    0    0 -0.11845619433E+03  0.68202948303E+02  0.21993505853E+03  0.27528321843E+03  0.93412570054E+02 0.  0.
          5    1    3    3  502    0  0.12451211798E+03 -0.87327717404E+02  0.47884557437E+03  0.50243402974E+03  0.41800000000E+01 0.  1.
         -5    1    3    3    0  502 -0.60559236491E+01  0.19124769101E+02  0.20655489506E+03  0.20756885142E+03  0.41800000000E+01 0.  1.
        -11    1    4    4    0    0  0.88706248059E+01  0.29760237441E+02  0.28297631264E+02  0.42013279474E+02  0.00000000000E+00 0.  1.
         11    1    4    4    0    0 -0.12732681914E+03  0.38442710862E+02  0.19163742727E+03  0.23326993896E+03  0.00000000000E+00 0. -1.
</event>
<event>
 7    1  0.6850220E-009  0.8404806E+02  0.7561462E-02  0.1317941E+00
          2   -1    0    0  501    0  0.00000000000E+00  0.00000000000E+00  0.14887775420E+03  0.14887775420E+03  0.00000000000E+00 0. -1.
         -2   -1    0    0    0  501 -0.00000000000E+00 -0.00000000000E+00 -0.82109103122E+02  0.82109103122E+02  0.00000000000E+00 0.  1.
         23    2    1    2    0    0 -0.49353819364E+01 -0.22861139443E+02  0.25556085626E+02  0.96722622866E+02  0.90305938731E+02 0.  0.
          5    1    1    2  502    0  0.49779098113E+02  0.52583896500E+02  0.32989969102E+02  0.79679578572E+02  0.41800000000E+01 0. -1.
         -5    1    1    2    0  502 -0.44843716176E+02 -0.29722757056E+02  0.82225963546E+01  0.54584655887E+02  0.41800000000E+01 0. -1.
        -11    1    3    3    0    0  0.12278976895E+02 -0.20952250617E+02 -0.29960624399E+02  0.38566943019E+02  0.00000000000E+00 0.  1.
         11    1    3    3    0    0 -0.17214358832E+02 -0.19088888266E+01  0.55516710024E+02  0.58155679847E+02  0.00000000000E+00 0. -1.
</event>
<event>
 8    1  0.6850220E-009  0.9865275E+02  0.7561462E-02  0.1283155E+00
          1   -1    0    0  501    0  0.00000000000E+00  0.00000000000E+00  0.85506891535E+02  0.85506891535E+02  0.00000000000E+00 0. -1.
         -1   -1    0    0    0  501 -0.00000000000E+00 -0.00000000000E+00 -0.17035492216E+03  0.17035492216E+03  0.00000000000E+00 0.  1.
         25    2    1    2    0    0 -0.24322343793E+02  0.46927142028E+02 -0.58011406705E+02  0.14766986868E+03  0.12508930307E+03 0.  0.
         23    2    1    2    0    0  0.24322343793E+02 -0.46927142028E+02 -0.26836623922E+02  0.10819194502E+03  0.90507234609E+02 0.  0.
          5    1    3    3  502    0  0.21555438637E+02  0.74578813178E+02 -0.15778232563E+02  0.79328817794E+02  0.41800000000E+01 0. -1.
         -5    1    3    3    0  502 -0.45877782430E+02 -0.27651671149E+02 -0.42233174142E+02  0.68341050886E+02  0.41800000000E+01 0. -1.
        -11    1    4    4    0    0  0.30309173684E+02 -0.15888135547E+02 -0.55708760583E+02  0.65380003566E+02  0.00000000000E+00 0.  1.
         11    1    4    4    0    0 -0.59868298912E+01 -0.31039006481E+02  0.28872136661E+02  0.42811941452E+02  0.00000000000E+00 0. -1.
</event>
<event>
 8    1  0.6850220E-009  0.1279177E+03  0.7561462E-02  0.1230579E+00
          2   -1    0    0  501    0  0.00000000000E+00  0.00000000000E+00  0.22485908017E+03  0.22485908017E+03  0.00000000000E+00 0. -1.
         -2   -1    0    0    0  501 -0.00000000000E+00 -0.00000000000E+00 -0.16801188335E+03  0.16801188335E+03  0.00000000000E+00 0.  1.
         25    2    1    2    0    0 -0.75101835090E+02 -0.38794467732E+01  0.17337999487E+03  0.22666221234E+03  0.12513912315E+03 0.  0.
         23    2    1    2    0    0  0.75101835090E+02  0.38794467732E+01 -0.11653279805E+03  0.16620875118E+03  0.91597599347E+02 0.  0.
          5    1    3    3  502    0 -0.96900565171E+02  0.33014076296E+02  0.11340336456E+03  0.15283142431E+03  0.41800000000E+01 0.  1.
         -5    1    3    3    0  502  0.21798730081E+02 -0.36893523069E+02  0.59976630315E+02  0.73830788033E+02  0.41800000000E+01 0.  1.
        -11    1    4    4    0    0  0.50720940149E+02 -0.36961411475E+02 -0.35115326653E+02  0.71915546816E+02  0.00000000000E+00 0. -1.
         11    1    4    4    0    0  0.24380894941E+02  0.40840858248E+02 -0.81417471395E+02  0.94293204362E+02  0.00000000000E+00 0.  1.
</event>
<event>
 8    1  0.6850220E-009  0.1228061E+03  0.7561462E-02  0.1238538E+00
         -1   -1    0    0    0  501 -0.00000000000E+00  0.00000000000E+00  0.28712346490E+03  0.28712346490E+03  0.00000000000E+00 0.  1.
          1   -1    0    0  501    0  0.00000000000E+00 -0.00000000000E+00 -0.58973097563E+02  0.58973097563E+02  0.00000000000E+00 0. -1.
         25    2    1    2    0    0 -0.48803135368E+02  0.40510498712E+02  0.80454072431E+02  0.16168793502E+03  0.12508910438E+03 0.  0.
         23    2    1    2    0    0  0.48803135368E+02 -0.40510498712E+02  0.14769629490E+03  0.18440862744E+03  0.90385285404E+02 0.  0.
          5    1    3    3  502    0  0.15664947254E+02 -0.33463498458E+02  0.43459454337E+01  0.37437360259E+02  0.41800000000E+01 0. -1.
         -5    1    3    3    0  502 -0.64468082621E+02  0.73973997170E+02  0.76108126998E+02  0.12425057476E+03  0.41800000000E+01 0. -1.
        -11    1    4    4    0    0 -0.26168559346E+02 -0.28715988181E+01  0.40199527934E+02  0.48052488220E+02  0.00000000000E+00 0.  1.
         11    1    4    4    0    0  0.74971694714E+02 -0.37638899894E+02  0.10749676697E+03  0.13635613922E+03  0.00000000000E+00 0. -1.
</event>
<event>
 8    1  0.6850220E-009  0.1020931E+03  0.7561462E-02  0.1275955E+00
          4   -1    0    0  501    0  0.00000000000E+00  0.00000000000E+00  0.69227906111E+02  0.69227906111E+02  0.00000000000E+00 0. -1.
         -4   -1    0    0    0  501 -0.00000000000E+00 -0.00000000000E+00 -0.27450557626E+03  0.27450557626E+03  0.00000000000E+00 0.  1.
         25    2    1    2    0    0  0.64256794368E+02 -0.11354969508E+01 -0.18240371307E+03  0.23032368246E+03  0.12509060390E+03 0.  0.
         23    2    1    2    0    0 -0.64256794368E+02  0.11354969508E+01 -0.22873957079E+02  0.11340979992E+03  0.90599888679E+02 0.  0.
          5    1    3    3  502    0  0.85105325011E+02 -0.10606303190E+02 -0.57665215759E+02  0.10343190766E+03  0.41800000000E+01 0. -1.
         -5    1    3    3    0  502 -0.20848530643E+02  0.94708062391E+01 -0.12473849731E+03  0.12689177480E+03  0.41800000000E+01 0. -1.
        -11    1    4    4    0    0  0.14628027133E+02 -0.60548627579E+01  0.18249263213E+02  0.24159390486E+02  0.00000000000E+00 0. -1.
         11    1    4    4    0    0 -0.78884821502E+02  0.71903597087E+01 -0.41123220292E+02  0.89250409429E+02  0.00000000000E+00 0.  1.
</event>
<event>
 8    1  0.6850220E-009  0.1279802E+03  0.7561462E-02  0.1230484E+00
          2   -1    0    0  501    0  0.00000000000E+00  0.00000000000E+00  0.49918196450E+03  0.49918196450E+03  0.00000000000E+00 0.  1.
         -2   -1    0    0    0  501 -0.00000000000E+00 -0.00000000000E+00 -0.42031326472E+02  0.42031326472E+02  0.00000000000E+00 0. -1.
         25    2    1    2    0    0 -0.66485620314E+02  0.56753984190E+02  0.32730244021E+03  0.36113205286E+03  0.12509244504E+03 0.  0.
         23    2    1    2    0    0  0.66485620314E+02 -0.56753984190E+02  0.12984819781E+03  0.18008123811E+03  0.89035641248E+02 0.  0.
          5    1    3    3  502    0  0.29398844579E+02  0.24508473148E+02  0.35904285681E+02  0.52645488400E+02  0.41800000000E+01 0.  1.
         -5    1    3    3    0  502 -0.95884464893E+02  0.32245511042E+02  0.29139815453E+03  0.30848656446E+03  0.41800000000E+01 0.  1.
        -11    1    4    4    0    0 -0.17192856866E+02 -0.53580007808E+01  0.51176424131E+02  0.54252455119E+02  0.00000000000E+00 0.  1.
         11    1    4    4    0    0  0.83678477179E+02 -0.51395983409E+02  0.78671773682E+02  0.12582878299E+03  0.00000000000E+00 0. -1.
</event>
<event>
 8    1  0.6850220E-009  0.1326709E+03  0.7561462E-02  0.1223546E+00
          1   -1    0    0  501    0  0.00000000000E+00  0.00000000000E+00  0.13549049612E+04  0.13549049612E+04  0.00000000000E+00 0. -1.
         -1   -1    0    0    0  501 -0.00000000000E+00 -0.00000000000E+00 -0.13554286417E+02  0.13554286417E+02  0.00000000000E+00 0.  1.
         25    2    1    2    0    0  0.68578206273E+02  0.39609462841E+02  0.75983332770E+03  0.77412439705E+03  0.12510002522E+03 0.  0.
         23    2    1    2    0    0 -0.68578206273E+02 -0.39609462841E+02  0.58151734704E+03  0.59433485052E+03  0.93806234920E+02 0.  0.
          5    1    3    3  502    0 -0.28711379039E+02 -0.15942386302E+02  0.24494700424E+03  0.24717404850E+03  0.41800000000E+01 0. -1.
         -5    1    3    3    0  502  0.97289585312E+02  0.55551849143E+02  0.51488632346E+03  0.52695034855E+03  0.41800000000E+01 0. -1.
        -11    1    4    4    0    0 -0.16308267456E+02 -0.61375493052E+02  0.36791346083E+03  0.37335402153E+03  0.00000000000E+00 0. -1.
         11    1    4    4    0    0 -0.52269938817E+02  0.21766030211E+02  0.21360388621E+03  0.22098082898E+03  0.00000000000E+00 0.  1.
</event>
<event>
 8    1  0.6850220E-009  0.7015011E+02  0.7561462E-02  0.1359583E+00
         -1   -1    0    0    0  501 -0.00000000000E+00  0.00000000000E+00  0.21221416340E+03  0.21221416340E+03  0.00000000000E+00 0.  1.
          1   -1    0    0  501    0  0.00000000000E+00 -0.00000000000E+00 -0.58784068338E+02  0.58784068338E+02  0.00000000000E+00 0. -1.
         25    2    1    2    0    0 -0.24127808024E+02 -0.64126417204E+01  0.91915672306E+02  0.15722342379E+03  0.12508973211E+03 0.  0.
         23    2    1    2    0    0  0.24127808024E+02  0.64126417204E+01  0.61514422757E+02  0.11377480795E+03  0.92398103998E+02 0.  0.
          5    1    3    3  502    0 -0.31366724845E+02  0.10137098470E+02  0.11947393812E+03  0.12400857423E+03  0.41800000000E+01 0. -1.
         -5    1    3    3    0  502  0.72389168209E+01 -0.16549740191E+02 -0.27558265809E+02  0.33214849564E+02  0.41800000000E+01 0. -1.
        -11    1    4    4    0    0  0.55882103104E+02 -0.11293264934E+01  0.58640181227E+02  0.81010836806E+02  0.00000000000E+00 0.  1.
         11    1    4    4    0    0 -0.31754295080E+02  0.75419682137E+01  0.28742415298E+01  0.32763971141E+02  0.00000000000E+00 0. -1.
</event>
<event>
 8    1  0.6850220E-009  0.1213300E+03  0.7561462E-02  0.1240919E+00
          2   -1    0    0  501    0  0.00000000000E+00  0.00000000000E+00  0.21789430406E+03  0.21789430406E+03  0.00000000000E+00 0. -1.
         -2   -1    0    0    0  501 -0.00000000000E+00 -0.00000000000E+00 -0.89226232276E+02  0.89226232276E+02  0.00000000000E+00 0.  1.
         25    2    1    2    0    0 -0.60023352007E+02  0.60503007283E+02  0.57802979774E+02  0.16202904760E+03  0.12509520821E+03 0.  0.
         23    2    1    2    0    0  0.60023352007E+02 -0.60503007283E+02  0.70865092009E+02  0.14509148874E+03  0.93628319232E+02 0.  0.
          5    1    3    3  502    0 -0.59524643912E+02 -0.98712028108E+01 -0.13270195818E+02  0.61920871883E+02  0.41800000000E+01 0.  1.
         -5    1    3    3    0  502 -0.49870809547E+00  0.70374210094E+02  0.71073175592E+02  0.10010817571E+03  0.41800000000E+01 0.  1.
        -11    1    4    4    0    0  0.64265177836E+02 -0.15019583719E+02  0.74182121761E+02  0.99290423336E+02  0.00000000000E+00 0.  1.
         11    1    4    4    0    0 -0.42418258286E+01 -0.45483423564E+02 -0.33170297526E+01  0.45801065401E+02  0.00000000000E+00 0. -1.
</event>
<event>
 8    1  0.6850220E-009  0.1945583E+03  0.7561462E-02  0.1154413E+00
          2   -1    0    0  501    0  0.00000000000E+00  0.00000000000E+00  0.10622271083E+03  0.10622271083E+03  0.00000000000E+00 0. -1.
         -2   -1    0    0    0  501 -0.00000000000E+00 -0.00000000000E+00 -0.40692499094E+03  0.40692499094E+03  0.00000000000E+00 0.  1.
         25    2    1    2    0    0  0.81194065568E+02 -0.15373872718E+03 -0.19441625644E+03  0.28926325508E+03  0.12508987752E+03 0.  0.
         23    2    1    2    0    0 -0.81194065568E+02  0.15373872718E+03 -0.10628602367E+03  0.22388444669E+03  0.92733241756E+02 0.  0.
          5    1    3    3  502    0 -0.45134997429E+01 -0.76172254591E+02 -0.18338064452E+02  0.78589700707E+02  0.41800000000E+01 0.  1.
         -5    1    3    3    0  502  0.85707565311E+02 -0.77566472586E+02 -0.17607819198E+03  0.21067355438E+03  0.41800000000E+01 0.  1.
        -11    1    4    4    0    0 -0.23196436577E+02  0.13364839296E+03 -0.71627503413E+02  0.15339643691E+03  0.00000000000E+00 0. -1.
         11    1    4    4    0    0 -0.57997628991E+02  0.20090334219E+02 -0.34658520259E+02  0.70488009790E+02  0.00000000000E+00 0.  1.
</event>
<event>
 8    1  0.6850220E-009  0.1159619E+03  0.7561462E-02  0.1249911E+00
          2   -1    0    0  501    0  0.00000000000E+00  0.00000000000E+00  0.36769674002E+03  0.36769674002E+03  0.00000000000E+00 0. -1.
         -2   -1    0    0    0  501 -0.00000000000E+00 -0.00000000000E+00 -0.39171248068E+02  0.39171248068E+02  0.00000000000E+00 0.  1.
         25    2    1    2    0    0 -0.50086077435E+02 -0.53923177873E+01  0.21053173473E+03  0.25002079623E+03  0.12509634278E+03 0.  0.
         23    2    1    2    0    0  0.50086077435E+02  0.53923177873E+01  0.11799375722E+03  0.15684719185E+03  0.90226507216E+02 0.  0.
          5    1    3    3  502    0  0.27848879172E+02 -0.37334727662E+02  0.48595690222E+02  0.67442238018E+02  0.41800000000E+01 0.  1.
         -5    1    3    3    0  502 -0.77934956607E+02  0.31942409875E+02  0.16193604450E+03  0.18257855821E+03  0.41800000000E+01 0.  1.
        -11    1    4    4    0    0  0.75108351674E+02 -0.55121026819E+00  0.71426661404E+02  0.10365006649E+03  0.00000000000E+00 0.  1.
         11    1    4    4    0    0 -0.25022274239E+02  0.59435280555E+01  0.46567095818E+02  0.53197125362E+02  0.00000000000E+00 0. -1.
</event>
<event>
 8    1  0.6850220E-009  0.1586114E+03  0.7561462E-02  0.1190273E+00
         -2   -1    0    0    0  501 -0.00000000000E+00  0.00000000000E+00  0.33498939452E+02  0.33498939452E+02  0.00000000000E+00 0.  1.
          2   -1    0    0  501    0  0.00000000000E+00 -0.00000000000E+00 -0.10019532306E+04  0.10019532306E+04  0.00000000000E+00 0. -1.
         25    2    1    2    0    0 -0.95819722429E+02 -0.75422400300E+02 -0.30459420751E+03  0.35113314308E+03  0.12508755033E+03 0.  0.
         23    2    1    2    0    0  0.95819722429E+02  0.75422400300E+02 -0.66386008364E+03  0.68431902698E+03  0.11274911244E+03 0.  0.
          5    1    3    3  502    0 -0.10102333600E+03 -0.90698888233E+02 -0.18036187417E+03  0.22578724675E+03  0.41800000000E+01 0. -1.
         -5    1    3    3    0  502  0.52036135720E+01  0.15276487933E+02 -0.12423233335E+03  0.12534589633E+03  0.41800000000E+01 0. -1.
        -11    1    4    4    0    0  0.43394360524E+02  0.98354052171E+02 -0.47319267656E+03  0.48525034699E+03  0.00000000000E+00 0.  1.
         11    1    4    4    0    0  0.52425361905E+02 -0.22931651871E+02 -0.19066740708E+03  0.19906867999E+03  0.00000000000E+00 0. -1.
</event>
<event>
 8    1  0.6850220E-009  0.8142403E+02  0.7561462E-02  0.1325058E+00
         -2   -1    0    0    0  501 -0.00000000000E+00  0.00000000000E+00  0.35299933610E+02  0.35299933610E+02  0.00000000000E+00 0.  1.
          2   -1    0    0  501    0  0.00000000000E+00 -0.00000000000E+00 -0.37860059777E+03  0.37860059777E+03  0.00000000000E+00 0. -1.
         25    2    1    2    0    0 -0.34192206159E+02  0.34488820488E+01 -0.23057387545E+03  0.26455669094E+03  0.12507969032E+03 0.  0.
         23    2    1    2    0    0  0.34192206159E+02 -0.34488820488E+01 -0.11272678870E+03  0.14934384044E+03  0.91734682841E+02 0.  0.
          5    1    3    3  502    0  0.11917431176E+01 -0.36625553531E+02 -0.19887225823E+03  0.20226343939E+03  0.41800000000E+01 0.  1.
         -5    1    3    3    0  502 -0.35383949277E+02  0.40074435579E+02 -0.31701617227E+02  0.62293251547E+02  0.41800000000E+01 0.  1.
        -11    1    4    4    0    0  0.39800160895E+02 -0.27025034286E+02 -0.17676637993E+02  0.51252988363E+02  0.00000000000E+00 0.  1.
         11    1    4    4    0    0 -0.56079547362E+01  0.23576152237E+02 -0.95050150712E+02  0.98090852076E+02  0.00000000000E+00 0. -1.
</event>
<event>
 8    1  0.6850220E-009  0.8947024E+02  0.7561462E-02  0.1304140E+00
         -1   -1    0    0    0  501 -0.00000000000E+00  0.00000000000E+00  0.14290150532E+03  0.14290150532E+03  0.00000000000E+00 0.  1.
          1   -1    0    0  501    0  0.00000000000E+00 -0.00000000000E+00 -0.10563325981E+03  0.10563325981E+03  0.00000000000E+00 0. -1.
         25    2    1    2    0    0 -0.24135987783E+02  0.27034230923E+02  0.61314825000E+02  0.14394565119E+03  0.12508975652E+03 0.  0.
         23    2    1    2    0    0  0.24135987783E+02 -0.27034230923E+02 -0.24046579486E+02  0.10458911394E+03  0.95117029086E+02 0.  0.
          5    1    3    3  502    0 -0.33478215333E+02 -0.31095151331E+02 -0.14265825342E+02  0.48048782617E+02  0.41800000000E+01 0.  1.
         -5    1    3    3    0  502  0.93422275508E+01  0.58129382254E+02  0.75580650342E+02  0.95896868578E+02  0.41800000000E+01 0.  1.
        -11    1    4    4    0    0 -0.14105119137E+02  0.12633526286E+02  0.24630405958E+02  0.31067946021E+02  0.00000000000E+00 0.  1.
         11    1    4    4    0    0  0.38241106920E+02 -0.39667757209E+02 -0.48676985444E+02  0.73521167920E+02  0.00000000000E+00 0. -1.
</event>
<event>
 8    1  0.6850220E-009  0.8374259E+02  0.7561462E-02  0.1318754E+00
          1   -1    0    0  501    0  0.00000000000E+00  0.00000000000E+00  0.20271643515E+03  0.20271643515E+03  0.00000000000E+00 0. -1.
         -1   -1    0    0    0  501 -0.00000000000E+00 -0.00000000000E+00 -0.93285516415E+02  0.93285516415E+02  0.00000000000E+00 0.  1.
         25    2    1    2    0    0  0.12871432448E+02  0.27695952276E+02 -0.22643284617E+02  0.13074277477E+03  0.12509282661E+03 0.  0.
         23    2    1    2    0    0 -0.12871432448E+02 -0.27695952276E+02  0.13207420335E+03  0.16525917679E+03  0.94521218670E+02 0.  0.
          5    1    3    3  502    0  0.42567213357E+02  0.40918593868E+02 -0.57762682681E+02  0.82706099458E+02  0.41800000000E+01 0.  1.
         -5    1    3    3    0  502 -0.29695780909E+02 -0.13222641591E+02  0.35119398063E+02  0.48036675309E+02  0.41800000000E+01 0.  1.
        -11    1    4    4    0    0 -0.69792282894E+00 -0.50055108976E+02  0.26465532590E+02  0.56625307471E+02  0.00000000000E+00 0.  1.
         11    1    4    4    0    0 -0.12173509619E+02  0.22359156700E+02  0.10560867076E+03  0.10863386932E+03  0.00000000000E+00 0. -1.
</event>
<event>
 8    1  0.6850220E-009  0.2420406E+03  0.7561462E-02  0.1118441E+00
          2   -1    0    0  501    0  0.00000000000E+00  0.00000000000E+00  0.18033442104E+04  0.18033442104E+04  0.00000000000E+00 0. -1.
         -2   -1    0    0    0  501 -0.00000000000E+00 -0.00000000000E+00 -0.42418722526E+02  0.42418722526E+02  0.00000000000E+00 0.  1.
         25    2    1    2    0    0  0.26291372466E+02  0.22717650287E+03  0.53102396042E+03  0.59155127254E+03  0.12508421877E+03 0.  0.
         23    2    1    2    0    0 -0.26291372466E+02 -0.22717650287E+03  0.12299015274E+04  0.12542116603E+04  0.89937323065E+02 0.  0.
          5    1    3    3  502    0 -0.16956547478E+02  0.15146278553E+03  0.21420191382E+03  0.26292286357E+03  0.41800000000E+01 0. -1.
         -5    1    3    3    0  502  0.43247919944E+02  0.75713717340E+02  0.31682204660E+03  0.32862840897E+03  0.41800000000E+01 0. -1.
        -11    1    4    4    0    0  0.21511383445E+02 -0.16237954022E+03  0.75875780984E+03  0.77623660613E+03  0.00000000000E+00 0.  1.
         11    1    4    4    0    0 -0.47802755911E+02 -0.64796962648E+02  0.47114371756E+03  0.47797505420E+03  0.00000000000E+00 0. -1.
</event>
<event>
 8    1  0.6850220E-009  0.2063895E+03  0.7561462E-02  0.1144457E+00
         -1   -1    0    0    0  501 -0.00000000000E+00  0.00000000000E+00  0.11547249383E+03  0.11547249383E+03  0.00000000000E+00 0.  1.
          1   -1    0    0  501    0  0.00000000000E+00 -0.00000000000E+00 -0.58155198606E+03  0.58155198606E+03  0.00000000000E+00 0. -1.
         25    2    1    2    0    0  0.11960898962E+03  0.15781756616E+03 -0.67961986528E+02  0.24387553270E+03  0.12507497452E+03 0.  0.
         23    2    1    2    0    0 -0.11960898962E+03 -0.15781756616E+03 -0.39811750570E+03  0.45314894719E+03  0.87371193257E+02 0.  0.
          5    1    3    3  502    0  0.28178044840E+02  0.70953963970E+02 -0.87487928927E+02  0.11618983313E+03  0.41800000000E+01 0.  1.
         -5    1    3    3    0  502  0.91430944781E+02  0.86863602192E+02  0.19525942400E+02  0.12768569958E+03  0.41800000000E+01 0.  1.
        -11    1    4    4    0    0 -0.96780262637E+02 -0.70110254168E+02 -0.17104383342E+03  0.20865727863E+03  0.00000000000E+00 0.  1.
         11    1    4    4    0    0 -0.22828726984E+02 -0.87707311994E+02 -0.22707367228E+03  0.24449166856E+03  0.00000000000E+00 0. -1.
</event>
<event>
 8    1  0.6850220E-009  0.1228317E+03  0.7561462E-02  0.1238497E+00
         -2   -1    0    0    0  501 -0.00000000000E+00  0.00000000000E+00  0.32654316719E+02  0.32654316719E+02  0.00000000000E+00 0. -1.
          2   -1    0    0  501    0  0.00000000000E+00 -0.00000000000E+00 -0.81938287354E+03  0.81938287354E+03  0.00000000000E+00 0.  1.
         25    2    1    2    0    0  0.89614335496E+02 -0.48327521626E+02 -0.59492094192E+03  0.61639678483E+03  0.12509112971E+03 0.  0.
         23    2    1    2    0    0 -0.89614335496E+02  0.48327521626E+02 -0.19180761490E+03  0.23564040543E+03  0.91487491311E+02 0.  0.
          5    1    3    3  502    0  0.24653218393E+02 -0.65956186931E+02 -0.46191945602E+03  0.46727406949E+03  0.41800000000E+01 0. -1.
         -5    1    3    3    0  502  0.64961117102E+02  0.17628665305E+02 -0.13300148591E+03  0.14912271533E+03  0.41800000000E+01 0. -1.
        -11    1    4    4    0    0 -0.25387431281E+02  0.33035747156E+02 -0.15404853207E+03  0.15958330894E+03  0.00000000000E+00 0.  1.
         11    1    4    4    0    0 -0.64226904215E+02  0.15291774470E+02 -0.37759082823E+02  0.76057096494E+02  0.00000000000E+00 0. -1.
</event>
<event>
 8    1  0.6850220E-009  0.8966852E+02  0.7561462E-02  0.1303656E+00
          1   -1    0    0  501    0  0.00000000000E+00  0.00000000000E+00  0.81296724252E+03  0.81296724252E+03  0.00000000000E+00 0. -1.
         -1   -1    0    0    0  501 -0.00000000000E+00 -0.00000000000E+00 -0.15808810808E+02  0.15808810808E+02  0.00000000000E+00 0.  1.
         25    2    1    2    0    0 -0.32874842899E+02 -0.10957580062E+02  0.53158807305E+03  0.54720620112E+03  0.12509165953E+03 0.  0.
         23    2    1    2    0    0  0.32874842899E+02  0.10957580062E+02  0.26557035866E+03  0.28156985220E+03  0.86908816657E+02 0.  0.
          5    1    3    3  502    0 -0.32510641890E+02 -0.57996957596E+02  0.17066395561E+03  0.18320547774E+03  0.41800000000E+01 0. -1.
         -5    1    3    3    0  502 -0.36420100919E+00  0.47039377534E+02  0.36092411743E+03  0.36400072339E+03  0.41800000000E+01 0. -1.
        -11    1    4    4    0    0 -0.14535695775E+02  0.10753667316E+02  0.81730215519E+01  0.19842532441E+02  0.00000000000E+00 0.  1.
         11    1    4    4    0    0  0.47410538674E+02  0.20391274668E+00  0.25739733711E+03  0.26172731976E+03  0.00000000000E+00 0. -1.
</event>
<event>
 8    1  0.6850220E-009  0.9466724E+02  0.7561462E-02  0.1291927E+00
          3   -1    0    0  501    0  0.00000000000E+00  0.00000000000E+00  0.83161019205E+02  0.83161019205E+02  0.00000000000E+00 0. -1.
         -3   -1    0    0    0  501 -0.00000000000E+00 -0.00000000000E+00 -0.15808372449E+03  0.15808372449E+03  0.00000000000E+00 0.  1.
         25    2    1    2    0    0 -0.10525506365E+02  0.32636078946E+02 -0.22527442611E+02  0.13164413685E+03  0.12508714228E+03 0.  0.
         23    2    1    2    0    0  0.10525506365E+02 -0.32636078946E+02 -0.52395262673E+02  0.10960060684E+03  0.89950706146E+02 0.  0.
          5    1    3    3  502    0 -0.14291829774E+01  0.72845694611E+02  0.16389631305E+02  0.74797260656E+02  0.41800000000E+01 0.  1.
         -5    1    3    3    0  502 -0.90963233876E+01 -0.40209615665E+02 -0.38917073916E+02  0.56846876196E+02  0.41800000000E+01 0.  1.
        -11    1    4    4    0    0  0.31054500939E+02 -0.42098472019E+02  0.24325853711E+00  0.52313693710E+02  0.00000000000E+00 0. -1.
         11    1    4    4    0    0 -0.20528994574E+02  0.94623930731E+01 -0.52638521210E+02  0.57286913131E+02  0.00000000000E+00 0.  1.
</event>
<event>
 8    1  0.6850220E-009  0.4348395E+03  0.7561462E-02  0.1032342E+00
         -1   -1    0    0    0  501 -0.00000000000E+00  0.00000000000E+00  0.10544109442E+03  0.10544109442E+03  0.00000000000E+00 0.  1.
          1   -1    0    0  501    0  0.00000000000E+00 -0.00000000000E+00 -0.24125946600E+04  0.24125946600E+04  0.00000000000E+00 0. -1.
         25    2    1    2    0    0 -0.41760568791E+03 -0.65895488144E+02 -0.53512016712E+03  0.69335255202E+03  0.12508973659E+03 0.  0.
         23    2    1    2    0    0  0.41760568791E+03  0.65895488144E+02 -0.17720333985E+04  0.18246832024E+04  0.10310042630E+03 0.  0.
          5    1    3    3  502    0 -0.48964947539E+02  0.31333126398E+02 -0.90515776741E+02  0.10765644029E+03  0.41800000000E+01 0.  1.
         -5    1    3    3    0  502 -0.36864074037E+03 -0.97228614542E+02 -0.44460439038E+03  0.58569611173E+03  0.41800000000E+01 0.  1.
        -11    1    4    4    0    0  0.51334660104E+02  0.35874100282E+02 -0.17370986344E+03  0.18465458309E+03  0.00000000000E+00 0.  1.
         11    1    4    4    0    0  0.36627102781E+03  0.30021387862E+02 -0.15983235350E+04  0.16400286193E+04  0.00000000000E+00 0. -1.
</event>
<event>
 8    1  0.6850220E-009  0.2128757E+03  0.7561462E-02  0.1139309E+00
         -2   -1    0    0    0  501 -0.00000000000E+00  0.00000000000E+00  0.22715504936E+02  0.22715504936E+02  0.00000000000E+00 0.  1.
          2   -1    0    0  501    0  0.00000000000E+00 -0.00000000000E+00 -0.21675588517E+04  0.21675588517E+04  0.00000000000E+00 0. -1.
         25    2    1    2    0    0 -0.15172942194E+03 -0.11737097788E+03 -0.12585348682E+04  0.12791987922E+04  0.12506706743E+03 0.  0.
         23    2    1    2    0    0  0.15172942194E+03  0.11737097788E+03 -0.88630847847E+03  0.91107556442E+03  0.87853293347E+02 0.  0.
          5    1    3    3  502    0  0.14842400452E+02 -0.44277468831E+02 -0.27766596571E+03  0.28159661221E+03  0.41800000000E+01 0.  1.
         -5    1    3    3    0  502 -0.16657182239E+03 -0.73093509049E+02 -0.98086890254E+03  0.99760217995E+03  0.41800000000E+01 0.  1.
        -11    1    4    4    0    0  0.13143087194E+03  0.11796606874E+03 -0.85943024502E+03  0.87738840517E+03  0.00000000000E+00 0. -1.
         11    1    4    4    0    0  0.20298549999E+02 -0.59509085923E+00 -0.26878233452E+02  0.33687159256E+02  0.00000000000E+00 0.  1.
</event>
<event>
 8    1  0.6850220E-009  0.1096033E+03  0.7561462E-02  0.1261306E+00
          2   -1    0    0  501    0  0.00000000000E+00  0.00000000000E+00  0.51486031372E+03  0.51486031372E+03  0.00000000000E+00 0. -1.
         -2   -1    0    0    0  501 -0.00000000000E+00 -0.00000000000E+00 -0.25283076555E+02  0.25283076555E+02  0.00000000000E+00 0.  1.
         25    2    1    2    0    0  0.19749694317E+02  0.22789025582E+02  0.32619868893E+03  0.35065898118E+03  0.12508695499E+03 0.  0.
         23    2    1    2    0    0 -0.19749694317E+02 -0.22789025582E+02  0.16337854823E+03  0.18948440909E+03  0.91117512883E+02 0.  0.
          5    1    3    3  502    0 -0.10781511220E+02 -0.48541284525E+02  0.10613146361E+03  0.11727684024E+03  0.41800000000E+01 0.  1.
         -5    1    3    3    0  502  0.30531205537E+02  0.71330310107E+02  0.22006722531E+03  0.23338214094E+03  0.41800000000E+01 0.  1.
        -11    1    4    4    0    0  0.22587313956E+02  0.20895989761E+02  0.84117425296E+02  0.89568802483E+02  0.00000000000E+00 0. -1.
         11    1    4    4    0    0 -0.42337008273E+02 -0.43685015343E+02  0.79261122936E+02  0.99915606610E+02  0.00000000000E+00 0.  1.
</event>
<event>
 8    1  0.6850220E-009  0.1108704E+03  0.7561462E-02  0.1258967E+00
         -1   -1    0    0    0  501 -0.00000000000E+00  0.00000000000E+00  0.30590028908E+02  0.30590028908E+02  0.00000000000E+00 0.  1.
          1   -1    0    0  501    0  0.00000000000E+00 -0.00000000000E+00 -0.43512661952E+03  0.43512661952E+03  0.00000000000E+00 0. -1.
         25    2    1    2    0    0 -0.39031948014E+02 -0.10090848608E+02 -0.20656789500E+03  0.24482259464E+03  0.12506993808E+03 0.  0.
         23    2    1    2    0    0  0.39031948014E+02  0.10090848608E+02 -0.19796869561E+03  0.22089405378E+03  0.89315510209E+02 0.  0.
          5    1    3    3  502    0  0.25281737224E+02  0.36566287146E+02 -0.11584644358E+03  0.12415365675E+03  0.41800000000E+01 0. -1.
         -5    1    3    3    0  502 -0.64313685238E+02 -0.46657135755E+02 -0.90721451416E+02  0.12066893790E+03  0.41800000000E+01 0. -1.
        -11    1    4    4    0    0  0.36646780670E+02 -0.36000484314E+02 -0.11500031877E+03  0.12595274797E+03  0.00000000000E+00 0.  1.
         11    1    4    4    0    0  0.23851673434E+01  0.46091332922E+02 -0.82968376846E+02  0.94941305817E+02  0.00000000000E+00 0. -1.
</event>
<event>
 8    1  0.6850220E-009  0.1257788E+03  0.7561462E-02  0.1233857E+00
          2   -1    0    0  501    0  0.00000000000E+00  0.00000000000E+00  0.31031882556E+03  0.31031882556E+03  0.00000000000E+00 0. -1.
         -2   -1    0    0    0  501 -0.00000000000E+00 -0.00000000000E+00 -0.81551969370E+02  0.81551969370E+02  0.00000000000E+00 0.  1.
         25    2    1    2    0    0 -0.28993433058E+02  0.69708627870E+02  0.22933406863E+03  0.27192423415E+03  0.12509501240E+03 0.  0.
         23    2    1    2    0    0  0.28993433058E+02 -0.69708627870E+02 -0.56721243438E+00  0.11994656078E+03  0.93203775422E+02 0.  0.
          5    1    3    3  502    0 -0.24444944297E+02 -0.32125144303E+02  0.40744095837E+02  0.57507685954E+02  0.41800000000E+01 0.  1.
         -5    1    3    3    0  502 -0.45484887615E+01  0.10183377217E+03  0.18858997279E+03  0.21441654820E+03  0.41800000000E+01 0.  1.
        -11    1    4    4    0    0  0.26956526694E+01  0.17581679423E+02 -0.19965969220E+02  0.26739893821E+02  0.00000000000E+00 0.  1.
         11    1    4    4    0    0  0.26297780389E+02 -0.87290307293E+02  0.19398756785E+02  0.93206666959E+02  0.00000000000E+00 0. -1.
</event>
<event>
 8    1  0.6850220E-009  0.1235692E+03  0.7561462E-02  0.1237322E+00
          2   -1    0    0  501    0  0.00000000000E+00  0.00000000000E+00  0.18984543751E+04  0.18984543751E+04  0.00000000000E+00 0. -1.
         -2   -1    0    0    0  501 -0.00000000000E+00 -0.00000000000E+00 -0.11602673260E+02  0.11602673260E+02  0.00000000000E+00 0.  1.
         25    2    1    2    0    0  0.49985030270E+02 -0.35123547675E+02  0.15494450568E+04  0.15556863393E+04  0.12509130774E+03 0.  0.
         23    2    1    2    0    0 -0.49985030270E+02  0.35123547675E+02  0.33740664501E+03  0.35437070906E+03  0.89460541557E+02 0.  0.
          5    1    3    3  502    0  0.91941692323E+02 -0.21055570377E+02  0.10007581956E+04  0.10052019947E+04  0.41800000000E+01 0. -1.
         -5    1    3    3    0  502 -0.41956662053E+02 -0.14067977298E+02  0.54868686128E+03  0.55048434457E+03  0.41800000000E+01 0. -1.
        -11    1    4    4    0    0 -0.74580700753E+02  0.14064655003E+02  0.23125844128E+03  0.24339384156E+03  0.00000000000E+00 0. -1.
         11    1    4    4    0    0  0.24595670483E+02  0.21058892673E+02  0.10614820373E+03  0.11097686750E+03  0.00000000000E+00 0.  1.
</event>
<event>
 8    1  0.6850220E-009  0.1492645E+03  0.7561462E-02  0.1201380E+00
          2   -1    0    0  501    0  0.00000000000E+00  0.00000000000E+00  0.88857322770E+03  0.88857322770E+03  0.00000000000E+00 0. -1.
         -2   -1    0    0    0  501 -0.00000000000E+00 -0.00000000000E+00 -0.28449658311E+02  0.28449658311E+02  0.00000000000E+00 0.  1.
         25    2    1    2    0    0 -0.97332063365E+02  0.61763780562E+02  0.39129013293E+03  0.42666503995E+03  0.12508714180E+03 0.  0.
         23    2    1    2    0    0  0.97332063365E+02 -0.61763780562E+02  0.46883343646E+03  0.49035784606E+03  0.85777216661E+02 0.  0.
          5    1    3    3  502    0 -0.75374807228E+02 -0.20953854170E+02  0.13105784226E+03  0.15268941020E+03  0.41800000000E+01 0. -1.
         -5    1    3    3    0  502 -0.21957256137E+02  0.82717634732E+02  0.26023229067E+03  0.27397562976E+03  0.41800000000E+01 0. -1.
        -11    1    4    4    0    0  0.19689799025E+02 -0.52787939435E+02  0.11583317729E+03  0.12880830601E+03  0.00000000000E+00 0.  1.
         11    1    4    4    0    0  0.77642264341E+02 -0.89758411269E+01  0.35300025917E+03  0.36154954005E+03  0.00000000000E+00 0. -1.
</event>
<event>
 8    1  0.6850220E-009  0.1167078E+03  0.7561462E-02  0.1248629E+00
          2   -1    0    0  501    0  0.00000000000E+00  0.00000000000E+00  0.11599041946E+03  0.11599041946E+03  0.00000000000E+00 0. -1.
         -2   -1    0    0    0  501 -0.00000000000E+00 -0.00000000000E+00 -0.18727878118E+03  0.18727878118E+03  0.00000000000E+00 0.  1.
         25    2    1    2    0    0  0.49821624253E+02 -0.58962057790E+02 -0.10079328818E+03  0.17822829806E+03  0.12508925127E+03 0.  0.
         23    2    1    2    0    0 -0.49821624253E+02  0.58962057790E+02  0.29504926463E+02  0.12504090258E+03  0.93840120051E+02 0.  0.
          5    1    3    3  502    0 -0.32242581818E+02 -0.95406613562E+00  0.42400092729E+01  0.32801591473E+02  0.41800000000E+01 0. -1.
         -5    1    3    3    0  502  0.82064206071E+02 -0.58007991654E+02 -0.10503329746E+03  0.14542670659E+03  0.41800000000E+01 0. -1.
        -11    1    4    4    0    0  0.10135197130E+02  0.33794278177E+02 -0.22441897583E+02  0.41814043400E+02  0.00000000000E+00 0.  1.
         11    1    4    4    0    0 -0.59956821383E+02  0.25167779613E+02  0.51946824046E+02  0.83226859183E+02  0.00000000000E+00 0. -1.
</event>
<event>
 8    1  0.6850220E-009  0.1576004E+03  0.7561462E-02  0.1191433E+00
         -2   -1    0    0    0  501 -0.00000000000E+00  0.00000000000E+00  0.26642254727E+02  0.26642254727E+02  0.00000000000E+00 0.  1.
          2   -1    0    0  501    0  0.00000000000E+00 -0.00000000000E+00 -0.98343764950E+03  0.98343764950E+03  0.00000000000E+00 0. -1.
         25    2    1    2    0    0 -0.83071995241E+02 -0.85278503254E+02 -0.47732799141E+03  0.50760525791E+03  0.12509079490E+03 0.  0.
         23    2    1    2    0    0  0.83071995241E+02  0.85278503254E+02 -0.47946740337E+03  0.50247464631E+03  0.91751838064E+02 0.  0.
          5    1    3    3  502    0 -0.10343334777E+03 -0.10235007400E+03 -0.39323175088E+03  0.41931214790E+03  0.41800000000E+01 0.  1.
         -5    1    3    3    0  502  0.20361352525E+02  0.17071570749E+02 -0.84096240533E+02  0.88293110016E+02  0.41800000000E+01 0.  1.
        -11    1    4    4    0    0 -0.15632045355E+02  0.13937919043E+02 -0.28598869737E+02  0.35447450958E+02  0.00000000000E+00 0.  1.
         11    1    4    4    0    0  0.98704040596E+02  0.71340584210E+02 -0.45086853363E+03  0.46702719536E+03  0.00000000000E+00 0. -1.
</event>
<event>
 8    1  0.6850220E-009  0.4906000E+03  0.7561462E-02  0.1016262E+00
         -2   -1    0    0    0  501 -0.00000000000E+00  0.00000000000E+00  0.36073338388E+03  0.36073338388E+03  0.00000000000E+00 0.  1.
          2   -1    0    0  501    0  0.00000000000E+00 -0.00000000000E+00 -0.92468545961E+03  0.92468545961E+03  0.00000000000E+00 0. -1.
         25    2    1    2    0    0 -0.98653450208E+02  0.47272211136E+03  0.47628676579E+02  0.50111719810E+03  0.12510498627E+03 0.  0.
         23    2    1    2    0    0  0.98653450208E+02 -0.47272211136E+03 -0.61158075231E+03  0.78430164539E+03  0.88878324439E+02 0.  0.
          5    1    3    3  502    0 -0.97518576135E+02  0.17430703528E+03  0.31415583163E+02  0.20223062702E+03  0.41800000000E+01 0. -1.
         -5    1    3    3    0  502 -0.11348740721E+01  0.29841507609E+03  0.16213093416E+02  0.29888657108E+03  0.41800000000E+01 0. -1.
        -11    1    4    4    0    0  0.71350151514E+02 -0.35930014023E+03 -0.39786642580E+03  0.54081894167E+03  0.00000000000E+00 0.  1.
         11    1    4    4    0    0  0.27303298694E+02 -0.11342197114E+03 -0.21371432651E+03  0.24348270372E+03  0.00000000000E+00 0. -1.
</event>
<event>
 8    1  0.6850220E-009  0.1928723E+03  0.7561462E-02  0.1155896E+00
         -2   -1    0    0    0  501 -0.00000000000E+00  0.00000000000E+00  0.30618660807E+03  0.30618660807E+03  0.00000000000E+00 0.  1.
          2   -1    0    0  501    0  0.00000000000E+00 -0.00000000000E+00 -0.19953696270E+03  0.19953696270E+03  0.00000000000E+00 0. -1.
         25    2    1    2    0    0 -0.16352225293E+03 -0.59206587928E+02  0.19587929434E+03  0.29027884904E+03  0.12509262563E+03 0.  0.
         23    2    1    2    0    0  0.16352225293E+03  0.59206587928E+02 -0.89229648969E+02  0.21544472174E+03  0.90606570462E+02 0.  0.
          5    1    3    3  502    0 -0.16025622925E+03 -0.74705312065E+02  0.12262325342E+03  0.21521356217E+03  0.41800000000E+01 0. -1.
         -5    1    3    3    0  502 -0.32660236875E+01  0.15498724137E+02  0.73256040923E+02  0.75065286866E+02  0.41800000000E+01 0. -1.
        -11    1    4    4    0    0  0.16608926205E+03  0.37018925937E+02 -0.91126406323E+02  0.19302866569E+03  0.00000000000E+00 0. -1.
         11    1    4    4    0    0 -0.25670091203E+01  0.22187661991E+02  0.18967573538E+01  0.22416056052E+02  0.00000000000E+00 0.  1.
</event>
<event>
 8    1  0.6850220E-009  0.8558474E+02  0.7561462E-02  0.1313910E+00
          1   -1    0    0  501    0  0.00000000000E+00  0.00000000000E+00  0.27623362732E+02  0.27623362732E+02  0.00000000000E+00 0. -1.
         -1   -1    0    0    0  501 -0.00000000000E+00 -0.00000000000E+00 -0.52848343339E+03  0.52848343339E+03  0.00000000000E+00 0.  1.
         25    2    1    2    0    0 -0.21485432446E+02  0.70464976491E+00 -0.41143069930E+03  0.43056299975E+03  0.12508859295E+03 0.  0.
         23    2    1    2    0    0  0.21485432446E+02 -0.70464976491E+00 -0.89429371363E+02  0.12554379638E+03  0.85448885353E+02 0.  0.
          5    1    3    3  502    0 -0.48319122944E+02  0.46486140771E+02 -0.15950645496E+03  0.17307651631E+03  0.41800000000E+01 0. -1.
         -5    1    3    3    0  502  0.26833690498E+02 -0.45781491006E+02 -0.25192424434E+03  0.25748648344E+03  0.41800000000E+01 0. -1.
        -11    1    4    4    0    0 -0.96871891276E+01 -0.13871935962E+02 -0.90122741204E+02  0.91697223091E+02  0.00000000000E+00 0.  1.
         11    1    4    4    0    0  0.31172621573E+02  0.13167286197E+02  0.69336984115E+00  0.33846573287E+02  0.00000000000E+00 0. -1.
</event>
<event>
 8    1  0.6850220E-009  0.1135517E+03  0.7561462E-02  0.1254131E+00
         -1   -1    0    0    0  501 -0.00000000000E+00  0.00000000000E+00  0.13729180299E+02  0.13729180299E+02  0.00000000000E+00 0.  1.
          1   -1    0    0  501    0  0.00000000000E+00 -0.00000000000E+00 -0.10694193434E+04  0.10694193434E+04  0.00000000000E+00 0. -1.
         25    2    1    2    0    0 -0.15483054162E+02  0.41670367148E+02 -0.72053037723E+03  0.73265835480E+03  0.12509234946E+03 0.  0.
         23    2    1    2    0    0  0.15483054162E+02 -0.41670367148E+02 -0.33515978589E+03  0.35049016892E+03  0.92385777918E+02 0.  0.
          5    1    3    3  502    0 -0.66676397127E+02  0.10617050150E+02 -0.48045710193E+03  0.48519579850E+03  0.41800000000E+01 0.  1.
         -5    1    3    3    0  502  0.51193342965E+02  0.31053316998E+02 -0.24007327529E+03  0.24746255630E+03  0.41800000000E+01 0.  1.
        -11    1    4    4    0    0 -0.37250728372E+02 -0.21260032229E+02 -0.10362578565E+03  0.11215127813E+03  0.00000000000E+00 0.  1.
         11    1    4    4    0    0  0.52733782534E+02 -0.20410334918E+02 -0.23153400024E+03  0.23833889078E+03  0.00000000000E+00 0. -1.
</event>
<event>
 8    1  0.6850220E-009  0.9587448E+02  0.7561462E-02  0.1289219E+00
          1   -1    0    0  501    0  0.00000000000E+00  0.00000000000E+00  0.38238402116E+03  0.38238402116E+03  0.00000000000E+00 0. -1.
         -1   -1    0    0    0  501 -0.00000000000E+00 -0.00000000000E+00 -0.35098357951E+02  0.35098357951E+02  0.00000000000E+00 0.  1.
         25    2    1    2    0    0  0.48314554156E+01  0.22778366874E+02  0.16124626211E+03  0.20539972296E+03  0.12508593921E+03 0.  0.
         23    2    1    2    0    0 -0.48314554156E+01 -0.22778366874E+02  0.18603940110E+03  0.21208265616E+03  0.99127177510E+02 0.  0.
          5    1    3    3  502    0 -0.17830453357E+02  0.61556811579E+02  0.39098052848E+02  0.75188405058E+02  0.41800000000E+01 0. -1.
         -5    1    3    3    0  502  0.22661908772E+02 -0.38778444705E+02  0.12214820926E+03  0.13021131790E+03  0.41800000000E+01 0. -1.
        -11    1    4    4    0    0  0.32772013334E+02  0.81019982131E+01  0.14360713697E+03  0.14752171712E+03  0.00000000000E+00 0.  1.
         11    1    4    4    0    0 -0.37603468749E+02 -0.30880365088E+02  0.42432264130E+02  0.64560939035E+02  0.00000000000E+00 0. -1.
</event>
<event>
 8    1  0.6850220E-009  0.1691291E+03  0.7561462E-02  0.1178759E+00
          2   -1    0    0  501    0  0.00000000000E+00  0.00000000000E+00  0.24552387504E+03  0.24552387504E+03  0.00000000000E+00 0. -1.
         -2   -1    0    0    0  501 -0.00000000000E+00 -0.00000000000E+00 -0.13329369664E+03  0.13329369664E+03  0.00000000000E+00 0.  1.
         25    2    1    2    0    0 -0.73118809246E+02  0.11641967265E+03  0.10753809292E+03  0.21473773309E+03  0.12509177487E+03 0.  0.
         23    2    1    2    0    0  0.73118809246E+02 -0.11641967265E+03  0.46920854770E+01  0.16407983859E+03  0.89444269345E+02 0.  0.
          5    1    3    3  502    0 -0.10166663233E+03  0.50555876187E+02  0.59445968607E+02  0.12823141709E+03  0.41800000000E+01 0. -1.
         -5    1    3    3    0  502  0.28547823079E+02  0.65863796465E+02  0.48092124315E+02  0.86506316004E+02  0.41800000000E+01 0. -1.
        -11    1    4    4    0    0  0.77502137295E+02 -0.65071220667E+02 -0.25488510685E+02  0.10435760260E+03  0.00000000000E+00 0.  1.
         11    1    4    4    0    0 -0.43833280487E+01 -0.51348451985E+02  0.30180596162E+02  0.59722235983E+02  0.00000000000E+00 0. -1.
</event>
<event>
 8    1  0.6850220E-009  0.1100377E+03  0.7561462E-02  0.1260500E+00
         -2   -1    0    0    0  501 -0.00000000000E+00  0.00000000000E+00  0.85855089456E+02  0.85855089456E+02  0.00000000000E+00 0.  1.
          2   -1    0    0  501    0  0.00000000000E+00 -0.00000000000E+00 -0.24303459338E+03  0.24303459338E+03  0.00000000000E+00 0. -1.
         25    2    1    2    0    0  0.58555249375E+02  0.68993733999E+02 -0.12000723778E+03  0.19554553339E+03  0.12508983152E+03 0.  0.
         23    2    1    2    0    0 -0.58555249375E+02 -0.68993733999E+02 -0.37172266147E+02  0.13334414944E+03  0.90609228338E+02 0.  0.
          5    1    3    3  502    0  0.13864949657E+02  0.10152557155E+01 -0.11284071025E+03  0.11377067225E+03  0.41800000000E+01 0.  1.
         -5    1    3    3    0  502  0.44690299718E+02  0.67978478284E+02 -0.71665275250E+01  0.81774861146E+02  0.41800000000E+01 0.  1.
        -11    1    4    4    0    0 -0.30544093151E+02  0.16089591672E+02 -0.25696615059E+02  0.43036410306E+02  0.00000000000E+00 0.  1.
         11    1    4    4    0    0 -0.28011156224E+02 -0.85083325671E+02 -0.11475651088E+02  0.90307739138E+02  0.00000000000E+00 0. -1.
</event>
<event>
 8    1  0.6850220E-009  0.1478592E+03  0.7561462E-02  0.1203129E+00
          2   -1    0    0  501    0  0.00000000000E+00  0.00000000000E+00  0.13156149837E+03  0.13156149837E+03  0.00000000000E+00 0.  1.
         -2   -1    0    0    0  501 -0.00000000000E+00 -0.00000000000E+00 -0.17651719993E+03  0.17651719993E+03  0.00000000000E+00 0. -1.
         25    2    1    2    0    0 -0.65933083201E+02 -0.79186371242E+02  0.31258556119E+01  0.16209451114E+03  0.12508879533E+03 0.  0.
         23    2    1    2    0    0  0.65933083201E+02  0.79186371242E+02 -0.48081557179E+02  0.14598418716E+03  0.91552683797E+02 0.  0.
          5    1    3    3  502    0 -0.98654648090E+02 -0.30721457498E+02  0.33996041999E+01  0.10346775947E+03  0.41800000000E+01 0.  1.
         -5    1    3    3    0  502  0.32721564889E+02 -0.48464913745E+02 -0.27374858800E+00  0.58626751669E+02  0.41800000000E+01 0.  1.
        -11    1    4    4    0    0  0.81552791031E+02  0.38667948993E+02 -0.48697566415E+02  0.10255496565E+03  0.00000000000E+00 0. -1.
         11    1    4    4    0    0 -0.15619707830E+02  0.40518422249E+02  0.61600923590E+00  0.43429221517E+02  0.00000000000E+00 0.  1.
</event>
<event>
 8    1  0.6850220E-009  0.1226646E+03  0.7561462E-02  0.1238765E+00
          1   -1    0    0  501    0  0.00000000000E+00  0.00000000000E+00  0.85678235133E+03  0.85678235133E+03  0.00000000000E+00 0. -1.
         -1   -1    0    0    0  501 -0.00000000000E+00 -0.00000000000E+00 -0.29343747097E+02  0.29343747097E+02  0.00000000000E+00 0.  1.
         25    2    1    2    0    0  0.56432115793E+02  0.66393175000E+02  0.23393768955E+03  0.27922620132E+03  0.12509113291E+03 0.  0.
         23    2    1    2    0    0 -0.56432115793E+02 -0.66393175000E+02  0.59350091468E+03  0.60689989711E+03  0.92149400438E+02 0.  0.
          5    1    3    3  502    0 -0.82140236458E+01 -0.17190808361E+02  0.12822503426E+03  0.12970013835E+03  0.41800000000E+01 0.  1.
         -5    1    3    3    0  502  0.64646139439E+02  0.83583983360E+02  0.10571265529E+03  0.14952606297E+03  0.41800000000E+01 0.  1.
        -11    1    4    4    0    0 -0.77135973615E+02 -0.61868288337E+02  0.54605928173E+03  0.55493998116E+03  0.00000000000E+00 0. -1.
         11    1    4    4    0    0  0.20703857822E+02 -0.45248866627E+01  0.47441632954E+02  0.51959915949E+02  0.00000000000E+00 0.  1.
</event>
<event>
 8    1  0.6850220E-009  0.8850115E+02  0.7561462E-02  0.1306523E+00
          3   -1    0    0  501    0  0.00000000000E+00  0.00000000000E+00  0.61453453521E+02  0.61453453521E+02  0.00000000000E+00 0.  1.
         -3   -1    0    0    0  501 -0.00000000000E+00 -0.00000000000E+00 -0.33358149152E+03  0.33358149152E+03  0.00000000000E+00 0. -1.
         25    2    1    2    0    0  0.46380319397E+02 -0.43229546372E+02 -0.24377988150E+03  0.28124244584E+03  0.12509498395E+03 0.  0.
         23    2    1    2    0    0 -0.46380319397E+02  0.43229546372E+02 -0.28348156495E+02  0.11379249920E+03  0.90139820227E+02 0.  0.
          5    1    3    3  502    0  0.73341591142E+02 -0.16267140529E+02 -0.68292376171E+02  0.10161166220E+03  0.41800000000E+01 0. -1.
         -5    1    3    3    0  502 -0.26961271744E+02 -0.26962405843E+02 -0.17548750533E+03  0.17963078364E+03  0.41800000000E+01 0. -1.
        -11    1    4    4    0    0 -0.24875151044E+02  0.23428993100E+02  0.31950444066E+02  0.46781638846E+02  0.00000000000E+00 0.  1.
         11    1    4    4    0    0 -0.21505168353E+02  0.19800553272E+02 -0.60298600560E+02  0.67010860353E+02  0.00000000000E+00 0. -1.
</event>
<event>
 8    1  0.6850220E-009  0.7004528E+02  0.7561462E-02  0.1359939E+00
          2   -1    0    0  501    0  0.00000000000E+00  0.00000000000E+00  0.14790928657E+03  0.14790928657E+03  0.00000000000E+00 0. -1.
         -2   -1    0    0    0  501 -0.00000000000E+00 -0.00000000000E+00 -0.12196464850E+03  0.12196464850E+03  0.00000000000E+00 0.  1.
         25    2    1    2    0    0 -0.12440484814E+02  0.45798278288E+02  0.77646192058E+02  0.15468264702E+03  0.12508214177E+03 0.  0.
         23    2    1    2    0    0  0.12440484814E+02 -0.45798278288E+02 -0.51701553988E+02  0.11519128804E+03  0.91344043046E+02 0.  0.
          5    1    3    3  502    0 -0.42283920299E+02  0.45026326023E+02  0.99682067358E+02  0.11734260481E+03  0.41800000000E+01 0.  1.
         -5    1    3    3    0  502  0.29843435485E+02  0.77195226436E+00 -0.22035875299E+02  0.37340042207E+02  0.41800000000E+01 0.  1.
        -11    1    4    4    0    0  0.81610215377E+01 -0.16294070998E+02 -0.75108385238E+02  0.77287570510E+02  0.00000000000E+00 0.  1.
         11    1    4    4    0    0  0.42794632765E+01 -0.29504207290E+02  0.23406831250E+02  0.37903717534E+02  0.00000000000E+00 0. -1.
</event>
<event>
 8    1  0.6850220E-009  0.1019472E+03  0.7561462E-02  0.1276254E+00
          1   -1    0    0  501    0  0.00000000000E+00  0.00000000000E+00  0.73337907282E+02  0.73337907282E+02  0.00000000000E+00 0. -1.
         -1   -1    0    0    0  501 -0.00000000000E+00 -0.00000000000E+00 -0.28495453890E+03  0.28495453890E+03  0.00000000000E+00 0.  1.
         25    2    1    2    0    0  0.80956900437E+02 -0.17183266203E+02 -0.17227102297E+03  0.22841637613E+03  0.12508977241E+03 0.  0.
         23    2    1    2    0    0 -0.80956900437E+02  0.17183266203E+02 -0.39345608642E+02  0.12987607005E+03  0.92034951441E+02 0.  0.
          5    1    3    3  502    0  0.21896987453E+02  0.21099349301E+02  0.10561306233E+02  0.32460347962E+02  0.41800000000E+01 0. -1.
         -5    1    3    3    0  502  0.59059912984E+02 -0.38282615505E+02 -0.18283232921E+03  0.19595602817E+03  0.41800000000E+01 0. -1.
        -11    1    4    4    0    0 -0.68474183371E+02 -0.13300202171E+02 -0.59136252676E+02  0.91447829644E+02  0.00000000000E+00 0.  1.
         11    1    4    4    0    0 -0.12482717066E+02  0.30483468374E+02  0.19790644034E+02  0.38428240407E+02  0.00000000000E+00 0. -1.
</event>
<event>
 8    1  0.6850220E-009  0.1014096E+03  0.7561462E-02  0.1277359E+00
          1   -1    0    0  501    0  0.00000000000E+00  0.00000000000E+00  0.35117712302E+03  0.35117712302E+03  0.00000000000E+00 0. -1.
         -1   -1    0    0    0  501 -0.00000000000E+00 -0.00000000000E+00 -0.45464251364E+02  0.45464251364E+02  0.00000000000E+00 0.  1.
         25    2    1    2    0    0 -0.56167324224E+01  0.19554814027E+02  0.25992669756E+03  0.28917607203E+03  0.12508786549E+03 0.  0.
         23    2    1    2    0    0  0.56167324224E+01 -0.19554814027E+02  0.45786174092E+02  0.10746530236E+03  0.95070915835E+02 0.  0.
          5    1    3    3  502    0  0.39533489577E+02 -0.33295780664E+02  0.71743046810E+02  0.88521426637E+02  0.41800000000E+01 0.  1.
         -5    1    3    3    0  502 -0.45150222000E+02  0.52850594691E+02  0.18818365075E+03  0.20065464539E+03  0.41800000000E+01 0.  1.
        -11    1    4    4    0    0  0.41307763813E+02 -0.15126505215E+01 -0.62831606960E+01  0.41810256770E+02  0.00000000000E+00 0.  1.
         11    1    4    4    0    0 -0.35691031391E+02 -0.18042163506E+02  0.52069334788E+02  0.65655045586E+02  0.00000000000E+00 0. -1.
</event>
<event>
 8    1  0.6850220E-009  0.1685519E+03  0.7561462E-02  0.1179366E+00
          1   -1    0    0  501    0  0.00000000000E+00  0.00000000000E+00  0.37674146531E+03  0.37674146531E+03  0.00000000000E+00 0. -1.
         -1   -1    0    0    0  501 -0.00000000000E+00 -0.00000000000E+00 -0.11806084462E+03  0.11806084462E+03  0.00000000000E+00 0.  1.
         25    2    1    2    0    0  0.48165697235E+02  0.15011875074E+03  0.31228981980E+02  0.20366373003E+03  0.12509233351E+03 0.  0.
         23    2    1    2    0    0 -0.48165697235E+02 -0.15011875074E+03  0.22745163871E+03  0.29113857990E+03  0.90398291150E+02 0.  0.
          5    1    3    3  502    0 -0.32772131675E+00 -0.10656380235E+02  0.33774539694E+02  0.35663115014E+02  0.41800000000E+01 0. -1.
         -5    1    3    3    0  502  0.48493418552E+02  0.16077513097E+03 -0.25455577141E+01  0.16800061502E+03  0.41800000000E+01 0. -1.
        -11    1    4    4    0    0 -0.36763436592E+02 -0.11154776632E+03  0.90127243296E+02  0.14804517697E+03  0.00000000000E+00 0.  1.
         11    1    4    4    0    0 -0.11402260643E+02 -0.38570984421E+02  0.13732439541E+03  0.14309340293E+03  0.00000000000E+00 0. -1.
</event>
<event>
 8    1  0.6850220E-009  0.1183480E+03  0.7561462E-02  0.1245848E+00
         -2   -1    0    0    0  501 -0.00000000000E+00  0.00000000000E+00  0.13182553820E+02  0.13182553820E+02  0.00000000000E+00 0.  1.
          2   -1    0    0  501    0  0.00000000000E+00 -0.00000000000E+00 -0.18448906974E+04  0.18448906974E+04  0.00000000000E+00 0. -1.
         25    2    1    2    0    0  0.71410406666E+02 -0.37388693759E+02 -0.14358535008E+04  0.14435441692E+04  0.12508849613E+03 0.  0.
         23    2    1    2    0    0 -0.71410406666E+02  0.37388693759E+02 -0.39585464278E+03  0.41452908209E+03  0.92930625132E+02 0.  0.
          5    1    3    3  502    0  0.26576002556E+02 -0.76879190220E+02 -0.59332369471E+03  0.59888828083E+03  0.41800000000E+01 0. -1.
         -5    1    3    3    0  502  0.44834404110E+02  0.39490496461E+02 -0.84252980611E+03  0.84465588833E+03  0.41800000000E+01 0. -1.
        -11    1    4    4    0    0 -0.71034532859E+02  0.14547465770E+02 -0.37967183080E+03  0.38653361137E+03  0.00000000000E+00 0. -1.
         11    1    4    4    0    0 -0.37587380612E+00  0.22841227990E+02 -0.16182811986E+02  0.27995470722E+02  0.00000000000E+00 0.  1.
</event>
<event>
 8    1  0.6850220E-009  0.1667099E+03  0.7561462E-02  0.1181323E+00
          3   -1    0    0  501    0  0.00000000000E+00  0.00000000000E+00  0.61898655813E+03  0.61898655813E+03  0.00000000000E+00 0. -1.
         -3   -1    0    0    0  501 -0.00000000000E+00 -0.00000000000E+00 -0.60431477298E+02  0.60431477298E+02  0.00000000000E+00 0.  1.
         25    2    1    2    0    0 -0.78515914689E+02  0.11788609759E+03  0.41968522551E+03  0.46026467524E+03  0.12508397940E+03 0.  0.
         23    2    1    2    0    0  0.78515914689E+02 -0.11788609759E+03  0.13886985532E+03  0.21915336019E+03  0.93174447672E+02 0.  0.
          5    1    3    3  502    0 -0.10312317380E+03  0.12047686686E+03  0.31598983217E+03  0.35357617405E+03  0.41800000000E+01 0.  1.
         -5    1    3    3    0  502  0.24607259112E+02 -0.25907692727E+01  0.10369539334E+03  0.10668850119E+03  0.41800000000E+01 0.  1.
        -11    1    4    4    0    0  0.32407709455E+02 -0.90338754469E+02  0.13454552170E+03  0.16526901585E+03  0.00000000000E+00 0. -1.
         11    1    4    4    0    0  0.46108205235E+02 -0.27547343119E+02  0.43243336220E+01  0.53884344332E+02  0.00000000000E+00 0.  1.
</event>
<event>
 8    1  0.6850220E-009  0.8952353E+02  0.7561462E-02  0.1304010E+00
         -2   -1    0    0    0  501 -0.00000000000E+00  0.00000000000E+00  0.26794069077E+03  0.26794069077E+03  0.00000000000E+00 0.  1.
          2   -1    0    0  501    0  0.00000000000E+00 -0.00000000000E+00 -0.52428516901E+02  0.52428516901E+02  0.00000000000E+00 0. -1.
         25    2    1    2    0    0 -0.11165590526E+02  0.46665796743E+02  0.11530489102E+03  0.17676087131E+03  0.12508725248E+03 0.  0.
         23    2    1    2    0    0  0.11165590526E+02 -0.46665796743E+02  0.10020728285E+03  0.14360833636E+03  0.90991690503E+02 0.  0.
          5    1    3    3  502    0 -0.56996524746E+02  0.55417179413E+02  0.42646366638E+02  0.90309759133E+02  0.41800000000E+01 0.  1.
         -5    1    3    3    0  502  0.45830934220E+02 -0.87513826696E+01  0.72658524386E+02  0.86451112174E+02  0.41800000000E+01 0.  1.
        -11    1    4    4    0    0 -0.62082592058E+01 -0.18374224813E+02 -0.14485376322E+02  0.24207039204E+02  0.00000000000E+00 0. -1.
         11    1    4    4    0    0  0.17373849732E+02 -0.28291571930E+02  0.11469265917E+03  0.11940129716E+03  0.00000000000E+00 0.  1.
</event>
<event>
 8    1  0.6850220E-009  0.9062893E+02  0.7561462E-02  0.1301336E+00
         -4   -1    0    0    0  501 -0.00000000000E+00  0.00000000000E+00  0.22286512603E+02  0.22286512603E+02  0.00000000000E+00 0.  1.
          4   -1    0    0  501    0  0.00000000000E+00 -0.00000000000E+00 -0.74830526781E+03  0.74830526781E+03  0.00000000000E+00 0. -1.
         25    2    1    2    0    0  0.60615012318E+02 -0.29475779326E+02 -0.44891587555E+03  0.47086586756E+03  0.12508477375E+03 0.  0.
         23    2    1    2    0    0 -0.60615012318E+02  0.29475779326E+02 -0.27710287966E+03  0.29972591286E+03  0.92231315932E+02 0.  0.
          5    1    3    3  502    0  0.23199854939E+01 -0.11324566848E+02 -0.37368369662E+03  0.37388581903E+03  0.41800000000E+01 0. -1.
         -5    1    3    3    0  502  0.58295026824E+02 -0.18151212478E+02 -0.75232178924E+02  0.96980048528E+02  0.41800000000E+01 0. -1.
        -11    1    4    4    0    0 -0.77468104203E+02  0.44501652495E+01 -0.23803895194E+03  0.25036703812E+03  0.00000000000E+00 0. -1.
         11    1    4    4    0    0  0.16853091886E+02  0.25025614077E+02 -0.39063927722E+02  0.49358874735E+02  0.00000000000E+00 0.  1.
</event>
<event>
 8    1  0.6850220E-009  0.9117825E+02  0.7561462E-02  0.1300023E+00
         -1   -1    0    0    0  501 -0.00000000000E+00  0.00000000000E+00  0.57427674322E+02  0.57427674322E+02  0.00000000000E+00 0.  1.
          1   -1    0    0  501    0  0.00000000000E+00 -0.00000000000E+00 -0.23516604613E+03  0.23516604613E+03  0.00000000000E+00 0. -1.
         25    2    1    2    0    0 -0.13414284143E+02 -0.33251488912E+02 -0.77150269437E+02  0.15127885169E+03  0.12509005700E+03 0.  0.
         23    2    1    2    0    0  0.13414284143E+02  0.33251488912E+02 -0.10058810237E+03  0.14131486876E+03  0.92554423235E+02 0.  0.
          5    1    3    3  502    0 -0.46882468051E+02 -0.21244276285E+02  0.13869768571E+02  0.53470814148E+02  0.41800000000E+01 0.  1.
         -5    1    3    3    0  502  0.33468183909E+02 -0.12007212627E+02 -0.91020038008E+02  0.97808037544E+02  0.41800000000E+01 0.  1.
        -11    1    4    4    0    0 -0.27876514880E+02  0.44145469514E+02 -0.34323862156E+02  0.62482398112E+02  0.00000000000E+00 0. -1.
         11    1    4    4    0    0  0.41290799023E+02 -0.10893980602E+02 -0.66264240217E+02  0.78832470651E+02  0.00000000000E+00 0.  1.
</event>
<event>
 8    1  0.6850220E-009  0.8557306E+02  0.7561462E-02  0.1313941E+00
         -2   -1    0    0    0  501 -0.00000000000E+00  0.00000000000E+00  0.81951816368E+02  0.81951816368E+02  0.00000000000E+00 0. -1.
          2   -1    0    0  501    0  0.00000000000E+00 -0.00000000000E+00 -0.24939203452E+03  0.24939203452E+03  0.00000000000E+00 0.  1.
         25    2    1    2    0    0 -0.65236879261E+02  0.52892946702E+02 -0.46920428324E+02  0.15782255520E+03  0.12511162260E+03 0.  0.
         23    2    1    2    0    0  0.65236879261E+02 -0.52892946702E+02 -0.12051978982E+03  0.17352129568E+03  0.92363986978E+02 0.  0.
          5    1    3    3  502    0 -0.44149100626E+02  0.34190426088E+02 -0.90103163618E+02  0.10608572390E+03  0.41800000000E+01 0.  1.
         -5    1    3    3    0  502 -0.21087778634E+02  0.18702520614E+02  0.43182735294E+02  0.51736831295E+02  0.41800000000E+01 0.  1.
        -11    1    4    4    0    0  0.57479616786E+02 -0.35366414248E+02 -0.13403636200E+03  0.15006810434E+03  0.00000000000E+00 0.  1.
         11    1    4    4    0    0  0.77572624751E+01 -0.17526532454E+02  0.13516572174E+02  0.23453191345E+02  0.00000000000E+00 0. -1.
</event>
<event>
 8    1  0.6850220E-009  0.9714074E+02  0.7561462E-02  0.1286426E+00
          4   -1    0    0  501    0  0.00000000000E+00  0.00000000000E+00  0.84208114561E+02  0.84208114561E+02  0.00000000000E+00 0. -1.
         -4   -1    0    0    0  501 -0.00000000000E+00 -0.00000000000E+00 -0.14856564073E+03  0.14856564073E+03  0.00000000000E+00 0.  1.
         25    2    1    2    0    0 -0.69510467012E+01 -0.29692071785E+02 -0.22582650595E+02  0.13071443079E+03  0.12508537137E+03 0.  0.
         23    2    1    2    0    0  0.69510467012E+01  0.29692071785E+02 -0.41774875571E+02  0.10205932450E+03  0.87983119466E+02 0.  0.
          5    1    3    3  502    0  0.31594521884E+02 -0.48685435397E+02  0.27695042276E+02  0.64443566005E+02  0.41800000000E+01 0.  1.
         -5    1    3    3    0  502 -0.38545568585E+02  0.18993363612E+02 -0.50277692871E+02  0.66270864784E+02  0.41800000000E+01 0.  1.
        -11    1    4    4    0    0  0.45453053453E+02  0.29918524016E+02 -0.27737736557E+02  0.61077656936E+02  0.00000000000E+00 0.  1.
         11    1    4    4    0    0 -0.38502006751E+02 -0.22645223127E+00 -0.14037139014E+02  0.40981667562E+02  0.00000000000E+00 0. -1.
</event>
<event>
 8    1  0.6850220E-009  0.1205271E+03  0.7561462E-02  0.1242230E+00
         -1   -1    0    0    0  501 -0.00000000000E+00  0.00000000000E+00  0.19796083468E+03  0.19796083468E+03  0.00000000000E+00 0.  1.
          1   -1    0    0  501    0  0.00000000000E+00 -0.00000000000E+00 -0.19443897790E+03  0.19443897790E+03  0.00000000000E+00 0. -1.
         25    2    1    2    0    0  0.85118631711E+02  0.14137664842E+02  0.14019258925E+03  0.20675364161E+03  0.12509217085E+03 0.  0.
         23    2    1    2    0    0 -0.85118631711E+02 -0.14137664842E+02 -0.13667073247E+03  0.18564617096E+03  0.91326648080E+02 0.  0.
          5    1    3    3  502    0 -0.28243438855E+02  0.53273529146E+01  0.40494857770E+01  0.29324789215E+02  0.41800000000E+01 0.  1.
         -5    1    3    3    0  502  0.11336207057E+03  0.88103119274E+01  0.13614310347E+03  0.17742885240E+03  0.41800000000E+01 0.  1.
        -11    1    4    4    0    0 -0.21677782008E+02  0.17010043459E+02 -0.10435878610E+03  0.10793527713E+03  0.00000000000E+00 0. -1.
         11    1    4    4    0    0 -0.63440849703E+02 -0.31147708301E+02 -0.32311946362E+02  0.77710893838E+02  0.00000000000E+00 0.  1.
</event>
<event>
 7    1  0.6850220E-009  0.9478725E+02  0.7561462E-02  0.1291656E+00
          2   -1    0    0  501    0  0.00000000000E+00  0.00000000000E+00  0.27275358498E+02  0.27275358498E+02  0.00000000000E+00 0. -1.
         -2   -1    0    0    0  501 -0.00000000000E+00 -0.00000000000E+00 -0.57680048327E+03  0.57680048327E+03  0.00000000000E+00 0.  1.
         23    2    1    2    0    0  0.22033216171E+02 -0.18243106871E+02 -0.29365451687E+03  0.31788599702E+03  0.11832268700E+03 0.  0.
          5    1    1    2  502    0 -0.44144154523E+02 -0.11292974980E+02 -0.24241484498E+03  0.24669549475E+03  0.41800000000E+01 0.  1.
         -5    1    1    2    0  502  0.22110938352E+02  0.29536081851E+02 -0.13455762918E+02  0.39494349996E+02  0.41800000000E+01 0.  1.
        -11    1    3    3    0    0 -0.22357490439E+02 -0.48199916165E+02 -0.69840209564E+02  0.87753884068E+02  0.00000000000E+00 0. -1.
         11    1    3    3    0    0  0.44390706609E+02  0.29956809294E+02 -0.22381430730E+03  0.23013211295E+03  0.00000000000E+00 0.  1.
</event>
<event>
 8    1  0.6850220E-009  0.1257993E+03  0.7561462E-02  0.1233825E+00
          2   -1    0    0  501    0  0.00000000000E+00  0.00000000000E+00  0.23765947225E+04  0.23765947225E+04  0.00000000000E+00 0. -1.
         -2   -1    0    0    0  501 -0.00000000000E+00 -0.00000000000E+00 -0.10999540488E+02  0.10999540488E+02  0.00000000000E+00 0.  1.
         25    2    1    2    0    0 -0.63931755986E+02  0.68593690445E+02  0.18303064241E+04  0.18369707983E+04  0.12509094263E+03 0.  0.
         23    2    1    2    0    0  0.63931755986E+02 -0.68593690445E+02  0.53528875786E+03  0.55062346464E+03  0.88655409981E+02 0.  0.
          5    1    3    3  502    0  0.10334559168E+02  0.42324733351E+02  0.13088094313E+04  0.13095410593E+04  0.41800000000E+01 0. -1.
         -5    1    3    3    0  502 -0.74266315153E+02  0.26268957094E+02  0.52149699281E+03  0.52742973900E+03  0.41800000000E+01 0. -1.
        -11    1    4    4    0    0  0.79062814013E+01  0.21468496457E+02  0.10347601311E+03  0.10597495419E+03  0.00000000000E+00 0. -1.
         11    1    4    4    0    0  0.56025474585E+02 -0.90062186902E+02  0.43181274475E+03  0.44464851045E+03  0.00000000000E+00 0.  1.
</event>
<event>
 8    1  0.6850220E-009  0.1651414E+03  0.7561462E-02  0.1183011E+00
          1   -1    0    0  501    0  0.00000000000E+00  0.00000000000E+00  0.39999751973E+03  0.39999751973E+03  0.00000000000E+00 0. -1.
         -1   -1    0    0    0  501 -0.00000000000E+00 -0.00000000000E+00 -0.10208712470E+03  0.10208712470E+03  0.00000000000E+00 0.  1.
         25    2    1    2    0    0  0.12983953818E+03 -0.67017204019E+02  0.47238725657E+02  0.19806228447E+03  0.12509020753E+03 0.  0.
         23    2    1    2    0    0 -0.12983953818E+03  0.67017204019E+02  0.25067166937E+03  0.30402235996E+03  0.90794813835E+02 0.  0.
          5    1    3    3  502    0  0.86698539092E+02  0.15091374817E+02  0.56645767383E+02  0.10474063985E+03  0.41800000000E+01 0.  1.
         -5    1    3    3    0  502  0.43140999084E+02 -0.82108578836E+02 -0.94070417262E+01  0.93321644619E+02  0.41800000000E+01 0.  1.
        -11    1    4    4    0    0 -0.37496442705E+02  0.43775174802E+01  0.10482628569E+02  0.39179476471E+02  0.00000000000E+00 0.  1.
         11    1    4    4    0    0 -0.92343095471E+02  0.62639686539E+02  0.24018904080E+03  0.26484288349E+03  0.00000000000E+00 0. -1.
</event>
<event>
 8    1  0.6850220E-009  0.1106925E+03  0.7561462E-02  0.1259293E+00
          1   -1    0    0  501    0  0.00000000000E+00  0.00000000000E+00  0.92175497644E+02  0.92175497644E+02  0.00000000000E+00 0. -1.
         -1   -1    0    0    0  501 -0.00000000000E+00 -0.00000000000E+00 -0.14160877326E+03  0.14160877326E+03  0.00000000000E+00 0.  1.
         25    2    1    2    0    0 -0.31812892879E+02 -0.21639730627E+02 -0.29361896950E+02  0.13412596807E+03  0.12508923305E+03 0.  0.
         23    2    1    2    0    0  0.31812892879E+02  0.21639730627E+02 -0.20071378666E+02  0.99658302831E+02  0.89713872877E+02 0.  0.
          5    1    3    3  502    0  0.48288398870E+02 -0.36235632698E+01 -0.12870788774E+02  0.50279511531E+02  0.41800000000E+01 0.  1.
         -5    1    3    3    0  502 -0.80101291748E+02 -0.18016167357E+02 -0.16491108176E+02  0.83846456543E+02  0.41800000000E+01 0.  1.
        -11    1    4    4    0    0  0.24955341109E+02  0.52941275698E+02 -0.30450213061E+02  0.65975474215E+02  0.00000000000E+00 0.  1.
         11    1    4    4    0    0  0.68575517693E+01 -0.31301545071E+02  0.10378834395E+02  0.33682828615E+02  0.00000000000E+00 0. -1.
</event>
<event>
 8    1  0.6850220E-009  0.1237044E+03  0.7561462E-02  0.1237108E+00
          3   -1    0    0  501    0  0.00000000000E+00  0.00000000000E+00  0.13208805112E+04  0.13208805112E+04  0.00000000000E+00 0. -1.
         -3   -1    0    0    0  501 -0.00000000000E+00 -0.00000000000E+00 -0.18592019840E+02  0.18592019840E+02  0.00000000000E+00 0.  1.
         25    2    1    2    0    0 -0.66659096687E+02 -0.77742245438E+02  0.85611040928E+03  0.87124031973E+03  0.12508944778E+03 0.  0.
         23    2    1    2    0    0  0.66659096687E+02  0.77742245438E+02  0.44617808206E+03  0.46823221129E+03  0.98383082306E+02 0.  0.
          5    1    3    3  502    0 -0.34725879086E+02  0.97980441797E+00  0.60703913751E+03  0.60804673633E+03  0.41800000000E+01 0.  1.
         -5    1    3    3    0  502 -0.31933217601E+02 -0.78722049856E+02  0.24907127177E+03  0.26319358340E+03  0.41800000000E+01 0.  1.
        -11    1    4    4    0    0 -0.88694343804E+01  0.43570859358E+02  0.69253303843E+02  0.82298886655E+02  0.00000000000E+00 0.  1.
         11    1    4    4    0    0  0.75528531067E+02  0.34171386079E+02  0.37692477821E+03  0.38593332463E+03  0.00000000000E+00 0. -1.
</event>
<event>
 8    1  0.6850220E-009  0.9313672E+02  0.7561462E-02  0.1295429E+00
         -2   -1    0    0    0  501 -0.00000000000E+00  0.00000000000E+00  0.30859945792E+02  0.30859945792E+02  0.00000000000E+00 0.  1.
          2   -1    0    0  501    0  0.00000000000E+00 -0.00000000000E+00 -0.49187571099E+03  0.49187571099E+03  0.00000000000E+00 0. -1.
         25    2    1    2    0    0  0.42802358545E+02 -0.13626002666E+02 -0.18714884698E+03  0.22954303567E+03  0.12509038513E+03 0.  0.
         23    2    1    2    0    0 -0.42802358545E+02  0.13626002666E+02 -0.27386691822E+03  0.29319262111E+03  0.94557465781E+02 0.  0.
          5    1    3    3  502    0  0.27557274960E+02 -0.49256368560E+02 -0.18154564336E+03  0.19016278887E+03  0.41800000000E+01 0. -1.
         -5    1    3    3    0  502  0.15245083585E+02  0.35630365894E+02 -0.56032036177E+01  0.39380246800E+02  0.41800000000E+01 0. -1.
        -11    1    4    4    0    0  0.99054489075E-01 -0.29714804748E+02 -0.31635118811E+02  0.43402306105E+02  0.00000000000E+00 0.  1.
         11    1    4    4    0    0 -0.42901413034E+02  0.43340807415E+02 -0.24223179941E+03  0.24979031501E+03  0.00000000000E+00 0. -1.
</event>
<event>
 8    1  0.6850220E-009  0.9432047E+02  0.7561462E-02  0.1292714E+00
         -2   -1    0    0    0  501 -0.00000000000E+00  0.00000000000E+00  0.42669992174E+03  0.42669992174E+03  0.00000000000E+00 0.  1.
          2   -1    0    0  501    0  0.00000000000E+00 -0.00000000000E+00 -0.38343009039E+02  0.38343009039E+02  0.00000000000E+00 0. -1.
         25    2    1    2    0    0 -0.60165124135E+02 -0.66860507616E+01  0.27209883098E+03  0.30553253086E+03  0.12509119934E+03 0.  0.
         23    2    1    2    0    0  0.60165124135E+02  0.66860507616E+01  0.11625808172E+03  0.15951039993E+03  0.90901488885E+02 0.  0.
          5    1    3    3  502    0 -0.30670837593E+02 -0.46486370487E+02  0.23987016239E+03  0.24628611436E+03  0.41800000000E+01 0. -1.
         -5    1    3    3    0  502 -0.29494286542E+02  0.39800319726E+02  0.32228668590E+02  0.59246416499E+02  0.41800000000E+01 0. -1.
        -11    1    4    4    0    0 -0.10123880370E+02 -0.58309900665E+01 -0.93942060599E+01  0.14991481128E+02  0.00000000000E+00 0. -1.
         11    1    4    4    0    0  0.70289004505E+02  0.12517040828E+02  0.12565228778E+03  0.14451891880E+03  0.00000000000E+00 0.  1.
</event>
<event>
 8    1  0.6850220E-009  0.1353775E+03  0.7561462E-02  0.1219688E+00
          1   -1    0    0  501    0  0.00000000000E+00  0.00000000000E+00  0.44993905412E+02  0.44993905412E+02  0.00000000000E+00 0. -1.
         -1   -1    0    0    0  501 -0.00000000000E+00 -0.00000000000E+00 -0.49812890573E+03  0.49812890573E+03  0.00000000000E+00 0.  1.
         25    2    1    2    0    0  0.81211867616E+02 -0.59430866417E+02 -0.20634725934E+03  0.26144798221E+03  0.12509380737E+03 0.  0.
         23    2    1    2    0    0 -0.81211867616E+02  0.59430866417E+02 -0.24678774098E+03  0.28167482893E+03  0.91154401047E+02 0.  0.
          5    1    3    3  502    0  0.12233937447E+02  0.38348997134E+02 -0.44900411782E+02  0.60446953479E+02  0.41800000000E+01 0. -1.
         -5    1    3    3    0  502  0.68977930169E+02 -0.97779863551E+02 -0.16144684756E+03  0.20100102874E+03  0.41800000000E+01 0. -1.
        -11    1    4    4    0    0 -0.86247697599E+02  0.49568161341E+02 -0.25086954445E+03  0.26987255565E+03  0.00000000000E+00 0.  1.
         11    1    4    4    0    0  0.50358299835E+01  0.98627050758E+01  0.40818034702E+01  0.11802273281E+02  0.00000000000E+00 0. -1.
</event>
<event>
 8    1  0.6850220E-009  0.7960833E+02  0.7561462E-02  0.1330167E+00
          1   -1    0    0  501    0  0.00000000000E+00  0.00000000000E+00  0.83614426784E+02  0.83614426784E+02  0.00000000000E+00 0. -1.
         -1   -1    0    0    0  501 -0.00000000000E+00 -0.00000000000E+00 -0.20774656144E+03  0.20774656144E+03  0.00000000000E+00 0.  1.
         25    2    1    2    0    0 -0.12823634647E+02  0.71708967826E+02 -0.57417698323E+02  0.15572105996E+03  0.12508251181E+03 0.  0.
         23    2    1    2    0    0  0.12823634647E+02 -0.71708967826E+02 -0.66714436335E+02  0.13563992827E+03  0.92955647773E+02 0.  0.
          5    1    3    3  502    0  0.59655770035E+01  0.64694626969E+02  0.25792132143E+02  0.70026347528E+02  0.41800000000E+01 0. -1.
         -5    1    3    3    0  502 -0.18789211651E+02  0.70143408572E+01 -0.83209830466E+02  0.85694712429E+02  0.41800000000E+01 0. -1.
        -11    1    4    4    0    0  0.12926049322E+02 -0.42613236665E+02  0.16497113367E+02  0.47488161047E+02  0.00000000000E+00 0. -1.
         11    1    4    4    0    0 -0.10241467472E+00 -0.29095731161E+02 -0.83211549702E+02  0.88151767222E+02  0.00000000000E+00 0.  1.
</event>
<event>
 8    1  0.6850220E-009  0.5278992E+02  0.7561462E-02  0.1430849E+00
          1   -1    0    0  501    0  0.00000000000E+00  0.00000000000E+00  0.13626072505E+03  0.13626072505E+03  0.00000000000E+00 0. -1.
         -1   -1    0    0    0  501 -0.00000000000E+00 -0.00000000000E+00 -0.10000736078E+03  0.10000736078E+03  0.00000000000E+00 0.  1.
         25    2    1    2    0    0 -0.25946869191E+02 -0.29515416103E+02  0.19026378893E+01  0.13113830091E+03  0.12509689895E+03 0.  0.
         23    2    1    2    0    0  0.25946869191E+02  0.29515416103E+02  0.34350726385E+02  0.10512978492E+03  0.91257325542E+02 0.  0.
          5    1    3    3  502    0 -0.28779615852E+01 -0.39584688800E+02 -0.55477579740E+02  0.68340796776E+02  0.41800000000E+01 0.  1.
         -5    1    3    3    0  502 -0.23068907606E+02  0.10069272697E+02  0.57380217629E+02  0.62797504137E+02  0.41800000000E+01 0.  1.
        -11    1    4    4    0    0  0.14547819741E+02  0.10340385200E+02 -0.31168526654E+02  0.35917122366E+02  0.00000000000E+00 0.  1.
         11    1    4    4    0    0  0.11399049450E+02  0.19175030903E+02  0.65519253040E+02  0.69212662551E+02  0.00000000000E+00 0. -1.
</event>
<event>
 8    1  0.6850220E-009  0.1314142E+03  0.7561462E-02  0.1225372E+00
         -3   -1    0    0    0  501 -0.00000000000E+00  0.00000000000E+00  0.85170414541E+03  0.85170414541E+03  0.00000000000E+00 0.  1.
          3   -1    0    0  501    0  0.00000000000E+00 -0.00000000000E+00 -0.62472724445E+02  0.62472724445E+02  0.00000000000E+00 0. -1.
         25    2    1    2    0    0 -0.30321913216E+02 -0.93177807611E+02  0.76110286240E+03  0.77751347079E+03  0.12509239724E+03 0.  0.
         23    2    1    2    0    0  0.30321913216E+02  0.93177807611E+02  0.28128558561E+02  0.13666339907E+03  0.91017287287E+02 0.  0.
          5    1    3    3  502    0 -0.54873155954E+02 -0.30882976974E+02  0.14992759829E+03  0.16266707915E+03  0.41800000000E+01 0. -1.
         -5    1    3    3    0  502  0.24551242739E+02 -0.62294830637E+02  0.61117526412E+03  0.61484639164E+03  0.41800000000E+01 0. -1.
        -11    1    4    4    0    0  0.53549747524E+02  0.22229277217E+02  0.21014711276E+02  0.61671178969E+02  0.00000000000E+00 0.  1.
         11    1    4    4    0    0 -0.23227834308E+02  0.70948530394E+02  0.71138472844E+01  0.74992220096E+02  0.00000000000E+00 0. -1.
</event>
<event>
 8    1  0.6850220E-009  0.1066646E+03  0.7561462E-02  0.1266874E+00
         -2   -1    0    0    0  501 -0.00000000000E+00  0.00000000000E+00  0.18697813519E+03  0.18697813519E+03  0.00000000000E+00 0. -1.
          2   -1    0    0  501    0  0.00000000000E+00 -0.00000000000E+00 -0.87247172239E+02  0.87247172239E+02  0.00000000000E+00 0.  1.
         25    2    1    2    0    0  0.37273898211E+02 -0.48470941768E+02  0.85359809347E+02  0.16330676714E+03  0.12507608668E+03 0.  0.
         23    2    1    2    0    0 -0.37273898211E+02  0.48470941768E+02  0.14371153604E+02  0.11091854029E+03  0.91420002406E+02 0.  0.
          5    1    3    3  502    0 -0.37170117111E+02  0.94794221336E+01  0.42465709986E+01  0.38819876549E+02  0.41800000000E+01 0. -1.
         -5    1    3    3    0  502  0.74444015323E+02 -0.57950363902E+02  0.81113238348E+02  0.12448689059E+03  0.41800000000E+01 0. -1.
        -11    1    4    4    0    0 -0.50636694119E+02  0.39378127212E+02  0.43570524704E+02  0.77544195895E+02  0.00000000000E+00 0. -1.
         11    1    4    4    0    0  0.13362795908E+02  0.90928145565E+01 -0.29199371099E+02  0.33374344393E+02  0.00000000000E+00 0.  1.
</event>
<event>
 8    1  0.6850220E-009  0.1148771E+03  0.7561462E-02  0.1251796E+00
          2   -1    0    0  501    0  0.00000000000E+00  0.00000000000E+00  0.12748179335E+03  0.12748179335E+03  0.00000000000E+00 0. -1.
         -2   -1    0    0    0  501 -0.00000000000E+00 -0.00000000000E+00 -0.15447800644E+03  0.15447800644E+03  0.00000000000E+00 0.  1.
         25    2    1    2    0    0  0.87245013200E+01 -0.70723497556E+02  0.39258882005E+02  0.14922020046E+03  0.12508988120E+03 0.  0.
         23    2    1    2    0    0 -0.87245013200E+01  0.70723497556E+02 -0.66255095096E+02  0.13273959933E+03  0.90289166434E+02 0.  0.
          5    1    3    3  502    0  0.11752382171E+02  0.34025428252E+02  0.23435550226E+02  0.43157220356E+02  0.41800000000E+01 0.  1.
         -5    1    3    3    0  502 -0.30278808514E+01 -0.10474892581E+03  0.15823331779E+02  0.10606298011E+03  0.41800000000E+01 0.  1.
        -11    1    4    4    0    0  0.21842169984E+02  0.21183096009E+02 -0.68005301252E+02  0.74501845242E+02  0.00000000000E+00 0.  1.
         11    1    4    4    0    0 -0.30566671304E+02  0.49540401547E+02  0.17502061562E+01  0.58237754092E+02  0.00000000000E+00 0. -1.
</event>
<event>
 8    1  0.6850220E-009  0.1560762E+03  0.7561462E-02  0.1193199E+00
         -1   -1    0    0    0  501 -0.00000000000E+00  0.00000000000E+00  0.25155129056E+03  0.25155129056E+03  0.00000000000E+00 0. -1.
          1   -1    0    0  501    0  0.00000000000E+00 -0.00000000000E+00 -0.16385470232E+03  0.16385470232E+03  0.00000000000E+00 0.  1.
         25    2    1    2    0    0 -0.98669926110E+02  0.10522692880E+03 -0.48373213755E+02  0.19697114882E+03  0.12509678171E+03 0.  0.
         23    2    1    2    0    0  0.98669926110E+02 -0.10522692880E+03  0.13606980200E+03  0.21843484407E+03  0.91598740287E+02 0.  0.
          5    1    3    3  502    0 -0.40620797012E+01  0.43344458175E+02  0.35348909459E+02  0.56233978571E+02  0.41800000000E+01 0.  1.
         -5    1    3    3    0  502 -0.94607846409E+02  0.61882470630E+02 -0.83722123214E+02  0.14073717025E+03  0.41800000000E+01 0.  1.
        -11    1    4    4    0    0  0.17183335079E+02  0.52919623375E+01 -0.77613452618E+01  0.19583420286E+02  0.00000000000E+00 0.  1.
         11    1    4    4    0    0  0.81486591030E+02 -0.11051889114E+03  0.14383114726E+03  0.19885142378E+03  0.00000000000E+00 0. -1.
</event>
<event>
 8    1  0.6850220E-009  0.1117720E+03  0.7561462E-02  0.1257323E+00
         -2   -1    0    0    0  501 -0.00000000000E+00  0.00000000000E+00  0.10257555688E+03  0.10257555688E+03  0.00000000000E+00 0.  1.
          2   -1    0    0  501    0  0.00000000000E+00 -0.00000000000E+00 -0.14070004682E+03  0.14070004682E+03  0.00000000000E+00 0. -1.
         25    2    1    2    0    0 -0.70247941152E+01  0.55840169310E+02 -0.53295578373E+02  0.14715806094E+03  0.12509038326E+03 0.  0.
         23    2    1    2    0    0  0.70247941152E+01 -0.55840169310E+02  0.15171088436E+02  0.96117542769E+02  0.76426094122E+02 0.  0.
          5    1    3    3  502    0 -0.51695928787E+02 -0.94670429994E+01 -0.41405087675E+02  0.67036912531E+02  0.41800000000E+01 0. -1.
         -5    1    3    3    0  502  0.44671134672E+02  0.65307212310E+02 -0.11890490698E+02  0.80121148404E+02  0.41800000000E+01 0. -1.
        -11    1    4    4    0    0  0.35461345031E+02 -0.51932550100E+02  0.21983195478E+02  0.66616496716E+02  0.00000000000E+00 0. -1.
         11    1    4    4    0    0 -0.28436550916E+02 -0.39076192103E+01 -0.68121070425E+01  0.29501046053E+02  0.00000000000E+00 0.  1.
</event>
<event>
 8    1  0.6850220E-009  0.8821151E+02  0.7561462E-02  0.1307242E+00
          1   -1    0    0  501    0  0.00000000000E+00  0.00000000000E+00  0.36578210354E+02  0.36578210354E+02  0.00000000000E+00 0. -1.
         -1   -1    0    0    0  501 -0.00000000000E+00 -0.00000000000E+00 -0.46111050372E+03  0.46111050372E+03  0.00000000000E+00 0.  1.
         25    2    1    2    0    0 -0.57911900688E+02 -0.56870722571E+01 -0.33287362501E+03  0.36033126104E+03  0.12509051293E+03 0.  0.
         23    2    1    2    0    0  0.57911900688E+02  0.56870722571E+01 -0.91658668354E+02  0.13735745303E+03  0.84140521665E+02 0.  0.
          5    1    3    3  502    0 -0.69466556449E+02 -0.39662809459E+02 -0.30312681910E+03  0.31353162803E+03  0.41800000000E+01 0. -1.
         -5    1    3    3    0  502  0.11554655761E+02  0.33975737202E+02 -0.29746805914E+02  0.46799633014E+02  0.41800000000E+01 0. -1.
        -11    1    4    4    0    0  0.31346671598E+02  0.10769948559E+02  0.79972689021E+01  0.34096362300E+02  0.00000000000E+00 0. -1.
         11    1    4    4    0    0  0.26565229090E+02 -0.50828763017E+01 -0.99655937256E+02  0.10326109073E+03  0.00000000000E+00 0.  1.
</event>
<event>
 8    1  0.6850220E-009  0.7546148E+02  0.7561462E-02  0.1342448E+00
          1   -1    0    0  501    0  0.00000000000E+00  0.00000000000E+00  0.12326871179E+03  0.12326871179E+03  0.00000000000E+00 0. -1.
         -1   -1    0    0    0  501 -0.00000000000E+00 -0.00000000000E+00 -0.12038485498E+03  0.12038485498E+03  0.00000000000E+00 0.  1.
         25    2    1    2    0    0 -0.23450717826E+02 -0.45223317420E+02  0.91539513093E+01  0.13537792976E+03  0.12509318302E+03 0.  0.
         23    2    1    2    0    0  0.23450717826E+02  0.45223317420E+02 -0.62700945027E+01  0.10827563701E+03  0.95337373987E+02 0.  0.
          5    1    3    3  502    0  0.29621398232E+02 -0.73813984558E-01 -0.40039916692E+02  0.49980996493E+02  0.41800000000E+01 0.  1.
         -5    1    3    3    0  502 -0.53072116058E+02 -0.45149503435E+02  0.49193868001E+02  0.85396933272E+02  0.41800000000E+01 0.  1.
        -11    1    4    4    0    0  0.14387523122E+02  0.22129099615E+02 -0.50830166998E+02  0.57274809021E+02  0.00000000000E+00 0.  1.
         11    1    4    4    0    0  0.90631947046E+01  0.23094217804E+02  0.44560072495E+02  0.51000827984E+02  0.00000000000E+00 0. -1.
</event>
<event>
 8    1  0.6850220E-009  0.1116655E+03  0.7561462E-02  0.1257516E+00
         -2   -1    0    0    0  501 -0.00000000000E+00  0.00000000000E+00  0.11922221432E+03  0.11922221432E+03  0.00000000000E+00 0.  1.
          2   -1    0    0  501    0  0.00000000000E+00 -0.00000000000E+00 -0.11910578564E+03  0.11910578564E+03  0.00000000000E+00 0. -1.
         25    2    1    2    0    0 -0.47108374135E+02 -0.86283358089E+01  0.12971227142E+02  0.13457240610E+03  0.12509129729E+03 0.  0.
         23    2    1    2    0    0  0.47108374135E+02  0.86283358089E+01 -0.12854798456E+02  0.10375559386E+03  0.91139071324E+02 0.  0.
          5    1    3    3  502    0 -0.86091029783E+02 -0.22585728704E+00  0.29643631797E+02  0.91147867374E+02  0.41800000000E+01 0.  1.
         -5    1    3    3    0  502  0.38982655649E+02 -0.84024785219E+01 -0.16672404655E+02  0.43424538728E+02  0.41800000000E+01 0.  1.
        -11    1    4    4    0    0  0.27864360268E+02  0.46700955028E+02  0.10100117745E+02  0.55311971147E+02  0.00000000000E+00 0.  1.
         11    1    4    4    0    0  0.19244013867E+02 -0.38072619219E+02 -0.22954916201E+02  0.48443622715E+02  0.00000000000E+00 0. -1.
</event>
<event>
 8    1  0.6850220E-009  0.2055862E+03  0.7561462E-02  0.1145110E+00
         -2   -1    0    0    0  501 -0.00000000000E+00  0.00000000000E+00  0.47986823094E+02  0.47986823094E+02  0.00000000000E+00 0.  1.
          2   -1    0    0  501    0  0.00000000000E+00 -0.00000000000E+00 -0.12517640320E+04  0.12517640320E+04  0.00000000000E+00 0. -1.
         25    2    1    2    0    0 -0.50066616919E+01  0.19514673802E+03 -0.88639805890E+03  0.91622494118E+03  0.12513715673E+03 0.  0.
         23    2    1    2    0    0  0.50066616919E+01 -0.19514673802E+03 -0.31737915006E+03  0.38352591397E+03  0.90858603180E+02 0.  0.
          5    1    3    3  502    0  0.32392703498E+02  0.27073534236E+02 -0.35705181409E+03  0.35956325430E+03  0.41800000000E+01 0. -1.
         -5    1    3    3    0  502 -0.37399365190E+02  0.16807320378E+03 -0.52934624480E+03  0.55666168688E+03  0.41800000000E+01 0. -1.
        -11    1    4    4    0    0 -0.86303004433E+01 -0.10342378115E+03 -0.87850855063E+02  0.13597328167E+03  0.00000000000E+00 0.  1.
         11    1    4    4    0    0  0.13636962135E+02 -0.91722956869E+02 -0.22952829499E+03  0.24755263230E+03  0.00000000000E+00 0. -1.
</event>
<event>
 8    1  0.6850220E-009  0.8108526E+02  0.7561462E-02  0.1326000E+00
         -1   -1    0    0    0  501 -0.00000000000E+00  0.00000000000E+00  0.39369499223E+03  0.39369499223E+03  0.00000000000E+00 0.  1.
          1   -1    0    0  501    0  0.00000000000E+00 -0.00000000000E+00 -0.45585160442E+02  0.45585160442E+02  0.00000000000E+00 0. -1.
         25    2    1    2    0    0 -0.19565548675E+02 -0.51233839911E+02  0.10183412464E+03  0.17036461406E+03  0.12508475421E+03 0.  0.
         23    2    1    2    0    0  0.19565548675E+02  0.51233839911E+02  0.24627570715E+03  0.26891553861E+03  0.93038303557E+02 0.  0.
          5    1    3    3  502    0  0.52067828901E+01 -0.21733174910E+02 -0.27308577232E+02  0.35534100104E+02  0.41800000000E+01 0.  1.
         -5    1    3    3    0  502 -0.24772331565E+02 -0.29500665000E+02  0.12914270187E+03  0.13483051395E+03  0.41800000000E+01 0.  1.
        -11    1    4    4    0    0  0.10110532564E+02 -0.23381823322E+02  0.11343833698E+03  0.11626344579E+03  0.00000000000E+00 0.  1.
         11    1    4    4    0    0  0.94550161112E+01  0.74615663233E+02  0.13283737017E+03  0.15265209282E+03  0.00000000000E+00 0. -1.
</event>
<event>
 8    1  0.6850220E-009  0.1580951E+03  0.7561462E-02  0.1190864E+00
          2   -1    0    0  501    0  0.00000000000E+00  0.00000000000E+00  0.71514624638E+03  0.71514624638E+03  0.00000000000E+00 0. -1.
         -2   -1    0    0    0  501 -0.00000000000E+00 -0.00000000000E+00 -0.52075289040E+02  0.52075289040E+02  0.00000000000E+00 0.  1.
         25    2    1    2    0    0 -0.23842675086E+02 -0.12514566634E+03  0.15828818568E+03  0.23860547537E+03  0.12509001637E+03 0.  0.
         23    2    1    2    0    0  0.23842675086E+02  0.12514566634E+03  0.50478277166E+03  0.52861606005E+03  0.91648139181E+02 0.  0.
          5    1    3    3  502    0  0.27375217385E+02  0.13088909153E+02  0.21179479907E+02  0.37239291599E+02  0.41800000000E+01 0.  1.
         -5    1    3    3    0  502 -0.51217892471E+02 -0.13823457549E+03  0.13710870577E+03  0.20136618378E+03  0.41800000000E+01 0.  1.
        -11    1    4    4    0    0  0.30821872527E+02  0.31124861196E+02  0.62033640965E+02  0.75940222688E+02  0.00000000000E+00 0.  1.
         11    1    4    4    0    0 -0.69791974408E+01  0.94020805139E+02  0.44274913070E+03  0.45267583736E+03  0.00000000000E+00 0. -1.
</event>
<event>
 8    1  0.6850220E-009  0.9989297E+02  0.7561462E-02  0.1280521E+00
         -1   -1    0    0    0  501 -0.00000000000E+00  0.00000000000E+00  0.79089943941E+02  0.79089943941E+02  0.00000000000E+00 0.  1.
          1   -1    0    0  501    0  0.00000000000E+00 -0.00000000000E+00 -0.15027408234E+03  0.15027408234E+03  0.00000000000E+00 0. -1.
         25    2    1    2    0    0 -0.33172657384E+01  0.68274139102E+01 -0.53966234304E+02  0.13644679245E+03  0.12509098645E+03 0.  0.
         23    2    1    2    0    0  0.33172657384E+01 -0.68274139102E+01 -0.17217904097E+02  0.92917233836E+02  0.90991968270E+02 0.  0.
          5    1    3    3  502    0  0.59657503563E+02  0.95251548343E+01 -0.15588226748E+02  0.62531684122E+02  0.41800000000E+01 0.  1.
         -5    1    3    3    0  502 -0.62974769301E+02 -0.26977409241E+01 -0.38378007556E+02  0.73915108324E+02  0.41800000000E+01 0.  1.
        -11    1    4    4    0    0 -0.12961922532E+02 -0.38403464514E+02 -0.34669447222E+02  0.53336742430E+02  0.00000000000E+00 0. -1.
         11    1    4    4    0    0  0.16279188271E+02  0.31576050604E+02  0.17451543125E+02  0.39580491406E+02  0.00000000000E+00 0.  1.
</event>
<event>
 7    1  0.6850220E-009  0.1474919E+03  0.7561462E-02  0.1203589E+00
         -1   -1    0    0    0  501 -0.00000000000E+00  0.00000000000E+00  0.10004044462E+03  0.10004044462E+03  0.00000000000E+00 0.  1.
          1   -1    0    0  501    0  0.00000000000E+00 -0.00000000000E+00 -0.29817275185E+03  0.29817275185E+03  0.00000000000E+00 0. -1.
         23    2    1    2    0    0 -0.79660070081E+02  0.98522974767E+02 -0.14440093386E+03  0.21236162833E+03  0.90517004843E+02 0.  0.
          5    1    1    2  502    0 -0.20141482789E+01 -0.36161890148E+02  0.34613118643E+02  0.50272054609E+02  0.41800000000E+01 0. -1.
         -5    1    1    2    0  502  0.81674218360E+02 -0.62361084619E+02 -0.88344492012E+02  0.13557951353E+03  0.41800000000E+01 0. -1.
        -11    1    3    3    0    0 -0.71284730485E+02  0.16419836816E+02 -0.65767773368E+02  0.98369323750E+02  0.00000000000E+00 0.  1.
         11    1    3    3    0    0 -0.83753395963E+01  0.82103137951E+02 -0.78633160496E+02  0.11399230458E+03  0.00000000000E+00 0. -1.
</event>
<event>
 8    1  0.6850220E-009  0.1747985E+03  0.7561462E-02  0.1172934E+00
         -2   -1    0    0    0  501 -0.00000000000E+00  0.00000000000E+00  0.29069923976E+02  0.29069923976E+02  0.00000000000E+00 0.  1.
          2   -1    0    0  501    0  0.00000000000E+00 -0.00000000000E+00 -0.14059512768E+04  0.14059512768E+04  0.00000000000E+00 0. -1.
         25    2    1    2    0    0 -0.87006697666E+02 -0.13421925879E+03 -0.93518177856E+03  0.95697195052E+03  0.12508149452E+03 0.  0.
         23    2    1    2    0    0  0.87006697666E+02  0.13421925879E+03 -0.44169957428E+03  0.47804925026E+03  0.88586663173E+02 0.  0.
          5    1    3    3  502    0  0.19134163474E+01 -0.30578889219E+02 -0.35944351902E+02  0.47415171218E+02  0.41800000000E+01 0. -1.
         -5    1    3    3    0  502 -0.88920114013E+02 -0.10364036957E+03 -0.89923742665E+03  0.90955677930E+03  0.41800000000E+01 0. -1.
        -11    1    4    4    0    0  0.10445073800E+03  0.10556169314E+03 -0.34179895420E+03  0.37266573873E+03  0.00000000000E+00 0.  1.
         11    1    4    4    0    0 -0.17444040336E+02  0.28657565649E+02 -0.99900620077E+02  0.10538351154E+03  0.00000000000E+00 0. -1.
</event>
<event>
 8    1  0.6850220E-009  0.9541543E+02  0.7561462E-02  0.1290243E+00
         -2   -1    0    0    0  501 -0.00000000000E+00  0.00000000000E+00  0.50283142810E+02  0.50283142810E+02  0.00000000000E+00 0.  1.
          2   -1    0    0  501    0  0.00000000000E+00 -0.00000000000E+00 -0.29175386045E+03  0.29175386045E+03  0.00000000000E+00 0. -1.
         25    2    1    2    0    0 -0.38477242879E+02  0.13832318748E+02 -0.18922280712E+03  0.23048963283E+03  0.12509344047E+03 0.  0.
         23    2    1    2    0    0  0.38477242879E+02 -0.13832318748E+02 -0.52247910522E+02  0.11154737043E+03  0.89672406202E+02 0.  0.
          5    1    3    3  502    0  0.59779948426E+01  0.41202200964E+02 -0.16940037860E+03  0.17449159996E+03  0.41800000000E+01 0. -1.
         -5    1    3    3    0  502 -0.44455237721E+02 -0.27369882216E+02 -0.19822428521E+02  0.55998032875E+02  0.41800000000E+01 0. -1.
        -11    1    4    4    0    0  0.11528308349E+02 -0.50112656768E+02 -0.16756029898E+02  0.54082758802E+02  0.00000000000E+00 0.  1.
         11    1    4    4    0    0  0.26948934530E+02  0.36280338020E+02 -0.35491880624E+02  0.57464611626E+02  0.00000000000E+00 0. -1.
</event>
<event>
 8    1  0.6850220E-009  0.1160663E+03  0.7561462E-02  0.1249731E+00
          1   -1    0    0  501    0  0.00000000000E+00  0.00000000000E+00  0.43498151575E+03  0.43498151575E+03  0.00000000000E+00 0. -1.
         -1   -1    0    0    0  501 -0.00000000000E+00 -0.00000000000E+00 -0.49690704709E+02  0.49690704709E+02  0.00000000000E+00 0.  1.
         25    2    1    2    0    0  0.13339914403E+02  0.55780849699E+02  0.34135637641E+03  0.36805160362E+03  0.12509336794E+03 0.  0.
         23    2    1    2    0    0 -0.13339914403E+02 -0.55780849699E+02  0.43934434628E+02  0.11662061684E+03  0.91546038776E+02 0.  0.
          5    1    3    3  502    0 -0.38343587799E+02 -0.11896535613E+02  0.48824041505E+02  0.63348383672E+02  0.41800000000E+01 0.  1.
         -5    1    3    3    0  502  0.51683502202E+02  0.67677385312E+02  0.29253233491E+03  0.30470321995E+03  0.41800000000E+01 0.  1.
        -11    1    4    4    0    0 -0.24461156470E+02  0.18959071432E+02  0.41530366751E+01  0.31225666991E+02  0.00000000000E+00 0.  1.
         11    1    4    4    0    0  0.11121242067E+02 -0.74739921132E+02  0.39781397953E+02  0.85394949845E+02  0.00000000000E+00 0. -1.
</event>
<event>
 8    1  0.6850220E-009  0.1314055E+03  0.7561462E-02  0.1225385E+00
          2   -1    0    0  501    0  0.00000000000E+00  0.00000000000E+00  0.89631269256E+03  0.89631269256E+03  0.00000000000E+00 0. -1.
         -2   -1    0    0    0  501 -0.00000000000E+00 -0.00000000000E+00 -0.30133794871E+02  0.30133794871E+02  0.00000000000E+00 0.  1.
         25    2    1    2    0    0  0.11188543615E+03 -0.38963300494E+02  0.36613805294E+03  0.40465178284E+03  0.12509796936E+03 0.  0.
         23    2    1    2    0    0 -0.11188543615E+03  0.38963300494E+02  0.50004084475E+03  0.52179470459E+03  0.90511754556E+02 0.  0.
          5    1    3    3  502    0  0.30957931808E+02 -0.12001299750E+01  0.27575845197E+03  0.27752482788E+03  0.41800000000E+01 0.  1.
         -5    1    3    3    0  502  0.80927504345E+02 -0.37763170519E+02  0.90379600966E+02  0.12712695496E+03  0.41800000000E+01 0.  1.
        -11    1    4    4    0    0 -0.49544071259E+02 -0.22667863190E+02  0.12023658213E+03  0.13200485863E+03  0.00000000000E+00 0.  1.
         11    1    4    4    0    0 -0.62341364894E+02  0.61631163684E+02  0.37980426262E+03  0.38978984596E+03  0.00000000000E+00 0. -1.
</event>
<event>
 8    1  0.6850220E-009  0.1569220E+03  0.7561462E-02  0.1192216E+00
         -2   -1    0    0    0  501 -0.00000000000E+00  0.00000000000E+00  0.14343903103E+03  0.14343903103E+03  0.00000000000E+00 0.  1.
          2   -1    0    0  501    0  0.00000000000E+00 -0.00000000000E+00 -0.28980218715E+03  0.28980218715E+03  0.00000000000E+00 0. -1.
         25    2    1    2    0    0 -0.12260324948E+03  0.96617890766E+02 -0.15444917053E+03  0.25272242034E+03  0.12508997509E+03 0.  0.
         23    2    1    2    0    0  0.12260324948E+03 -0.96617890766E+02  0.80860144085E+01  0.18051879783E+03  0.90305476824E+02 0.  0.
          5    1    3    3  502    0 -0.33860049385E+02  0.19806142929E+02  0.18575708341E+02  0.43604077589E+02  0.41800000000E+01 0. -1.
         -5    1    3    3    0  502 -0.88743200091E+02  0.76811747837E+02 -0.17302487887E+03  0.20911834275E+03  0.41800000000E+01 0. -1.
        -11    1    4    4    0    0  0.79625917226E+02 -0.52591608767E+02  0.48363432529E+02  0.10698217428E+03  0.00000000000E+00 0.  1.
         11    1    4    4    0    0  0.42977332250E+02 -0.44026281999E+02 -0.40277418120E+02  0.73536623559E+02  0.00000000000E+00 0. -1.
</event>
<event>
 8    1  0.6850220E-009  0.1081553E+03  0.7561462E-02  0.1264025E+00
          1   -1    0    0  501    0  0.00000000000E+00  0.00000000000E+00  0.20884812608E+03  0.20884812608E+03  0.00000000000E+00 0. -1.
         -1   -1    0    0    0  501 -0.00000000000E+00 -0.00000000000E+00 -0.81669566798E+02  0.81669566798E+02  0.00000000000E+00 0.  1.
         25    2    1    2    0    0 -0.61585534021E+02  0.35353482026E+02  0.49917322215E+02  0.15225742084E+03  0.12509171216E+03 0.  0.
         23    2    1    2    0    0  0.61585534021E+02 -0.35353482026E+02  0.77261237065E+02  0.13826027204E+03  0.90021982757E+02 0.  0.
          5    1    3    3  502    0 -0.45887228364E+01 -0.44026583496E+02  0.53932304140E+01  0.44787897538E+02  0.41800000000E+01 0. -1.
         -5    1    3    3    0  502 -0.56996811185E+02  0.79380065521E+02  0.44524091801E+02  0.10746952330E+03  0.41800000000E+01 0. -1.
        -11    1    4    4    0    0  0.49802870000E+02 -0.17787099418E+02 -0.51910600118E+01  0.53138064228E+02  0.00000000000E+00 0.  1.
         11    1    4    4    0    0  0.11782664022E+02 -0.17566382608E+02  0.82452297077E+02  0.85122207811E+02  0.00000000000E+00 0. -1.
</event>
<event>
 8    1  0.6850220E-009  0.1572253E+03  0.7561462E-02  0.1191865E+00
          2   -1    0    0  501    0  0.00000000000E+00  0.00000000000E+00  0.84856039739E+03  0.84856039739E+03  0.00000000000E+00 0. -1.
         -2   -1    0    0    0  501 -0.00000000000E+00 -0.00000000000E+00 -0.37681904995E+02  0.37681904995E+02  0.00000000000E+00 0.  1.
         25    2    1    2    0    0  0.10990396480E+03  0.62156107191E+02  0.26586048780E+03  0.31979854799E+03  0.12508816564E+03 0.  0.
         23    2    1    2    0    0 -0.10990396480E+03 -0.62156107191E+02  0.54501800459E+03  0.56644375439E+03  0.88722254391E+02 0.  0.
          5    1    3    3  502    0  0.86332387897E+02 -0.22483679921E+02  0.12239435316E+03  0.15151451134E+03  0.41800000000E+01 0.  1.
         -5    1    3    3    0  502  0.23571576900E+02  0.84639787112E+02  0.14346613465E+03  0.16828403665E+03  0.41800000000E+01 0.  1.
        -11    1    4    4    0    0 -0.70250346366E+02 -0.89426384104E+01  0.40916385301E+03  0.41524708374E+03  0.00000000000E+00 0. -1.
         11    1    4    4    0    0 -0.39653618431E+02 -0.53213468781E+02  0.13585415158E+03  0.15119667065E+03  0.00000000000E+00 0.  1.
</event>
<event>
 8    1  0.6850220E-009  0.1173632E+03  0.7561462E-02  0.1247511E+00
          2   -1    0    0  501    0  0.00000000000E+00  0.00000000000E+00  0.24927953864E+03  0.24927953864E+03  0.00000000000E+00 0. -1.
         -2   -1    0    0    0  501 -0.00000000000E+00 -0.00000000000E+00 -0.63632493309E+02  0.63632493309E+02  0.00000000000E+00 0.  1.
         25    2    1    2    0    0  0.68174476425E+01 -0.59493824405E+02  0.80725455899E+02  0.16046900926E+03  0.12509081089E+03 0.  0.
         23    2    1    2    0    0 -0.68174476425E+01  0.59493824405E+02  0.10492158943E+03  0.15244302268E+03  0.92974956315E+02 0.  0.
          5    1    3    3  502    0 -0.23534077693E+02  0.32394054925E+02  0.13096609018E+02  0.42334633282E+02  0.41800000000E+01 0. -1.
         -5    1    3    3    0  502  0.30351525336E+02 -0.91887879330E+02  0.67628846881E+02  0.11813437598E+03  0.41800000000E+01 0. -1.
        -11    1    4    4    0    0  0.23713356049E+02 -0.67594319959E+01  0.64479072826E+02  0.69033064603E+02  0.00000000000E+00 0. -1.
         11    1    4    4    0    0 -0.30530803691E+02  0.66253256401E+02  0.40442516603E+02  0.83409958080E+02  0.00000000000E+00 0.  1.
</event>
<event>
 8    1  0.6850220E-009  0.1986259E+03  0.7561462E-02  0.1150904E+00
         -2   -1    0    0    0  501 -0.00000000000E+00  0.00000000000E+00  0.33636181257E+02  0.33636181257E+02  0.00000000000E+00 0.  1.
          2   -1    0    0  501    0  0.00000000000E+00 -0.00000000000E+00 -0.14693958803E+04  0.14693958803E+04  0.00000000000E+00 0. -1.
         25    2    1    2    0    0 -0.17497465682E+03  0.27647089610E+02 -0.94811579607E+03  0.97260037305E+03  0.12508969101E+03 0.  0.
         23    2    1    2    0    0  0.17497465682E+03 -0.27647089610E+02 -0.48764390296E+03  0.53043168850E+03  0.11036624473E+03 0.  0.
          5    1    3    3  502    0 -0.71057093572E+02  0.60752125290E+02 -0.61450608230E+03  0.62159080500E+03  0.41800000000E+01 0. -1.
         -5    1    3    3    0  502 -0.10391756325E+03 -0.33105035681E+02 -0.33360971377E+03  0.35100956805E+03  0.41800000000E+01 0. -1.
        -11    1    4    4    0    0  0.13881745130E+02  0.21950989789E+02 -0.18390236160E+02  0.31823726786E+02  0.00000000000E+00 0.  1.
         11    1    4    4    0    0  0.16109291169E+03 -0.49598079399E+02 -0.46925366680E+03  0.49860796172E+03  0.00000000000E+00 0. -1.
</event>
<event>
 8    1  0.6850220E-009  0.1299433E+03  0.7561462E-02  0.1227540E+00
          1   -1    0    0  501    0  0.00000000000E+00  0.00000000000E+00  0.12362965606E+03  0.12362965606E+03  0.00000000000E+00 0. -1.
         -1   -1    0    0    0  501 -0.00000000000E+00 -0.00000000000E+00 -0.17469829979E+03  0.17469829979E+03  0.00000000000E+00 0.  1.
         25    2    1    2    0    0 -0.47123136754E+02 -0.86916249614E+02 -0.37251552374E+02  0.16377995409E+03  0.12514459934E+03 0.  0.
         23    2    1    2    0    0  0.47123136754E+02  0.86916249614E+02 -0.13817091349E+02  0.13454800176E+03  0.90206586785E+02 0.  0.
          5    1    3    3  502    0  0.36532790095E+02 -0.84267515316E+01  0.10950651641E+02  0.39281599572E+02  0.41800000000E+01 0. -1.
         -5    1    3    3    0  502 -0.83655926849E+02 -0.78489498082E+02 -0.48202204015E+02  0.12449835452E+03  0.41800000000E+01 0. -1.
        -11    1    4    4    0    0  0.54341955441E+02  0.67481739831E+02 -0.44590123077E+02  0.97442867404E+02  0.00000000000E+00 0.  1.
         11    1    4    4    0    0 -0.72188186874E+01  0.19434509782E+02  0.30773031728E+02  0.37105134355E+02  0.00000000000E+00 0. -1.
</event>
<event>
 8    1  0.6850220E-009  0.1083179E+03  0.7561462E-02  0.1263717E+00
         -2   -1    0    0    0  501 -0.00000000000E+00  0.00000000000E+00  0.32585673712E+02  0.32585673712E+02  0.00000000000E+00 0. -1.
          2   -1    0    0  501    0  0.00000000000E+00 -0.00000000000E+00 -0.43152233925E+03  0.43152233925E+03  0.00000000000E+00 0.  1.
         25    2    1    2    0    0 -0.36418664134E+02  0.25802246827E+02 -0.17867153447E+03  0.22262542372E+03  0.12508591855E+03 0.  0.
         23    2    1    2    0    0  0.36418664134E+02 -0.25802246827E+02 -0.22026513107E+03  0.24148258924E+03  0.88346125563E+02 0.  0.
          5    1    3    3  502    0 -0.29095557686E+02  0.70302301791E+02 -0.15208546103E+03  0.17010709854E+03  0.41800000000E+01 0.  1.
         -5    1    3    3    0  502 -0.73231064483E+01 -0.44500054964E+02 -0.26586073436E+02  0.52518325188E+02  0.41800000000E+01 0.  1.
        -11    1    4    4    0    0  0.63968276836E+02 -0.19615083117E+02 -0.12085045220E+03  0.13813588862E+03  0.00000000000E+00 0. -1.
         11    1    4    4    0    0 -0.27549612702E+02 -0.61871637106E+01 -0.99414678867E+02  0.10334670062E+03  0.00000000000E+00 0.  1.
</event>
<event>
 8    1  0.6850220E-009  0.5652006E+02  0.7561462E-02  0.1413044E+00
          1   -1    0    0  501    0  0.00000000000E+00  0.00000000000E+00  0.35046548670E+03  0.35046548670E+03  0.00000000000E+00 0. -1.
         -1   -1    0    0    0  501 -0.00000000000E+00 -0.00000000000E+00 -0.63987183336E+02  0.63987183336E+02  0.00000000000E+00 0.  1.
         25    2    1    2    0    0 -0.19466242322E+02  0.98208245672E+01  0.29144671317E+03  0.31790594687E+03  0.12509045229E+03 0.  0.
         23    2    1    2    0    0  0.19466242322E+02 -0.98208245672E+01 -0.49684098050E+01  0.96546723166E+02  0.93921251444E+02 0.  0.
          5    1    3    3  502    0 -0.72376661426E+01  0.12670305344E+02  0.30112722620E+03  0.30150953419E+03  0.41800000000E+01 0.  1.
         -5    1    3    3    0  502 -0.12228576180E+02 -0.28494807768E+01 -0.96805130338E+01  0.16396412677E+02  0.41800000000E+01 0.  1.
        -11    1    4    4    0    0 -0.19025465575E+02  0.25885286472E+02 -0.24633065083E+02  0.40482147812E+02  0.00000000000E+00 0.  1.
         11    1    4    4    0    0  0.38491707898E+02 -0.35706111039E+02  0.19664655278E+02  0.56064575354E+02  0.00000000000E+00 0. -1.
</event>
<event>
 8    1  0.6850220E-009  0.1162018E+03  0.7561462E-02  0.1249498E+00
         -1   -1    0    0    0  501 -0.00000000000E+00  0.00000000000E+00  0.28916989672E+02  0.28916989672E+02  0.00000000000E+00 0.  1.
          1   -1    0    0  501    0  0.00000000000E+00 -0.00000000000E+00 -0.89560440176E+03  0.89560440176E+03  0.00000000000E+00 0. -1.
         25    2    1    2    0    0  0.19930939029E+02 -0.88015792179E+02 -0.69161012310E+03  0.70860162386E+03  0.12509067498E+03 0.  0.
         23    2    1    2    0    0 -0.19930939029E+02  0.88015792179E+02 -0.17507728899E+03  0.21591976757E+03  0.88460538680E+02 0.  0.
          5    1    3    3  502    0 -0.16370794917E+02 -0.69660688430E+02 -0.15884434526E+03  0.17426879485E+03  0.41800000000E+01 0. -1.
         -5    1    3    3    0  502  0.36301733947E+02 -0.18355103749E+02 -0.53276577784E+03  0.53433282901E+03  0.41800000000E+01 0. -1.
        -11    1    4    4    0    0  0.28479934025E+02  0.52713911575E+02 -0.53260599221E+02  0.80165794108E+02  0.00000000000E+00 0.  1.
         11    1    4    4    0    0 -0.48410873055E+02  0.35301880604E+02 -0.12181668977E+03  0.13575397346E+03  0.00000000000E+00 0. -1.
</event>
<event>
 8    1  0.6850220E-009  0.1382425E+03  0.7561462E-02  0.1215714E+00
         -2   -1    0    0    0  501 -0.00000000000E+00  0.00000000000E+00  0.43164574772E+02  0.43164574772E+02  0.00000000000E+00 0.  1.
          2   -1    0    0  501    0  0.00000000000E+00 -0.00000000000E+00 -0.79508152117E+03  0.79508152117E+03  0.00000000000E+00 0. -1.
         25    2    1    2    0    0 -0.56072083216E+02 -0.94479401311E+02 -0.62685044916E+03  0.64858159853E+03  0.12508464554E+03 0.  0.
         23    2    1    2    0    0  0.56072083216E+02  0.94479401311E+02 -0.12506649723E+03  0.18966449741E+03  0.90887606739E+02 0.  0.
          5    1    3    3  502    0  0.29505669257E+02 -0.66106633033E+02 -0.21303488084E+03  0.22503778416E+03  0.41800000000E+01 0.  1.
         -5    1    3    3    0  502 -0.85577752473E+02 -0.28372768278E+02 -0.41381556833E+03  0.42354381436E+03  0.41800000000E+01 0.  1.
        -11    1    4    4    0    0  0.28096470340E+02  0.20956852755E+02  0.71902284419E+01  0.35781289915E+02  0.00000000000E+00 0.  1.
         11    1    4    4    0    0  0.27975612876E+02  0.73522548557E+02 -0.13225672568E+03  0.15388320749E+03  0.00000000000E+00 0. -1.
</event>
<event>
 8    1  0.6850220E-009  0.9108430E+02  0.7561462E-02  0.1300247E+00
         -2   -1    0    0    0  501 -0.00000000000E+00  0.00000000000E+00  0.16648709618E+03  0.16648709618E+03  0.00000000000E+00 0.  1.
          2   -1    0    0  501    0  0.00000000000E+00 -0.00000000000E+00 -0.19207362419E+03  0.19207362419E+03  0.00000000000E+00 0. -1.
         25    2    1    2    0    0  0.59034529462E+02  0.12163210552E+02 -0.14296133341E+03  0.19929506532E+03  0.12509021085E+03 0.  0.
         23    2    1    2    0    0 -0.59034529462E+02 -0.12163210552E+02  0.11737480539E+03  0.15926565505E+03  0.89194644333E+02 0.  0.
          5    1    3    3  502    0  0.13735762084E+02 -0.17164616231E+02  0.18480058428E+02  0.29022063502E+02  0.41800000000E+01 0. -1.
         -5    1    3    3    0  502  0.45298767378E+02  0.29327826783E+02 -0.16144139184E+03  0.17027300182E+03  0.41800000000E+01 0. -1.
        -11    1    4    4    0    0 -0.61462675724E+02 -0.42822814150E+02  0.68430006250E+02  0.10145994123E+03  0.00000000000E+00 0. -1.
         11    1    4    4    0    0  0.24281462619E+01  0.30659603599E+02  0.48944799144E+02  0.57805713821E+02  0.00000000000E+00 0.  1.
</event>
<event>
 8    1  0.6850220E-009  0.1551764E+03  0.7561462E-02  0.1194253E+00
          2   -1    0    0  501    0  0.00000000000E+00  0.00000000000E+00  0.43066796316E+03  0.43066796316E+03  0.00000000000E+00 0. -1.
         -2   -1    0    0    0  501 -0.00000000000E+00 -0.00000000000E+00 -0.65789945153E+02  0.65789945153E+02  0.00000000000E+00 0.  1.
         25    2    1    2    0    0  0.10989987212E+03 -0.56103569950E+02  0.14813653601E+03  0.22981877144E+03  0.12508653785E+03 0.  0.
         23    2    1    2    0    0 -0.10989987212E+03  0.56103569950E+02  0.21674148200E+03  0.26663913687E+03  0.94307830216E+02 0.  0.
          5    1    3    3  502    0  0.38790541208E+02  0.33161065675E+02  0.85253093035E+02  0.99448100213E+02  0.41800000000E+01 0. -1.
         -5    1    3    3    0  502  0.71109330914E+02 -0.89264635625E+02  0.62883442976E+02  0.13037067123E+03  0.41800000000E+01 0. -1.
        -11    1    4    4    0    0  0.10992159303E+01 -0.13751778926E+02  0.58652768808E+00  0.13808103201E+02  0.00000000000E+00 0.  1.
         11    1    4    4    0    0 -0.11099908805E+03  0.69855348875E+02  0.21615495431E+03  0.25283103367E+03  0.00000000000E+00 0. -1.
</event>
<event>
 8    1  0.6850220E-009  0.1169365E+03  0.7561462E-02  0.1248238E+00
          1   -1    0    0  501    0  0.00000000000E+00  0.00000000000E+00  0.12289326067E+04  0.12289326067E+04  0.00000000000E+00 0. -1.
         -1   -1    0    0    0  501 -0.00000000000E+00 -0.00000000000E+00 -0.12031703191E+02  0.12031703191E+02  0.00000000000E+00 0.  1.
         25    2    1    2    0    0 -0.28125831380E+02 -0.44931177940E+02  0.73544248806E+03  0.74788578034E+03  0.12509042353E+03 0.  0.
         23    2    1    2    0    0  0.28125831380E+02  0.44931177940E+02  0.48145841550E+03  0.49307852959E+03  0.92273275382E+02 0.  0.
          5    1    3    3  502    0 -0.31770137354E+01 -0.86641298272E+02  0.44752451665E+03  0.45586453403E+03  0.41800000000E+01 0. -1.
         -5    1    3    3    0  502 -0.24948817644E+02  0.41710120332E+02  0.28791797140E+03  0.29202124631E+03  0.41800000000E+01 0. -1.
        -11    1    4    4    0    0  0.54914937566E+02  0.45771089646E+02  0.41984627650E+03  0.42588911574E+03  0.00000000000E+00 0. -1.
         11    1    4    4    0    0 -0.26789106186E+02 -0.83991170660E+00  0.61612139002E+02  0.67189413856E+02  0.00000000000E+00 0.  1.
</event>
<event>
 8    1  0.6850220E-009  0.3174249E+03  0.7561462E-02  0.1076841E+00
         -1   -1    0    0    0  501 -0.00000000000E+00  0.00000000000E+00  0.83117661837E+02  0.83117661837E+02  0.00000000000E+00 0.  1.
          1   -1    0    0  501    0  0.00000000000E+00 -0.00000000000E+00 -0.12672844751E+04  0.12672844751E+04  0.00000000000E+00 0. -1.
         25    2    1    2    0    0  0.26122326438E+03  0.15092585807E+03 -0.50134756365E+03  0.59834225341E+03  0.12509142318E+03 0.  0.
         23    2    1    2    0    0 -0.26122326438E+03 -0.15092585807E+03 -0.68281924962E+03  0.75205988353E+03  0.91300231570E+02 0.  0.
          5    1    3    3  502    0  0.68045594616E+02 -0.15396958459E+02 -0.13492740128E+03  0.15195441847E+03  0.41800000000E+01 0.  1.
         -5    1    3    3    0  502  0.19317766976E+03  0.16632281652E+03 -0.36642016237E+03  0.44638783494E+03  0.41800000000E+01 0.  1.
        -11    1    4    4    0    0 -0.23783929568E+03 -0.10817756094E+03 -0.51767064671E+03  0.57987310140E+03  0.00000000000E+00 0.  1.
         11    1    4    4    0    0 -0.23383968699E+02 -0.42748297125E+02 -0.16514860291E+03  0.17218678213E+03  0.00000000000E+00 0. -1.
</event>
<event>
 8    1  0.6850220E-009  0.1010557E+03  0.7561462E-02  0.1278092E+00
          4   -1    0    0  501    0  0.00000000000E+00  0.00000000000E+00  0.58172850870E+02  0.58172850870E+02  0.00000000000E+00 0. -1.
         -4   -1    0    0    0  501 -0.00000000000E+00 -0.00000000000E+00 -0.25978394314E+03  0.25978394314E+03  0.00000000000E+00 0.  1.
         25    2    1    2    0    0  0.12586874243E+02 -0.38977761718E+02 -0.16295467776E+03  0.20947438251E+03  0.12509034581E+03 0.  0.
         23    2    1    2    0    0 -0.12586874243E+02  0.38977761718E+02 -0.38656414510E+02  0.10848241149E+03  0.92716880390E+02 0.  0.
          5    1    3    3  502    0  0.28341106585E+02 -0.81014790975E+02 -0.97080638085E+02  0.12964851472E+03  0.41800000000E+01 0. -1.
         -5    1    3    3    0  502 -0.15754232343E+02  0.42037029257E+02 -0.65874039673E+02  0.79825867789E+02  0.41800000000E+01 0. -1.
        -11    1    4    4    0    0 -0.24678236144E+01  0.53410571058E+02  0.12042298027E+02  0.54806899164E+02  0.00000000000E+00 0. -1.
         11    1    4    4    0    0 -0.10119050628E+02 -0.14432809341E+02 -0.50698712537E+02  0.53675512331E+02  0.00000000000E+00 0.  1.
</event>
<event>
 8    1  0.6850220E-009  0.1155946E+03  0.7561462E-02  0.1250547E+00
         -1   -1    0    0    0  501 -0.00000000000E+00  0.00000000000E+00  0.27189061434E+02  0.27189061434E+02  0.00000000000E+00 0.  1.
          1   -1    0    0  501    0  0.00000000000E+00 -0.00000000000E+00 -0.56451030981E+03  0.56451030981E+03  0.00000000000E+00 0. -1.
         25    2    1    2    0    0  0.17915736781E+01 -0.53126478669E+02 -0.23285266701E+03  0.26961711002E+03  0.12508952398E+03 0.  0.
         23    2    1    2    0    0 -0.17915736781E+01  0.53126478669E+02 -0.30446858137E+03  0.32208226122E+03  0.90610338726E+02 0.  0.
          5    1    3    3  502    0 -0.88535509311E+01  0.40363174924E+02 -0.78048335198E+02  0.88411460123E+02  0.41800000000E+01 0.  1.
         -5    1    3    3    0  502  0.10645124609E+02 -0.93489653593E+02 -0.15480433181E+03  0.18120564990E+03  0.41800000000E+01 0.  1.
        -11    1    4    4    0    0 -0.38381617267E+02  0.42716572601E+02 -0.11171889421E+03  0.12561435205E+03  0.00000000000E+00 0.  1.
         11    1    4    4    0    0  0.36590043589E+02  0.10409906068E+02 -0.19274968716E+03  0.19646790917E+03  0.00000000000E+00 0. -1.
</event>
<event>
 8    1  0.6850220E-009  0.1077445E+03  0.7561462E-02  0.1264805E+00
          1   -1    0    0  501    0  0.00000000000E+00  0.00000000000E+00  0.70367354080E+02  0.70367354080E+02  0.00000000000E+00 0. -1.
         -1   -1    0    0    0  501 -0.00000000000E+00 -0.00000000000E+00 -0.22929437005E+03  0.22929437005E+03  0.00000000000E+00 0.  1.
         25    2    1    2    0    0  0.15436419353E+02 -0.21130138086E+02 -0.25738478484E+02  0.13036950470E+03  0.12509585406E+03 0.  0.
         23    2    1    2    0    0 -0.15436419353E+02  0.21130138086E+02 -0.13318853749E+03  0.16929221943E+03  0.10117264089E+03 0.  0.
          5    1    3    3  502    0  0.61080831515E+02 -0.41988085094E+02 -0.29469001590E+02  0.79873410614E+02  0.41800000000E+01 0.  1.
         -5    1    3    3    0  502 -0.45644412162E+02  0.20857947008E+02  0.37305231056E+01  0.50496094083E+02  0.41800000000E+01 0.  1.
        -11    1    4    4    0    0 -0.16721630469E+02  0.54750762305E+02 -0.12036630349E+03  0.13328655564E+03  0.00000000000E+00 0.  1.
         11    1    4    4    0    0  0.12852111161E+01 -0.33620624219E+02 -0.12822233993E+02  0.36005663791E+02  0.00000000000E+00 0. -1.
</event>
<event>
 8    1  0.6850220E-009  0.2923015E+03  0.7561462E-02  0.1089154E+00
          2   -1    0    0  501    0  0.00000000000E+00  0.00000000000E+00  0.82539893882E+03  0.82539893882E+03  0.00000000000E+00 0. -1.
         -2   -1    0    0    0  501 -0.00000000000E+00 -0.00000000000E+00 -0.61372972306E+03  0.61372972306E+03  0.00000000000E+00 0.  1.
         25    2    1    2    0    0  0.16721900883E+03  0.23144857739E+03  0.75599734842E+03  0.81774709964E+03  0.12509071614E+03 0.  0.
         23    2    1    2    0    0 -0.16721900883E+03 -0.23144857739E+03 -0.54432813266E+03  0.62138156223E+03  0.91056515361E+02 0.  0.
          5    1    3    3  502    0  0.15759791785E+03  0.22854045952E+03  0.75748122936E+03  0.80676088810E+03  0.41800000000E+01 0.  1.
         -5    1    3    3    0  502  0.96210909816E+01  0.29081178741E+01 -0.14838809406E+01  0.10986211535E+02  0.41800000000E+01 0.  1.
        -11    1    4    4    0    0 -0.14367916438E+03 -0.23158480732E+03 -0.46871753162E+03  0.54219124828E+03  0.00000000000E+00 0. -1.
         11    1    4    4    0    0 -0.23539844446E+02  0.13622993079E+00 -0.75610601036E+02  0.79190313955E+02  0.00000000000E+00 0.  1.
</event>
<event>
 8    1  0.6850220E-009  0.1100834E+03  0.7561462E-02  0.1260416E+00
         -1   -1    0    0    0  501 -0.00000000000E+00  0.00000000000E+00  0.79724877650E+02  0.79724877650E+02  0.00000000000E+00 0.  1.
          1   -1    0    0  501    0  0.00000000000E+00 -0.00000000000E+00 -0.15783903670E+03  0.15783903670E+03  0.00000000000E+00 0. -1.
         25    2    1    2    0    0 -0.29735969091E+02 -0.12706656090E+02 -0.48653901140E+02  0.13806030179E+03  0.12509099834E+03 0.  0.
         23    2    1    2    0    0  0.29735969091E+02  0.12706656090E+02 -0.29460257913E+02  0.99503612566E+02  0.89372116181E+02 0.  0.
          5    1    3    3  502    0 -0.19362211907E+02  0.54069667786E+02 -0.39286606130E+02  0.69708923716E+02  0.41800000000E+01 0. -1.
         -5    1    3    3    0  502 -0.10373757184E+02 -0.66776323876E+02 -0.93672950106E+01  0.68351378072E+02  0.41800000000E+01 0. -1.
        -11    1    4    4    0    0  0.24396690479E+01 -0.37579932451E+02 -0.14580463347E+02  0.40383080857E+02  0.00000000000E+00 0.  1.
         11    1    4    4    0    0  0.27296300043E+02  0.50286588541E+02 -0.14879794566E+02  0.59120531709E+02  0.00000000000E+00 0. -1.
</event>
<event>
 8    1  0.6850220E-009  0.1860856E+03  0.7561462E-02  0.1162040E+00
          2   -1    0    0  501    0  0.00000000000E+00  0.00000000000E+00  0.10592637617E+04  0.10592637617E+04  0.00000000000E+00 0. -1.
         -2   -1    0    0    0  501 -0.00000000000E+00 -0.00000000000E+00 -0.48329353836E+02  0.48329353836E+02  0.00000000000E+00 0.  1.
         25    2    1    2    0    0  0.10742149816E+03 -0.12360400109E+03  0.79308501964E+03  0.81941957783E+03  0.12508904348E+03 0.  0.
         23    2    1    2    0    0 -0.10742149816E+03  0.12360400109E+03  0.21784938825E+03  0.28817353773E+03  0.93639225413E+02 0.  0.
          5    1    3    3  502    0  0.11847314531E+03 -0.12606354753E+03  0.56244254771E+03  0.58846155019E+03  0.41800000000E+01 0.  1.
         -5    1    3    3    0  502 -0.11051647158E+02  0.24595464341E+01  0.23064247193E+03  0.23095802764E+03  0.41800000000E+01 0.  1.
        -11    1    4    4    0    0 -0.38080806850E+01  0.70542196833E+02  0.64630216837E+02  0.95748461820E+02  0.00000000000E+00 0.  1.
         11    1    4    4    0    0 -0.10361341747E+03  0.53061804260E+02  0.15321917141E+03  0.19242507591E+03  0.00000000000E+00 0. -1.
</event>
<event>
 8    1  0.6850220E-009  0.1198961E+03  0.7561462E-02  0.1243269E+00
         -4   -1    0    0    0  501 -0.00000000000E+00  0.00000000000E+00  0.73138098000E+03  0.73138098000E+03  0.00000000000E+00 0.  1.
          4   -1    0    0  501    0  0.00000000000E+00 -0.00000000000E+00 -0.21083693089E+02  0.21083693089E+02  0.00000000000E+00 0. -1.
         25    2    1    2    0    0 -0.47792298883E+02  0.32512192797E+02  0.44430279110E+03  0.46518151811E+03  0.12509087939E+03 0.  0.
         23    2    1    2    0    0  0.47792298883E+02 -0.32512192797E+02  0.26599449582E+03  0.28728315498E+03  0.91855281911E+02 0.  0.
          5    1    3    3  502    0 -0.42386447189E+02  0.77743283767E+02  0.24073680736E+03  0.25653910402E+03  0.41800000000E+01 0. -1.
         -5    1    3    3    0  502 -0.54058516942E+01 -0.45231090970E+02  0.20356598374E+03  0.20864241409E+03  0.41800000000E+01 0. -1.
        -11    1    4    4    0    0  0.37414664539E+02 -0.62957758765E+02  0.21356435666E+03  0.22577260894E+03  0.00000000000E+00 0.  1.
         11    1    4    4    0    0  0.10377634344E+02  0.30445565969E+02  0.52430139155E+02  0.61510546035E+02  0.00000000000E+00 0. -1.
</event>
<event>
 8    1  0.6850220E-009  0.1067379E+03  0.7561462E-02  0.1266733E+00
         -1   -1    0    0    0  501 -0.00000000000E+00  0.00000000000E+00  0.39782761713E+02  0.39782761713E+02  0.00000000000E+00 0.  1.
          1   -1    0    0  501    0  0.00000000000E+00 -0.00000000000E+00 -0.30089834305E+03  0.30089834305E+03  0.00000000000E+00 0. -1.
         25    2    1    2    0    0 -0.39843748552E+01 -0.99332966249E+01 -0.13434229920E+03  0.18387423832E+03  0.12508931425E+03 0.  0.
         23    2    1    2    0    0  0.39843748552E+01  0.99332966249E+01 -0.12677328215E+03  0.15680686645E+03  0.91664511531E+02 0.  0.
          5    1    3    3  502    0 -0.60380467293E+02  0.10512947618E+02 -0.44874660860E+02  0.76075820636E+02  0.41800000000E+01 0. -1.
         -5    1    3    3    0  502  0.56396092438E+02 -0.20446244243E+02 -0.89467638335E+02  0.10779841768E+03  0.41800000000E+01 0. -1.
        -11    1    4    4    0    0 -0.31455870768E+02 -0.26465787987E+02 -0.63787397340E+02  0.75886374264E+02  0.00000000000E+00 0. -1.
         11    1    4    4    0    0  0.35440245623E+02  0.36399084612E+02 -0.62985884806E+02  0.80920492183E+02  0.00000000000E+00 0.  1.
</event>
<event>
 8    1  0.6850220E-009  0.1114833E+03  0.7561462E-02  0.1257847E+00
          2   -1    0    0  501    0  0.00000000000E+00  0.00000000000E+00  0.18293466199E+03  0.18293466199E+03  0.00000000000E+00 0. -1.
         -2   -1    0    0    0  501 -0.00000000000E+00 -0.00000000000E+00 -0.92308523921E+02  0.92308523921E+02  0.00000000000E+00 0.  1.
         25    2    1    2    0    0 -0.35686858964E+02 -0.43108731623E+02  0.99441286708E+02  0.16931909807E+03  0.12509385606E+03 0.  0.
         23    2    1    2    0    0  0.35686858964E+02  0.43108731623E+02 -0.88151486429E+01  0.10592408783E+03  0.89500228452E+02 0.  0.
          5    1    3    3  502    0 -0.69958799894E+02  0.11319126473E+02  0.39200767905E+02  0.81095800822E+02  0.41800000000E+01 0. -1.
         -5    1    3    3    0  502  0.34271940930E+02 -0.54427858096E+02  0.60240518802E+02  0.88223297250E+02  0.41800000000E+01 0. -1.
        -11    1    4    4    0    0  0.11005124360E+02 -0.18290193129E+02  0.23950580741E+02  0.32082304230E+02  0.00000000000E+00 0. -1.
         11    1    4    4    0    0  0.24681734604E+02  0.61398924752E+02 -0.32765729384E+02  0.73841783604E+02  0.00000000000E+00 0.  1.
</event>
<event>
 8    1  0.6850220E-009  0.1073486E+03  0.7561462E-02  0.1265560E+00
          2   -1    0    0  501    0  0.00000000000E+00  0.00000000000E+00  0.28030774721E+03  0.28030774721E+03  0.00000000000E+00 0. -1.
         -2   -1    0    0    0  501 -0.00000000000E+00 -0.00000000000E+00 -0.55346170176E+02  0.55346170176E+02  0.00000000000E+00 0.  1.
         25    2    1    2    0    0 -0.31629479416E+02  0.12026496917E+02  0.57574953684E+02  0.14179896831E+03  0.12508801512E+03 0.  0.
         23    2    1    2    0    0  0.31629479416E+02 -0.12026496917E+02  0.16738662335E+03  0.19385494908E+03  0.91740934201E+02 0.  0.
          5    1    3    3  502    0 -0.24128963455E+02 -0.50616747284E+02 -0.81369163240E-01  0.56229360693E+02  0.41800000000E+01 0. -1.
         -5    1    3    3    0  502 -0.75005159607E+01  0.62643244201E+02  0.57656322847E+02  0.85569607618E+02  0.41800000000E+01 0. -1.
        -11    1    4    4    0    0  0.53949870947E+02 -0.34119470735E+02  0.90005357722E+02  0.11034351488E+03  0.00000000000E+00 0.  1.
         11    1    4    4    0    0 -0.22320391531E+02  0.22092973819E+02  0.77381265632E+02  0.83511434194E+02  0.00000000000E+00 0. -1.
</event>
